Membrane in water
40167
    1TCq1    O1    1   4.463   3.896  10.734 -0.0552  0.1418  0.3090
    1TCq1    C1    2   4.586   3.936  10.760 -0.1430 -0.0388 -0.9354
    1TCq1    O2    3   4.666   3.954  10.664 -0.3332 -0.0059  0.6323
    1TCq1    C2    4   4.602   3.972  10.904 -0.9598  0.3689 -0.0430
    1TCq1    C3    5   4.689   4.072  10.933 -0.4003 -0.1865  0.5940
    1TCq1    C4    6   0.005   4.086  11.066  0.2363 -0.2855 -0.1228
    1TCq1    C5    7   4.684   4.000  11.161  0.0106  0.3952  0.2041
    1TCq1    C6    8   4.601   3.897  11.130  0.2249 -0.5184 -0.4691
    1TCq1    C7    9   4.557   3.886  11.000  0.5445  0.2396  0.2824
    1TCq1    C8   10   4.530   3.816  11.233  0.0760 -0.2517 -0.1480
    1TCq1    O4   11   4.428   3.755  11.198 -0.7808  0.0292  0.3671
    1TCq1    C9   12   0.121   4.168  11.098 -0.5971  0.5503 -0.6107
    1TCq1    O5   13   0.186   4.213  11.002 -0.5747  0.2694  0.0695
    1TCq1    O6   14   0.133   4.204  11.219  0.1225  0.2415  0.0602
    1TCq1    H1   15   4.406   3.905  10.813 -0.0273 -0.8047  0.4336
    1TCq1    H2   16   0.003   4.141  10.859 -1.2456 -0.5829 -0.2010
    1TCq1    H3   17   0.008   4.000  11.258  1.1226 -3.3305 -0.3485
    1TCq1    H4   18   4.497   3.801  10.970  1.4056 -0.3615  0.2538
    2MPD2     C   19   4.498   3.678  11.731  0.2652  0.1501 -0.0218
    2MPD2    C1   20   4.401   3.694  11.634 -0.2115  0.3007  0.3251
    2MPD2    C2   21   4.440   3.727  11.505  0.1706 -0.0291 -0.1261
    2MPD2    C3   22   4.568   3.762  11.475  0.2591 -0.2287  0.1427
    2MPD2    C4   23   4.664   3.752  11.577  0.5662 -0.3126  0.1845
    2MPD2    C5   24   4.628   3.703  11.698 -0.1866 -0.4232  0.3966
    2MPD2     H   25   4.368   3.746  11.427 -0.2760 -0.4421  0.1843
    2MPD2    H1   26   0.045   3.778  11.565  0.0824  1.6636  0.1506
    2MPD2    H2   27   4.474   3.658  11.835 -2.4147  4.2420  0.1145
    2MPD2    H3   28   4.700   3.689  11.778 -0.4988 -1.0921  0.5613
    2MPD2     N   29   4.603   3.811  11.348 -0.1598  0.2413  0.0177
    2MPD2    H5   30   4.701   3.838  11.345 -0.3420  0.9729  0.5776
    2MPD2    N1   31   4.260   3.692  11.652 -0.4328 -0.4113 -0.0055
    2MPD2    H7   32   4.203   3.732  11.578  0.5004  2.1175  0.6573
    3TCq1    O1   33   3.076   3.192  10.978  0.1893 -0.1462 -0.3688
    3TCq1    C1   34   3.207   3.222  10.996  0.5525 -1.2644  0.0784
    3TCq1    O2   35   3.291   3.152  10.940  0.2462 -0.3199  0.6342
    3TCq1    C2   36   3.226   3.362  11.027  0.5943  0.1616  0.2556
    3TCq1    C3   37   3.322   3.424  10.956 -0.5032  0.6454 -0.3963
    3TCq1    C4   38   3.351   3.553  10.984 -0.1118  0.5779 -0.1598
    3TCq1    C5   39   3.271   3.622  11.065  0.6119 -0.1149 -0.3787
    3TCq1    C6   40   3.169   3.557  11.139  0.5681 -0.0729 -0.3250
    3TCq1    C7   41   3.150   3.426  11.121 -0.8919  0.0005  0.4681
    3TCq1    C8   42   3.076   3.624  11.231 -0.1982  0.0869 -0.3866
    3TCq1    O4   43   3.002   3.556  11.301 -0.0616 -0.4663 -0.0922
    3TCq1    C9   44   3.430   3.629  10.894  0.3173  0.1342  0.2206
    3TCq1    O5   45   3.405   3.750  10.895 -0.0165 -0.2730 -0.4623
    3TCq1    O6   46   3.508   3.566  10.814  0.7055 -0.1411  0.0805
    3TCq1    H1   47   3.008   3.248  11.022  0.1312  0.0143 -0.6642
    3TCq1    H2   48   3.375   3.367  10.881  0.5692  1.2303 -0.0910
    3TCq1    H3   49   3.297   3.725  11.088  0.3063  0.2042 -1.4346
    3TCq1    H4   50   3.070   3.379  11.177 -1.2425  0.5766  0.4535
    4MPD2     C   51   2.835   4.061  11.375  0.2509 -0.5464  0.8316
    4MPD2    C1   52   2.921   4.086  11.276 -0.2773  0.4110  0.3186
    4MPD2    C2   53   2.988   3.977  11.216  0.2850  0.4055 -0.2050
    4MPD2    C3   54   2.990   3.853  11.274 -0.2977 -1.0260 -0.4700
    4MPD2    C4   55   2.908   3.824  11.381  0.1044 -0.0383  0.3548
    4MPD2    C5   56   2.825   3.930  11.421 -0.5212  0.2639 -0.0113
    4MPD2     H   57   3.053   3.997  11.131 -1.3260  2.8279 -0.8573
    4MPD2    H1   58   2.885   3.727  11.425  1.2653  0.3762  1.8882
    4MPD2    H2   59   2.787   4.144  11.425 -0.2324  0.3225 -1.0634
    4MPD2    H3   60   2.753   3.912  11.500 -1.7847 -1.8034 -1.6169
    4MPD2     N   61   3.074   3.759  11.210 -0.5999 -0.0983 -0.6301
    4MPD2    H5   62   3.135   3.792  11.136  0.5418 -0.4171  0.1613
    4MPD2    N1   63   2.931   4.212  11.205  0.1609  0.0503 -0.6654
    4MPD2    H7   64   2.987   4.210  11.120  1.3902 -1.0083  0.1729
    5TCq1    O1   65   2.490   0.481  10.765  0.3768  0.1097  1.0081
    5TCq1    C1   66   2.559   0.552  10.861  0.3506  0.1847  0.6011
    5TCq1    O2   67   2.626   0.504  10.953 -0.2352 -0.0313  0.1784
    5TCq1    C2   68   2.573   0.690  10.810 -0.0051  0.2143 -0.1695
    5TCq1    C3   69   2.482   0.750  10.723 -0.0664 -0.1967  0.2575
    5TCq1    C4   70   2.505   0.880  10.679  0.4468  0.1969 -0.2958
    5TCq1    C5   71   2.617   0.952  10.716 -0.3346 -0.4183 -0.2849
    5TCq1    C6   72   2.705   0.887  10.801  0.0456 -0.6251  0.7480
    5TCq1    C7   73   2.678   0.764  10.855 -0.0961 -0.3366  0.1234
    5TCq1    C8   74   2.846   0.927  10.810 -0.5850  0.6122  0.6073
    5TCq1    O4   75   2.931   0.838  10.818 -0.6213  0.0019  0.0781
    5TCq1    C9   76   2.415   0.943  10.584 -0.2050  0.7681  0.1674
    5TCq1    O5   77   2.315   0.879  10.546 -0.4630  0.1513  0.1219
    5TCq1    O6   78   2.438   1.062  10.550  0.3342  0.4527 -0.3982
    5TCq1    H1   79   2.499   0.529  10.680 -2.2901  0.8997  1.1745
    5TCq1    H2   80   2.408   0.688  10.673  0.3234  0.1975 -0.8203
    5TCq1    H3   81   2.642   1.043  10.663 -0.5675 -0.2102 -0.0354
    5TCq1    H4   82   2.749   0.708  10.915  0.0355 -0.6236 -0.3027
    6MPD2     C   83   2.984   1.281  10.802  0.0067  0.1476  0.0197
    6MPD2    C1   84   2.985   1.140  10.792  0.0377 -0.5228  0.2318
    6MPD2    C2   85   3.103   1.071  10.781  0.3033  0.7648  0.3063
    6MPD2    C3   86   3.216   1.145  10.762 -0.2650 -0.8506  0.0193
    6MPD2    C4   87   3.219   1.284  10.771  0.2216  0.4425  0.5542
    6MPD2    C5   88   3.101   1.355  10.785  0.2112 -0.8108  0.0857
    6MPD2     H   89   3.108   0.965  10.762  0.3814  1.2477 -2.3625
    6MPD2    H1   90   3.310   1.340  10.752  0.0878  0.8327  1.0464
    6MPD2    H2   91   2.896   1.341  10.821  1.6857  2.6196 -0.1191
    6MPD2    H3   92   3.098   1.463  10.784  1.5390 -0.7964 -1.9622
    6MPD2     N   93   3.332   1.069  10.728 -0.0505 -0.9350 -0.4668
    6MPD2    H5   94   3.312   0.970  10.728 -0.9800 -0.7547 -3.0867
    6MPD2    N1   95   2.861   1.067  10.793  0.4950 -0.7316  0.1602
    6MPD2    H7   96   2.785   1.133  10.790  0.2049 -1.0580  0.3040
    7TCq1    O1   97   1.268   0.312  12.841 -0.0221  0.1938  0.1502
    7TCq1    C1   98   1.160   0.244  12.892  0.3793 -0.3006  0.5397
    7TCq1    O2   99   1.097   0.158  12.832  0.3100  0.2660 -0.1067
    7TCq1    C2  100   1.119   0.304  13.018  1.0436 -0.0115  0.2860
    7TCq1    C3  101   1.186   0.418  13.060 -0.0402  0.2929 -0.6673
    7TCq1    C4  102   1.148   0.455  13.189  0.4775  0.6105 -0.1578
    7TCq1    C5  103   1.057   0.394  13.265 -0.1951  0.3775 -0.2917
    7TCq1    C6  104   0.993   0.280  13.215 -0.3736 -0.5549 -0.2573
    7TCq1    C7  105   1.027   0.237  13.093  0.4690 -0.0566 -0.1952
    7TCq1    C8  106   0.918   0.185  13.301 -0.0138 -0.3861  0.3591
    7TCq1    O4  107   0.892   0.076  13.249 -0.4160 -0.4139 -0.6309
    7TCq1    C9  108   1.201   0.577  13.241 -0.2341  0.1922  0.0690
    7TCq1    O5  109   1.143   0.623  13.339  0.0598 -0.2556  0.3739
    7TCq1    O6  110   1.304   0.624  13.178  0.1640  0.6642  0.5275
    7TCq1    H1  111   1.304   0.384  12.897 -3.1203  0.8779  1.2191
    7TCq1    H2  112   1.253   0.486  13.009  0.1339  0.3594 -0.3498
    7TCq1    H3  113   1.053   0.435  13.366  0.3689  2.0711 -0.9695
    7TCq1    H4  114   0.966   0.158  13.050 -1.1333  1.3740 -0.5548
    8MPD2     C  115   0.896   0.029  13.785 -0.4875 -0.0987  1.0827
    8MPD2    C1  116   0.892   4.681  13.666  0.6621  0.0233 -0.8043
    8MPD2    C2  117   0.870   0.028  13.549 -0.1522 -0.5022 -0.0237
    8MPD2    C3  118   0.885   0.163  13.549  0.6745  0.2059  0.6550
    8MPD2    C4  119   0.884   0.230  13.666 -0.5649 -0.3198  0.4334
    8MPD2    C5  120   0.888   0.163  13.785 -0.0019  0.0109  0.0672
    8MPD2     H  121   0.850   4.697  13.457  0.3094 -0.5612 -0.0886
    8MPD2    H1  122   0.880   0.339  13.665  4.0679 -0.1309 -0.2968
    8MPD2    H2  123   0.914   4.705  13.881  0.9590 -2.1049 -0.1747
    8MPD2    H3  124   0.890   0.206  13.885 -0.9276 -0.9291  0.4870
    8MPD2     N  125   0.913   0.234  13.428  0.1403  0.7228  0.2136
    8MPD2    H5  126   0.941   0.331  13.439  1.0178  0.3725  1.0917
    8MPD2    N1  127   0.935   4.544  13.658  0.1090  0.8497  0.1138
    8MPD2    H7  128   0.995   4.518  13.736  0.5917 -1.5133 -1.0494
    9TCq1    O1  129   4.577   4.320  10.783 -0.3261  0.5556  0.7733
    9TCq1    C1  130   4.513   4.319  10.904 -0.3804  0.4827  0.0977
    9TCq1    O2  131   4.411   4.260  10.929  0.4853  0.0669  0.0248
    9TCq1    C2  132   4.554   4.433  10.977  0.8432 -0.5823  0.1281
    9TCq1    C3  133   4.685   4.473  10.982  0.0814 -0.1845 -0.3014
    9TCq1    C4  134   4.714   4.589  11.052 -0.0521  0.0198 -0.5531
    9TCq1    C5  135   4.612   4.667  11.110  0.2373 -0.4959 -0.0538
    9TCq1    C6  136   4.491   4.620  11.106  0.0611  0.4033  0.0897
    9TCq1    C7  137   4.458   4.499  11.045  0.8645 -0.4435 -0.2063
    9TCq1    C8  138   4.385   4.722  11.119  1.0106  0.2874 -0.1975
    9TCq1    O4  139   4.414   0.121  11.120  0.3479 -0.1311 -0.7807
    9TCq1    C9  140   0.128   4.647  11.047  0.7309  0.1050  0.4290
    9TCq1    O5  141   0.140   0.026  11.119  0.1206 -0.3876 -0.1019
    9TCq1    O6  142   0.220   4.578  11.000 -0.7984 -0.1610  0.0986
    9TCq1    H1  143   4.624   4.406  10.775 -0.2079  0.3066 -1.1685
    9TCq1    H2  144   0.044   4.418  10.940  0.9281 -0.8218  2.2105
    9TCq1    H3  145   4.647   0.037  11.151 -0.6808 -0.2549  0.1547
    9TCq1    H4  146   4.359   4.455  11.045  0.9582 -0.6794 -1.7594
   10MPD2     C  147   4.133   0.160  11.137 -0.0832  0.3638  0.0144
   10MPD2    C1  148   4.140   0.019  11.160 -0.0348  0.8619  0.4733
   10MPD2    C2  149   4.026   4.668  11.202  0.6289 -0.3799 -0.3022
   10MPD2    C3  150   3.900   0.004  11.208 -0.1609  0.3075 -0.1372
   10MPD2    C4  151   3.894   0.136  11.175  0.5960 -0.8218 -1.0659
   10MPD2    C5  152   4.009   0.211  11.144  0.4002 -0.2354  0.7961
   10MPD2     H  153   4.035   4.564  11.231 -0.6512 -1.0246 -2.1909
   10MPD2    H1  154   3.804   0.193  11.194  2.0846  0.8151  1.0377
   10MPD2    H2  155   4.217   0.221  11.106  1.1707 -1.1957  0.3450
   10MPD2    H3  156   4.002   0.319  11.135 -0.7933 -0.4425 -0.7634
   10MPD2     N  157   3.782   4.673  11.267  0.5182  0.0987 -0.1685
   10MPD2    H5  158   3.702   0.009  11.282 -1.5062 -1.9929 -2.5678
   10MPD2    N1  159   4.258   4.668  11.145  0.8460  0.4158 -0.1545
   10MPD2    H7  160   4.255   4.567  11.157  1.1304  0.3330 -0.7555
   11TCq1    O1  161   0.547   4.052  13.891  0.4046  0.1938  0.2646
   11TCq1    C1  162   0.425   4.078  13.937  0.2839 -0.2420 -0.3522
   11TCq1    O2  163   0.325   4.098  13.871  0.1143 -0.1992 -0.2285
   11TCq1    C2  164   0.421   4.060  14.076  0.4007 -0.6432 -0.9994
   11TCq1    C3  165   0.516   4.132  14.157  0.0866 -0.2497  0.4730
   11TCq1    C4  166   0.489   4.179  14.284 -0.1153 -0.7594 -0.3389
   11TCq1    C5  167   0.375   4.145  14.340 -0.4441 -0.8674 -0.4075
   11TCq1    C6  168   0.280   4.083  14.266 -0.1438 -0.0530 -0.0030
   11TCq1    C7  169   0.293   4.042  14.138 -0.1348 -0.2872  0.3068
   11TCq1    C8  170   0.154   4.076  14.328 -0.5246  0.0673 -0.0052
   11TCq1    O4  171   0.105   4.173  14.384  0.1475  0.1936  0.4724
   11TCq1    C9  172   0.590   4.250  14.356  0.0708 -0.4661 -0.9419
   11TCq1    O5  173   0.698   4.267  14.299 -0.2873  0.8130 -0.2501
   11TCq1    O6  174   0.543   4.329  14.444  0.0290  0.3188  0.4684
   11TCq1    H1  175   0.607   4.031  13.965 -0.8066 -0.0614  1.1781
   11TCq1    H2  176   0.607   4.159  14.103 -0.4880 -0.4694 -0.6073
   11TCq1    H3  177   0.355   4.163  14.445  0.9472  0.8499 -0.4376
   11TCq1    H4  178   0.211   4.011  14.074 -0.3683  0.0107  0.4599
   12MPD2     C  179   4.605   3.986  14.418  0.4182  0.7048 -0.2315
   12MPD2    C1  180   4.680   3.931  14.313  0.8740 -0.2942 -0.3799
   12MPD2    C2  181   4.625   3.829  14.239  0.3681  0.6178 -0.9238
   12MPD2    C3  182   4.501   3.774  14.256  0.2398  0.9631 -0.0469
   12MPD2    C4  183   4.429   3.831  14.357  0.2971 -0.1726 -0.0844
   12MPD2    C5  184   4.486   3.925  14.436  0.3740 -0.2885  0.2585
   12MPD2     H  185   4.690   3.778  14.168 -0.8527 -0.0314 -1.5647
   12MPD2    H1  186   4.339   3.786  14.397 -0.2038  0.4603 -0.5052
   12MPD2    H2  187   4.636   4.055  14.496  1.4026 -0.5890  0.5112
   12MPD2    H3  188   4.428   3.950  14.524 -1.2045 -2.0700 -0.2653
   12MPD2     N  189   4.449   3.677  14.167 -0.1611  0.5290  0.1578
   12MPD2    H5  190   4.512   3.638  14.096 -1.0727  1.8981 -1.3944
   12MPD2    N1  191   0.089   3.970  14.279  0.3991  0.1398 -0.0621
   12MPD2    H7  192   0.144   3.906  14.222  0.0127 -0.4995  0.2760
   13TCq1    O1  193   4.225   4.009  11.353  0.0261 -0.5295  0.1651
   13TCq1    C1  194   4.136   3.907  11.363  0.1925 -0.6568 -0.1588
   13TCq1    O2  195   4.125   3.819  11.451 -0.4757  0.3940 -0.2729
   13TCq1    C2  196   4.063   3.905  11.236  0.6791 -0.0943  0.1542
   13TCq1    C3  197   4.140   3.895  11.126 -0.4512 -0.0761  0.1812
   13TCq1    C4  198   4.078   3.858  11.015  0.5936  0.3968 -0.0281
   13TCq1    C5  199   3.943   3.812  11.011 -0.5109  0.2758 -0.6600
   13TCq1    C6  200   3.880   3.811  11.127  0.6251  0.1720  0.2951
   13TCq1    C7  201   3.935   3.860  11.243  0.0992 -0.1479  0.1397
   13TCq1    C8  202   3.760   3.730  11.140 -0.8111  0.3711 -0.6856
   13TCq1    O4  203   3.734   3.648  11.054 -0.1591 -0.8053 -0.2893
   13TCq1    C9  204   4.142   3.851  10.887  0.5962  0.3126 -0.8380
   13TCq1    O5  205   4.062   3.863  10.788 -0.6990 -0.0422  0.3977
   13TCq1    O6  206   4.262   3.891  10.879  0.0295  0.0753  0.0067
   13TCq1    H1  207   4.211   4.057  11.268  1.5930  0.6328  0.5770
   13TCq1    H2  208   4.243   3.926  11.115  0.1577 -2.2110 -0.2174
   13TCq1    H3  209   3.905   3.760  10.924 -0.4727 -1.3265  0.2784
   13TCq1    H4  210   3.880   3.862  11.336 -1.3168 -1.3840 -0.6686
   14MPD2     C  211   3.545   3.576  11.281  0.2646  0.5299 -0.6156
   14MPD2    C1  212   3.568   3.710  11.295 -0.3148 -0.3879 -0.1583
   14MPD2    C2  213   3.477   3.785  11.373  1.4156 -0.2085 -0.1976
   14MPD2    C3  214   3.377   3.726  11.444  0.2502  0.2667 -0.3476
   14MPD2    C4  215   3.359   3.588  11.436  0.6396 -0.4532 -0.4945
   14MPD2    C5  216   3.441   3.519  11.352  0.1024  0.4959 -0.5018
   14MPD2     H  217   3.495   3.889  11.399  1.0327 -0.2455  0.2338
   14MPD2    H1  218   3.284   3.532  11.490 -2.7311  4.3194 -0.2641
   14MPD2    H2  219   3.617   3.519  11.224  1.8949 -0.8692  2.8190
   14MPD2    H3  220   3.425   3.412  11.341  1.8036  0.2197 -0.2277
   14MPD2     N  221   3.288   3.812  11.522  0.3497 -0.5378 -0.2569
   14MPD2    H5  222   3.289   3.912  11.510 -2.1731 -0.5600 -0.7052
   14MPD2    N1  223   3.678   3.781  11.238 -0.2816  0.7444 -0.3278
   14MPD2    H7  224   3.696   3.880  11.254  3.0612 -0.1495  1.4478
   15TCq1    O1  225   0.648   3.268   1.697 -0.4180  0.1713 -0.1518
   15TCq1    C1  226   0.763   3.222   1.641 -0.1599  0.5466 -0.5474
   15TCq1    O2  227   0.864   3.188   1.697 -0.2022  0.3756  0.2458
   15TCq1    C2  228   0.712   3.159   1.516  0.4235  0.0232  0.0091
   15TCq1    C3  229   0.635   3.233   1.433  0.4510  0.0185  0.1701
   15TCq1    C4  230   0.616   3.197   1.299 -0.2397  0.2245 -0.4270
   15TCq1    C5  231   0.666   3.079   1.253  0.1321 -0.1993  0.0525
   15TCq1    C6  232   0.740   3.005   1.338 -0.4069 -0.2444  0.0608
   15TCq1    C7  233   0.775   3.044   1.466 -0.4146 -0.4293 -0.1017
   15TCq1    C8  234   0.783   2.873   1.292 -0.4268  0.0148  0.2789
   15TCq1    O4  235   0.844   2.804   1.373 -0.2790  0.3042  0.3813
   15TCq1    C9  236   0.515   3.275   1.219 -0.2567 -0.3379  0.5057
   15TCq1    O5  237   0.472   3.385   1.265  0.0764 -0.0478  0.5284
   15TCq1    O6  238   0.469   3.222   1.113 -0.1344  0.1276 -0.6150
   15TCq1    H1  239   0.572   3.257   1.637 -0.3844  3.0912 -0.7304
   15TCq1    H2  240   0.590   3.324   1.471  0.9429  0.5670 -0.5362
   15TCq1    H3  241   0.637   3.053   1.152  0.0857 -1.9570  0.5254
   15TCq1    H4  242   0.839   2.985   1.530  0.9421  0.3920 -0.6948
   16MPD2     C  243   0.874   2.800   0.941 -0.2407 -0.2320 -0.8730
   16MPD2    C1  244   0.849   2.769   1.071  0.0814  0.3952 -0.3240
   16MPD2    C2  245   0.866   2.643   1.116 -0.6416 -0.4048 -0.3700
   16MPD2    C3  246   0.912   2.537   1.032  0.8139  0.2098  0.4037
   16MPD2    C4  247   0.939   2.566   0.899  0.2979 -0.5921 -0.3996
   16MPD2    C5  248   0.916   2.692   0.858  0.0350 -0.8471  0.3597
   16MPD2     H  249   0.854   2.618   1.221 -2.8991 -0.5912 -0.6560
   16MPD2    H1  250   0.964   2.500   0.816 -0.8341 -1.1105 -0.3262
   16MPD2    H2  251   0.851   2.896   0.896  0.0542  1.0714  1.7501
   16MPD2    H3  252   0.921   2.705   0.751  2.4736 -0.9869  0.4727
   16MPD2     N  253   0.949   2.411   1.081  0.1377 -0.2408 -0.0999
   16MPD2    H5  254   0.933   2.393   1.180 -1.3048  0.6861 -0.1658
   16MPD2    N1  255   0.800   2.877   1.153  0.6568  0.3234  0.0030
   16MPD2    H7  256   0.786   2.962   1.099  0.0125  0.0364 -0.2901
   17TCq1    O1  257   3.387   2.810  11.232  0.1877 -0.2431 -0.6946
   17TCq1    C1  258   3.376   2.945  11.241  0.0853  0.7054  0.4347
   17TCq1    O2  259   3.309   3.013  11.316  0.2369  0.6581 -0.4390
   17TCq1    C2  260   3.470   3.012  11.151  0.0615 -0.5334  0.2829
   17TCq1    C3  261   3.508   2.961  11.033  0.6133  0.3673  0.4171
   17TCq1    C4  262   3.607   3.022  10.967  0.0064 -0.2557 -0.1819
   17TCq1    C5  263   3.692   3.112  11.030  0.2939  0.0242  0.0272
   17TCq1    C6  264   3.659   3.160  11.151 -0.4177 -0.6164  0.6817
   17TCq1    C7  265   3.539   3.117  11.216  0.4338 -0.3083 -0.7859
   17TCq1    C8  266   3.729   3.262  11.227 -0.0863  0.4772 -0.0621
   17TCq1    O4  267   3.691   3.281  11.341 -0.1122 -0.0765 -0.4299
   17TCq1    C9  268   3.641   2.976  10.832 -0.7265 -0.2792  0.3861
   17TCq1    O5  269   3.550   2.909  10.773  0.1579 -0.0051  0.0715
   17TCq1    O6  270   3.732   3.039  10.769  0.1036 -0.0045 -0.1784
   17TCq1    H1  271   3.453   2.772  11.170  0.1391 -0.4941 -0.5950
   17TCq1    H2  272   3.446   2.888  10.981  2.7057 -1.3465  0.3243
   17TCq1    H3  273   3.780   3.133  10.970  1.1762 -0.6671  1.0798
   17TCq1    H4  274   3.501   3.130  11.317 -0.6003 -0.9086 -1.0971
   18MPD2     C  275   3.942   3.429  11.335 -0.1150 -0.1972  0.0211
   18MPD2    C1  276   3.938   3.395  11.201  0.0359 -0.1163 -0.6726
   18MPD2    C2  277   4.043   3.433  11.117  0.0431 -0.3893  0.6299
   18MPD2    C3  278   4.153   3.512  11.156 -0.5229 -1.2120 -0.2652
   18MPD2    C4  279   4.152   3.538  11.290 -0.2158  0.2592  0.6419
   18MPD2    C5  280   4.055   3.499  11.373  0.1224 -0.1044  0.2682
   18MPD2     H  281   4.032   3.402  11.013  0.0487  0.0274  0.5065
   18MPD2    H1  282   4.244   3.580  11.330 -0.5616  0.5295  1.1626
   18MPD2    H2  283   3.878   3.391  11.414 -0.1065 -1.2780 -0.4795
   18MPD2    H3  284   4.070   3.517  11.479  0.7409  0.7441  0.0326
   18MPD2     N  285   4.267   3.532  11.077  0.5278 -0.3732 -0.1678
   18MPD2    H5  286   4.345   3.585  11.114 -0.0595 -0.1633  0.7749
   18MPD2    N1  287   3.835   3.316  11.153 -0.5703  0.4179 -0.4201
   18MPD2    H7  288   3.839   3.295  11.053  2.3306  3.2286 -0.9056
   19TMC2    C1  289   0.618   3.431  13.852 -0.4580  0.3299 -0.0685
   19TMC2    C2  290   0.557   3.439  13.730  0.5596  0.2449  0.3727
   19TMC2    C3  291   0.425   3.395  13.732 -0.1236  0.2698  0.4982
   19TMC2    C4  292   0.562   3.408  13.975 -1.0467 -0.0079  0.1562
   19TMC2    C5  293   0.427   3.379  13.967  0.1214 -0.1060  1.2658
   19TMC2    C6  294   0.357   3.379  13.849 -1.3166  0.1035  0.3301
   19TMC2     C  295   0.761   3.451  13.844  0.4072 -0.7376  0.7816
   19TMC2     O  296   0.799   3.502  13.737  0.1433  0.9498  0.2553
   19TMC2     H  297   0.612   3.427  13.638 -2.4944  2.1604 -1.7052
   19TMC2    H1  298   0.626   3.399  14.062 -0.4087 -1.3842 -0.4485
   19TMC2    H2  299   0.252   3.353  13.847 -0.9250 -1.6658  2.4807
   19TMC2    C7  300   0.358   3.340  14.085  0.9587  0.1574 -0.1716
   19TMC2    C8  301   0.358   3.396  13.605  0.3384  0.9569 -0.3885
   19TMC2    O1  302   0.253   3.283  14.068  0.1222  0.1907  0.4323
   19TMC2    O2  303   0.414   3.387  13.500 -0.0422  0.1129 -0.0508
   19TMC2    O5  304   0.245   3.458  13.630 -0.1471  0.1819  0.1475
   19TMC2    H5  305   0.228   3.487  13.722  0.0093  1.8018 -0.3330
   20MPD2     C  306   1.053   3.510  13.910  0.2045  0.4307  0.4103
   20MPD2    C1  307   0.961   3.444  13.995  0.2335 -0.1845 -0.0861
   20MPD2    C2  308   1.005   3.386  14.116  0.6234 -0.4881 -0.4017
   20MPD2    C3  309   1.138   3.412  14.158 -0.3993 -0.2107 -0.7582
   20MPD2    C4  310   1.218   3.487  14.076 -0.2363  0.1935 -0.4868
   20MPD2    C5  311   1.181   3.535  13.957  0.6382  0.5437 -0.4234
   20MPD2     H  312   0.932   3.335  14.177  2.4613 -0.7545  1.5700
   20MPD2    H1  313   1.313   3.528  14.109 -0.4290 -0.7423  1.2215
   20MPD2    H2  314   1.027   3.564  13.820  0.5762  0.0132  0.0533
   20MPD2    H3  315   1.243   3.591  13.887  1.7766  0.1861  0.2895
   20MPD2     N  316   1.190   3.361  14.278  0.2773 -0.2453 -0.0499
   20MPD2    H5  317   1.286   3.387  14.299 -0.6951  3.7077 -0.4121
   20MPD2    N1  318   0.831   3.415  13.960 -0.4082  0.2918 -0.7556
   20MPD2    H7  319   0.774   3.365  14.028  1.3100 -0.7253 -0.0506
   21MPD2     C  320   3.023   4.200  14.288 -0.8405  0.0257 -0.2283
   21MPD2    C1  321   3.109   4.115  14.220 -0.0534 -0.3321  0.1437
   21MPD2    C2  322   3.077   4.066  14.098 -0.2509  0.6095 -0.8560
   21MPD2    C3  323   2.966   4.108  14.030  0.1107  0.8706 -0.7042
   21MPD2    C4  324   2.883   4.195  14.096  0.0497  0.0985  0.5325
   21MPD2    C5  325   2.906   4.233  14.224  0.3191 -0.6025 -0.4889
   21MPD2     H  326   3.130   3.980  14.058 -0.1459 -0.6079  1.9618
   21MPD2    H1  327   2.790   4.223  14.047  0.9919  0.4754 -1.0354
   21MPD2    H2  328   3.041   4.254  14.380  2.5956 -0.3426 -0.6560
   21MPD2    H3  329   2.846   4.315  14.262 -1.3815 -1.5553 -1.1211
   21MPD2     N  330   2.932   4.036  13.916 -0.0732  0.5063 -0.0250
   21MPD2    H5  331   2.999   3.965  13.890  0.7249  1.3984 -0.3948
   21MPD2    N1  332   3.223   4.058  14.276  0.0456  0.0041 -0.0726
   21MPD2    H7  333   3.262   3.975  14.233 -1.5319 -0.5262 -0.4447
   22TCq2    C1  334   2.802   3.998  13.881 -0.1810 -0.4412 -0.5731
   22TCq2    O2  335   2.702   4.043  13.932 -0.1265  0.1587  0.2766
   22TCq2    C2  336   2.793   3.858  13.864 -0.2246  0.0526  0.0214
   22TCq2    C3  337   2.915   3.803  13.834  0.3637 -0.3203 -0.2103
   22TCq2    C4  338   2.968   3.711  13.920 -0.0839  0.3904 -0.4298
   22TCq2    C5  339   2.916   3.696  14.043 -0.6449 -0.3325  0.2716
   22TCq2    C6  340   2.797   3.749  14.073  0.2627  0.4153 -0.3611
   22TCq2    C7  341   2.727   3.811  13.973  1.0127 -0.2633  0.7215
   22TCq2    C8  342   2.771   3.800  14.207 -0.2577 -0.3242  0.0151
   22TCq2    O4  343   2.851   3.763  14.293  0.6538  0.6637 -0.4701
   22TCq2    C9  344   3.090   3.646  13.891 -0.1681  0.8771  0.4615
   22TCq2    O5  345   3.138   3.679  13.780  0.3401  0.0573  0.1198
   22TCq2    O6  346   3.133   3.571  13.975  0.7487  0.3461 -0.4793
   22TCq2    H2  347   2.956   3.829  13.737  0.9434 -0.5544 -0.0279
   22TCq2    H3  348   2.967   3.632  14.113 -1.4107 -1.7964 -0.4995
   22TCq2    H4  349   2.627   3.850  13.992  1.4253  1.6547 -0.9918
   23MPD2     C  350   0.001   0.176  14.321 -0.0521 -0.1956 -0.2320
   23MPD2    C1  351   4.673   0.205  14.441 -0.1509  0.1814  0.1579
   23MPD2    C2  352   4.593   0.312  14.460 -0.5984  0.6174 -0.3296
   23MPD2    C3  353   4.544   0.373  14.354  0.4660 -0.2846 -0.3229
   23MPD2    C4  354   4.590   0.336  14.230  0.3065  0.5060 -0.4900
   23MPD2    C5  355   4.679   0.236  14.208 -0.2096 -0.0899 -0.2236
   23MPD2     H  356   4.573   0.354  14.558 -1.9026  3.0612 -1.6462
   23MPD2    H1  357   4.554   0.380  14.137  1.4389  0.7507 -0.8200
   23MPD2    H2  358   0.069   0.094  14.301 -0.6793 -0.6694 -0.4454
   23MPD2    H3  359   4.706   0.206  14.108  2.3209 -0.3614  0.5477
   23MPD2     N  360   4.439   0.467  14.366  0.1912 -0.2480  0.2871
   23MPD2    H5  361   4.391   0.502  14.284 -1.3187  1.7837  2.0339
   23MPD2    N1  362   4.711   0.137  14.560 -0.2567 -0.0256  0.7232
   23MPD2    H7  363   4.654   0.162  14.641  0.0424 -0.1794  0.9829
   24TCq2    C1  364   4.372   0.494  14.486 -0.2057  0.1527  0.7391
   24TCq2    O2  365   4.418   0.504  14.599  0.1545 -0.6442 -0.1375
   24TCq2    C2  366   4.247   0.566  14.454 -0.6397 -1.0389  0.2870
   24TCq2    C3  367   4.212   0.595  14.322  0.6109  0.2563  0.2668
   24TCq2    C4  368   4.090   0.658  14.308 -0.2013 -0.1451  0.9425
   24TCq2    C5  369   4.002   0.695  14.404 -0.3314 -0.1613  0.5394
   24TCq2    C6  370   4.045   0.668  14.534  0.1265 -0.2656 -0.2456
   24TCq2    C7  371   4.165   0.601  14.558  0.3469  0.3791 -0.1985
   24TCq2    C8  372   3.950   0.706  14.638 -0.7305  0.4870  0.3876
   24TCq2    O4  373   3.984   0.659  14.745  0.4504 -0.1153  0.4258
   24TCq2    C9  374   4.046   0.687  14.178 -0.4065 -0.6351 -0.4284
   24TCq2    O5  375   4.136   0.674  14.093  0.5864 -0.5902 -0.1307
   24TCq2    O6  376   3.921   0.701  14.160  0.1994 -0.0251  0.6984
   24TCq2    H2  377   4.278   0.575  14.238  0.6143  0.7664  0.1464
   24TCq2    H3  378   3.903   0.733  14.382 -0.2403  0.2277  0.8025
   24TCq2    H4  379   4.198   0.579  14.659  0.8315 -0.1492 -0.4655
   25TMC2    C1  380   3.043   2.535  11.113  0.0795  0.1047 -0.0812
   25TMC2    C2  381   2.990   2.651  11.076  0.5785  0.4751 -0.1604
   25TMC2    C3  382   3.026   2.763  11.156  0.5635 -0.3390  0.1940
   25TMC2    C4  383   3.120   2.503  11.222 -0.2489  0.2497 -0.3570
   25TMC2    C5  384   3.144   2.610  11.303  0.1536 -0.0885 -0.3955
   25TMC2    C6  385   3.099   2.739  11.267 -0.4384 -0.2923 -0.1744
   25TMC2     C  386   3.000   2.425  11.035  0.2980  0.1569  0.4664
   25TMC2     O  387   2.985   2.320  11.094 -0.2002  0.1858 -0.2755
   25TMC2     H  388   2.903   2.653  11.011 -0.1264  0.5612  0.7747
   25TMC2    H1  389   3.161   2.406  11.250  1.7925  1.9826  2.6213
   25TMC2    H2  390   3.110   2.825  11.332 -0.6599 -0.8879  0.6610
   25TMC2    C7  391   3.197   2.589  11.434  0.6835 -0.2103  0.0472
   25TMC2    C8  392   2.972   2.897  11.125 -1.0969 -0.4174  0.6593
   25TMC2    O1  393   3.174   2.486  11.498  0.4309  0.1484  0.1351
   25TMC2    O2  394   2.934   2.973  11.214 -0.0749  0.1095 -0.0959
   25TMC2    O5  395   2.951   2.902  10.991  0.3404  0.2018  0.0071
   25TMC2    H5  396   2.992   2.828  10.942  1.6955  1.7565 -1.2385
   26MPD2     C  397   2.851   2.254  10.567  0.0980 -0.2892  0.2976
   26MPD2    C1  398   2.855   2.185  10.691 -0.3373  0.3473 -0.1685
   26MPD2    C2  399   2.911   2.253  10.803  0.5177 -0.5460 -0.7402
   26MPD2    C3  400   2.941   2.388  10.795  0.1591 -0.1769  0.2681
   26MPD2    C4  401   2.937   2.453  10.669  0.1003  0.3448 -0.4207
   26MPD2    C5  402   2.899   2.385  10.561  0.4494 -0.5458  0.5296
   26MPD2     H  403   2.906   2.208  10.902 -0.9524  2.7237  0.6791
   26MPD2    H1  404   2.965   2.556  10.653  0.2012  0.2126 -1.0850
   26MPD2    H2  405   2.816   2.205  10.478  1.8302 -0.2012 -0.4305
   26MPD2    H3  406   2.893   2.437  10.466 -0.7993  0.1528  0.9915
   26MPD2     N  407   2.982   2.464  10.904 -0.4098  0.9450  0.4016
   26MPD2    H5  408   3.006   2.560  10.884  1.0145  0.6312  0.6375
   26MPD2    N1  409   2.809   2.048  10.693  0.1268 -0.5112 -0.0568
   26MPD2    H7  410   2.775   2.006  10.607  0.1136 -1.4225  0.3891
   27TMC2    C1  411   2.010   0.187  11.990  0.0789 -0.0306 -0.1936
   27TMC2    C2  412   1.927   0.228  11.886 -0.4929 -0.1157 -0.2292
   27TMC2    C3  413   1.904   0.366  11.882 -0.2048  0.0420  0.1527
   27TMC2    C4  414   2.068   0.277  12.078 -0.6132 -0.7205  0.4471
   27TMC2    C5  415   2.024   0.405  12.073 -0.4443 -0.2379  0.0667
   27TMC2    C6  416   1.950   0.453  11.971  0.2745 -0.1046 -0.5519
   27TMC2     C  417   1.997   0.054  12.031  0.4567 -0.9726  0.0294
   27TMC2     O  418   1.985   4.699  11.940  0.0326 -0.0389  0.4263
   27TMC2     H  419   1.873   0.163  11.819 -0.0284 -1.9272  1.1405
   27TMC2    H1  420   2.124   0.237  12.162  1.4515  0.9224 -0.1792
   27TMC2    H2  421   1.918   0.556  11.975 -0.4690 -0.3522 -0.0801
   27TMC2    C7  422   2.048   0.466  12.195  0.0974 -0.8992 -0.3760
   27TMC2    C8  423   1.831   0.404  11.763  0.1481  0.3107  0.2335
   27TMC2    O1  424   2.062   0.399  12.298 -0.1845 -0.3535 -0.2001
   27TMC2    O2  425   1.778   0.321  11.686 -0.4257 -0.2294 -0.0265
   27TMC2    O5  426   1.884   0.519  11.719 -0.7707 -0.1390 -0.4030
   27TMC2    H5  427   1.960   0.560  11.766 -2.4061  3.3353 -0.7887
   28MPD2     C  428   1.834   4.421  12.357  0.2925 -0.6588 -0.1841
   28MPD2    C1  429   1.779   4.548  12.397 -0.3339  0.3973 -0.0613
   28MPD2    C2  430   1.815   4.665  12.332  0.2844 -0.3497 -0.0899
   28MPD2    C3  431   1.903   4.658  12.222  0.6032  0.1685  0.3932
   28MPD2    C4  432   1.961   4.537  12.190 -0.3752 -0.3734 -0.0781
   28MPD2    C5  433   1.932   4.423  12.261 -0.2631  0.4670 -0.7415
   28MPD2     H  434   1.778   0.041  12.350  2.2715  0.2274  0.8115
   28MPD2    H1  435   2.036   4.538  12.111 -0.3873 -2.7421 -0.0997
   28MPD2    H2  436   1.819   4.328  12.412 -0.9290 -0.5359 -0.3117
   28MPD2    H3  437   1.992   4.334  12.245 -0.0510  0.2811  1.1199
   28MPD2     N  438   1.930   0.050  12.150 -0.3514 -0.3408  0.1770
   28MPD2    H5  439   1.897   0.139  12.187  0.3674  0.4645 -1.1297
   28MPD2    N1  440   1.680   4.547  12.498 -0.2700 -1.0380 -0.6163
   28MPD2    H7  441   1.645   4.457  12.530  0.7779 -1.2543 -0.1085
   29MPD2     C  442   1.519   1.904  14.071  0.2263  0.9018 -0.3783
   29MPD2    C1  443   1.587   1.854  14.177 -0.1527  0.0634 -0.5039
   29MPD2    C2  444   1.643   1.930  14.276 -0.7106 -0.0619  0.0197
   29MPD2    C3  445   1.638   2.064  14.253  0.4917 -0.0257  0.1798
   29MPD2    C4  446   1.567   2.114  14.146 -0.2990 -0.3014 -0.1285
   29MPD2    C5  447   1.508   2.035  14.061  0.7082  0.0439 -0.0440
   29MPD2     H  448   1.701   1.885  14.355 -0.5634 -0.0639 -0.0905
   29MPD2    H1  449   1.571   2.220  14.123 -1.0486 -0.1546  0.4303
   29MPD2    H2  450   1.473   1.854  13.986  0.3304  2.5913 -1.4118
   29MPD2    H3  451   1.476   2.077  13.966 -0.3503 -1.8639 -0.5159
   29MPD2     N  452   1.707   2.153  14.339 -0.0201 -0.1005 -0.3917
   29MPD2    H5  453   1.727   2.248  14.307  0.5640 -0.3228 -0.6793
   29MPD2    N1  454   1.615   1.713  14.189 -0.0850  0.3308 -0.1489
   29MPD2    H7  455   1.683   1.681  14.257 -0.6660 -1.1429 -0.2728
   30TCq2    C1  456   1.737   2.119  14.470 -0.0687 -0.1408 -0.1803
   30TCq2    O2  457   1.692   2.038  14.552  0.4069 -0.2387 -0.4462
   30TCq2    C2  458   1.842   2.203  14.529  0.0035  0.4705  0.0990
   30TCq2    C3  459   1.822   2.231  14.663 -0.2086 -0.6727  0.8901
   30TCq2    C4  460   1.901   2.322  14.727 -0.1931  0.3879 -0.3934
   30TCq2    C5  461   2.008   2.373  14.663 -0.2692  0.2992  0.0134
   30TCq2    C6  462   2.017   2.350  14.527 -0.0700  0.2342  0.3804
   30TCq2    C7  463   1.934   2.266  14.456 -0.5020 -0.1817  0.0633
   30TCq2    C8  464   2.115   2.430  14.450  0.2720  0.1727  0.4469
   30TCq2    O4  465   2.135   2.405  14.332 -0.0634  0.2692  0.1407
   30TCq2    C9  466   1.875   2.354  14.872  0.2043  0.8711  0.0623
   30TCq2    O5  467   1.966   2.419  14.931  0.0517  0.0933  0.1105
   30TCq2    O6  468   1.771   2.314  14.924  0.4970 -0.4035 -0.5127
   30TCq2    H2  469   1.747   2.192  14.731 -1.6229 -0.4856 -0.5672
   30TCq2    H3  470   2.076   2.432  14.723  0.4161 -0.1362 -0.3359
   30TCq2    H4  471   1.966   2.232  14.358 -1.0614  0.3621 -0.3029
   31MPD2     C  472   4.387   1.371  14.357 -0.6544 -0.7967 -0.4400
   31MPD2    C1  473   4.251   1.406  14.337 -0.3538  0.8266  0.2245
   31MPD2    C2  474   4.142   1.364  14.419  0.2555 -0.1227 -0.4230
   31MPD2    C3  475   4.185   1.298  14.537  0.4751 -0.6405 -1.2825
   31MPD2    C4  476   4.314   1.266  14.552 -0.2886 -0.3586  0.2435
   31MPD2    C5  477   4.410   1.297  14.466  0.2271  0.5808  0.1163
   31MPD2     H  478   4.041   1.400  14.401  0.4483  0.2296 -0.8046
   31MPD2    H1  479   4.352   1.220  14.642 -0.6990 -0.2198  0.4878
   31MPD2    H2  480   4.468   1.389  14.287 -1.1808  0.7191 -0.6583
   31MPD2    H3  481   4.510   1.266  14.493  0.3540  0.1707 -0.8297
   31MPD2     N  482   4.091   1.255  14.633  0.5091 -0.0926 -0.2101
   31MPD2    H5  483   4.123   1.190  14.704  1.4405  0.5540 -0.0377
   31MPD2    N1  484   4.242   1.481  14.215  0.5934  0.3870  0.2471
   31MPD2    H7  485   4.327   1.498  14.161  0.1926  1.6587  0.0232
   32TCq2    C1  486   3.959   1.296  14.649  0.1858 -0.1540 -0.3891
   32TCq2    O2  487   3.897   1.379  14.586 -0.0497  0.1726 -0.0809
   32TCq2    C2  488   3.895   1.240  14.764  0.0695  0.6507 -0.6552
   32TCq2    C3  489   3.784   1.308  14.810  0.9014 -0.8591  0.0613
   32TCq2    C4  490   3.713   1.254  14.913 -0.3438 -0.7346 -0.2380
   32TCq2    C5  491   3.762   1.136  14.970  0.9087 -0.1065 -0.0199
   32TCq2    C6  492   3.877   1.081  14.924  0.7457 -0.3607  0.2658
   32TCq2    C7  493   3.948   1.130  14.818  0.7539  0.0035 -0.2629
   32TCq2    C8  494   3.943   0.976  14.992  0.5366  0.0591  0.0597
   32TCq2    O4  495   4.067   0.977  14.986 -0.4088 -0.2902 -0.0539
   32TCq2    C9  496   3.597   1.321  14.955 -0.4421  0.0961 -0.0601
   32TCq2    O5  497   3.583   1.441  14.921  0.2157  0.4334  0.0005
   32TCq2    O6  498   3.503   1.257  15.014  0.5803  0.2788 -0.2643
   32TCq2    H2  499   3.740   1.391  14.756  1.3996 -0.3550  0.4378
   32TCq2    H3  500   3.711   1.094  15.056  0.9465 -0.0161  0.0475
   32TCq2    H4  501   4.039   1.082  14.785 -0.5248 -1.9402 -0.9463
   33MPD2     C  502   4.238   3.524  10.289  0.6754  0.0944 -0.4199
   33MPD2    C1  503   4.351   3.588  10.334  0.4231 -0.1249  0.0232
   33MPD2    C2  504   4.424   3.668  10.244 -0.9005  1.2912  0.4916
   33MPD2    C3  505   4.373   3.679  10.106 -0.2952  0.1206  0.4629
   33MPD2    C4  506   4.265   3.606  10.066  0.5513  0.1418  0.0775
   33MPD2    C5  507   4.200   3.525  10.159  0.4714 -0.2133  0.2945
   33MPD2     H  508   4.513   3.714  10.285 -0.5483  0.9595  0.1041
   33MPD2    H1  509   4.246   3.595   9.960 -0.5648 -0.9162  0.3796
   33MPD2    H2  510   4.174   3.460  10.349 -1.6292  3.1752  0.4013
   33MPD2    H3  511   4.113   3.474  10.121  1.6929 -0.0414 -2.7265
   33MPD2     N  512   4.444   3.756  10.007  0.6790  0.0513 -0.5319
   33MPD2    H5  513   4.407   3.751   9.913 -1.1089 -1.1761  0.2439
   33MPD2    N1  514   4.401   3.556  10.466  0.0263  0.3751 -0.6987
   33MPD2    H7  515   4.343   3.492  10.519  1.8264  0.2753  1.1548
   34TCq2    C1  516   4.565   3.813  10.021  0.4510  0.2437  0.4260
   34TCq2    O2  517   4.630   3.829  10.125 -0.8504 -0.0970  0.2182
   34TCq2    C2  518   4.620   3.859   9.890 -0.3098  0.1338  0.5198
   34TCq2    C3  519   4.573   3.797   9.776 -0.1508 -0.1634 -0.0794
   34TCq2    C4  520   4.649   3.778   9.668 -0.6504 -0.6274 -0.0757
   34TCq2    C5  521   0.043   3.835   9.663 -0.0565 -0.4881  0.3175
   34TCq2    C6  522   0.097   3.893   9.782 -0.3400  0.2767 -0.0594
   34TCq2    C7  523   0.018   3.911   9.892  0.7473  0.4164 -0.1460
   34TCq2    C8  524   0.214   3.970   9.781  0.1123 -0.2304 -0.4538
   34TCq2    O4  525   0.207   4.081   9.820 -0.1985 -0.2327 -0.6408
   34TCq2    C9  526   4.604   3.714   9.543  0.0669 -0.5287  0.3372
   34TCq2    O5  527   4.679   3.731   9.444  0.0966  0.1127  0.6970
   34TCq2    O6  528   4.484   3.681   9.527 -0.3480  0.1390 -0.6189
   34TCq2    H2  529   4.470   3.786   9.746  0.3672 -1.6938 -1.3248
   34TCq2    H3  530   0.105   3.825   9.574 -0.5160  2.3397 -0.3175
   34TCq2    H4  531   0.061   3.966   9.976  2.2386  1.7889 -1.7925
   35MPD2     C  532   1.344   0.445  11.537 -0.1579  0.4905 -0.5310
   35MPD2    C1  533   1.308   0.324  11.588 -0.9847 -0.3940  0.6773
   35MPD2    C2  534   1.172   0.292  11.586  0.1232 -0.2241 -0.0781
   35MPD2    C3  535   1.076   0.372  11.522  0.2939 -0.6560 -0.6902
   35MPD2    C4  536   1.117   0.498  11.479  0.9463 -0.2703  0.1166
   35MPD2    C5  537   1.246   0.524  11.479 -0.2527  0.7709 -0.5111
   35MPD2     H  538   1.142   0.196  11.625 -1.4785  0.4855  0.4397
   35MPD2    H1  539   1.053   0.576  11.438 -1.5045 -1.9927  0.7020
   35MPD2    H2  540   1.448   0.474  11.537 -0.1891  0.5807 -2.7712
   35MPD2    H3  541   1.283   0.619  11.441 -1.5162  1.4759  0.0215
   35MPD2     N  542   0.939   0.335  11.528  0.1280  0.2951  0.6758
   35MPD2    H5  543   0.930   0.238  11.557 -1.8745  0.4651  0.6190
   35MPD2    N1  544   1.412   0.246  11.645  0.1232 -0.6381  0.0132
   35MPD2    H7  545   1.501   0.293  11.663 -0.1916  1.4181 -3.9445
   36TCq2    C1  546   0.834   0.401  11.472  0.7244  1.0597 -0.0243
   36TCq2    O2  547   0.835   0.506  11.404 -0.1490 -0.0066  0.7691
   36TCq2    C2  548   0.713   0.323  11.467  0.6650  0.0170  0.1221
   36TCq2    C3  549   0.632   0.342  11.359 -0.3715 -0.4492  0.7333
   36TCq2    C4  550   0.522   0.259  11.351  0.4307  0.2841  0.1303
   36TCq2    C5  551   0.506   0.156  11.440 -0.2200  0.0288 -0.3135
   36TCq2    C6  552   0.579   0.155  11.552 -0.6657  0.3118 -0.5763
   36TCq2    C7  553   0.684   0.236  11.566 -0.1456 -0.4637  0.4067
   36TCq2    C8  554   0.561   0.037  11.642  0.5243 -0.2833  1.0403
   36TCq2    O4  555   0.463   4.691  11.624  0.3366  0.2496  0.2572
   36TCq2    C9  556   0.441   0.266  11.235 -0.5974 -0.6571  0.2804
   36TCq2    O5  557   0.495   0.286  11.124  0.0839  0.2531 -0.7210
   36TCq2    O6  558   0.329   0.207  11.238 -0.1945 -0.0768  0.0434
   36TCq2    H2  559   0.646   0.412  11.278  1.5310  0.9955  2.3138
   36TCq2    H3  560   0.419   0.092  11.430 -0.7225  0.7368 -0.4642
   36TCq2    H4  561   0.751   0.236  11.652 -0.0822 -3.2923  0.3479
   37TMC2    C1  562   2.950   0.569  11.815  0.2535  0.4464 -1.1718
   37TMC2    C2  563   2.883   0.548  11.696 -0.3814  0.3992  0.2081
   37TMC2    C3  564   2.963   0.544  11.583  0.0297 -0.7768 -0.3467
   37TMC2    C4  565   3.087   0.589  11.826 -0.3151  0.0300 -0.0470
   37TMC2    C5  566   3.163   0.572  11.713 -0.2589 -0.1590  0.4028
   37TMC2    C6  567   3.099   0.562  11.592  0.2868  0.2103 -0.6008
   37TMC2     C  568   2.858   0.606  11.928 -0.1469 -0.2306 -0.4028
   37TMC2     O  569   2.740   0.612  11.896  0.1857  0.1501 -0.3078
   37TMC2     H  570   2.775   0.550  11.683 -0.5117  0.9086  1.3442
   37TMC2    H1  571   3.142   0.607  11.917  2.8061  0.2381 -1.9637
   37TMC2    H2  572   3.163   0.540  11.507 -0.2790  3.5749 -1.9073
   37TMC2    C7  573   3.306   0.597  11.719 -0.0831  0.2318 -0.2351
   37TMC2    C8  574   2.911   0.553  11.444  0.2287 -0.1275  0.1395
   37TMC2    O1  575   3.344   0.623  11.829 -0.8147  0.0508 -0.3666
   37TMC2    O2  576   2.970   0.624  11.361  0.1253 -0.2446 -0.1338
   37TMC2    O5  577   2.817   0.458  11.420  0.6112 -0.3711  0.0142
   37TMC2    H5  578   2.782   0.430  11.506 -2.2171 -2.4076 -1.8194
   38MPD2     C  579   2.748   0.590  12.439 -0.4542  1.0296  0.0601
   38MPD2    C1  580   2.888   0.590  12.420 -0.5636 -0.2014 -0.3347
   38MPD2    C2  581   2.936   0.604  12.291  0.4915 -0.3563  0.2359
   38MPD2    C3  582   2.855   0.606  12.180  0.0379 -0.2002  0.8671
   38MPD2    C4  583   2.721   0.599  12.200  0.5428  0.3367  0.7326
   38MPD2    C5  584   2.672   0.585  12.326 -0.1992 -0.1473  0.3965
   38MPD2     H  585   3.039   0.634  12.273  0.8009 -0.4993  1.8362
   38MPD2    H1  586   2.646   0.581  12.124 -0.0922  1.1749  1.1685
   38MPD2    H2  587   2.701   0.572  12.535 -2.1126 -2.7198 -1.4600
   38MPD2    H3  588   2.564   0.594  12.331 -0.3740 -2.2408  0.4950
   38MPD2     N  589   2.919   0.604  12.055 -0.4810 -0.7810 -0.1591
   38MPD2    H5  590   3.019   0.586  12.057 -0.7624 -2.3829  0.0402
   38MPD2    N1  591   2.982   0.582  12.523  0.0208  0.4312 -0.5357
   38MPD2    H7  592   3.080   0.570  12.497  0.2675  0.3521  0.4326
   39MPD2     C  593   1.218   1.689   1.662 -0.6777 -0.1229 -0.5488
   39MPD2    C1  594   1.114   1.772   1.656  0.0976  0.5617  0.0453
   39MPD2    C2  595   1.026   1.764   1.551 -0.1975 -0.1150  0.2600
   39MPD2    C3  596   1.049   1.675   1.451  0.3793  0.1970 -0.2364
   39MPD2    C4  597   1.138   1.572   1.475  0.0882  0.1637  0.2650
   39MPD2    C5  598   1.222   1.579   1.582 -0.3251 -0.0415 -0.3527
   39MPD2     H  599   0.937   1.825   1.540 -1.9163 -2.3119  1.8240
   39MPD2    H1  600   1.176   1.509   1.395  1.7437  0.0012  1.1811
   39MPD2    H2  601   1.293   1.685   1.741  0.2447 -0.4843 -1.4331
   39MPD2    H3  602   1.305   1.511   1.596 -1.0734 -0.6005  1.3570
   39MPD2     N  603   0.973   1.668   1.333  0.3224  0.4851  0.3706
   39MPD2    H5  604   0.986   1.593   1.267 -0.0616 -0.9127  1.8854
   39MPD2    N1  605   1.100   1.866   1.763  1.0296  0.1167  0.0202
   39MPD2    H7  606   1.173   1.868   1.834 -0.2038  0.6111  1.2749
   40TCq2    C1  607   1.000   1.961   1.784  0.0137 -0.5448 -0.1347
   40TCq2    O2  608   0.895   1.972   1.718 -0.0221  0.1361  0.1035
   40TCq2    C2  609   1.014   2.049   1.899  0.0247 -0.0989  0.2625
   40TCq2    C3  610   0.899   2.076   1.972 -0.5287 -0.1339  0.5427
   40TCq2    C4  611   0.912   2.149   2.087 -0.5245  1.0921  0.3620
   40TCq2    C5  612   1.038   2.190   2.129  0.2673  0.7092  0.2294
   40TCq2    C6  613   1.154   2.151   2.059 -0.4592 -0.3464  0.5169
   40TCq2    C7  614   1.141   2.084   1.941  0.2373  0.0574  0.1056
   40TCq2    C8  615   1.275   2.151   2.136  0.7153  0.4526 -0.1516
   40TCq2    O4  616   1.261   2.163   2.260 -0.0168  0.2906 -0.0432
   40TCq2    C9  617   0.800   2.190   2.167  0.2758  0.1099  0.1529
   40TCq2    O5  618   0.815   2.252   2.276  0.6308  0.1816 -0.0354
   40TCq2    O6  619   0.690   2.133   2.141 -0.7201 -0.0705 -0.3409
   40TCq2    H2  620   0.799   2.049   1.940 -0.6581 -0.4539  1.1963
   40TCq2    H3  621   1.040   2.251   2.218  2.6413 -1.1714  1.4747
   40TCq2    H4  622   1.231   2.043   1.897  2.1575  1.4899  2.6699
   41TMC2    C1  623   0.640   0.459  13.399 -0.1160 -0.1478  0.2607
   41TMC2    C2  624   0.723   0.522  13.485 -0.0277  0.3315 -0.3085
   41TMC2    C3  625   0.822   0.602  13.445 -0.3529 -0.6020  0.1570
   41TMC2    C4  626   0.663   0.468  13.262 -0.5883  0.0026 -0.2812
   41TMC2    C5  627   0.763   0.548  13.225  0.5287 -0.0772 -0.0503
   41TMC2    C6  628   0.847   0.614  13.312  0.0638 -0.7299 -0.2716
   41TMC2     C  629   0.576   0.340  13.450 -0.3971  0.1689  1.0706
   41TMC2     O  630   0.571   0.252  13.367  0.3399  0.0939 -0.3041
   41TMC2     H  631   0.707   0.524  13.592 -2.2319 -1.0166 -0.6056
   41TMC2    H1  632   0.600   0.400  13.205 -1.7461  1.1656 -0.3745
   41TMC2    H2  633   0.933   0.670  13.275 -0.3164 -0.5919 -0.9523
   41TMC2    C7  634   0.814   0.555  13.083  0.1233 -0.2685 -0.2508
   41TMC2    C8  635   0.882   0.674  13.553 -0.0485 -0.9275  0.2249
   41TMC2    O1  636   0.893   0.649  13.070 -0.5012  0.2668 -0.4493
   41TMC2    O2  637   0.827   0.712  13.658 -0.1247  0.2274  0.1452
   41TMC2    O5  638   1.005   0.716  13.518 -0.4738 -0.3503  0.4356
   41TMC2    H5  639   1.052   0.675  13.443  0.4954  0.6764  0.4800
   42MPD2     C  640   0.524   0.115  13.642 -0.7076 -0.2220 -0.8491
   42MPD2    C1  641   0.500   0.249  13.671 -0.2656 -0.0767  0.2938
   42MPD2    C2  642   0.450   0.285  13.797 -0.5005  0.2392  0.4572
   42MPD2    C3  643   0.433   0.190  13.901  1.0074 -0.3624  0.0385
   42MPD2    C4  644   0.473   0.059  13.871 -0.1347 -1.4745  0.5323
   42MPD2    C5  645   0.519   0.026  13.745  0.0504  0.4151 -0.2917
   42MPD2     H  646   0.418   0.387  13.814  0.7938  0.6772  0.2341
   42MPD2    H1  647   0.462   4.704  13.944 -1.6125 -2.0587 -0.3190
   42MPD2    H2  648   0.565   0.093  13.544  0.8235 -0.5237 -0.1456
   42MPD2    H3  649   0.555   4.649  13.725 -0.1955  0.2089  0.2962
   42MPD2     N  650   0.385   0.222  14.036  0.1357  0.6663 -0.7811
   42MPD2    H5  651   0.373   0.149  14.105  1.0873 -0.0172 -1.3513
   42MPD2    N1  652   0.527   0.352  13.577  0.4751  0.2480 -0.2023
   42MPD2    H7  653   0.522   0.446  13.613  1.0895 -0.4731  1.7652
   43MPD2     C  654   1.642   3.015   0.748  0.3940 -0.1193 -0.1270
   43MPD2    C1  655   1.722   2.966   0.844  0.4967 -0.1685 -0.5464
   43MPD2    C2  656   1.727   3.022   0.977 -0.2804 -0.3664 -0.6235
   43MPD2    C3  657   1.643   3.133   1.007  0.3750 -0.3506  0.3597
   43MPD2    C4  658   1.562   3.178   0.905  0.1150  0.2338  0.1180
   43MPD2    C5  659   1.568   3.126   0.778  0.6678 -1.1474  0.1192
   43MPD2     H  660   1.802   2.991   1.049  0.2689 -0.0882 -1.0759
   43MPD2    H1  661   1.486   3.255   0.917  0.0154  0.0132  0.9063
   43MPD2    H2  662   1.649   2.985   0.645 -1.4214  0.5791 -0.4545
   43MPD2    H3  663   1.519   3.172   0.693  0.1062 -1.2954  0.3612
   43MPD2     N  664   1.637   3.196   1.133 -0.0586 -0.2763  0.0453
   43MPD2    H5  665   1.584   3.281   1.145  0.8949  0.3073  0.1722
   43MPD2    N1  666   1.830   2.877   0.812 -0.3010 -0.8843 -0.2154
   43MPD2    H7  667   1.899   2.862   0.885 -0.2749 -0.8589 -0.2345
   44TCq2    C1  668   1.722   3.286   1.709 -0.2481  0.2016 -0.2658
   44TCq2    O2  669   1.713   3.167   1.740 -0.0971 -0.1158  0.0234
   44TCq2    C2  670   1.709   3.323   1.564  0.1343  0.6756  0.7723
   44TCq2    C3  671   1.707   3.456   1.529  0.1209  0.2866 -0.8883
   44TCq2    C4  672   1.700   3.484   1.399 -0.3049 -0.2936 -0.1874
   44TCq2    C5  673   1.700   3.389   1.300  0.7461  0.1344  0.2394
   44TCq2    C6  674   1.700   3.262   1.345 -0.1383  0.1800 -0.1478
   44TCq2    C7  675   1.705   3.220   1.475  0.1736 -0.2347  0.1583
   44TCq2    C8  676   1.706   3.161   1.244 -0.3608 -0.0377 -0.2985
   44TCq2    O4  677   1.780   3.066   1.270  0.2166 -0.1576 -0.4686
   44TCq2    C9  678   1.692   3.622   1.356  0.5988 -0.0446 -0.8110
   44TCq2    O5  679   1.660   3.644   1.237  0.0484  0.1203  0.6131
   44TCq2    O6  680   1.703   3.708   1.440 -0.3904 -0.4209 -0.3500
   44TCq2    H2  681   1.708   3.539   1.598 -0.5623  1.2263 -2.0033
   44TCq2    H3  682   1.700   3.418   1.196 -1.5031 -3.1598 -0.6849
   44TCq2    H4  683   1.688   3.115   1.496  0.4192 -0.6547 -1.7170
   45TMC2    C1  684   2.482   4.633   9.464 -0.3026 -0.1780  0.1457
   45TMC2    C2  685   2.598   4.573   9.496 -0.0080 -0.0655 -0.7971
   45TMC2    C3  686   2.688   4.655   9.559 -0.1445  0.2273 -0.3958
   45TMC2    C4  687   2.459   0.041   9.484 -0.8459  0.3366 -0.4573
   45TMC2    C5  688   2.559   0.119   9.533  0.1048  0.1809  0.6399
   45TMC2    C6  689   2.677   0.062   9.574 -1.0427 -0.0917 -0.1942
   45TMC2     C  690   2.390   4.551   9.382  0.0241 -0.4164 -0.5064
   45TMC2     O  691   2.424   4.435   9.390 -0.0757  0.1735 -0.4909
   45TMC2     H  692   2.624   4.468   9.496  1.7276  0.3724  1.0632
   45TMC2    H1  693   2.358   0.080   9.486 -1.4531 -1.3253  0.6205
   45TMC2    H2  694   2.751   0.126   9.620 -0.2718 -1.3306  0.3082
   45TMC2    C7  695   2.539   0.261   9.565  0.0917  0.1516 -0.6982
   45TMC2    C8  696   2.813   4.595   9.590 -0.3434  0.3750 -0.0490
   45TMC2    O1  697   2.605   0.302   9.660 -0.3869  0.0144  0.6427
   45TMC2    O2  698   2.923   4.659   9.591  0.0295 -0.3618 -0.1944
   45TMC2    O5  699   2.776   4.505   9.687 -0.8102 -0.1130  0.2097
   45TMC2    H5  700   2.678   4.500   9.691 -0.7952 -1.7301 -1.6655
   46MPD2     C  701   2.194   4.420   9.215 -0.0439 -0.5594  0.1564
   46MPD2    C1  702   2.209   4.560   9.220  0.2067 -0.5722 -0.0657
   46MPD2    C2  703   2.126   4.637   9.141 -0.5227  0.0055  0.0581
   46MPD2    C3  704   2.029   4.574   9.061  0.0314 -0.6750  0.5101
   46MPD2    C4  705   2.012   4.438   9.066  0.2957 -0.5907  0.4006
   46MPD2    C5  706   2.095   4.359   9.141  0.0945  1.0054 -0.4237
   46MPD2     H  707   2.134   0.021   9.133 -1.4397 -0.0366 -1.3905
   46MPD2    H1  708   1.941   4.386   9.003  0.3901  0.6551 -0.7414
   46MPD2    H2  709   2.255   4.353   9.275  1.0707 -0.3421 -0.7269
   46MPD2    H3  710   2.074   4.252   9.142  1.2783  0.7478 -1.3937
   46MPD2     N  711   1.949   4.666   8.989  0.0647 -0.0197  0.2271
   46MPD2    H5  712   1.979   0.039   8.994 -1.6799  0.4289  1.8668
   46MPD2    N1  713   2.302   4.623   9.310  0.0625  0.3846  0.2455
   46MPD2    H7  714   2.310   0.000   9.310  0.0882  0.3827  0.9822
   47TMC2    C1  715   3.790   0.797   9.855  0.3582 -0.0082 -0.1388
   47TMC2    C2  716   3.819   0.683   9.918  1.0760  0.4364 -0.3830
   47TMC2    C3  717   3.730   0.586   9.912  0.2654 -0.5752  0.3801
   47TMC2    C4  718   3.676   0.833   9.796 -0.4326 -0.4883  0.0483
   47TMC2    C5  719   3.574   0.744   9.822 -0.1528  0.5025  0.8038
   47TMC2    C6  720   3.598   0.615   9.879  0.1805 -0.1918 -0.1974
   47TMC2     C  721   3.885   0.907   9.869  0.0194  0.0139  0.7508
   47TMC2     O  722   3.840   1.019   9.888 -0.8890 -0.2731  0.1179
   47TMC2     H  723   3.911   0.663   9.971 -1.4152 -2.6293  2.7764
   47TMC2    H1  724   3.664   0.931   9.751 -2.1838 -0.2271  1.1178
   47TMC2    H2  725   3.515   0.547   9.868  0.3930 -1.2426  4.7371
   47TMC2    C7  726   3.450   0.757   9.751  0.0648 -0.1040  0.2217
   47TMC2    C8  727   3.783   0.448   9.927 -0.3437 -0.5152 -0.5479
   47TMC2    O1  728   3.365   0.681   9.788  0.1030  0.5812 -0.1560
   47TMC2    O2  729   3.899   0.433   9.902  0.1484  0.6353 -0.0598
   47TMC2    O5  730   3.683   0.358   9.903 -0.2703  0.1028  0.2089
   47TMC2    H5  731   3.594   0.399   9.907  0.3562  1.4073  0.5890
   48MPD2     C  732   4.128   1.064   9.929 -0.0350  0.1728 -0.4359
   48MPD2    C1  733   4.134   0.942   9.863  0.0750  0.3106  0.5830
   48MPD2    C2  734   4.254   0.887   9.836  0.2886  0.4116  0.2763
   48MPD2    C3  735   4.371   0.953   9.869  0.4635  0.2701 -0.0733
   48MPD2    C4  736   4.362   1.073   9.946  0.1071  0.1437 -0.5154
   48MPD2    C5  737   4.239   1.130   9.974  0.4127 -0.6189  0.1487
   48MPD2     H  738   4.266   0.799   9.773 -2.5768  1.8049 -2.2495
   48MPD2    H1  739   4.445   1.136   9.974 -0.5198  1.7960 -2.4206
   48MPD2    H2  740   4.037   1.109   9.967 -1.0576 -0.9634 -1.5288
   48MPD2    H3  741   4.236   1.225  10.027 -0.5380  0.2225 -1.4413
   48MPD2     N  742   4.498   0.901   9.829 -0.5378 -0.1525  0.4331
   48MPD2    H5  743   4.504   0.810   9.785  0.3430  0.5188 -0.8440
   48MPD2    N1  744   4.014   0.869   9.841  0.0214  0.3615  0.4683
   48MPD2    H7  745   4.024   0.772   9.811 -0.2802  0.6998 -0.7541
   49MPD2     C  746   2.739   3.066  10.064  0.6511  0.3384 -1.0038
   49MPD2    C1  747   2.662   2.956  10.022  0.6318  0.3453 -0.1361
   49MPD2    C2  748   2.643   2.852  10.111 -0.2384 -0.8727 -1.0786
   49MPD2    C3  749   2.663   2.865  10.249  0.3419  0.4847 -0.4285
   49MPD2    C4  750   2.725   2.985  10.291 -0.4522  0.1057 -0.1574
   49MPD2    C5  751   2.778   3.073  10.200  0.8415  0.3307 -1.0151
   49MPD2     H  752   2.605   2.760  10.069  0.3027 -2.9186  2.9222
   49MPD2    H1  753   2.738   2.998  10.398  0.7645 -2.5977  0.0344
   49MPD2    H2  754   2.771   3.146   9.998  1.0957 -0.6155 -1.9323
   49MPD2    H3  755   2.821   3.161  10.245  2.9968 -2.0448  1.5883
   49MPD2     N  756   2.639   2.783  10.357  0.6523  0.1580 -0.4270
   49MPD2    H5  757   2.670   2.809  10.450 -3.1434  1.4452  0.4563
   49MPD2    N1  758   2.613   2.938   9.884  0.2681 -0.4117 -0.3130
   49MPD2    H7  759   2.557   2.856   9.861 -1.5683  0.7630 -0.0565
   50TCq2    C1  760   2.634   3.021   9.783 -0.3219  0.0002  1.0160
   50TCq2    O2  761   2.718   3.108   9.779  1.0548  0.4708 -0.2385
   50TCq2    C2  762   2.556   3.002   9.662  0.1554 -0.1077 -0.2108
   50TCq2    C3  763   2.452   2.914   9.664  0.3832 -0.8920 -0.7023
   50TCq2    C4  764   2.348   2.917   9.572  0.0325  0.5314  0.5774
   50TCq2    C5  765   2.348   3.015   9.471 -0.3454  0.2248  0.9955
   50TCq2    C6  766   2.457   3.100   9.472  0.2289 -0.3732  0.1377
   50TCq2    C7  767   2.554   3.102   9.568 -0.4595 -0.3533  0.7188
   50TCq2    C8  768   2.450   3.218   9.387  0.1488 -0.1871  0.1153
   50TCq2    O4  769   2.341   3.240   9.337 -0.2388  0.0998  0.4075
   50TCq2    C9  770   2.247   2.820   9.568 -0.1206  0.0611 -0.0217
   50TCq2    O5  771   2.242   2.741   9.671  0.1074 -0.9202 -0.4908
   50TCq2    O6  772   2.178   2.808   9.465 -0.2095 -0.1781  0.5663
   50TCq2    H2  773   2.443   2.833   9.735 -1.6196 -0.4776 -0.4795
   50TCq2    H3  774   2.266   3.020   9.400  2.2884  2.2810 -1.8819
   50TCq2    H4  775   2.623   3.185   9.577 -2.4473  1.1481  2.1237
   51MPD2     C  776   3.479   1.292   1.007 -0.0192 -0.5328 -0.0483
   51MPD2    C1  777   3.527   1.309   0.880  0.7385  0.3697  0.1555
   51MPD2    C2  778   3.661   1.342   0.864  0.3097  0.1178  0.0566
   51MPD2    C3  779   3.741   1.376   0.976 -0.0938 -0.3447 -0.2301
   51MPD2    C4  780   3.680   1.361   1.099  0.7449 -0.2523  0.1838
   51MPD2    C5  781   3.546   1.326   1.121 -0.1717  0.1206 -0.1118
   51MPD2     H  782   3.718   1.325   0.773 -0.0982 -1.9333  0.2030
   51MPD2    H1  783   3.733   1.380   1.192  0.1203 -0.1591  0.5158
   51MPD2    H2  784   3.384   1.243   1.027 -1.4240  1.7977 -0.9857
   51MPD2    H3  785   3.505   1.294   1.215  0.6724  0.3481  0.3404
   51MPD2     N  786   3.873   1.429   0.961 -1.1014  0.2390  0.1046
   51MPD2    H5  787   3.912   1.483   1.037 -0.0873  1.0226 -0.9697
   51MPD2    N1  788   3.443   1.291   0.764 -0.0537 -0.1126 -0.1276
   51MPD2    H7  789   3.483   1.311   0.672  2.1308  3.1639  1.5261
   52TCq2    C1  790   3.957   1.399   0.859 -0.4387  0.1785 -0.5351
   52TCq2    O2  791   3.933   1.320   0.768  0.1080 -0.4407  0.3203
   52TCq2    C2  792   4.097   1.434   0.880 -0.0741 -0.6238  0.2185
   52TCq2    C3  793   4.182   1.402   0.779  0.0809  0.3398 -0.0176
   52TCq2    C4  794   4.317   1.441   0.783 -0.4201 -0.4257 -0.5333
   52TCq2    C5  795   4.362   1.519   0.879 -0.2291 -0.3669  0.3108
   52TCq2    C6  796   4.273   1.559   0.980  0.2261 -0.3057  0.1109
   52TCq2    C7  797   4.144   1.513   0.983  0.5448  0.0224 -0.0913
   52TCq2    C8  798   4.321   1.665   1.081 -0.3440  0.4396  0.4160
   52TCq2    O4  799   4.442   1.690   1.070  0.1667  0.1352 -0.1954
   52TCq2    C9  800   4.406   1.429   0.661 -0.0661 -0.5471  0.5648
   52TCq2    O5  801   4.354   1.396   0.551 -0.2924  0.5597 -0.9079
   52TCq2    O6  802   4.530   1.443   0.665  0.2445  0.3374 -0.0415
   52TCq2    H2  803   4.148   1.327   0.708 -0.3308 -0.8716  1.4652
   52TCq2    H3  804   4.451   1.579   0.862  0.0397 -0.9460 -0.3446
   52TCq2    H4  805   4.076   1.559   1.055 -1.6407 -1.8196 -0.9849
   53TMC2    C1  806   4.023   0.694  11.849  1.0181  0.0750  0.2141
   53TMC2    C2  807   4.093   0.583  11.887 -0.1003 -0.4853 -0.8588
   53TMC2    C3  808   4.082   0.550  12.021 -0.5987 -0.3793 -0.1995
   53TMC2    C4  809   3.931   0.757  11.938  0.3510 -0.6871  0.1563
   53TMC2    C5  810   3.943   0.734  12.075  0.3817  0.0514 -0.3685
   53TMC2    C6  811   4.012   0.622  12.116 -0.0603 -0.2221  0.6415
   53TMC2     C  812   3.965   0.685  11.720  0.4540 -0.1797  0.4562
   53TMC2     O  813   4.030   0.712  11.615  0.0473 -0.3005 -0.1411
   53TMC2     H  814   4.152   0.532  11.811 -1.6021 -0.7839 -1.8305
   53TMC2    H1  815   3.881   0.850  11.915 -0.1347 -0.6414  1.3925
   53TMC2    H2  816   4.022   0.590  12.219 -1.7926  0.0438  0.8919
   53TMC2    C7  817   3.817   0.758  12.149  0.2563 -0.3408 -0.2479
   53TMC2    C8  818   4.180   0.460  12.077  0.0675  0.2688  0.8339
   53TMC2    O1  819   3.722   0.779  12.076  0.2617 -0.3280  0.3751
   53TMC2    O2  820   4.241   0.488  12.180  0.0487 -0.1086 -0.6203
   53TMC2    O5  821   4.224   0.376  11.979  0.3633  0.8756 -0.4987
   53TMC2    H5  822   4.146   0.349  11.926 -0.1227 -0.5362  0.9320
   54MPD2     C  823   3.758   0.716  11.502 -0.4231  0.4272  0.0645
   54MPD2    C1  824   3.729   0.697  11.630 -0.1147 -0.0896  0.4621
   54MPD2    C2  825   3.598   0.667  11.665 -0.1217 -0.2743 -0.0126
   54MPD2    C3  826   3.498   0.652  11.570 -0.4343  0.7482  0.1442
   54MPD2    C4  827   3.535   0.671  11.435 -0.4140 -0.2604 -0.3562
   54MPD2    C5  828   3.665   0.713  11.409  0.3410  0.1615  0.0076
   54MPD2     H  829   3.567   0.643  11.767 -0.4687  1.4546  0.2841
   54MPD2    H1  830   3.469   0.655  11.350  0.2981  1.0346 -1.1454
   54MPD2    H2  831   3.858   0.742  11.468 -0.6616 -0.6801 -1.5172
   54MPD2    H3  832   3.689   0.726  11.304  0.0065 -0.1800 -0.1148
   54MPD2     N  833   3.366   0.607  11.597 -0.3676  0.7504 -0.6452
   54MPD2    H5  834   3.312   0.592  11.512  0.0078  1.5847 -1.0378
   54MPD2    N1  835   3.829   0.682  11.729  0.7252 -0.2105 -0.0544
   54MPD2    H7  836   3.792   0.665  11.822  0.4437 -1.8350 -0.4694
   55MPD2     C  837   0.212   2.660   0.100  0.1259 -0.4960  0.4287
   55MPD2    C1  838   0.194   2.601   0.221 -0.1006 -0.0161  0.2188
   55MPD2    C2  839   0.118   2.667   0.320  0.3759 -1.1812  0.4619
   55MPD2    C3  840   0.071   2.793   0.295 -0.2691 -0.2708  0.3112
   55MPD2    C4  841   0.091   2.847   0.173  0.2692 -0.2106  0.5603
   55MPD2    C5  842   0.152   2.781   0.070  0.0585  0.3213 -0.6170
   55MPD2     H  843   0.092   2.624   0.416  3.0366 -1.9966  0.8304
   55MPD2    H1  844   0.050   2.944   0.147  0.5658 -0.1985  0.1373
   55MPD2    H2  845   0.256   2.602   0.020 -2.3545 -1.1045 -0.5079
   55MPD2    H3  846   0.151   2.813  17.664 -0.9509 -1.6838 -1.2307
   55MPD2     N  847   0.009   2.859   0.403 -0.0646 -0.0562 -0.1837
   55MPD2    H5  848   0.005   2.817   0.495  0.8595  0.7566  0.2343
   55MPD2    N1  849   0.251   2.477   0.237 -0.1246  0.2640 -0.4350
   55MPD2    H7  850   0.291   2.423   0.161 -0.3354 -0.2782 -0.1626
   56TCq2    C1  851   0.262   2.400   0.356 -0.6889 -0.4680  0.0509
   56TCq2    O2  852   0.229   2.433   0.469 -0.3740 -0.7791 -0.8492
   56TCq2    C2  853   0.320   2.267   0.339 -0.3878 -0.7191  0.5921
   56TCq2    C3  854   0.354   2.231   0.213  0.0451  0.0189  0.3121
   56TCq2    C4  855   0.390   2.098   0.196 -0.5196  0.7997  0.4921
   56TCq2    C5  856   0.389   2.014   0.303  0.4807 -1.0138 -0.3805
   56TCq2    C6  857   0.360   2.059   0.430  0.4341  0.2113  0.4739
   56TCq2    C7  858   0.318   2.189   0.449  0.1559  0.4162  0.7832
   56TCq2    C8  859   0.309   1.951   0.520  0.3032 -0.4589 -0.2176
   56TCq2    O4  860   0.368   1.841   0.505 -0.2659 -0.4610 -0.0240
   56TCq2    C9  861   0.421   2.043   0.065 -0.8223  0.2131 -0.9685
   56TCq2    O5  862   0.453   1.924   0.060 -0.4432 -0.4082  0.3103
   56TCq2    O6  863   0.373   2.105  17.660 -0.5573 -0.1203  0.2432
   56TCq2    H2  864   0.354   2.292   0.123 -0.6230 -3.0477 -1.7812
   56TCq2    H3  865   0.414   1.910   0.290  1.6708 -0.2048 -4.3972
   56TCq2    H4  866   0.320   2.243   0.543 -2.5533  3.8209 -1.1442
   57TMC2    C1  867   3.459   4.100  13.507  0.5304 -0.3112 -0.5056
   57TMC2    C2  868   3.549   4.085  13.612  0.5185 -0.5580 -0.3018
   57TMC2    C3  869   3.681   4.062  13.577  0.3707 -0.4636 -0.1863
   57TMC2    C4  870   3.499   4.114  13.375  0.9988 -0.4524  0.6848
   57TMC2    C5  871   3.639   4.105  13.353 -0.3866 -0.1924  0.0576
   57TMC2    C6  872   3.730   4.078  13.448 -0.3406  0.0348 -0.2253
   57TMC2     C  873   3.313   4.099  13.530 -0.7637 -1.2053 -0.4796
   57TMC2     O  874   3.277   4.108  13.649 -0.2573  0.1594 -0.3029
   57TMC2     H  875   3.509   4.078  13.712 -1.0149  1.9126 -0.7336
   57TMC2    H1  876   3.431   4.148  13.297 -0.8945  0.1279  2.5950
   57TMC2    H2  877   3.837   4.071  13.430  0.3243  2.4771  2.7854
   57TMC2    C7  878   3.678   4.099  13.212 -0.0937  0.0424 -0.1210
   57TMC2    C8  879   3.758   4.017  13.693 -0.0343  0.2561 -0.8507
   57TMC2    O1  880   3.611   4.170  13.136  0.5751 -0.3911 -0.5528
   57TMC2    O2  881   3.749   4.065  13.806  0.7991  0.4176 -0.4610
   57TMC2    O5  882   3.846   3.924  13.652  1.1433  0.3263 -0.2470
   57TMC2    H5  883   3.847   3.892  13.560  0.0916 -0.1129 -0.1112
   58MPD2     C  884   2.852   3.887  13.434 -0.7998 -0.1913  0.6532
   58MPD2    C1  885   2.882   4.004  13.509 -0.5412  0.5081  0.4491
   58MPD2    C2  886   3.010   4.050  13.508 -0.2692 -0.3331 -0.6600
   58MPD2    C3  887   3.112   3.989  13.436  0.0567 -0.6511 -0.0910
   58MPD2    C4  888   3.073   3.891  13.345 -0.0909 -0.9821 -0.2299
   58MPD2    C5  889   2.949   3.833  13.349 -0.4593 -0.3378  0.6776
   58MPD2     H  890   3.026   4.139  13.568 -0.9530 -1.3751  1.1008
   58MPD2    H1  891   3.136   3.847  13.268  1.0198  2.2476 -1.1663
   58MPD2    H2  892   2.753   3.845  13.440  0.0541 -2.3690 -0.3616
   58MPD2    H3  893   2.918   3.755  13.281  0.8527 -0.2899  0.0144
   58MPD2     N  894   3.250   4.022  13.435 -0.5162 -0.0251  0.1379
   58MPD2    H5  895   3.315   3.986  13.366 -1.3437 -0.1720 -0.5685
   58MPD2    N1  896   2.779   4.080  13.571  0.0367 -0.2587  0.7183
   58MPD2    H7  897   2.808   4.174  13.598  0.3705 -0.0549 -0.3419
   59MPD2     C  898   1.361   4.244  13.134 -1.0384  0.1003  0.2073
   59MPD2    C1  899   1.454   4.218  13.033  0.2608 -0.0799 -0.3166
   59MPD2    C2  900   1.585   4.256  13.055 -0.5276  0.0852  0.1614
   59MPD2    C3  901   1.623   4.325  13.174  0.5865 -0.7219 -0.2616
   59MPD2    C4  902   1.520   4.366  13.255 -0.7369 -0.4039  0.3668
   59MPD2    C5  903   1.395   4.321  13.236 -0.4223 -0.3452  0.7933
   59MPD2     H  904   1.657   4.232  12.978  1.4000  0.4606  1.8307
   59MPD2    H1  905   1.544   4.419  13.347 -1.7125  0.8795 -0.1270
   59MPD2    H2  906   1.255   4.220  13.130 -0.5393 -1.4726 -3.7911
   59MPD2    H3  907   1.313   4.356  13.299 -0.5247 -0.5897  0.7935
   59MPD2     N  908   1.756   4.372  13.202 -0.2145  0.6798  0.3390
   59MPD2    H5  909   1.767   4.436  13.280 -2.1223 -0.8701  1.8835
   59MPD2    N1  910   1.426   4.137  12.921  0.1240 -0.3808  0.6631
   59MPD2    H7  911   1.500   4.114  12.855 -0.7294  0.9326 -0.7327
   60TCq2    C1  912   1.301   4.091  12.883  0.5895 -0.2807 -1.0286
   60TCq2    O2  913   1.189   4.097  12.940 -0.1497 -0.3154  0.5922
   60TCq2    C2  914   1.315   4.016  12.754 -0.2596 -0.0838  0.0175
   60TCq2    C3  915   1.227   3.914  12.725 -0.0754  0.3770  0.3347
   60TCq2    C4  916   1.228   3.837  12.613 -0.1121  0.0216 -0.4074
   60TCq2    C5  917   1.322   3.865  12.519 -0.2199  1.0144  0.2095
   60TCq2    C6  918   1.399   3.978  12.542  0.2404  1.3120  0.1416
   60TCq2    C7  919   1.402   4.052  12.650 -0.4280 -0.2769 -0.3948
   60TCq2    C8  920   1.479   4.013  12.425  0.1804 -0.5833 -0.0392
   60TCq2    O4  921   1.516   3.917  12.364  0.4897 -0.2392  0.3201
   60TCq2    C9  922   1.145   3.719  12.602 -0.0473  0.0294  0.0301
   60TCq2    O5  923   1.059   3.700  12.691 -0.0282  0.0340 -0.7319
   60TCq2    O6  924   1.191   3.628  12.529  0.2108 -0.6570  0.2701
   60TCq2    H2  925   1.164   3.893  12.810  0.1173 -0.8900  0.1645
   60TCq2    H3  926   1.329   3.804  12.429 -2.6891  2.3230 -0.8676
   60TCq2    H4  927   1.485   4.120  12.659 -0.2676 -0.7312  1.4427
   61MPD2     C  928   0.461   0.750  14.194  0.4427  0.4507 -0.1160
   61MPD2    C1  929   0.457   0.854  14.281  0.7167 -0.2385 -0.5078
   61MPD2    C2  930   0.455   0.985  14.219 -0.2111 -0.2199 -0.1440
   61MPD2    C3  931   0.443   1.009  14.085  0.2337 -0.2019 -0.1330
   61MPD2    C4  932   0.452   0.899  14.001 -0.0970  0.2204 -0.1548
   61MPD2    C5  933   0.457   0.773  14.054  0.5535 -0.0322  0.0959
   61MPD2     H  934   0.451   1.071  14.285  0.4905  1.1034 -1.8241
   61MPD2    H1  935   0.441   0.905  13.893 -1.2282  1.0728  0.0152
   61MPD2    H2  936   0.454   0.649  14.233  1.8949  0.1305 -0.6838
   61MPD2    H3  937   0.464   0.684  13.992 -0.9637 -0.3055  0.3296
   61MPD2     N  938   0.426   1.130  14.024 -0.3113  0.1846  0.8153
   61MPD2    H5  939   0.409   1.132  13.924 -1.4726 -2.0522  0.9694
   61MPD2    N1  940   0.446   0.838  14.423  0.5172  0.0330 -0.3587
   61MPD2    H7  941   0.442   0.925  14.475 -3.4615  0.0441 -0.6838
   62TCq2    C1  942   0.449   0.721  14.495  0.3254  0.9740 -0.1477
   62TCq2    O2  943   0.459   0.607  14.453  0.0639 -0.5483  0.2012
   62TCq2    C2  944   0.437   0.749  14.640  0.1885  0.4281  0.3284
   62TCq2    C3  945   0.495   0.649  14.717 -0.4005  0.5639 -0.2709
   62TCq2    C4  946   0.528   0.678  14.844  0.2653 -0.7618  0.0049
   62TCq2    C5  947   0.507   0.802  14.888 -0.0325  0.1564 -0.1044
   62TCq2    C6  948   0.441   0.896  14.816  0.8205 -1.2361  0.2714
   62TCq2    C7  949   0.417   0.877  14.686  0.6896 -0.1171  0.0802
   62TCq2    C8  950   0.431   1.038  14.859  0.8937 -0.1391 -0.1003
   62TCq2    O4  951   0.450   1.119  14.769  0.5123  0.5196 -0.1819
   62TCq2    C9  952   0.594   0.579  14.927  0.2065  0.2196 -0.2282
   62TCq2    O5  953   0.572   0.460  14.902 -0.1000 -0.1656 -0.2993
   62TCq2    O6  954   0.659   0.629  15.026 -0.5265  0.2547 -0.0188
   62TCq2    H2  955   0.516   0.555  14.668 -1.7857  0.4234 -0.5926
   62TCq2    H3  956   0.552   0.829  14.983 -0.1810  1.0035 -0.2768
   62TCq2    H4  957   0.366   0.956  14.631 -4.2785 -2.2199  1.6345
   63TMC2    C1  958   0.230   1.195  10.623 -0.1748 -0.6549 -0.2959
   63TMC2    C2  959   0.366   1.193  10.633 -0.1076  0.2453  0.8536
   63TMC2    C3  960   0.444   1.261  10.533 -0.1259 -0.8459 -0.9320
   63TMC2    C4  961   0.167   1.271  10.528  0.3463 -0.8639  0.3241
   63TMC2    C5  962   0.245   1.341  10.434 -0.2692 -0.2170  0.2000
   63TMC2    C6  963   0.382   1.337  10.438 -0.3743 -0.0044  0.7747
   63TMC2     C  964   0.149   1.107  10.709 -0.0831 -0.3748 -0.4312
   63TMC2     O  965   0.207   1.013  10.763 -0.0953  0.7091  0.0716
   63TMC2     H  966   0.417   1.123  10.697  2.5501  1.1768 -0.2311
   63TMC2    H1  967   0.060   1.275  10.511  0.6215  2.3348 -0.7931
   63TMC2    H2  968   0.436   1.402  10.371  0.7302 -1.2492  0.4678
   63TMC2    C7  969   0.177   1.430  10.345 -0.2084 -0.1478  0.6479
   63TMC2    C8  970   0.585   1.250  10.545 -0.1606  0.0793  0.4537
   63TMC2    O1  971   0.069   1.474  10.382 -0.2861  0.2954  0.0365
   63TMC2    O2  972   0.653   1.341  10.579 -0.2484 -0.6187  0.1055
   63TMC2    O5  973   0.617   1.164  10.446  0.3363 -0.1148  0.4630
   63TMC2    H5  974   0.534   1.117  10.426  0.6796 -0.6256  0.2355
   64MPD2     C  975   4.410   0.891  10.805  0.3013  0.4014  0.0112
   64MPD2    C1  976   4.539   0.840  10.806 -0.5182 -0.0767  0.1673
   64MPD2    C2  977   4.653   0.916  10.783 -0.1240  0.3205  0.0493
   64MPD2    C3  978   4.636   1.056  10.764  0.1770  0.0599 -0.1925
   64MPD2    C4  979   4.504   1.109  10.767  0.2964 -1.4470  1.1614
   64MPD2    C5  980   4.392   1.031  10.791 -0.4407  0.5946 -0.6915
   64MPD2     H  981   0.027   0.869  10.778  0.8074  1.8967  3.1205
   64MPD2    H1  982   4.488   1.214  10.746 -1.8284 -1.8900  0.5219
   64MPD2    H2  983   4.321   0.830  10.814 -1.2764  2.4344 -2.0459
   64MPD2    H3  984   4.290   1.068  10.794 -0.2659  0.9031  2.0464
   64MPD2     N  985   0.013   1.141  10.721 -0.1252 -0.0338  0.2625
   64MPD2    H5  986   4.706   1.238  10.712  0.9479  0.2609 -0.2124
   64MPD2    N1  987   4.564   0.701  10.817 -0.5070 -0.0764 -0.2433
   64MPD2    H7  988   4.662   0.675  10.822 -0.6590 -0.2910  1.5721
   65MPD2     C  989   1.707   0.275  15.706  0.3444 -0.0683  0.7980
   65MPD2    C1  990   1.679   0.243  15.566  0.2958 -0.3330  0.4717
   65MPD2    C2  991   1.625   0.120  15.531 -0.9462  0.6811  0.1040
   65MPD2    C3  992   1.614   0.018  15.622  0.0154 -0.6359  0.0519
   65MPD2    C4  993   1.660   0.039  15.751  0.0807  0.1343 -0.3573
   65MPD2    C5  994   1.708   0.167  15.791 -0.2496 -0.4821 -0.2811
   65MPD2     H  995   1.582   0.108  15.433  2.4834  1.8795 -1.5494
   65MPD2    H1  996   1.655   4.678  15.819  0.3352 -0.4695 -1.0863
   65MPD2    H2  997   1.750   0.363  15.750  1.3002  0.4209 -1.1110
   65MPD2    H3  998   1.754   0.183  15.888 -1.9763 -0.4534  0.5337
   65MPD2     N  999   1.547   4.618  15.592 -0.1892 -0.3137  0.6089
   65MPD2    H5 1000   1.545   4.553  15.670 -2.6708  1.0758  1.7298
   65MPD2    N1 1001   1.672   0.349  15.464  0.1046 -0.0571 -0.5341
   65MPD2    H7 1002   1.640   0.333  15.369  1.5539  0.8198 -1.1829
   66TCq2    C1 1003   1.720   0.477  15.482 -0.0932  0.6119 -0.0760
   66TCq2    O2 1004   1.735   0.543  15.585 -0.2667  0.0396  0.2899
   66TCq2    C2 1005   1.734   0.547  15.349 -0.0496  0.6701  0.2119
   66TCq2    C3 1006   1.735   0.474  15.233 -0.4288 -0.2557  1.0356
   66TCq2    C4 1007   1.709   0.545  15.116 -0.5136 -0.4735  0.0383
   66TCq2    C5 1008   1.682   0.676  15.123 -0.0339  0.0442  0.3199
   66TCq2    C6 1009   1.686   0.743  15.234  0.2808  0.3609 -0.2287
   66TCq2    C7 1010   1.708   0.678  15.350  0.5279 -0.2340 -0.6088
   66TCq2    C8 1011   1.616   0.868  15.241 -0.0758  0.4428 -0.0477
   66TCq2    O4 1012   1.638   0.937  15.145 -0.1708  0.3387  0.4383
   66TCq2    C9 1013   1.697   0.482  14.986 -0.1937  0.4026  0.5492
   66TCq2    O5 1014   1.712   0.554  14.885  0.3268  0.8820  0.4573
   66TCq2    O6 1015   1.692   0.354  14.980  0.4540 -0.0560  0.2993
   66TCq2    H2 1016   1.758   0.369  15.227  0.3277 -0.0199 -0.0921
   66TCq2    H3 1017   1.651   0.727  15.032 -2.4784 -1.2612  0.4361
   66TCq2    H4 1018   1.701   0.734  15.442  0.0376  0.6658 -1.1932
   67MPD2     C 1019   1.452   3.970  14.142 -0.1294  0.7127 -0.3920
   67MPD2    C1 1020   1.447   4.102  14.137 -0.3040  0.2144  1.0124
   67MPD2    C2 1021   1.330   4.155  14.088 -0.2120 -0.0894 -0.4445
   67MPD2    C3 1022   1.246   4.074  14.011  0.0420 -0.1588  0.6477
   67MPD2    C4 1023   1.267   3.941  13.999 -0.6876 -0.7946  0.3492
   67MPD2    C5 1024   1.372   3.887  14.063 -0.1769  0.3270  0.5137
   67MPD2     H 1025   1.307   4.261  14.094  0.9859  0.1704 -0.5436
   67MPD2    H1 1026   1.212   3.870  13.938 -0.4492 -2.8884  2.5949
   67MPD2    H2 1027   1.532   3.927  14.201 -2.0045  0.5599  2.0493
   67MPD2    H3 1028   1.390   3.781  14.074 -0.5074  0.0829 -1.3614
   67MPD2     N 1029   1.123   4.133  13.964 -0.1963 -0.0753 -0.1083
   67MPD2    H5 1030   1.115   4.232  13.988 -1.6542 -0.6792  1.9637
   67MPD2    N1 1031   1.529   4.194  14.213  0.5603 -0.1424 -0.0593
   67MPD2    H7 1032   1.497   4.290  14.219 -0.8419 -0.6079 -0.0746
   68TCq2    C1 1033   1.634   4.160  14.284 -0.1464 -0.0360  0.2485
   68TCq2    O2 1034   1.687   4.050  14.299 -0.2511 -0.1201 -0.3251
   68TCq2    C2 1035   1.692   4.272  14.351  0.2956  0.4917 -0.3920
   68TCq2    C3 1036   1.615   4.386  14.394 -0.0753  0.5276  0.3493
   68TCq2    C4 1037   1.666   4.473  14.487  0.2895 -0.0983 -0.0327
   68TCq2    C5 1038   1.794   4.454  14.542 -1.3452  0.1603 -0.4946
   68TCq2    C6 1039   1.866   4.340  14.504 -0.1662 -0.5722  0.5866
   68TCq2    C7 1040   1.817   4.250  14.415 -0.3480 -0.6671 -0.6065
   68TCq2    C8 1041   1.978   4.294  14.587 -0.6412 -0.6476  0.6353
   68TCq2    O4 1042   2.049   4.206  14.539  0.4248  0.1035 -0.3657
   68TCq2    C9 1043   1.588   4.586  14.535 -0.2515  0.1166  0.6435
   68TCq2    O5 1044   1.617   4.630  14.649  0.7628  0.3915 -0.5768
   68TCq2    O6 1045   1.477   4.595  14.487 -0.3954 -0.0669 -0.1758
   68TCq2    H2 1046   1.516   4.413  14.361 -0.0933  3.0307  2.4513
   68TCq2    H3 1047   1.814   4.523  14.623  1.3817 -1.4483  0.2070
   68TCq2    H4 1048   1.880   4.174  14.370  2.3248  0.7615  0.7039
   69TMC2    C1 1049   3.343   1.224  12.520 -0.4464  1.2140  0.0180
   69TMC2    C2 1050   3.208   1.240  12.531  0.0417 -0.6657  0.0045
   69TMC2    C3 1051   3.133   1.263  12.419 -0.3365 -0.0037  0.1197
   69TMC2    C4 1052   3.407   1.235  12.400 -0.0926  0.1032  0.6873
   69TMC2    C5 1053   3.335   1.268  12.289 -0.3102  0.6136  1.0128
   69TMC2    C6 1054   3.196   1.282  12.295 -0.1730  0.1201  0.0465
   69TMC2     C 1055   3.419   1.215  12.635  0.0676 -0.6127  0.3558
   69TMC2     O 1056   3.509   1.293  12.651 -0.2005  0.3395  0.0232
   69TMC2     H 1057   3.157   1.249  12.626 -1.1874 -0.8955 -0.6304
   69TMC2    H1 1058   3.516   1.236  12.404 -0.0884 -1.2747  0.6471
   69TMC2    H2 1059   3.141   1.302  12.204 -1.2597 -0.8929  0.4956
   69TMC2    C7 1060   3.398   1.259  12.163 -0.1814 -1.2712 -0.1172
   69TMC2    C8 1061   2.998   1.321  12.427  0.7745 -0.7649  0.0310
   69TMC2    O1 1062   3.481   1.169  12.150  0.3838  0.3741 -0.2798
   69TMC2    O2 1063   2.911   1.262  12.487  0.6370 -0.5144 -0.7814
   69TMC2    O5 1064   3.006   1.454  12.431  0.1253  0.0715  0.2571
   69TMC2    H5 1065   3.096   1.474  12.398 -0.1738 -0.9741 -1.1706
   70MPD2     C 1066   3.518   1.120  12.908 -0.0330 -0.0090 -0.2162
   70MPD2    C1 1067   3.421   1.051  12.833 -0.1193  0.1015 -1.0727
   70MPD2    C2 1068   3.371   0.930  12.871 -0.1064  0.9108 -0.4486
   70MPD2    C3 1069   3.424   0.876  12.988  0.2993 -0.3359  0.0174
   70MPD2    C4 1070   3.529   0.942  13.060  0.4311  0.0718 -0.8256
   70MPD2    C5 1071   3.574   1.061  13.016  0.0259  0.5050 -0.4406
   70MPD2     H 1072   3.292   0.886  12.812  1.5844 -2.3117 -0.3264
   70MPD2    H1 1073   3.580   0.896  13.143 -0.4087 -2.4815 -1.7242
   70MPD2    H2 1074   3.546   1.218  12.873 -0.9264  0.3363  0.0483
   70MPD2    H3 1075   3.652   1.121  13.063  1.5376 -2.7157  1.2200
   70MPD2     N 1076   3.397   0.744  13.040  0.2535 -0.5113  1.2516
   70MPD2    H5 1077   3.451   0.706  13.117  1.3350 -0.5748  0.4611
   70MPD2    N1 1078   3.377   1.102  12.702  1.1390 -0.3527 -0.2632
   70MPD2    H7 1079   3.306   1.050  12.652  1.0279 -1.9360  1.5392
   71TMC2    C1 1080   0.561   0.226   1.011 -0.3509  0.0147  0.3954
   71TMC2    C2 1081   0.623   0.116   0.955 -0.6477 -0.6619 -0.5343
   71TMC2    C3 1082   0.554   0.001   0.951 -0.5346 -0.1356 -0.5586
   71TMC2    C4 1083   0.428   0.227   1.046 -0.1355 -0.3665  0.0749
   71TMC2    C5 1084   0.361   0.110   1.027  0.0019  0.1765 -0.0822
   71TMC2    C6 1085   0.426   4.722   0.994 -0.7483 -0.0918 -0.1333
   71TMC2     C 1086   0.638   0.339   1.025  0.3138 -0.1608  0.7917
   71TMC2     O 1087   0.576   0.448   1.030 -0.1681 -0.6530  0.0042
   71TMC2     H 1088   0.721   0.132   0.910 -0.8796  1.9527 -0.1421
   71TMC2    H1 1089   0.384   0.316   1.091  1.2193  0.3389  0.0037
   71TMC2    H2 1090   0.363   4.634   0.994 -1.7809  0.6418 -1.2601
   71TMC2    C7 1091   0.221   0.097   1.024  0.2526 -0.4917 -0.6088
   71TMC2    C8 1092   0.611   4.609   0.896 -0.1343 -1.3182 -0.2084
   71TMC2    O1 1093   0.173   4.713   1.044 -0.3089 -0.6900 -0.3208
   71TMC2    O2 1094   0.728   4.568   0.910  0.4076 -0.1802  0.1563
   71TMC2    O5 1095   0.514   4.545   0.830  0.1782 -0.4316  0.4368
   71TMC2    H5 1096   0.433   4.599   0.818 -1.0048 -2.5234 -1.0782
   72MPD2     C 1097   1.047   0.599   1.183 -0.1435 -0.1936  0.2840
   72MPD2    C1 1098   0.944   0.635   1.101  0.7364  0.8555 -0.1741
   72MPD2    C2 1099   0.841   0.544   1.075 -0.1253  0.4500 -0.8693
   72MPD2    C3 1100   0.851   0.410   1.114 -0.0039 -0.0538 -0.3506
   72MPD2    C4 1101   0.957   0.383   1.196  0.5373 -0.1849 -0.4307
   72MPD2    C5 1102   1.041   0.478   1.241 -0.3565  0.2685  0.2895
   72MPD2     H 1103   0.770   0.570   0.998 -1.2577 -0.5027 -0.1366
   72MPD2    H1 1104   0.977   0.285   1.238  1.2569 -0.4425 -1.3817
   72MPD2    H2 1105   1.117   0.668   1.228 -0.1198  0.4973 -0.7938
   72MPD2    H3 1106   1.115   0.437   1.308  2.3350  3.7712 -0.5486
   72MPD2     N 1107   0.757   0.312   1.085  0.0166  0.1094 -0.1535
   72MPD2    H5 1108   0.770   0.225   1.136  0.4479 -0.6178 -1.5219
   72MPD2    N1 1109   0.946   0.752   1.021  0.1108 -0.3011  0.2327
   72MPD2    H7 1110   0.878   0.755   0.945  1.3321  0.9501 -0.8139
   73TMC2    C1 1111   0.528   3.002  14.184  0.5214  0.3573  0.0106
   73TMC2    C2 1112   0.471   2.879  14.200  0.0003 -0.2590 -0.2456
   73TMC2    C3 1113   0.517   2.804  14.303 -0.0497  0.4637 -0.6571
   73TMC2    C4 1114   0.627   3.044  14.268  0.0122 -0.4607  0.2086
   73TMC2    C5 1115   0.681   2.955  14.354 -0.2780  0.9979 -0.6525
   73TMC2    C6 1116   0.623   2.839  14.378  0.2544  0.1492  0.0175
   73TMC2     C 1117   0.551   3.043  14.050  0.6548  0.2914  0.8669
   73TMC2     O 1118   0.655   3.104  14.047 -0.2566 -0.0239 -0.2705
   73TMC2     H 1119   0.399   2.832  14.133  2.3395 -0.5741 -2.5223
   73TMC2    H1 1120   0.662   3.146  14.255 -1.3269  0.0963  1.0136
   73TMC2    H2 1121   0.672   2.766  14.442 -1.1257 -2.2366 -1.6456
   73TMC2    C7 1122   0.822   2.965  14.359 -0.5236  0.3240  0.1586
   73TMC2    C8 1123   0.429   2.696  14.343 -0.1042  0.0101 -0.3119
   73TMC2    O1 1124   0.886   2.920  14.450 -0.4857  0.1643 -0.2937
   73TMC2    O2 1125   0.305   2.703  14.326 -0.0444 -0.8049  0.0624
   73TMC2    O5 1126   0.495   2.585  14.290  0.5786 -0.0218 -0.1932
   73TMC2    H5 1127   0.593   2.594  14.286  0.5932 -0.2479 -0.4011
   74MPD2     C 1128   0.483   3.087  13.549  0.0193 -0.0271  0.2521
   74MPD2    C1 1129   0.597   3.103  13.627  0.3781 -0.2467  0.1662
   74MPD2    C2 1130   0.580   3.076  13.761 -0.2168  0.6390  0.0501
   74MPD2    C3 1131   0.460   3.048  13.820  0.4370 -0.0653  0.6981
   74MPD2    C4 1132   0.353   3.035  13.746 -0.2229 -0.5044 -0.1272
   74MPD2    C5 1133   0.363   3.052  13.606  0.4989 -0.4589 -0.3124
   74MPD2     H 1134   0.661   3.067  13.833  0.2961  1.4361 -0.4225
   74MPD2    H1 1135   0.261   2.996  13.789 -0.5833  2.0252  1.4019
   74MPD2    H2 1136   0.494   3.106  13.443  0.8706  1.5694  0.6136
   74MPD2    H3 1137   0.279   3.045  13.538 -1.0583 -0.3069  1.6377
   74MPD2     N 1138   0.449   3.021  13.959  0.5441  0.4121 -0.5114
   74MPD2    H5 1139   0.356   3.006  13.996  1.2567 -0.7109  0.8057
   74MPD2    N1 1140   0.722   3.128  13.567  0.1734  0.2438 -0.4471
   74MPD2    H7 1141   0.728   3.138  13.466  1.4673 -0.3247 -0.4288
   75TCq2    C1 1142   1.026   4.074  13.893 -0.5693 -0.1371  0.2420
   75TCq2    O2 1143   1.022   3.971  13.833 -0.1903 -0.0641  0.0262
   75TCq2    C2 1144   0.936   4.177  13.867  0.0441 -0.0930 -0.2764
   75TCq2    C3 1145   0.895   4.256  13.966 -0.0511 -0.1793  0.5595
   75TCq2    C4 1146   0.779   4.324  13.948  0.1479 -0.2322 -0.2346
   75TCq2    C5 1147   0.712   4.331  13.832  0.6205 -0.0859  0.4096
   75TCq2    C6 1148   0.744   4.237  13.738 -0.4296  0.0447  0.2332
   75TCq2    C7 1149   0.853   4.159  13.760 -0.7003 -0.8543  0.9251
   75TCq2    C8 1150   0.668   4.214  13.612 -0.5850  0.2938  0.4070
   75TCq2    O4 1151   0.721   4.148  13.518 -0.5719  0.0393 -0.3104
   75TCq2    C9 1152   0.731   4.402  14.055  0.4576  0.8273 -0.5147
   75TCq2    O5 1153   0.633   4.483  14.034 -0.3488 -0.0679 -0.4768
   75TCq2    O6 1154   0.833   4.448  14.115 -0.9382 -0.3077 -0.1799
   75TCq2    H2 1155   0.934   4.259  14.067  0.1766  1.7419  0.4145
   75TCq2    H3 1156   0.621   4.390  13.836 -0.4371 -1.7091  0.3889
   75TCq2    H4 1157   0.880   4.082  13.688  0.3247  0.3946 -0.0399
   76MPD2     C 1158   4.346   0.858  12.060 -0.2603 -0.1953  0.5143
   76MPD2    C1 1159   4.320   0.867  11.926 -0.5665 -1.0055 -0.1890
   76MPD2    C2 1160   4.397   0.793  11.837 -0.6976 -0.6290 -0.1236
   76MPD2    C3 1161   4.501   0.714  11.884 -0.7366 -0.7705 -0.2983
   76MPD2    C4 1162   4.525   0.706  12.019 -0.0175 -0.4583 -0.0944
   76MPD2    C5 1163   4.443   0.769  12.104  0.2940 -0.9751 -0.6926
   76MPD2     H 1164   4.372   0.790  11.732 -0.5679 -1.7054 -0.1225
   76MPD2    H1 1165   4.606   0.652  12.066 -0.1034 -1.6915 -1.3593
   76MPD2    H2 1166   4.279   0.912  12.126  2.7789  1.4102  2.3010
   76MPD2    H3 1167   4.445   0.755  12.212 -0.0318  1.2103 -0.3930
   76MPD2     N 1168   4.589   0.656  11.799  0.2372  0.0434 -1.2095
   76MPD2    H5 1169   4.668   0.605  11.837  1.1943  0.8039 -2.1823
   76MPD2    N1 1170   4.216   0.950  11.878  0.0750  0.9571  0.0160
   76MPD2    H7 1171   4.144   0.977  11.944  1.9020  0.6330  2.1328
   77TCq2    C1 1172   4.582   0.650  11.662 -0.0775  0.3290  0.9959
   77TCq2    O2 1173   4.493   0.682  11.584 -0.0597 -0.3527 -0.3710
   77TCq2    C2 1174   4.689   0.568  11.609 -0.6880 -0.4551 -0.1776
   77TCq2    C3 1175   4.656   0.454  11.546  0.5346  0.0305 -0.1886
   77TCq2    C4 1176   0.011   0.344  11.551 -0.0319  0.2558  0.1671
   77TCq2    C5 1177   0.123   0.346  11.625  0.2159 -0.8335 -0.6204
   77TCq2    C6 1178   0.162   0.463  11.685 -0.1980  0.0642 -0.3273
   77TCq2    C7 1179   0.082   0.572  11.682 -0.2092 -0.5390 -0.2001
   77TCq2    C8 1180   0.291   0.475  11.737 -0.1525  0.0212 -0.1190
   77TCq2    O4 1181   0.336   0.585  11.729  0.1281 -0.0828  0.2614
   77TCq2    C9 1182   4.698   0.228  11.480 -0.1765  0.0811  0.1935
   77TCq2    O5 1183   4.579   0.218  11.442 -0.1113 -0.1583  0.2223
   77TCq2    O6 1184   0.056   0.130  11.481 -0.2953 -0.4170  0.1211
   77TCq2    H2 1185   4.558   0.446  11.500  1.3516  0.4186 -1.9877
   77TCq2    H3 1186   0.181   0.254  11.625  2.5322  0.6045  0.2152
   77TCq2    H4 1187   0.114   0.666  11.726 -0.7691 -1.2365  1.6977
   78MPD1     C 1188   2.820   4.518   3.008  0.1498 -0.5784 -0.2857
   78MPD1    C1 1189   2.813   4.499   2.867 -0.8455 -0.9580 -0.1459
   78MPD1    C2 1190   2.705   4.441   2.809  0.3656 -0.4000 -0.5656
   78MPD1    C3 1191   2.614   4.381   2.886 -0.6113  0.2692 -0.7865
   78MPD1    C4 1192   2.614   4.399   3.021  0.3642  0.0509  0.0998
   78MPD1    C5 1193   2.716   4.470   3.087  0.1203  0.5253 -0.0046
   78MPD1     H 1194   2.693   4.443   2.702 -0.1744 -0.9420 -0.5147
   78MPD1    H1 1195   2.537   4.352   3.081 -0.1309  1.7146  0.7616
   78MPD1    H2 1196   2.908   4.562   3.054 -0.9653 -0.9373  2.1934
   78MPD1    H3 1197   2.714   4.482   3.194  2.2318 -3.7153  0.5071
   78MPD1     N 1198   2.509   4.312   2.817  0.7853 -0.0942  0.1420
   78MPD1    H5 1199   2.518   4.325   2.717  2.7033  2.0085  0.5976
   78MPD1    N1 1200   2.901   4.581   2.787 -0.6257 -0.5602  0.5542
   78MPD1    H6 1201   2.912   4.545   2.693 -1.9647 -0.5498  0.3936
   78MPD1    H7 1202   2.990   4.621   2.817 -0.3341  0.0833 -1.1935
   79TCq2    C1 1203   2.403   4.243   2.867  0.3894  0.7687  0.2186
   79TCq2    O2 1204   2.389   4.205   2.981 -0.5504 -0.2009 -0.0786
   79TCq2    C2 1205   2.295   4.229   2.776 -0.2243  0.2826 -0.1372
   79TCq2    C3 1206   2.192   4.138   2.811  0.0902  0.5040 -0.0067
   79TCq2    C4 1207   2.078   4.131   2.744  0.0790  0.4210  0.0153
   79TCq2    C5 1208   2.058   4.208   2.629 -0.5136 -0.7849  0.4661
   79TCq2    C6 1209   2.156   4.312   2.598  0.2237 -0.4239  0.0677
   79TCq2    C7 1210   2.268   4.321   2.678 -0.3782 -0.4859 -0.3267
   79TCq2    C8 1211   2.139   4.397   2.487  0.1701 -0.3561  0.0018
   79TCq2    O4 1212   2.231   4.469   2.459  0.2164 -0.2764  0.2426
   79TCq2    C9 1213   1.980   4.038   2.788 -0.0315 -0.4045  0.2761
   79TCq2    O5 1214   1.875   4.035   2.717  0.4082  0.6779 -0.3703
   79TCq2    O6 1215   1.972   4.007   2.909  0.1286  0.0560  0.7548
   79TCq2    H2 1216   2.200   4.080   2.903  0.4242  0.3385 -0.1398
   79TCq2    H3 1217   1.961   4.201   2.582  0.1051  0.1074 -0.9335
   79TCq2    H4 1218   2.337   4.403   2.661  1.5674 -2.0262 -0.0125
   80MPD2     C 1219   3.756   0.419  12.207  0.0494 -0.0973  0.1237
   80MPD2    C1 1220   3.621   0.419  12.180 -0.1125 -1.1437 -0.7486
   80MPD2    C2 1221   3.537   0.454  12.282 -0.0541  0.6771 -0.6699
   80MPD2    C3 1222   3.579   0.469  12.411  0.0024  0.0588  0.6896
   80MPD2    C4 1223   3.718   0.461  12.437 -0.1917  0.1472 -0.8385
   80MPD2    C5 1224   3.805   0.433  12.338  0.2550 -0.0428  0.3407
   80MPD2     H 1225   3.432   0.460  12.258 -0.5710 -2.5624  0.8115
   80MPD2    H1 1226   3.742   0.475  12.541  0.4489 -1.7896 -0.7123
   80MPD2    H2 1227   3.838   0.398  12.140  0.4458 -0.1252  0.6104
   80MPD2    H3 1228   3.907   0.431  12.374 -0.0767  1.5302  1.3604
   80MPD2     N 1229   3.486   0.462  12.516  0.0688  0.3438 -0.2424
   80MPD2    H5 1230   3.518   0.437  12.609 -3.2344 -1.1149  0.5027
   80MPD2    N1 1231   3.568   0.406  12.052  0.0057 -0.3149 -0.1940
   80MPD2    H7 1232   3.467   0.403  12.043 -0.2655  0.3560  2.6085
   81TCq2    C1 1233   3.639   0.386  11.937  0.9566  0.0833 -0.3822
   81TCq2    O2 1234   3.763   0.388  11.926  0.4112  0.2035  0.2891
   81TCq2    C2 1235   3.556   0.332  11.831  0.0944 -0.5326  0.3460
   81TCq2    C3 1236   3.607   0.323  11.703 -0.1932 -0.2120  0.3162
   81TCq2    C4 1237   3.520   0.277  11.602 -0.3671 -0.7233 -0.4310
   81TCq2    C5 1238   3.395   0.242  11.632 -0.1479 -0.4398  0.2504
   81TCq2    C6 1239   3.353   0.242  11.757  0.3124 -0.7472  0.2620
   81TCq2    C7 1240   3.427   0.289  11.862 -0.1486 -0.1567 -0.1324
   81TCq2    C8 1241   3.208   0.222  11.776 -0.2632 -0.1236 -0.1559
   81TCq2    O4 1242   3.129   0.246  11.680  0.4525  0.2414  0.6525
   81TCq2    C9 1243   3.567   0.272  11.467 -0.3014  0.4961  0.2171
   81TCq2    O5 1244   3.694   0.254  11.455  0.1218 -0.3866  0.0685
   81TCq2    O6 1245   3.482   0.249  11.380  0.3422  0.5060  0.5990
   81TCq2    H2 1246   3.699   0.375  11.681 -1.0984  1.3803  0.2752
   81TCq2    H3 1247   3.329   0.215  11.550  0.5853 -1.1018 -0.1208
   81TCq2    H4 1248   3.381   0.283  11.960  0.9859 -1.2973  0.3296
   82MPD2     C 1249   2.195   4.121  10.541 -0.3427 -0.3575 -0.3757
   82MPD2    C1 1250   2.092   4.044  10.591 -0.5286 -0.2982  0.3192
   82MPD2    C2 1251   2.116   3.959  10.691  0.3198  0.1694 -1.1127
   82MPD2    C3 1252   2.242   3.944  10.750 -0.5958 -0.1772  0.4363
   82MPD2    C4 1253   2.341   4.019  10.698  0.3712  0.1122  0.6055
   82MPD2    C5 1254   2.319   4.104  10.595  0.3670  0.4445 -0.2628
   82MPD2     H 1255   2.037   3.896  10.729  0.8569  0.8091  1.0870
   82MPD2    H1 1256   2.439   4.018  10.745  0.3081 -0.2334  0.7297
   82MPD2    H2 1257   2.180   4.201  10.469 -0.4406 -0.5611 -0.5797
   82MPD2    H3 1258   2.403   4.166  10.568  1.0629 -0.0031  0.8625
   82MPD2     N 1259   2.274   3.863  10.858  0.2044 -0.2445  0.1900
   82MPD2    H5 1260   2.371   3.860  10.888  0.3482 -1.3821 -0.4018
   82MPD2    N1 1261   1.969   4.045  10.525  0.5249  0.5153  0.1230
   82MPD2    H7 1262   1.965   4.087  10.433  2.1304 -1.0186 -0.6449
   83TCq2    C1 1263   2.181   3.787  10.931 -0.1767 -0.3559 -0.0827
   83TCq2    O2 1264   2.059   3.783  10.930  0.4489  0.0279  0.5793
   83TCq2    C2 1265   2.241   3.695  11.016  0.0112  0.3837 -0.0205
   83TCq2    C3 1266   2.342   3.740  11.094  0.0404 -0.2968  0.1064
   83TCq2    C4 1267   2.408   3.652  11.176 -0.0195 -0.4717  0.0002
   83TCq2    C5 1268   2.370   3.519  11.173  0.0092  0.3495 -0.9547
   83TCq2    C6 1269   2.260   3.477  11.100  0.2839 -0.2927  0.1451
   83TCq2    C7 1270   2.191   3.568  11.028  0.8811 -0.1284  1.0260
   83TCq2    C8 1271   2.180   3.380  11.172 -0.1040 -0.0818 -0.4579
   83TCq2    O4 1272   2.180   3.385  11.294  0.0119 -0.1605  0.1253
   83TCq2    C9 1273   2.524   3.697  11.250 -0.2943 -0.6439 -0.5576
   83TCq2    O5 1274   2.570   3.814  11.222  0.2130 -0.1251 -0.5953
   83TCq2    O6 1275   2.593   3.604  11.300  0.3686  0.0079 -0.1488
   83TCq2    H2 1276   2.361   3.847  11.097 -0.1414 -0.1842 -2.1437
   83TCq2    H3 1277   2.423   3.457  11.244 -0.8305  2.3012  1.3813
   83TCq2    H4 1278   2.101   3.535  10.977  0.4974  0.0151  1.6114
   84TCq2    C1 1279   2.566   2.663  10.348 -0.4783 -0.2903  0.0123
   84TCq2    O2 1280   2.518   2.615  10.248 -0.0999 -0.3229 -0.5966
   84TCq2    C2 1281   2.552   2.591  10.473  0.2631  0.1961  0.3633
   84TCq2    C3 1282   2.503   2.463  10.468  0.2322  0.3848 -1.1131
   84TCq2    C4 1283   2.530   2.386  10.577 -0.5595  0.1930 -0.7976
   84TCq2    C5 1284   2.587   2.431  10.689 -0.7215  0.8370 -0.3053
   84TCq2    C6 1285   2.623   2.562  10.695 -1.0364  0.6963 -1.2004
   84TCq2    C7 1286   2.617   2.639  10.582 -0.3279 -0.0367  0.3766
   84TCq2    C8 1287   2.675   2.629  10.817  0.7526 -0.4312  0.0954
   84TCq2    O4 1288   2.720   2.743  10.812 -0.0869  0.0795 -0.0637
   84TCq2    C9 1289   2.496   2.246  10.571  0.3110  0.1458  0.6601
   84TCq2    O5 1290   2.495   2.198  10.460  0.5178  0.8121 -0.0611
   84TCq2    O6 1291   2.468   2.193  10.683 -0.5876 -0.3364  0.3810
   84TCq2    H2 1292   2.454   2.425  10.379 -0.6091 -0.9768 -0.0726
   84TCq2    H3 1293   2.605   2.351  10.760 -1.9470  0.6523 -0.1904
   84TCq2    H4 1294   2.630   2.746  10.591 -4.0476  0.2332  2.3581
   85MPD2     C 1295   3.475   1.286  16.211 -0.2991  0.3378  0.4718
   85MPD2    C1 1296   3.589   1.208  16.185  0.2564  0.4630  0.2564
   85MPD2    C2 1297   3.697   1.268  16.120  0.4430  0.5750  0.0463
   85MPD2    C3 1298   3.689   1.395  16.061  0.7297 -0.0671  0.0270
   85MPD2    C4 1299   3.577   1.469  16.092  0.2548 -0.0383  0.2188
   85MPD2    C5 1300   3.482   1.418  16.178  0.3177  0.6688  0.2020
   85MPD2     H 1301   3.783   1.205  16.100 -0.2248  0.4092 -2.3153
   85MPD2    H1 1302   3.571   1.571  16.055  2.3877 -0.5716 -1.6021
   85MPD2    H2 1303   3.389   1.256  16.268 -0.4631 -0.3038 -0.1095
   85MPD2    H3 1304   3.393   1.475  16.202  1.3418  2.4647 -0.3127
   85MPD2     N 1305   3.787   1.444  15.971 -0.4671 -0.6034  0.0503
   85MPD2    H5 1306   3.875   1.393  15.963 -0.9081 -1.4000  0.2539
   85MPD2    N1 1307   3.596   1.066  16.205 -0.7448  0.0961  0.0310
   85MPD2    H7 1308   3.682   1.015  16.185  0.0472  0.6187  2.0711
   86TCq2    C1 1309   3.778   1.558  15.897  0.0390  0.3963 -0.1606
   86TCq2    O2 1310   3.684   1.635  15.875 -0.3120 -0.3605  0.4698
   86TCq2    C2 1311   3.902   1.588  15.823 -0.6655  0.0246  0.5173
   86TCq2    C3 1312   3.895   1.690  15.733  0.0245  0.4591  0.4606
   86TCq2    C4 1313   4.008   1.709  15.650 -0.1879  0.0926 -0.1752
   86TCq2    C5 1314   4.107   1.612  15.647 -0.0500 -0.3346  0.0070
   86TCq2    C6 1315   4.100   1.508  15.738  0.3490  0.4871  0.1315
   86TCq2    C7 1316   4.011   1.499  15.833  0.2766 -0.6206 -0.6606
   86TCq2    C8 1317   4.164   1.393  15.697 -0.0853 -0.3432  0.4781
   86TCq2    O4 1318   4.220   1.320  15.778  0.1156 -0.2079 -0.6584
   86TCq2    C9 1319   4.011   1.824  15.565  0.5268  0.1713  0.2231
   86TCq2    O5 1320   4.108   1.835  15.481 -0.2707  0.1492 -0.8367
   86TCq2    O6 1321   3.932   1.920  15.591  0.4018 -0.1452 -0.1915
   86TCq2    H2 1322   3.818   1.766  15.738 -2.0164 -1.4371 -2.3112
   86TCq2    H3 1323   4.183   1.619  15.570 -0.1966 -0.8906 -0.1802
   86TCq2    H4 1324   4.017   1.415  15.901 -0.9199 -1.3515 -1.4591
   87MPD2     C 1325   1.424   4.381   1.043  0.0262  0.4597 -0.8761
   87MPD2    C1 1326   1.491   4.489   1.090 -0.1237 -0.3712  1.0622
   87MPD2    C2 1327   1.454   4.622   1.055 -0.2727 -0.8933  0.0503
   87MPD2    C3 1328   1.350   4.641   0.960 -0.8893  0.4665  0.0535
   87MPD2    C4 1329   1.298   4.530   0.901 -0.6518 -0.5311  0.1127
   87MPD2    C5 1330   1.330   4.403   0.945  0.2954 -0.0901 -0.2073
   87MPD2     H 1331   1.503   4.704   1.107  0.0288 -0.6239 -0.6523
   87MPD2    H1 1332   1.222   4.548   0.825 -1.0019  1.8612  1.0465
   87MPD2    H2 1333   1.447   4.280   1.075  2.0747  1.1783 -0.0926
   87MPD2    H3 1334   1.279   4.319   0.899  0.0537 -0.4406  0.7137
   87MPD2     N 1335   1.285   0.037   0.936  0.4920  0.0859  0.0238
   87MPD2    H5 1336   1.201   0.029   0.879  0.4445  2.9098 -0.2788
   87MPD2    N1 1337   1.598   4.460   1.179  0.0092  0.9452  0.1029
   87MPD2    H7 1338   1.613   4.363   1.204 -0.3410  0.5878 -1.0824
   88TCq2    C1 1339   1.697   4.554   1.212 -0.6666  0.0971  1.1451
   88TCq2    O2 1340   1.720   4.671   1.184 -0.0215  0.0172 -0.1081
   88TCq2    C2 1341   1.806   4.494   1.285  0.4495  0.0949 -0.3304
   88TCq2    C3 1342   1.797   4.374   1.344 -0.1503 -0.1668  0.5913
   88TCq2    C4 1343   1.914   4.310   1.377  0.1189  0.0208 -0.5144
   88TCq2    C5 1344   2.041   4.359   1.361  0.3628  0.2293  1.0366
   88TCq2    C6 1345   2.050   4.482   1.306 -0.2862 -0.0691  0.1932
   88TCq2    C7 1346   1.933   4.546   1.264  0.3584 -0.2309  0.0411
   88TCq2    C8 1347   2.165   4.513   1.226  0.2693  0.9312 -0.3423
   88TCq2    O4 1348   2.155   4.588   1.132  0.1749 -0.0298 -0.1148
   88TCq2    C9 1349   1.916   4.168   1.401 -0.5571 -0.2296  0.1313
   88TCq2    O5 1350   1.816   4.098   1.361  0.0474 -0.0921 -0.0001
   88TCq2    O6 1351   2.029   4.115   1.416 -0.9719  0.3910  0.9556
   88TCq2    H2 1352   1.703   4.325   1.369  0.1563 -0.9072  0.3119
   88TCq2    H3 1353   2.128   4.298   1.379 -1.2896 -1.9306  1.6937
   88TCq2    H4 1354   1.949   4.646   1.225 -0.4041 -0.0053  0.3126
   89MPD2     C 1355   1.556   2.065   2.202  0.1121 -0.1346 -0.4154
   89MPD2    C1 1356   1.511   2.110   2.081 -0.4237 -0.7254 -0.6682
   89MPD2    C2 1357   1.610   2.122   1.980 -0.2000 -0.2009  0.2213
   89MPD2    C3 1358   1.743   2.091   2.000  0.0916  0.1560  0.1712
   89MPD2    C4 1359   1.788   2.047   2.124  0.5222  0.4390  0.3441
   89MPD2    C5 1360   1.689   2.037   2.223  0.2173 -0.9368  0.3989
   89MPD2     H 1361   1.582   2.153   1.880 -0.0909  0.2395  0.3270
   89MPD2    H1 1362   1.890   2.025   2.152 -0.6750 -2.1734  2.7357
   89MPD2    H2 1363   1.497   2.057   2.293  0.0380 -0.2600 -0.4741
   89MPD2    H3 1364   1.715   2.001   2.322  0.1078  1.8911  1.4574
   89MPD2     N 1365   1.841   2.106   1.894  0.3448 -0.1529 -0.5685
   89MPD2    H5 1366   1.809   2.138   1.803 -0.4828  0.4655 -0.0604
   89MPD2    N1 1367   1.384   2.154   2.052  0.1732 -0.6759  0.1357
   89MPD2    H7 1368   1.373   2.195   1.959  1.4411  1.0748  0.7447
   90TCq2    C1 1369   1.973   2.070   1.899  0.0807  0.4238  0.0499
   90TCq2    O2 1370   2.027   2.002   1.979 -0.1872 -0.1515  0.1466
   90TCq2    C2 1371   2.053   2.108   1.776  0.1399  0.3278  0.3216
   90TCq2    C3 1372   2.169   2.040   1.770  0.2789 -0.1866 -0.1124
   90TCq2    C4 1373   2.262   2.092   1.686  0.1572  0.0890 -0.5310
   90TCq2    C5 1374   2.238   2.200   1.603 -0.3317 -0.3703 -0.1244
   90TCq2    C6 1375   2.121   2.265   1.615  0.6315  0.4740  0.3006
   90TCq2    C7 1376   2.021   2.220   1.707 -0.4119 -0.1041 -0.3556
   90TCq2    C8 1377   2.096   2.393   1.550  0.1645  0.8895  0.1345
   90TCq2    O4 1378   1.982   2.436   1.562  0.4239 -0.5727 -0.1576
   90TCq2    C9 1379   2.388   2.029   1.681 -0.4997  0.0755 -0.4941
   90TCq2    O5 1380   2.427   1.963   1.783  0.1579 -0.3319 -1.0058
   90TCq2    O6 1381   2.466   2.056   1.587 -0.2119 -0.2771  0.1843
   90TCq2    H2 1382   2.189   1.952   1.830 -0.0062 -1.3250 -1.6782
   90TCq2    H3 1383   2.310   2.222   1.526 -1.1813 -1.9473 -1.3811
   90TCq2    H4 1384   1.934   2.276   1.737 -0.3053  0.5452 -1.2645
   91TMC2    C1 1385   3.657   2.570  16.457  0.0165  0.5754 -0.6678
   91TMC2    C2 1386   3.724   2.605  16.575  0.3293  0.0260  0.4292
   91TMC2    C3 1387   3.674   2.547  16.687 -0.2962  0.2038  0.3872
   91TMC2    C4 1388   3.543   2.501  16.452  0.1644 -0.1181 -0.0687
   91TMC2    C5 1389   3.493   2.459  16.574 -0.0466  0.5692  0.7176
   91TMC2    C6 1390   3.562   2.476  16.694 -0.4588  0.1612 -0.2953
   91TMC2     C 1391   3.719   2.577  16.326 -0.8592  0.3789 -0.0913
   91TMC2     O 1392   3.654   2.575  16.226  0.0195 -0.2576 -0.7536
   91TMC2     H 1393   3.813   2.666  16.574 -0.4128  1.0713 -2.4671
   91TMC2    H1 1394   3.490   2.480  16.359 -0.6332 -0.8746  0.5494
   91TMC2    H2 1395   3.511   2.459  16.788  0.9130 -0.3043  0.3741
   91TMC2    C7 1396   3.352   2.424  16.588  0.2002  0.9892 -0.0034
   91TMC2    C8 1397   3.744   2.553  16.817 -0.2155  0.1459  0.0001
   91TMC2    O1 1398   3.303   2.411  16.701 -0.1112 -0.0036  0.1885
   91TMC2    O2 1399   3.802   2.654  16.855  0.2047  0.5852 -0.4654
   91TMC2    O5 1400   3.733   2.430  16.873 -0.0786 -0.1209  0.1702
   91TMC2    H5 1401   3.672   2.375  16.820  0.2731 -1.2869  0.9857
   92MPD2     C 1402   3.893   2.638  16.090  0.3161  0.4082  0.1415
   92MPD2    C1 1403   3.934   2.619  16.221 -0.1984 -0.5245 -0.7254
   92MPD2    C2 1404   4.071   2.614  16.244 -0.0085  0.1585 -0.1342
   92MPD2    C3 1405   4.158   2.606  16.142  0.2561 -0.1974  0.7708
   92MPD2    C4 1406   4.116   2.610  16.011 -0.6508 -0.1001 -0.2681
   92MPD2    C5 1407   3.982   2.634  15.987 -0.0982 -0.4891  0.7729
   92MPD2     H 1408   4.105   2.606  16.346 -0.3688  0.9510  0.0466
   92MPD2    H1 1409   4.172   2.591  15.920 -1.3858  0.8941 -0.9210
   92MPD2    H2 1410   3.790   2.669  16.075  0.0386 -0.5534  0.0716
   92MPD2    H3 1411   3.943   2.636  15.886  1.3195  1.6143  0.2612
   92MPD2     N 1412   4.292   2.600  16.180 -0.1708 -0.2827  0.4642
   92MPD2    H5 1413   4.316   2.623  16.276 -1.0045 -0.0721  0.6224
   92MPD2    N1 1414   3.851   2.614  16.339 -0.1807 -0.6358  0.0260
   92MPD2    H7 1415   3.899   2.610  16.428  0.2941  2.6433 -0.0727
   93MPD2     C 1416   0.506   2.656  13.627  0.3614  0.4970  0.1582
   93MPD2    C1 1417   0.494   2.699  13.761 -0.2763  0.4255  0.5932
   93MPD2    C2 1418   0.377   2.690  13.832 -0.2870  0.0402  0.5175
   93MPD2    C3 1419   0.262   2.659  13.757  0.7506  0.0930  0.1071
   93MPD2    C4 1420   0.276   2.616  13.626  0.0351 -0.0560 -0.6473
   93MPD2    C5 1421   0.394   2.622  13.561  0.3090  0.1633 -0.1741
   93MPD2     H 1422   0.377   2.718  13.937 -0.4365  1.1360  0.2238
   93MPD2    H1 1423   0.188   2.593  13.567 -1.7618  2.2879  1.1576
   93MPD2    H2 1424   0.599   2.664  13.571  0.3994  1.9663  0.4095
   93MPD2    H3 1425   0.389   2.607  13.454 -1.0871  1.0387 -0.2283
   93MPD2     N 1426   0.133   2.682  13.813  0.6832 -0.2488 -0.5980
   93MPD2    H5 1427   0.135   2.747  13.891  0.9649 -0.3831 -0.4918
   93MPD2    N1 1428   0.607   2.734  13.836  1.0764  0.5540 -0.0611
   93MPD2    H7 1429   0.592   2.751  13.935 -0.9669 -1.1591 -0.0834
   94TCq2    C1 1430   0.737   2.743  13.783 -0.5450  0.3345  0.9297
   94TCq2    O2 1431   0.781   2.722  13.672  0.4362 -0.0522 -0.9513
   94TCq2    C2 1432   0.833   2.746  13.897  0.3347  0.3129 -1.1355
   94TCq2    C3 1433   0.794   2.703  14.018  0.4004 -0.4045 -0.1480
   94TCq2    C4 1434   0.894   2.663  14.098  0.3707  0.0142 -0.0629
   94TCq2    C5 1435   1.028   2.661  14.065 -0.0084 -0.2561  0.3964
   94TCq2    C6 1436   1.057   2.696  13.941 -0.7834 -0.3034 -0.3152
   94TCq2    C7 1437   0.961   2.732  13.855 -0.1349  0.8010  0.4636
   94TCq2    C8 1438   1.195   2.676  13.902  0.1278 -0.2285  0.2131
   94TCq2    O4 1439   1.269   2.635  13.990  0.3022 -0.0638  0.8529
   94TCq2    C9 1440   0.860   2.625  14.235  0.5932 -0.3469  0.5208
   94TCq2    O5 1441   0.949   2.620  14.323  0.6989 -0.0700  0.4529
   94TCq2    O6 1442   0.745   2.576  14.247  0.5556  0.2476 -0.2386
   94TCq2    H2 1443   0.702   2.719  14.073  0.7402  1.0052 -0.0034
   94TCq2    H3 1444   1.102   2.638  14.140  0.3620 -0.3313  0.0089
   94TCq2    H4 1445   0.984   2.767  13.755  0.3235  2.3436  1.1003
   95TMC2    C1 1446   0.681   3.934  15.971  0.2696 -0.0895 -0.1206
   95TMC2    C2 1447   0.583   3.986  16.049 -0.8053 -0.1073 -0.4717
   95TMC2    C3 1448   0.474   3.910  16.073 -0.6788  0.4406  0.2698
   95TMC2    C4 1449   0.672   3.804  15.925 -0.4475  0.6465 -0.0326
   95TMC2    C5 1450   0.557   3.728  15.958  0.8220  0.1976  0.4313
   95TMC2    C6 1451   0.460   3.786  16.031  0.6526  0.4004 -0.6110
   95TMC2     C 1452   0.788   4.011  15.918  0.4322  0.5977  0.6133
   95TMC2     O 1453   0.870   3.961  15.837 -0.1577  0.8185  0.0067
   95TMC2     H 1454   0.590   4.090  16.079  0.0933 -0.1387 -0.5806
   95TMC2    H1 1455   0.745   3.777  15.850 -2.2709 -1.5842 -0.9979
   95TMC2    H2 1456   0.381   3.727  16.077  1.3831  0.1184  0.2700
   95TMC2    C7 1457   0.538   3.599  15.896 -0.0278 -0.4813  0.1815
   95TMC2    C8 1458   0.363   3.980  16.145  0.2084  0.5084 -0.1715
   95TMC2    O1 1459   0.422   3.569  15.871  0.3310  0.0066 -0.2727
   95TMC2    O2 1460   0.377   4.078  16.216  0.4280 -0.3206 -0.5267
   95TMC2    O5 1461   0.242   3.951  16.085  0.1822  0.2828 -0.8617
   95TMC2    H5 1462   0.229   3.863  16.044 -0.4005  0.7212 -1.6283
   96MPD2     C 1463   1.052   4.464  15.929  0.4970 -0.4538 -0.4718
   96MPD2    C1 1464   1.044   4.364  15.835 -0.1657 -0.1291  0.1254
   96MPD2    C2 1465   0.962   4.249  15.851  0.3148 -0.0250  0.6392
   96MPD2    C3 1466   0.889   4.235  15.968 -0.0210 -0.1764 -0.0549
   96MPD2    C4 1467   0.899   4.333  16.063  0.1989 -0.6414  0.2897
   96MPD2    C5 1468   0.973   4.445  16.038 -0.7961  0.9072 -0.1695
   96MPD2     H 1469   0.956   4.171  15.776 -0.9666  0.1573  0.5598
   96MPD2    H1 1470   0.839   4.330  16.152  0.4067  0.1469  0.4583
   96MPD2    H2 1471   1.118   4.549  15.926  0.8762 -0.8526 -3.1372
   96MPD2    H3 1472   0.979   4.521  16.116  1.0025  1.4279 -0.8023
   96MPD2     N 1473   0.800   4.125  15.992  0.1219  0.3636  0.3297
   96MPD2    H5 1474   0.752   4.128  16.082  0.9826  0.3708  0.7873
   96MPD2    N1 1475   1.134   4.391  15.722  0.3769 -0.3178 -0.1830
   96MPD2    H7 1476   1.189   4.476  15.724  2.0376 -1.4334  2.5165
   97MPD2     C 1477   3.141   1.655   0.906 -0.5633  0.0376  0.4806
   97MPD2    C1 1478   3.025   1.588   0.863 -0.6167 -0.3865 -0.1728
   97MPD2    C2 1479   2.950   1.644   0.758  0.0181 -0.1042  0.1404
   97MPD2    C3 1480   2.977   1.765   0.703  0.1626  0.3242 -0.4536
   97MPD2    C4 1481   3.084   1.831   0.748  0.0973 -0.0041  0.5109
   97MPD2    C5 1482   3.172   1.772   0.842 -0.0130 -0.0594  0.2481
   97MPD2     H 1483   2.862   1.589   0.727  0.8188 -1.6222  0.5583
   97MPD2    H1 1484   3.116   1.930   0.717 -0.3274  0.6484  2.1499
   97MPD2    H2 1485   3.214   1.604   0.967 -0.0647 -3.2169 -2.8567
   97MPD2    H3 1486   3.250   1.841   0.870 -0.3784  0.8491 -0.9849
   97MPD2     N 1487   2.889   1.832   0.614 -0.3137  0.2091  0.5738
   97MPD2    H5 1488   2.922   1.911   0.559 -1.2765  0.3602  0.1980
   97MPD2    N1 1489   2.976   1.470   0.934 -0.5052 -0.2714 -0.5929
   97MPD2    H7 1490   2.892   1.429   0.895 -2.1774  1.3662  1.2598
   98TCq2    C1 1491   2.769   1.783   0.564 -0.0553  0.5552 -0.1997
   98TCq2    O2 1492   2.706   1.679   0.588  0.2124  0.0651  0.2892
   98TCq2    C2 1493   2.723   1.864   0.450  0.5757  0.6992 -0.0368
   98TCq2    C3 1494   2.654   1.780   0.362  0.9560 -0.1577  0.2085
   98TCq2    C4 1495   2.677   1.805   0.225 -0.0247  0.3079  0.2070
   98TCq2    C5 1496   2.769   1.901   0.180 -0.9913 -0.3401  0.1950
   98TCq2    C6 1497   2.833   1.974   0.276 -0.7397  0.1471 -0.5512
   98TCq2    C7 1498   2.811   1.966   0.409  0.4903  0.3728  0.4716
   98TCq2    C8 1499   2.974   1.997   0.247  0.5951 -0.0788 -0.3589
   98TCq2    O4 1500   3.015   2.099   0.304  0.0596  0.2992  0.6019
   98TCq2    C9 1501   2.630   1.714   0.138  0.0250  0.1000 -0.3800
   98TCq2    O5 1502   2.564   1.619   0.182 -0.9400 -0.0014 -0.0216
   98TCq2    O6 1503   2.661   1.738   0.018 -0.1736 -0.2483  0.4390
   98TCq2    H2 1504   2.582   1.705   0.393  2.0947 -1.6871 -0.8081
   98TCq2    H3 1505   2.783   1.912   0.073  0.5050 -1.4639  0.2741
   98TCq2    H4 1506   2.870   2.034   0.470  2.1256 -1.9758  1.5280
   99MPD2     C 1507   1.643   3.409   2.197 -0.4980  0.7618 -0.8662
   99MPD2    C1 1508   1.588   3.510   2.117  0.1037 -0.9372 -0.1556
   99MPD2    C2 1509   1.614   3.504   1.979 -1.1780 -0.3417 -0.8805
   99MPD2    C3 1510   1.679   3.386   1.929  0.4100  0.4278 -0.3452
   99MPD2    C4 1511   1.731   3.284   2.010 -0.1290  0.5027 -0.0019
   99MPD2    C5 1512   1.712   3.297   2.149 -0.9400  0.0395  0.0858
   99MPD2     H 1513   1.592   3.595   1.924  0.7174 -0.4379 -1.8222
   99MPD2    H1 1514   1.790   3.204   1.966  0.7452  1.1988 -0.0858
   99MPD2    H2 1515   1.646   3.423   2.305 -0.4857 -0.1177 -0.7577
   99MPD2    H3 1516   1.742   3.214   2.212 -0.4053  0.2109  0.0590
   99MPD2     N 1517   1.695   3.390   1.785  0.4590 -0.2368 -0.1477
   99MPD2    H5 1518   1.650   3.466   1.735 -1.2367 -1.8794 -1.1698
   99MPD2    N1 1519   1.518   3.617   2.166  0.1112 -0.7042  0.4146
   99MPD2    H7 1520   1.473   3.674   2.095 -1.3151 -0.5507  1.4523
  100TCq2    C1 1521   1.511   3.658   2.295 -0.3723 -0.0347 -0.2044
  100TCq2    O2 1522   1.566   3.627   2.397 -0.2312 -0.1558  0.1969
  100TCq2    C2 1523   1.420   3.766   2.314  0.2884 -0.3017 -0.3154
  100TCq2    C3 1524   1.434   3.845   2.427 -0.3296 -0.6912 -0.0860
  100TCq2    C4 1525   1.353   3.957   2.449 -0.9251 -0.5308  0.5934
  100TCq2    C5 1526   1.253   3.978   2.360  0.5130 -0.4694 -0.1295
  100TCq2    C6 1527   1.228   3.897   2.254  0.0543 -0.0077  0.0649
  100TCq2    C7 1528   1.312   3.784   2.232 -0.2874  0.3287 -0.2522
  100TCq2    C8 1529   1.115   3.927   2.166  0.5688 -0.4165 -0.3519
  100TCq2    O4 1530   1.027   4.006   2.203  0.9275 -1.3245  0.4900
  100TCq2    C9 1531   1.394   4.054   2.546  0.6804 -0.4115  0.6350
  100TCq2    O5 1532   1.503   4.033   2.607 -0.4751  0.5630 -0.2863
  100TCq2    O6 1533   1.319   4.157   2.565  0.0150 -0.1965 -0.3857
  100TCq2    H2 1534   1.519   3.839   2.495 -0.7895 -1.6819  0.3964
  100TCq2    H3 1535   1.196   4.070   2.370  0.6213 -0.3258 -0.8935
  100TCq2    H4 1536   1.282   3.713   2.155  0.4012 -3.1119  2.6118
  101MPD2     C 1537   2.542   0.282  12.949  0.1858  0.1224  0.3700
  101MPD2    C1 1538   2.422   0.332  13.000  0.1973 -0.0502 -0.6991
  101MPD2    C2 1539   2.336   0.234  13.057  0.6897 -0.0053  0.1086
  101MPD2    C3 1540   2.375   0.097  13.044  0.2534 -0.3157 -0.4723
  101MPD2    C4 1541   2.493   0.054  12.992  0.2848 -0.7231 -0.0614
  101MPD2    C5 1542   2.578   0.147  12.948 -0.0853  0.3434  0.1054
  101MPD2     H 1543   2.235   0.250  13.092  0.7399  2.3565 -0.8332
  101MPD2    H1 1544   2.515   4.672  12.981 -0.2664 -0.5890 -2.3896
  101MPD2    H2 1545   2.614   0.342  12.896  0.9289 -0.0001  1.2515
  101MPD2    H3 1546   2.671   0.122  12.897 -0.3235 -1.3126  0.4961
  101MPD2     N 1547   2.285   4.722  13.098 -0.5711 -0.4059  0.1826
  101MPD2    H5 1548   2.204   0.041  13.142  0.4481  1.6958  0.0066
  101MPD2    N1 1549   2.381   0.469  12.993 -0.0116  0.3152 -0.7888
  101MPD2    H7 1550   2.449   0.529  12.946  1.2505 -2.2594 -2.2485
  102TCq2    C1 1551   2.338   0.854  12.691  0.6494  0.8444  0.3322
  102TCq2    O2 1552   2.422   0.771  12.653  0.2997 -0.3814  0.1970
  102TCq2    C2 1553   2.270   0.822  12.815  0.8441 -0.0924 -0.0398
  102TCq2    C3 1554   2.223   0.921  12.899 -0.0981 -0.6116  0.5296
  102TCq2    C4 1555   2.183   0.892  13.028  0.0719  0.0011 -0.0761
  102TCq2    C5 1556   2.205   0.766  13.074 -0.7206  0.0932 -0.0591
  102TCq2    C6 1557   2.266   0.675  12.997  0.6092 -0.0089 -0.3422
  102TCq2    C7 1558   2.296   0.696  12.864  0.2653 -0.1657 -0.6942
  102TCq2    C8 1559   2.274   0.536  13.040 -0.3402 -0.1687 -0.1480
  102TCq2    O4 1560   2.180   0.493  13.110  0.5105  0.2246 -0.1020
  102TCq2    C9 1561   2.118   0.985  13.115 -0.1830  0.1701  0.4318
  102TCq2    O5 1562   2.080   1.093  13.064 -0.1822  0.3652 -0.0554
  102TCq2    O6 1563   2.075   0.932  13.221 -0.3914 -0.0025 -0.1677
  102TCq2    H2 1564   2.196   1.023  12.870  1.9582  0.0869  1.0663
  102TCq2    H3 1565   2.178   0.742  13.176  1.5016 -0.0587  0.5070
  102TCq2    H4 1566   2.338   0.616  12.803 -0.0669 -0.4968 -0.4805
  103TMC2    C1 1567   0.645   4.702  12.278 -0.4555  0.1480 -0.0800
  103TMC2    C2 1568   0.617   4.573  12.303 -1.1711  0.0472 -0.5022
  103TMC2    C3 1569   0.672   4.525  12.417  0.4163  0.0840 -0.1309
  103TMC2    C4 1570   0.715   0.060  12.364  0.7357 -0.7865  0.4348
  103TMC2    C5 1571   0.747   4.723  12.489  0.0833 -0.6109 -0.0193
  103TMC2    C6 1572   0.742   4.586  12.512  0.1765  0.4766  0.9820
  103TMC2     C 1573   0.575   0.039  12.160 -0.1842  0.1359  0.1639
  103TMC2     O 1574   0.467   4.715  12.127 -0.0541  0.5860  0.0065
  103TMC2     H 1575   0.557   4.516  12.232 -0.1868  2.1692 -3.0210
  103TMC2    H1 1576   0.701   0.167  12.352  1.0954 -0.9604 -1.5569
  103TMC2    H2 1577   0.772   4.530  12.600 -0.8774 -0.6047  0.6459
  103TMC2    C7 1578   0.773   0.094  12.597  0.1770 -0.0801 -0.0877
  103TMC2    C8 1579   0.683   4.377  12.417  0.0783 -0.7974 -0.6193
  103TMC2    O1 1580   0.771   0.051  12.714 -0.0801 -0.2224  0.0373
  103TMC2    O2 1581   0.596   4.295  12.372 -0.3835  0.0712 -0.4466
  103TMC2    O5 1582   0.811   4.346  12.392  0.4794  0.8268 -0.5660
  103TMC2    H5 1583   0.880   4.415  12.392  2.5621 -1.2382 -2.3033
  104MPD2     C 1584   0.699   0.352  12.009 -0.0645 -0.2789 -0.0541
  104MPD2    C1 1585   0.606   0.252  12.032 -1.0843 -0.8665 -0.7444
  104MPD2    C2 1586   0.485   0.262  11.962  0.7517 -0.7648  0.0779
  104MPD2    C3 1587   0.465   0.365  11.878 -0.2754 -0.0440 -0.1135
  104MPD2    C4 1588   0.558   0.460  11.854 -0.4253  0.2471 -0.4572
  104MPD2    C5 1589   0.681   0.453  11.916 -0.6947 -0.3908  0.3409
  104MPD2     H 1590   0.409   0.189  11.988  0.8708 -0.7200  0.5660
  104MPD2    H1 1591   0.538   0.542  11.787  0.4318  0.0850 -0.9092
  104MPD2    H2 1592   0.788   0.363  12.070  1.4232  1.0999 -2.4529
  104MPD2    H3 1593   0.756   0.531  11.909 -1.0178 -0.0854  0.3057
  104MPD2     N 1594   0.334   0.370  11.818  0.0057 -0.7974 -0.0710
  104MPD2    H5 1595   0.273   0.290  11.835 -0.0419 -0.8857 -0.6560
  104MPD2    N1 1596   0.648   0.150  12.118  0.1588  0.3025 -0.1628
  104MPD2    H7 1597   0.742   0.158  12.156  0.1888 -0.3848 -0.0996
  105MPD2     C 1598   2.787   4.300  17.564  0.1141 -0.6965 -0.0162
  105MPD2    C1 1599   2.664   4.365  17.573  0.1458 -0.7017  0.1217
  105MPD2    C2 1600   2.641   4.429  17.693 -0.5435  0.6239 -0.0018
  105MPD2    C3 1601   2.725   4.415   0.107  0.5372 -0.6953 -0.0690
  105MPD2    C4 1602   2.835   4.339   0.094 -0.5716 -0.2542 -0.1826
  105MPD2    C5 1603   2.866   4.285  17.669  0.0961  0.2385  0.8094
  105MPD2     H 1604   2.543   4.472   0.015 -1.3598  0.2232 -3.3311
  105MPD2    H1 1605   2.910   4.322   0.170 -0.4327 -2.0447 -0.7324
  105MPD2    H2 1606   2.826   4.282  17.464  1.4234  1.3273  0.1208
  105MPD2    H3 1607   2.962   4.239  17.644 -0.8867 -0.6871 -1.3014
  105MPD2     N 1608   2.679   4.470   0.228 -0.1559 -0.4352  0.6027
  105MPD2    H5 1609   2.604   4.538   0.222 -0.1069 -0.4485 -0.2140
  105MPD2    N1 1610   2.568   4.392  17.463 -0.0183  0.1382 -0.2750
  105MPD2    H7 1611   2.477   4.430  17.486  0.2167 -0.6200  1.8891
  106TCq2    C1 1612   2.735   4.456   0.345  0.3319  0.3584  0.4620
  106TCq2    O2 1613   2.818   4.376   0.379 -0.0111  0.1372 -0.3377
  106TCq2    C2 1614   2.702   4.556   0.448  0.5254  0.1948 -0.3209
  106TCq2    C3 1615   2.602   4.647   0.426 -0.1484 -0.3766 -0.0270
  106TCq2    C4 1616   2.539   4.707   0.531  0.8545 -0.6024  0.9599
  106TCq2    C5 1617   2.575   4.681   0.665 -0.5481  0.0330 -0.1071
  106TCq2    C6 1618   2.664   4.578   0.685 -0.2362 -0.1249 -0.2598
  106TCq2    C7 1619   2.727   4.516   0.577  0.7333  0.0837 -0.1437
  106TCq2    C8 1620   2.686   4.517   0.820 -0.8707 -0.0656  1.2588
  106TCq2    O4 1621   2.770   4.432   0.840 -0.1084  0.0193 -0.9027
  106TCq2    C9 1622   2.443   0.085   0.505  0.1793  0.0440  0.0870
  106TCq2    O5 1623   2.373   0.129   0.605  0.1738 -0.3336 -0.0540
  106TCq2    O6 1624   2.435   0.137   0.388  0.5433  0.2168  0.5617
  106TCq2    H2 1625   2.590   4.683   0.324  0.4126  0.4107  0.1758
  106TCq2    H3 1626   2.515   0.007   0.740 -1.5910 -0.8320 -0.3531
  106TCq2    H4 1627   2.802   4.442   0.601  1.7603  1.2858  0.3309
  107TMC2    C1 1628   2.668   3.307  11.493 -0.6923 -0.4552 -0.6859
  107TMC2    C2 1629   2.716   3.372  11.385  0.5569 -0.9509  0.0541
  107TMC2    C3 1630   2.733   3.300  11.266 -0.4398  0.2960 -0.5474
  107TMC2    C4 1631   2.649   3.174  11.487 -0.2651 -0.1017 -0.2927
  107TMC2    C5 1632   2.672   3.103  11.371 -0.2069  0.4056  0.3734
  107TMC2    C6 1633   2.717   3.164  11.260  0.4158 -0.2657  0.2519
  107TMC2     C 1634   2.639   3.376  11.612  0.1757 -0.0267  0.0905
  107TMC2     O 1635   2.655   3.321  11.718  0.0156  0.8023  0.1902
  107TMC2     H 1636   2.747   3.476  11.388 -2.0188 -0.1501 -0.5152
  107TMC2    H1 1637   2.619   3.126  11.579 -1.5784  2.0259  0.3967
  107TMC2    H2 1638   2.724   3.103  11.170 -0.7770 -0.3450  0.2132
  107TMC2    C7 1639   2.654   2.958  11.377  0.0743  0.1021  1.2559
  107TMC2    C8 1640   2.795   3.367  11.157  0.0335 -0.9003 -0.1987
  107TMC2    O1 1641   2.641   2.905  11.484  0.2026 -0.7145  0.2469
  107TMC2    O2 1642   2.857   3.304  11.070 -0.4896 -0.5425  0.6142
  107TMC2    O5 1643   2.714   3.465  11.126  0.0262 -0.3946 -0.4803
  107TMC2    H5 1644   2.675   3.508  11.205 -0.3977  2.3417 -2.1876
  108MPD2     C 1645   2.582   3.740  11.637  0.6333  0.5016  0.1678
  108MPD2    C1 1646   2.592   3.610  11.681 -0.0402 -0.5302 -0.0847
  108MPD2    C2 1647   2.573   3.582  11.817 -0.4195 -0.1667  0.6794
  108MPD2    C3 1648   2.537   3.689  11.911 -0.0088  0.2324  0.3127
  108MPD2    C4 1649   2.530   3.818  11.857  0.2478 -0.4199 -0.6307
  108MPD2    C5 1650   2.549   3.837  11.724 -0.5020  0.1817  0.2115
  108MPD2     H 1651   2.586   3.486  11.865  2.2914 -0.0198  0.2314
  108MPD2    H1 1652   2.510   3.907  11.916  1.8339 -1.2455  1.1488
  108MPD2    H2 1653   2.600   3.766  11.533 -0.9456 -2.5162 -0.8411
  108MPD2    H3 1654   2.543   3.938  11.684  1.6725 -0.2659 -1.2124
  108MPD2     N 1655   2.509   3.664  12.049  0.5741  0.1417  0.1861
  108MPD2    H5 1656   2.484   3.741  12.109 -2.1073  1.5385 -2.6961
  108MPD2    N1 1657   2.615   3.510  11.583  0.5420  0.4828 -0.1021
  108MPD2    H7 1658   2.605   3.543  11.487  0.9807 -0.0027 -0.3119
  109MPD2     C 1659   2.638   0.501   2.424 -0.6135 -0.3814  0.0867
  109MPD2    C1 1660   2.636   0.501   2.285  0.5670 -0.1487 -0.0738
  109MPD2    C2 1661   2.739   0.555   2.217 -0.3671 -0.8503  0.2840
  109MPD2    C3 1662   2.836   0.618   2.287 -0.0687 -0.4235 -0.0518
  109MPD2    C4 1663   2.833   0.634   2.426  0.0488  0.2754  0.0677
  109MPD2    C5 1664   2.740   0.561   2.495  0.1699  0.3274 -0.6766
  109MPD2     H 1665   2.736   0.560   2.109  0.2874  0.6497  0.3260
  109MPD2    H1 1666   2.914   0.684   2.478 -0.1176  1.9485 -1.2889
  109MPD2    H2 1667   2.556   0.464   2.484 -1.4343  2.8876  0.9348
  109MPD2    H3 1668   2.738   0.568   2.603  2.3932 -0.4060 -0.6037
  109MPD2     N 1669   2.948   0.665   2.213 -0.5457  0.0308  0.6989
  109MPD2    H5 1670   2.938   0.650   2.113 -0.7693 -1.1581  0.9032
  109MPD2    N1 1671   2.529   0.436   2.222 -0.1964  0.2202 -0.1668
  109MPD2    H7 1672   2.456   0.415   2.290  2.1797  2.2469  2.9625
  110TCq2    C1 1673   3.071   0.711   2.263 -0.3057  0.4692 -0.2952
  110TCq2    O2 1674   3.116   0.727   2.375 -0.5617  0.3727 -0.1103
  110TCq2    C2 1675   3.168   0.731   2.160  0.7748 -0.7970  0.5917
  110TCq2    C3 1676   3.295   0.702   2.201 -0.3467 -0.2987 -0.4049
  110TCq2    C4 1677   3.400   0.707   2.111  0.0430 -0.1997 -0.7453
  110TCq2    C5 1678   3.382   0.744   1.984 -0.0761  0.1749 -0.6210
  110TCq2    C6 1679   3.257   0.786   1.952 -0.0364  0.4371  0.5668
  110TCq2    C7 1680   3.144   0.773   2.031 -0.1686 -0.6328  0.0261
  110TCq2    C8 1681   3.227   0.825   1.812 -0.4796  0.5265 -0.8762
  110TCq2    O4 1682   3.126   0.886   1.794 -0.7134 -0.5647  0.0343
  110TCq2    C9 1683   3.533   0.681   2.164  0.0787  0.6052 -0.0903
  110TCq2    O5 1684   3.535   0.638   2.283  0.7571  0.3052 -0.0573
  110TCq2    O6 1685   3.628   0.725   2.095 -0.2491 -0.2607  0.9982
  110TCq2    H2 1686   3.312   0.664   2.301  0.5547  1.9444  0.3071
  110TCq2    H3 1687   3.471   0.754   1.923  0.3943 -1.2395 -0.1420
  110TCq2    H4 1688   3.048   0.815   2.004 -0.8173 -2.5571 -0.6632
  111TMC2    C1 1689   2.823   1.237  11.231  0.0617  0.0708  0.0031
  111TMC2    C2 1690   2.875   1.337  11.154  0.0917 -0.1799  0.8992
  111TMC2    C3 1691   2.972   1.421  11.205  0.4060  0.3915 -0.8034
  111TMC2    C4 1692   2.856   1.235  11.364  0.6177 -0.3982  0.0878
  111TMC2    C5 1693   2.948   1.323  11.415 -0.5360  0.1296 -0.5113
  111TMC2    C6 1694   3.007   1.417  11.335 -0.1789  0.2850  0.0400
  111TMC2     C 1695   2.745   1.125  11.178 -0.2288 -0.0144 -0.1124
  111TMC2     O 1696   2.707   1.137  11.061 -0.6622  0.7530  0.0712
  111TMC2     H 1697   2.872   1.337  11.046  0.8383  0.5799  0.8712
  111TMC2    H1 1698   2.801   1.173  11.434 -0.9834  1.1149  0.1641
  111TMC2    H2 1699   3.065   1.502  11.369  1.5695 -0.3635 -1.3315
  111TMC2    C7 1700   3.014   1.281  11.534 -0.3773  1.0553  0.4971
  111TMC2    C8 1701   3.018   1.519  11.115 -0.3206  0.1565  0.3575
  111TMC2    O1 1702   2.936   1.269  11.627 -0.3927 -0.6217 -0.0385
  111TMC2    O2 1703   2.942   1.566  11.026 -0.6892 -0.8316  0.5289
  111TMC2    O5 1704   3.147   1.490  11.102  0.1799 -0.0207 -0.4822
  111TMC2    H5 1705   3.174   1.429  11.174 -0.7054  1.1146  0.8086
  112MPD2     C 1706   2.502   0.684  11.169 -0.2677  0.2162  0.2502
  112MPD2    C1 1707   2.470   0.801  11.111 -0.4529 -0.2717 -0.3624
  112MPD2    C2 1708   2.545   0.917  11.137 -0.5456  0.0746  0.1214
  112MPD2    C3 1709   2.641   0.912  11.238  0.0007 -0.3876  0.1757
  112MPD2    C4 1710   2.671   0.793  11.295  0.3764 -0.2295  0.6128
  112MPD2    C5 1711   2.606   0.676  11.255  0.1031  0.0310  0.3044
  112MPD2     H 1712   2.514   1.009  11.090  0.0069  2.2312  4.0048
  112MPD2    H1 1713   2.751   0.785  11.368  1.2055  2.1861 -0.0280
  112MPD2    H2 1714   2.455   0.589  11.148  0.8935 -0.3423  0.1843
  112MPD2    H3 1715   2.642   0.582  11.294 -0.4794 -0.3487 -0.0650
  112MPD2     N 1716   2.725   1.022  11.263 -0.3976  0.0681 -0.1327
  112MPD2    H5 1717   2.786   1.026  11.344  0.0732 -3.0491 -0.3367
  112MPD2    N1 1718   2.361   0.809  11.018 -0.4946  0.3133 -0.0429
  112MPD2    H7 1719   2.347   0.901  10.978  0.3719  1.1296  1.5670
  113MPD2     C 1720   1.296   3.635   1.378  0.2345 -0.2234 -0.0301
  113MPD2    C1 1721   1.211   3.734   1.334 -0.0504 -0.2750  0.0605
  113MPD2    C2 1722   1.174   3.728   1.199  0.5260 -0.3266 -0.0717
  113MPD2    C3 1723   1.204   3.619   1.119  0.1508  0.5765 -0.0986
  113MPD2    C4 1724   1.276   3.514   1.169  0.4373 -0.0690 -0.3823
  113MPD2    C5 1725   1.333   3.537   1.296  0.2581  0.0156  0.1258
  113MPD2     H 1726   1.105   3.807   1.174 -0.7493 -1.0740  1.0550
  113MPD2    H1 1727   1.297   3.419   1.121 -0.6163  0.5460 -2.0606
  113MPD2    H2 1728   1.335   3.620   1.478  1.3785  0.1072 -0.4339
  113MPD2    H3 1729   1.403   3.469   1.343 -1.9000 -1.5829  0.9805
  113MPD2     N 1730   1.156   3.613   0.995 -0.8181 -0.4542 -0.1229
  113MPD2    H5 1731   1.198   3.547   0.931 -1.0419 -1.1691  0.4645
  113MPD2    N1 1732   1.174   3.838   1.408  0.4197  0.2528  0.1941
  113MPD2    H7 1733   1.112   3.902   1.359  0.0091 -1.7644 -1.9055
  114TCq2    C1 1734   1.068   3.701   0.937  0.6838 -0.3556 -0.2237
  114TCq2    O2 1735   0.986   3.768   0.996 -0.1848 -0.5217  0.7043
  114TCq2    C2 1736   1.069   3.696   0.790 -0.6834  0.0876 -0.3351
  114TCq2    C3 1737   1.190   3.681   0.732 -0.8231  0.3221 -0.1501
  114TCq2    C4 1738   1.189   3.685   0.596  0.2950 -0.6815 -0.4739
  114TCq2    C5 1739   1.075   3.694   0.523  1.1271 -0.3335  0.0736
  114TCq2    C6 1740   0.953   3.699   0.584  0.2101  0.6783 -0.4645
  114TCq2    C7 1741   0.947   3.707   0.724  1.1758 -0.0273 -0.3829
  114TCq2    C8 1742   0.854   3.631   0.500  0.6813 -0.3819  0.9063
  114TCq2    O4 1743   0.835   3.675   0.390  0.1480 -0.0737  0.4469
  114TCq2    C9 1744   1.310   3.685   0.525  0.1351  0.0348  1.0992
  114TCq2    O5 1745   1.407   3.667   0.602  0.0536  0.1427 -0.1916
  114TCq2    O6 1746   1.319   3.693   0.398 -0.3915  0.2480 -0.3841
  114TCq2    H2 1747   1.286   3.692   0.781 -0.9275 -0.2766  0.1923
  114TCq2    H3 1748   1.067   3.695   0.415  1.5066  0.1048  0.0465
  114TCq2    H4 1749   0.853   3.701   0.778  1.2784 -0.0597 -0.2079
  115TMC2    C1 1750   2.056   1.575   0.035 -0.5335  0.1164  0.0922
  115TMC2    C2 1751   2.133   1.481   0.092  0.4624 -0.1340  0.3414
  115TMC2    C3 1752   2.243   1.522   0.162  1.2057 -0.6034 -0.5744
  115TMC2    C4 1753   2.086   1.710   0.044  0.7037 -0.8731 -0.0477
  115TMC2    C5 1754   2.189   1.742   0.125  0.5532 -0.0716  0.0697
  115TMC2    C6 1755   2.273   1.656   0.184 -0.0900  0.2038 -0.2741
  115TMC2     C 1756   1.935   1.528  17.654  0.2570  1.3354 -0.5005
  115TMC2     O 1757   1.908   1.410  17.654  0.7111 -0.0571  0.1148
  115TMC2     H 1758   2.105   1.379   0.071  0.3318 -0.1334  0.5163
  115TMC2    H1 1759   2.011   1.786   0.030 -0.6545 -1.6152  3.1560
  115TMC2    H2 1760   2.355   1.679   0.251  0.2050 -1.2887 -0.1316
  115TMC2    C7 1761   2.232   1.880   0.148  0.4657  0.2678 -0.0482
  115TMC2    C8 1762   2.301   1.419   0.247 -0.7853 -0.4918 -0.0958
  115TMC2    O1 1763   2.294   1.901   0.251 -0.3485  0.0837  0.8582
  115TMC2    O2 1764   2.242   1.316   0.276 -0.0999 -0.3311  0.7003
  115TMC2    O5 1765   2.409   1.476   0.305 -0.2176  1.0525  0.2733
  115TMC2    H5 1766   2.457   1.539   0.249  0.9795 -0.7009 -0.6730
  116MPD2     C 1767   1.554   1.593  17.311 -0.2794 -0.2295 -0.5461
  116MPD2    C1 1768   1.599   1.474  17.367  0.3405  0.8114  0.6109
  116MPD2    C2 1769   1.706   1.484  17.457  0.4455 -0.1645  0.1753
  116MPD2    C3 1770   1.772   1.600  17.479  0.4525 -0.0877  0.4428
  116MPD2    C4 1771   1.723   1.717  17.425  0.2459 -0.3642 -0.4077
  116MPD2    C5 1772   1.618   1.715  17.338  0.2413 -0.3660 -0.1754
  116MPD2     H 1773   1.741   1.393  17.505  0.5873 -0.0803  0.2318
  116MPD2    H1 1774   1.773   1.813  17.437 -0.9792  0.6677 -3.5949
  116MPD2    H2 1775   1.476   1.596  17.235 -2.1625  0.4791  1.4266
  116MPD2    H3 1776   1.595   1.805  17.283 -0.0419  0.1160  0.7225
  116MPD2     N 1777   1.874   1.621  17.576 -0.2789 -0.2229 -0.6687
  116MPD2    H5 1778   1.906   1.718  17.577 -2.2041  0.3937  0.6035
  116MPD2    N1 1779   1.527   1.356  17.349  0.5022 -0.4063  0.2348
  116MPD2    H7 1780   1.450   1.358  17.283 -0.1940  0.8863  1.0870
  117TMC2    C1 1781   4.584   2.711  14.400  0.0663 -0.1200 -0.5803
  117TMC2    C2 1782   4.543   2.704  14.527  0.2252  0.2130  0.0675
  117TMC2    C3 1783   4.609   2.785  14.616 -0.2821  0.2976  0.5990
  117TMC2    C4 1784   4.689   2.789  14.359 -0.6853  0.6325 -0.0608
  117TMC2    C5 1785   0.017   2.873  14.457  0.4506  0.4108  0.5391
  117TMC2    C6 1786   4.710   2.867  14.582  0.1312 -0.3105 -0.5005
  117TMC2     C 1787   4.480   2.677  14.301 -0.2964 -0.7595 -0.0541
  117TMC2     O 1788   4.399   2.587  14.321  0.3325 -0.4807  0.1316
  117TMC2     H 1789   4.448   2.657  14.550  0.9113 -0.9438  0.5088
  117TMC2    H1 1790   0.005   2.790  14.259  1.2651 -0.3096  0.7022
  117TMC2    H2 1791   0.029   2.928  14.661 -1.4306  0.4698 -0.2507
  117TMC2    C7 1792   0.095   2.988  14.403  0.6447 -0.1240 -0.0541
  117TMC2    C8 1793   4.558   2.773  14.750 -0.3768  0.1421  0.8762
  117TMC2    O1 1794   0.106   2.993  14.283 -0.2560 -0.1137  0.5572
  117TMC2    O2 1795   4.441   2.746  14.776 -0.3310 -0.4875 -0.0492
  117TMC2    O5 1796   4.653   2.801  14.845  0.0247  0.5593  0.3954
  117TMC2    H5 1797   0.020   2.799  14.806 -0.2165  2.0760 -0.2490
  118MPD2     C 1798   0.267   3.259  14.575  0.4240  0.3548 -0.0938
  118MPD2    C1 1799   0.215   3.189  14.465  0.7443 -0.5097 -0.6252
  118MPD2    C2 1800   0.269   3.226  14.336 -0.3364  0.6085  0.3866
  118MPD2    C3 1801   0.366   3.324  14.333 -0.0879  0.3457 -0.0348
  118MPD2    C4 1802   0.406   3.388  14.446 -0.1527  0.5417 -0.8379
  118MPD2    C5 1803   0.355   3.362  14.566 -0.3106 -0.1217  0.4413
  118MPD2     H 1804   0.245   3.160  14.253  1.3804 -2.1109  2.0245
  118MPD2    H1 1805   0.476   3.470  14.443 -0.0829  0.5600  1.2481
  118MPD2    H2 1806   0.232   3.241  14.676  2.8381 -1.7698  0.3606
  118MPD2    H3 1807   0.387   3.396  14.664 -0.8633 -2.5809  1.4759
  118MPD2     N 1808   0.413   3.372  14.206 -0.1960  0.0765  0.2580
  118MPD2    H5 1809   0.487   3.439  14.220 -0.2987  0.1591  0.3938
  118MPD2    N1 1810   0.136   3.073  14.493 -0.1678  0.5669 -0.3242
  118MPD2    H7 1811   0.114   3.056  14.591  1.9254  0.0442  0.0670
  119MPD2     C 1812   3.025   4.442  13.849 -0.3740  0.1456  0.5853
  119MPD2    C1 1813   2.901   4.441  13.789  0.2928 -0.6183 -0.1527
  119MPD2    C2 1814   2.892   4.428  13.652  0.0209 -0.4600 -0.1065
  119MPD2    C3 1815   3.004   4.406  13.574 -0.5399 -0.2299  0.1558
  119MPD2    C4 1816   3.126   4.411  13.636  0.9191 -0.8154 -0.3013
  119MPD2    C5 1817   3.136   4.429  13.772  0.2711  0.2074  0.1454
  119MPD2     H 1818   2.802   4.435  13.593 -0.8988 -1.5880  1.1641
  119MPD2    H1 1819   3.215   4.383  13.581 -0.0580  0.3078 -2.3970
  119MPD2    H2 1820   3.030   4.447  13.957  0.6522 -1.0264  0.5961
  119MPD2    H3 1821   3.230   4.416  13.823  0.6698  0.3244 -0.5510
  119MPD2     N 1822   3.002   4.374  13.432  0.4234  0.2986  0.3336
  119MPD2    H5 1823   3.096   4.369  13.392 -0.3314  2.0713 -1.6383
  119MPD2    N1 1824   2.783   4.460  13.872 -0.0582  0.2680  0.2394
  119MPD2    H7 1825   2.814   4.488  13.965 -0.0826 -2.0342  0.9379
  120TCq2    C1 1826   2.895   4.329  13.362  0.2845 -0.0455 -0.0070
  120TCq2    O2 1827   2.775   4.315  13.394  0.0894  0.0193 -0.1869
  120TCq2    C2 1828   2.930   4.281  13.231 -0.6598  0.1744  0.0304
  120TCq2    C3 1829   3.057   4.292  13.184  0.2436  0.4074 -0.2249
  120TCq2    C4 1830   3.096   4.197  13.091 -0.4617 -0.4259  0.0133
  120TCq2    C5 1831   3.015   4.103  13.042 -0.2436  0.3531  0.1350
  120TCq2    C6 1832   2.886   4.092  13.093 -0.1497 -0.2518 -0.1609
  120TCq2    C7 1833   2.839   4.187  13.180  1.1333 -0.0215  1.1446
  120TCq2    C8 1834   2.806   3.978  13.074 -0.0641 -1.0837 -1.4561
  120TCq2    O4 1835   2.818   3.918  12.968  0.4689  0.4775  0.6978
  120TCq2    C9 1836   3.226   4.208  13.040 -0.3815  0.9195 -0.5434
  120TCq2    O5 1837   3.253   4.138  12.940 -0.0251 -0.1141  0.4102
  120TCq2    O6 1838   3.302   4.303  13.089  0.2876 -0.8943  0.2816
  120TCq2    H2 1839   3.130   4.365  13.215 -1.1377  1.3818  0.7360
  120TCq2    H3 1840   3.057   4.028  12.975  0.2644  0.8295 -0.0867
  120TCq2    H4 1841   2.736   4.199  13.213  1.0264 -0.4045  0.9453
  121TMC2    C1 1842   4.449   1.209  13.996  0.5543 -0.3130 -0.8625
  121TMC2    C2 1843   4.507   1.091  14.029  0.5132 -0.4722  0.0174
  121TMC2    C3 1844   4.430   0.995  14.093  0.2100  0.6259  0.4548
  121TMC2    C4 1845   4.316   1.223  14.015  0.0034  0.2726 -0.5502
  121TMC2    C5 1846   4.244   1.126  14.079 -0.4864  0.1357 -0.5296
  121TMC2    C6 1847   4.299   1.013  14.123 -0.6872 -0.0053  0.6715
  121TMC2     C 1848   4.522   1.328  13.977  0.5743  0.2694  0.5957
  121TMC2     O 1849   4.483   1.423  14.044 -0.2352 -0.2864 -0.1050
  121TMC2     H 1850   4.612   1.071  14.011  0.1227 -1.3536 -1.3137
  121TMC2    H1 1851   4.262   1.314  13.991  0.3488  0.3561 -1.0065
  121TMC2    H2 1852   4.232   0.935  14.156 -1.2204 -0.4560 -1.4341
  121TMC2    C7 1853   4.100   1.132  14.071  0.2897 -0.2059  0.5278
  121TMC2    C8 1854   4.487   0.860  14.101  0.0073 -0.3169  0.0814
  121TMC2    O1 1855   4.035   1.057  14.143 -0.1362 -0.7194 -0.6332
  121TMC2    O2 1856   4.561   0.818  14.010 -0.3592  0.2146  0.0989
  121TMC2    O5 1857   4.442   0.801  14.209  0.0042 -0.5564 -0.3302
  121TMC2    H5 1858   4.397   0.868  14.266  1.0463  1.8136 -2.3094
  122MPD2     C 1859   4.687   1.552  13.878  0.3301 -0.0603 -0.5500
  122MPD2    C1 1860   4.680   1.426  13.816  0.0915 -0.2093 -0.2603
  122MPD2    C2 1861   0.021   1.406  13.697  0.6497 -0.6132 -0.6981
  122MPD2    C3 1862   0.090   1.510  13.631  0.6202  0.3517 -0.0278
  122MPD2    C4 1863   0.079   1.637  13.682  0.1340 -0.3605 -0.5557
  122MPD2    C5 1864   0.022   1.657  13.807  0.2460 -0.1140 -0.1012
  122MPD2     H 1865   0.034   1.308  13.653  2.2059 -1.0172  0.6643
  122MPD2    H1 1866   0.111   1.728  13.632  0.3337  0.5025  1.1496
  122MPD2    H2 1867   4.649   1.566  13.978  2.4045 -3.4418  0.7212
  122MPD2    H3 1868   0.011   1.753  13.856  0.5534  0.3188 -0.8776
  122MPD2     N 1869   0.156   1.492  13.505 -0.1590 -0.5052  0.6490
  122MPD2    H5 1870   0.186   1.575  13.455 -1.1164 -0.7314 -0.2998
  122MPD2    N1 1871   4.616   1.313  13.879 -1.1348  0.3256  0.1880
  122MPD2    H7 1872   4.620   1.221  13.838 -0.7937  0.1587  0.5953
  123MPD2     C 1873   3.036   0.309   8.881 -0.3465  0.4895  0.9441
  123MPD2    C1 1874   3.012   0.177   8.901 -0.3406  0.0576 -0.3022
  123MPD2    C2 1875   3.101   0.093   8.971  0.1016  0.1323  0.6901
  123MPD2    C3 1876   3.218   0.144   9.023  0.4863 -0.7034  0.0019
  123MPD2    C4 1877   3.234   0.285   9.001  0.2927  0.6387  0.4810
  123MPD2    C5 1878   3.148   0.365   8.932  0.2261 -0.0799 -0.1460
  123MPD2     H 1879   3.094   4.708   8.980  0.6808  0.0221 -0.1556
  123MPD2    H1 1880   3.324   0.327   9.045 -0.3132  2.8788 -0.3771
  123MPD2    H2 1881   2.969   0.380   8.836 -2.8327  0.0035  3.9128
  123MPD2    H3 1882   3.152   0.472   8.915  0.7850 -0.4195 -2.0941
  123MPD2     N 1883   3.301   0.065   9.098 -0.0334 -0.3633 -1.4323
  123MPD2    H5 1884   3.280   4.690   9.092 -2.1072 -0.0393  0.6658
  123MPD2    N1 1885   2.884   0.137   8.847 -0.4274  0.4247 -0.1033
  123MPD2    H7 1886   2.826   0.211   8.807  1.3701  1.9054  0.0234
  124TCq2    C1 1887   3.424   0.099   9.153  0.4410 -0.0488 -0.9241
  124TCq2    O2 1888   3.476   0.208   9.162 -0.3292 -0.1204  0.1318
  124TCq2    C2 1889   3.497   4.708   9.212  0.1902 -0.3313 -0.9941
  124TCq2    C3 1890   3.621   4.719   9.269  0.3191  0.4393 -0.1503
  124TCq2    C4 1891   3.684   4.618   9.331  0.1936 -0.0207 -0.3828
  124TCq2    C5 1892   3.625   4.497   9.349  0.2594  0.6928  0.1514
  124TCq2    C6 1893   3.497   4.490   9.302 -0.0552  0.2607 -0.3932
  124TCq2    C7 1894   3.431   4.591   9.236 -0.5812  0.0404  0.0909
  124TCq2    C8 1895   3.421   4.370   9.335  0.1908  0.3901 -1.0302
  124TCq2    O4 1896   3.445   4.323   9.444 -0.0926 -0.4068 -0.4573
  124TCq2    C9 1897   3.825   4.625   9.362  0.3054 -0.4247  0.3922
  124TCq2    O5 1898   3.863   4.573   9.468 -0.1427 -0.8127 -0.0861
  124TCq2    O6 1899   3.892   4.697   9.277  0.0887 -0.3296 -0.0971
  124TCq2    H2 1900   3.669   0.092   9.265 -2.9844  2.1936  2.2495
  124TCq2    H3 1901   3.669   4.408   9.392  1.5844  1.0322 -0.4878
  124TCq2    H4 1902   3.328   4.572   9.208 -1.1491  1.0414  1.4496
  125TMC2    C1 1903   2.886   0.233   9.237  0.6891  0.0199  0.5440
  125TMC2    C2 1904   2.960   0.146   9.311 -0.0848 -0.2031  0.4060
  125TMC2    C3 1905   3.066   0.196   9.375 -0.5592  0.2195 -0.0735
  125TMC2    C4 1906   2.916   0.367   9.227 -0.3492 -0.5362 -0.5035
  125TMC2    C5 1907   3.030   0.413   9.294  0.4974 -0.1834  0.2433
  125TMC2    C6 1908   3.099   0.330   9.372 -0.3532  0.0217  0.2041
  125TMC2     C 1909   2.761   0.170   9.187 -0.0324  0.6550  0.9670
  125TMC2     O 1910   2.753   0.047   9.195  0.4317 -0.6156 -0.1506
  125TMC2     H 1911   2.926   0.046   9.334  0.4055 -0.1266  1.4621
  125TMC2    H1 1912   2.855   0.431   9.164 -0.3616  1.7722  1.8737
  125TMC2    H2 1913   3.194   0.364   9.411 -0.2949 -1.1116  1.0637
  125TMC2    C7 1914   3.080   0.550   9.280 -0.2341  0.5906 -0.2947
  125TMC2    C8 1915   3.108   0.120   9.489  1.0179  0.0226  0.0126
  125TMC2    O1 1916   3.041   0.598   9.172  0.2703  0.2636 -0.4104
  125TMC2    O2 1917   3.130   0.180   9.590 -0.1101 -0.0713 -0.1800
  125TMC2    O5 1918   3.186   0.031   9.428 -0.8020  0.3296 -0.1176
  125TMC2    H5 1919   3.149   4.721   9.344 -0.7796  0.3936 -0.1531
  126MPD1     C 1920   2.320   0.174   8.933 -0.1509 -0.4574  0.5444
  126MPD1    C1 1921   2.356   0.305   8.949 -0.2653  0.2589  0.0720
  126MPD1    C2 1922   2.475   0.332   9.013  0.2761  0.5067 -0.2596
  126MPD1    C3 1923   2.553   0.231   9.067  0.7500  0.1817 -0.8676
  126MPD1    C4 1924   2.513   0.098   9.055  0.4465 -0.0926  0.0268
  126MPD1    C5 1925   2.403   0.068   8.984  0.7338  0.0977  0.4704
  126MPD1     H 1926   2.517   0.432   9.020 -0.8503  0.9965 -0.5204
  126MPD1    H1 1927   2.565   0.019   9.109 -0.9225  0.0873  1.5990
  126MPD1    H2 1928   2.231   0.149   8.876  1.2067 -2.2264 -0.8145
  126MPD1    H3 1929   2.376   4.690   8.958 -0.0715  0.5946 -0.6785
  126MPD1     N 1930   2.673   0.264   9.137  0.1064 -0.1513 -0.1618
  126MPD1    H5 1931   2.694   0.361   9.156 -1.1221  0.5940 -2.6448
  126MPD1    N1 1932   2.279   0.408   8.887  0.0747  0.1923 -0.3218
  126MPD1    H6 1933   2.293   0.497   8.934  1.3029 -0.0706 -0.2039
  126MPD1    H7 1934   2.178   0.395   8.893  0.6869 -3.0372  2.9042
  127MPD2     C 1935   0.137   0.026   9.698 -0.6831 -0.9204 -0.2562
  127MPD2    C1 1936   0.253   0.086   9.752  0.7137 -0.3004 -0.5392
  127MPD2    C2 1937   0.257   0.224   9.773 -0.1789  0.6179  0.6630
  127MPD2    C3 1938   0.146   0.294   9.742 -0.2683  0.3244 -0.0571
  127MPD2    C4 1939   0.032   0.245   9.690 -0.1043 -0.5106 -0.0106
  127MPD2    C5 1940   0.032   0.111   9.677  0.6359  0.5692  0.1998
  127MPD2     H 1941   0.342   0.279   9.812  0.5767 -0.0672 -0.0060
  127MPD2    H1 1942   4.671   0.303   9.656 -1.4695 -3.1954 -1.1539
  127MPD2    H2 1943   0.124   4.643   9.684 -0.7613 -1.0742  0.9855
  127MPD2    H3 1944   4.669   0.068   9.627  1.2644  1.3119 -1.5617
  127MPD2     N 1945   0.156   0.433   9.773  0.2839  0.1741  0.2964
  127MPD2    H5 1946   0.239   0.463   9.824  0.3356 -0.2499  0.4573
  127MPD2    N1 1947   0.364   4.722   9.777  0.4647  0.0590 -0.0897
  127MPD2    H7 1948   0.360   4.624   9.751  0.9263  0.6573 -2.3757
  128TCq2    C1 1949   0.478   0.042   9.826 -0.3202  0.1969 -1.2768
  128TCq2    O2 1950   0.506   0.157   9.865  0.3724  0.0917  0.6901
  128TCq2    C2 1951   0.593   4.672   9.817  0.3381 -0.0164 -0.3150
  128TCq2    C3 1952   0.704   4.695   9.896 -0.0721  0.1371  0.9423
  128TCq2    C4 1953   0.820   4.633   9.869  0.4499  0.0249 -0.4330
  128TCq2    C5 1954   0.820   4.535   9.767 -0.4925 -1.4400 -0.1501
  128TCq2    C6 1955   0.703   4.502   9.702 -0.5630 -0.3295  0.7661
  128TCq2    C7 1956   0.588   4.569   9.727 -0.6226 -0.1200  0.1466
  128TCq2    C8 1957   0.707   4.385   9.617  0.7477 -0.6521  0.2604
  128TCq2    O4 1958   0.808   4.350   9.560  0.2759 -0.1312  0.1387
  128TCq2    C9 1959   0.936   4.652   9.958 -1.0053  0.5001  0.1838
  128TCq2    O5 1960   1.030   4.577   9.928  0.4785  0.6872  0.5069
  128TCq2    O6 1961   0.931   0.015  10.049 -0.9100  0.4350  0.4825
  128TCq2    H2 1962   0.699   0.046   9.974 -1.4085  0.6748  0.3415
  128TCq2    H3 1963   0.898   4.461   9.755 -0.3238 -1.0920 -1.1985
  128TCq2    H4 1964   0.501   4.556   9.665  1.7270  0.4239 -3.2315
  129MPD2     C 1965   2.762   0.897   1.065 -0.3989  0.7297 -0.0811
  129MPD2    C1 1966   2.898   0.855   1.044  0.0676  0.7363 -0.2039
  129MPD2    C2 1967   2.959   0.896   0.931  0.6995  0.1091 -0.2971
  129MPD2    C3 1968   2.899   0.973   0.840  0.0219 -0.1521 -0.0580
  129MPD2    C4 1969   2.770   1.016   0.867 -0.0691 -0.0218  0.7680
  129MPD2    C5 1970   2.698   0.973   0.975  0.6423  0.1365  0.3341
  129MPD2     H 1971   3.063   0.865   0.924  0.7093 -0.1553  0.9984
  129MPD2    H1 1972   2.710   1.071   0.796 -0.7246 -2.1828 -0.3669
  129MPD2    H2 1973   2.704   0.857   1.147  2.4318 -0.8011  1.1825
  129MPD2    H3 1974   2.592   0.992   0.985  0.6425 -0.1873  0.9164
  129MPD2     N 1975   2.974   1.019   0.722  0.3262  0.3330  1.1597
  129MPD2    H5 1976   3.067   0.977   0.717 -0.1106 -0.3536 -0.9850
  129MPD2    N1 1977   2.964   0.766   1.133  0.5245  0.0857 -0.6841
  129MPD2    H7 1978   3.057   0.737   1.108  0.0142 -2.4043  0.3597
  130TCq2    C1 1979   2.918   0.743   1.264 -0.1588 -0.0411 -0.7648
  130TCq2    O2 1980   2.812   0.770   1.318 -0.4120  0.5518  0.1149
  130TCq2    C2 1981   3.027   0.669   1.338 -0.0377 -0.0114  0.4399
  130TCq2    C3 1982   3.140   0.621   1.279 -0.2565  0.2937 -0.6455
  130TCq2    C4 1983   3.234   0.558   1.355  0.0485  0.4934 -0.1331
  130TCq2    C5 1984   3.221   0.542   1.492 -0.2183 -0.2647 -1.0360
  130TCq2    C6 1985   3.111   0.607   1.551  0.4175 -0.0788  0.1692
  130TCq2    C7 1986   3.008   0.656   1.471 -0.3597  0.9120 -0.0057
  130TCq2    C8 1987   3.054   0.542   1.664 -0.2568 -0.1316 -0.5474
  130TCq2    O4 1988   2.931   0.542   1.667 -0.1685  0.1376 -0.0380
  130TCq2    C9 1989   3.348   0.494   1.292 -0.5669 -0.1800  0.2553
  130TCq2    O5 1990   3.360   0.517   1.170  0.7261 -0.1040  0.1504
  130TCq2    O6 1991   3.432   0.431   1.360 -0.1294 -0.0838  0.1580
  130TCq2    H2 1992   3.160   0.612   1.173 -0.1738 -0.5775 -0.5612
  130TCq2    H3 1993   3.300   0.496   1.551  0.2272 -1.0931 -2.2968
  130TCq2    H4 1994   2.934   0.714   1.526 -0.1167  0.1395  1.1392
  131MPD2     C 1995   2.379   4.048   9.102 -1.0569 -0.0775 -0.5864
  131MPD2    C1 1996   2.429   4.155   9.166 -0.5404  0.7118  0.3276
  131MPD2    C2 1997   2.473   4.266   9.095 -0.4430  0.5584  0.0509
  131MPD2    C3 1998   2.477   4.271   8.954 -0.3038  0.2390  0.5121
  131MPD2    C4 1999   2.422   4.159   8.896 -0.4036 -0.6686 -0.0130
  131MPD2    C5 2000   2.374   4.054   8.964  0.0618 -0.1901  0.2079
  131MPD2     H 2001   2.514   4.349   9.153  0.1864  0.7033 -0.6064
  131MPD2    H1 2002   2.414   4.147   8.789  2.1610  0.0813 -0.2863
  131MPD2    H2 2003   2.334   3.964   9.154  0.6743 -0.6727 -0.0827
  131MPD2    H3 2004   2.329   3.975   8.906  0.4647 -0.4460  0.2436
  131MPD2     N 2005   2.533   4.384   8.890 -0.0009  0.3693  0.3704
  131MPD2    H5 2006   2.575   4.456   8.946  0.6332  1.8372 -2.0132
  131MPD2    N1 2007   2.459   4.159   9.303 -0.0407  0.1643  0.3379
  131MPD2    H7 2008   2.475   4.253   9.340  0.9287  0.3548 -0.5648
  132TCq2    C1 2009   2.806   4.080   9.683  0.1044  0.4599 -0.3917
  132TCq2    O2 2010   2.845   3.972   9.641  0.6611  0.4244  0.6818
  132TCq2    C2 2011   2.664   4.113   9.661  0.1569  0.4635 -0.1405
  132TCq2    C3 2012   2.617   4.229   9.714 -0.1059 -0.3152 -0.3874
  132TCq2    C4 2013   2.495   4.262   9.677 -0.7196 -0.4291  0.0624
  132TCq2    C5 2014   2.417   4.190   9.583  0.4854  0.2170  0.8052
  132TCq2    C6 2015   2.474   4.078   9.527  0.1759  1.0071  0.5012
  132TCq2    C7 2016   2.596   4.038   9.565  0.1450  0.2330  0.4126
  132TCq2    C8 2017   2.445   4.053   9.386  0.6346  0.3118 -0.4437
  132TCq2    O4 2018   2.449   3.934   9.354  0.1088 -0.8470  0.3451
  132TCq2    C9 2019   2.440   4.386   9.728 -0.2780  0.7135  0.8946
  132TCq2    O5 2020   2.324   4.392   9.767 -0.2660 -0.1054 -0.2537
  132TCq2    O6 2021   2.531   4.473   9.747 -0.1038 -0.0726 -0.2697
  132TCq2    H2 2022   2.677   4.282   9.787  0.1325  0.8894 -1.4693
  132TCq2    H3 2023   2.325   4.230   9.544  0.7767  0.9013  0.8271
  132TCq2    H4 2024   2.652   3.965   9.507  0.2580  0.1777  0.5942
  133MPD2     C 2025   1.990   0.869   8.862  0.4296 -0.7550  0.5132
  133MPD2    C1 2026   2.052   0.764   8.930  0.2800  0.8007 -0.6457
  133MPD2    C2 2027   1.994   0.640   8.925 -0.0421  0.7169  0.0763
  133MPD2    C3 2028   1.883   0.623   8.848  0.2896  0.6426  0.4597
  133MPD2    C4 2029   1.823   0.727   8.789 -0.1317  0.2783  0.2466
  133MPD2    C5 2030   1.871   0.853   8.801 -0.4128 -0.3464 -0.1501
  133MPD2     H 2031   2.039   0.562   8.986 -1.5149 -0.5563 -0.4709
  133MPD2    H1 2032   1.736   0.710   8.726 -0.8481  1.0527  1.0369
  133MPD2    H2 2033   2.029   0.969   8.852  0.2144 -0.5521  1.7126
  133MPD2    H3 2034   1.815   0.933   8.754  0.7924  0.0574 -0.8938
  133MPD2     N 2035   1.824   0.493   8.841  0.1136 -0.2880  0.2223
  133MPD2    H5 2036   1.744   0.488   8.779 -0.8088 -1.5667  1.5271
  133MPD2    N1 2037   2.166   0.797   9.005 -0.6001  0.0421  0.7644
  133MPD2    H7 2038   2.199   0.892   8.988 -0.3981  0.0499  1.2059
  134TCq2    C1 2039   2.249   0.709   9.077  0.1980  0.2503 -0.2697
  134TCq2    O2 2040   2.237   0.590   9.083  0.2531  0.1417 -0.0926
  134TCq2    C2 2041   2.367   0.775   9.131 -0.1927  0.3544 -0.0610
  134TCq2    C3 2042   2.382   0.908   9.127  0.0998 -0.1889 -0.3737
  134TCq2    C4 2043   2.495   0.956   9.177 -0.7325  0.7170 -0.9867
  134TCq2    C5 2044   2.596   0.876   9.226  0.3219  0.7702  0.3926
  134TCq2    C6 2045   2.579   0.742   9.225 -0.7226 -0.3411 -0.6686
  134TCq2    C7 2046   2.464   0.689   9.181  0.7025 -0.5087 -0.0686
  134TCq2    C8 2047   2.670   0.653   9.282  0.1752  0.0937 -0.3332
  134TCq2    O4 2048   2.653   0.534   9.264  0.5937  0.3377 -0.2111
  134TCq2    C9 2049   2.518   1.094   9.169  0.4720  0.2467 -0.1108
  134TCq2    O5 2050   2.635   1.132   9.200 -0.1696 -0.3044 -0.5887
  134TCq2    O6 2051   2.416   1.163   9.147  0.0876 -0.7211  0.0286
  134TCq2    H2 2052   2.318   0.978   9.073  0.2443  1.3313  1.4128
  134TCq2    H3 2053   2.679   0.932   9.269  0.5758 -0.1327  1.0711
  134TCq2    H4 2054   2.444   0.583   9.189 -1.6711 -0.0489  0.1653
  135MPD2     C 2055   4.315   1.408   9.639  0.1751 -0.3907  0.1919
  135MPD2    C1 2056   4.183   1.399   9.608 -0.2680 -0.3277  0.4976
  135MPD2    C2 2057   4.136   1.287   9.561  0.3208 -0.6275  0.0197
  135MPD2    C3 2058   4.215   1.176   9.542 -0.2007 -0.1506 -0.3992
  135MPD2    C4 2059   4.349   1.190   9.559  0.4109  0.6074  0.3248
  135MPD2    C5 2060   4.398   1.299   9.616 -0.1372 -0.0750 -0.1209
  135MPD2     H 2061   4.030   1.261   9.551  0.0312  0.6889 -0.2844
  135MPD2    H1 2062   4.417   1.107   9.544 -0.4110 -0.4147  2.3680
  135MPD2    H2 2063   4.359   1.502   9.671  0.9547 -0.9280  0.7021
  135MPD2    H3 2064   4.505   1.306   9.629  0.1049 -1.1131 -1.6297
  135MPD2     N 2065   4.165   1.044   9.519  0.4000  0.0892 -0.0122
  135MPD2    H5 2066   4.236   0.972   9.535 -0.1039 -0.2336  0.7628
  135MPD2    N1 2067   4.092   1.507   9.616  0.9338 -0.2723 -0.5038
  135MPD2    H7 2068   3.994   1.489   9.598  0.1907  2.7268  0.5133
  136TCq2    C1 2069   4.132   1.632   9.633 -0.1377 -0.3385  0.0389
  136TCq2    O2 2070   4.243   1.679   9.650 -0.3941 -0.5810 -0.3902
  136TCq2    C2 2071   4.014   1.716   9.594  0.1095 -0.0192 -0.3946
  136TCq2    C3 2072   4.041   1.842   9.549 -0.5581 -0.3353  0.1339
  136TCq2    C4 2073   3.942   1.901   9.484 -0.4674 -0.0995 -0.2044
  136TCq2    C5 2074   3.814   1.852   9.468  0.0796 -0.0701 -0.7801
  136TCq2    C6 2075   3.790   1.730   9.527  0.1909 -0.5987 -0.1824
  136TCq2    C7 2076   3.887   1.658   9.584  0.1667  0.1622  0.0052
  136TCq2    C8 2077   3.657   1.674   9.511 -0.2925  0.0689  0.7919
  136TCq2    O4 2078   3.581   1.725   9.431  0.0871 -0.0186  0.1061
  136TCq2    C9 2079   3.972   2.034   9.434 -0.1093 -0.5004  0.1498
  136TCq2    O5 2080   4.088   2.080   9.459 -0.5490  0.1389  0.3825
  136TCq2    O6 2081   3.870   2.106   9.407 -0.3061  0.1532 -1.0214
  136TCq2    H2 2082   4.146   1.871   9.548 -0.3793 -0.8833  2.5003
  136TCq2    H3 2083   3.729   1.900   9.421  0.9769  0.3199 -1.9936
  136TCq2    H4 2084   3.872   1.555   9.614 -0.3171 -0.0979 -1.1090
  137MPD2     C 2085   0.038   0.011  10.421  0.5855 -0.3978 -0.0599
  137MPD2    C1 2086   4.634   0.015  10.402 -0.5316  0.0106 -0.2904
  137MPD2    C2 2087   4.582   0.146  10.395 -0.6572 -0.5489  0.0386
  137MPD2    C3 2088   4.658   0.262  10.400 -0.3246 -0.6597 -0.1559
  137MPD2    C4 2089   0.068   0.251  10.418 -0.2817  0.5531  0.1147
  137MPD2    C5 2090   0.119   0.122  10.428  0.8854 -0.2821 -1.2782
  137MPD2     H 2091   4.476   0.153  10.371 -1.0426 -1.0365  1.5885
  137MPD2    H1 2092   0.136   0.335  10.421  1.3855 -0.8723  2.0411
  137MPD2    H2 2093   0.088   4.639  10.432 -2.1476 -1.7580  0.5150
  137MPD2    H3 2094   0.226   0.108  10.441  0.9162  1.6080  0.6067
  137MPD2     N 2095   4.594   0.384  10.397  0.4342  0.9781 -0.1861
  137MPD2    H5 2096   4.496   0.381  10.371 -0.4127  0.5887  3.1379
  137MPD2    N1 2097   4.563   4.618  10.404 -0.4073  0.1447  0.3455
  137MPD2    H7 2098   4.610   4.529  10.413 -0.4824 -0.1468 -2.1260
  138TCq2    C1 2099   4.429   4.611  10.402  0.4478  0.0174  0.5442
  138TCq2    O2 2100   4.342   4.696  10.393 -0.6386  0.3638 -0.0697
  138TCq2    C2 2101   4.379   4.480  10.422  0.0438  0.5254 -0.4160
  138TCq2    C3 2102   4.463   4.370  10.409  0.1258 -0.4329  0.0389
  138TCq2    C4 2103   4.409   4.245  10.417  0.1029 -0.0287 -0.0902
  138TCq2    C5 2104   4.278   4.231  10.452  0.1467 -0.3675 -0.5465
  138TCq2    C6 2105   4.200   4.337  10.470  0.6558  0.4369 -0.3779
  138TCq2    C7 2106   4.251   4.460  10.459  0.0094  0.2180  0.7683
  138TCq2    C8 2107   4.058   4.328  10.515 -0.2190  0.2298  0.3862
  138TCq2    O4 2108   4.027   4.213  10.529  0.3822  0.0727 -0.1389
  138TCq2    C9 2109   4.485   4.128  10.395  0.4383 -0.5159 -1.0266
  138TCq2    O5 2110   4.423   4.019  10.410  0.2629 -0.4485 -0.3185
  138TCq2    O6 2111   4.610   4.137  10.399 -0.6291 -0.3140 -0.5654
  138TCq2    H2 2112   4.571   4.368  10.394 -0.0494 -0.3946 -1.1562
  138TCq2    H3 2113   4.244   4.130  10.470 -1.6393  0.3409 -0.0052
  138TCq2    H4 2114   4.196   4.551  10.481  2.7733  1.5796  2.0950
  139TMC2    C1 2115   4.391   4.129  13.100  0.1445 -0.1264 -0.1840
  139TMC2    C2 2116   4.330   4.120  12.979  0.1856 -0.2875 -0.1416
  139TMC2    C3 2117   4.199   4.149  12.962  0.3623  1.2651  0.4813
  139TMC2    C4 2118   4.308   4.151  13.209 -0.5989  0.6243  0.1732
  139TMC2    C5 2119   4.178   4.187  13.198  0.3410  0.6202  0.4672
  139TMC2    C6 2120   4.125   4.192  13.072  0.0441 -0.1773  0.1027
  139TMC2     C 2121   4.496   4.044  13.130  0.0673 -0.3395  0.5724
  139TMC2     O 2122   4.507   3.932  13.083  0.1802 -0.2354 -0.5277
  139TMC2     H 2123   4.392   4.121  12.890  0.7757 -2.8369  0.2375
  139TMC2    H1 2124   4.350   4.129  13.306 -0.8423  2.2190  0.6471
  139TMC2    H2 2125   4.020   4.215  13.063  0.0200 -1.0090 -1.7788
  139TMC2    C7 2126   4.092   4.226  13.309  0.2141 -0.1798 -0.4914
  139TMC2    C8 2127   4.144   4.184  12.834 -0.6112  0.9199 -0.0567
  139TMC2    O1 2128   3.978   4.259  13.288  0.5509 -0.1924  0.6188
  139TMC2    O2 2129   4.061   4.274  12.811 -0.3845  0.5764 -0.8393
  139TMC2    O5 2130   4.169   4.080  12.752 -0.6142 -0.5187 -0.1452
  139TMC2    H5 2131   4.245   4.025  12.780 -0.0142  0.0220 -0.7219
  140MPD2     C 2132   0.056   4.132  13.354 -0.1321  0.0903  0.4082
  140MPD2    C1 2133   4.706   4.057  13.260 -0.6204  0.6306  1.0887
  140MPD2    C2 2134   0.026   3.933  13.232  0.1180  0.4532  0.3830
  140MPD2    C3 2135   0.150   3.889  13.272  0.1702  0.0963  0.2448
  140MPD2    C4 2136   0.228   3.976  13.352  0.1307 -0.1978 -0.6935
  140MPD2    C5 2137   0.177   4.089  13.401  0.3361 -0.7236 -0.6021
  140MPD2     H 2138   4.699   3.863  13.166 -3.2102  3.2935 -0.0427
  140MPD2    H1 2139   0.327   3.952  13.389 -0.7889  0.8093  2.4173
  140MPD2    H2 2140   0.030   4.232  13.387  2.8236  0.8109  0.5383
  140MPD2    H3 2141   0.234   4.150  13.470 -0.2755 -0.0551 -0.6912
  140MPD2     N 2142   0.192   3.754  13.253 -0.4871 -0.9136 -0.0716
  140MPD2    H5 2143   0.287   3.725  13.275  0.4871  1.0730 -1.6580
  140MPD2    N1 2144   4.581   4.106  13.214 -0.5263  0.2219 -1.1271
  140MPD2    H7 2145   4.564   4.200  13.249 -0.5884  0.0421 -0.6775
  141TCq2    C1 2146   0.329   0.346  14.074  0.0564  0.1234  0.2238
  141TCq2    O2 2147   0.300   0.442  14.001  0.2091  0.6877  0.2052
  141TCq2    C2 2148   0.287   0.352  14.211 -0.7762 -0.2176  0.0044
  141TCq2    C3 2149   0.334   0.264  14.305  0.0575 -0.2245 -0.3594
  141TCq2    C4 2150   0.308   0.286  14.439 -0.2359  0.2569 -0.3539
  141TCq2    C5 2151   0.243   0.399  14.482 -0.3414  0.5520  0.3896
  141TCq2    C6 2152   0.197   0.487  14.386  0.1211 -0.1654 -0.1697
  141TCq2    C7 2153   0.217   0.460  14.249 -0.2655 -0.8338  0.6063
  141TCq2    C8 2154   0.125   0.610  14.424 -1.0613 -0.1284  0.1039
  141TCq2    O4 2155   0.069   0.612  14.536 -0.3410 -0.2303 -0.0584
  141TCq2    C9 2156   0.358   0.183  14.528  0.2746 -0.1820 -0.0861
  141TCq2    O5 2157   0.401   0.079  14.475 -0.4878 -0.5349  0.3388
  141TCq2    O6 2158   0.368   0.216  14.649 -0.0257  0.1978  0.0150
  141TCq2    H2 2159   0.388   0.176  14.271 -1.8345 -2.1309  1.6051
  141TCq2    H3 2160   0.218   0.414  14.587 -2.1516  0.7115 -0.0596
  141TCq2    H4 2161   0.203   0.540  14.177 -2.4902  0.7321  2.8032
  142MPD2     C 2162   2.436   3.537   9.546 -0.2531  0.3108 -0.1504
  142MPD2    C1 2163   2.502   3.471   9.645  0.4834  1.4617 -0.0883
  142MPD2    C2 2164   2.631   3.505   9.675 -0.2225 -0.7802 -0.4672
  142MPD2    C3 2165   2.699   3.602   9.604  0.7451 -0.3872  0.1542
  142MPD2    C4 2166   2.635   3.678   9.507  0.4942  0.4919 -0.1143
  142MPD2    C5 2167   2.504   3.635   9.478  0.1637  0.3758 -0.1860
  142MPD2     H 2168   2.685   3.443   9.745  2.1431  1.0192 -0.6978
  142MPD2    H1 2169   2.673   3.757   9.443 -0.5609  1.5032  0.5118
  142MPD2    H2 2170   2.331   3.520   9.528  0.1474 -0.1655 -2.1206
  142MPD2    H3 2171   2.456   3.690   9.398 -1.9430 -0.0850  0.7719
  142MPD2     N 2172   2.830   3.642   9.632 -0.5394  0.3048  0.4702
  142MPD2    H5 2173   2.868   3.722   9.582  3.6346 -1.4010  0.9887
  142MPD2    N1 2174   2.423   3.380   9.722  0.6548  0.6487  0.2709
  142MPD2    H7 2175   2.324   3.378   9.697  0.6146 -1.1588  0.5458
  143TCq2    C1 2176   2.922   3.580   9.715 -0.5799 -0.3150  0.0438
  143TCq2    O2 2177   2.914   3.485   9.791 -0.5214 -0.2004  0.6109
  143TCq2    C2 2178   3.045   3.661   9.725 -0.2827 -0.7522 -0.4301
  143TCq2    C3 2179   3.136   3.607   9.813  0.1746 -0.8071  0.3009
  143TCq2    C4 2180   3.261   3.660   9.807 -0.1324  0.5248 -0.1635
  143TCq2    C5 2181   3.296   3.752   9.710  0.1936  0.3326  0.1183
  143TCq2    C6 2182   3.202   3.805   9.626 -0.2257  0.2698 -0.4146
  143TCq2    C7 2183   3.072   3.758   9.626  0.5032 -0.1976  0.7226
  143TCq2    C8 2184   3.247   3.912   9.540 -0.2109  0.1684 -0.4215
  143TCq2    O4 2185   3.353   3.971   9.572  0.1583 -0.0482 -0.3123
  143TCq2    C9 2186   3.366   3.608   9.886 -0.4890  0.0394  0.2975
  143TCq2    O5 2187   3.338   3.532   9.985 -0.4553 -0.2578  0.1597
  143TCq2    O6 2188   3.486   3.650   9.871 -0.1820  0.1603 -0.0241
  143TCq2    H2 2189   3.124   3.530   9.888  0.6677 -1.8023 -0.6446
  143TCq2    H3 2190   3.398   3.789   9.715  1.2613 -2.8983  2.1703
  143TCq2    H4 2191   2.994   3.808   9.570 -0.6267 -0.9264  1.6292
  144MPD2     C 2192   0.996   2.939   0.505  0.4028  0.7906 -0.3201
  144MPD2    C1 2193   1.041   2.811   0.471  0.2506 -0.3754 -0.1882
  144MPD2    C2 2194   1.143   2.749   0.552 -0.1424 -0.4526 -0.2674
  144MPD2    C3 2195   1.206   2.826   0.653  0.3131 -0.8368 -0.2418
  144MPD2    C4 2196   1.168   2.957   0.682  0.0013 -0.4404 -0.1362
  144MPD2    C5 2197   1.063   3.009   0.605  1.0366  0.1550 -0.1848
  144MPD2     H 2198   1.182   2.649   0.539 -0.8729 -0.8598  0.6542
  144MPD2    H1 2199   1.210   3.022   0.757  1.4425 -1.6787  0.1191
  144MPD2    H2 2200   0.911   2.987   0.458 -1.0856 -0.0495  1.5708
  144MPD2    H3 2201   1.038   3.112   0.626 -1.0091 -0.6223  1.2281
  144MPD2     N 2202   1.317   2.772   0.724 -0.1294  0.0614  0.1460
  144MPD2    H5 2203   1.361   2.838   0.786 -0.6627  2.2387 -1.7944
  144MPD2    N1 2204   0.979   2.732   0.371 -0.2203 -0.7636  0.1321
  144MPD2    H7 2205   1.008   2.635   0.374 -1.3423 -1.0461  2.2253
  145TCq2    C1 2206   1.361   2.641   0.724  0.4710  0.7879 -0.3660
  145TCq2    O2 2207   1.309   2.543   0.676  0.3445  0.4255  0.5243
  145TCq2    C2 2208   1.484   2.622   0.810 -0.2692 -0.6987 -0.3059
  145TCq2    C3 2209   1.544   2.502   0.788 -0.7223  0.0118 -0.6638
  145TCq2    C4 2210   1.640   2.453   0.877 -0.2290 -0.4069 -0.1031
  145TCq2    C5 2211   1.661   2.528   0.992 -0.1180  0.5879  0.8302
  145TCq2    C6 2212   1.582   2.642   1.021 -1.1467  0.0613  0.2830
  145TCq2    C7 2213   1.503   2.696   0.922 -0.6710 -0.4705  0.1215
  145TCq2    C8 2214   1.572   2.672   1.162 -0.0544  0.7741 -0.2504
  145TCq2    O4 2215   1.647   2.612   1.240 -0.0187 -0.1467  0.3032
  145TCq2    C9 2216   1.706   2.330   0.862 -0.2074  0.2038  0.3916
  145TCq2    O5 2217   1.773   2.273   0.954  0.1296 -0.2376 -0.4491
  145TCq2    O6 2218   1.706   2.287   0.742  0.1895 -0.0025  0.9303
  145TCq2    H2 2219   1.534   2.441   0.698 -0.2960 -1.5712  0.3463
  145TCq2    H3 2220   1.731   2.495   1.069  1.2855  0.8964 -0.3164
  145TCq2    H4 2221   1.432   2.774   0.943  0.8200  0.6196  1.1462
  146TMC2    C1 2222   1.857   1.893  13.010  0.5919 -0.7293 -0.0140
  146TMC2    C2 2223   1.758   1.974  12.965 -0.1840 -0.6996  0.6038
  146TMC2    C3 2224   1.732   1.994  12.830 -0.0107  0.5292 -0.2332
  146TMC2    C4 2225   1.945   1.836  12.921 -0.3942 -0.4387  0.4428
  146TMC2    C5 2226   1.916   1.843  12.785 -0.8528 -0.0958 -0.0803
  146TMC2    C6 2227   1.821   1.931  12.738  0.5399  0.0641  0.4934
  146TMC2     C 2228   1.864   1.865  13.156  0.2550 -0.2002 -0.1254
  146TMC2     O 2229   1.796   1.919  13.239  0.6589  0.3354 -0.8506
  146TMC2     H 2230   1.689   2.025  13.032 -1.0026 -1.2599  0.1734
  146TMC2    H1 2231   2.038   1.786  12.947  0.6459  1.0335 -0.4555
  146TMC2    H2 2232   1.813   1.922  12.630  2.5932 -1.7708  0.4952
  146TMC2    C7 2233   2.010   1.789  12.688  0.4752  0.0185  0.1847
  146TMC2    C8 2234   1.635   2.091  12.794  0.0606 -0.2928  0.1341
  146TMC2    O1 2235   2.028   1.847  12.582 -0.1241 -0.0050  0.0578
  146TMC2    O2 2236   1.600   2.185  12.859  0.5056  0.4379  0.0616
  146TMC2    O5 2237   1.631   2.084  12.661 -0.1690  0.3850 -0.1941
  146TMC2    H5 2238   1.647   1.991  12.635  2.7328  0.9653 -0.5100
  147MPD2     C 2239   2.369   1.460  12.534 -0.3768 -0.0670  0.0957
  147MPD2    C1 2240   2.361   1.451  12.675  0.0169  0.2405 -0.7951
  147MPD2    C2 2241   2.259   1.520  12.734  0.3387  0.5669  0.0370
  147MPD2    C3 2242   2.168   1.597  12.658 -0.2254  0.4392  0.4417
  147MPD2    C4 2243   2.176   1.590  12.521 -0.1476 -0.6862  0.4569
  147MPD2    C5 2244   2.270   1.512  12.457  0.6362 -0.3033 -0.3664
  147MPD2     H 2245   2.242   1.522  12.841  2.2137 -0.9435  0.3642
  147MPD2    H1 2246   2.112   1.647  12.454  2.1332 -1.0775 -2.0034
  147MPD2    H2 2247   2.449   1.411  12.481  0.1117  0.1118  0.6733
  147MPD2    H3 2248   2.274   1.506  12.348 -0.2847 -0.1739 -0.4058
  147MPD2     N 2249   2.076   1.674  12.727  0.4461  0.3696  0.6294
  147MPD2    H5 2250   2.075   1.642  12.823  1.8242  1.2326  0.9410
  147MPD2    N1 2251   2.452   1.372  12.750 -0.4100 -0.2979 -0.5237
  147MPD2    H7 2252   2.530   1.338  12.695  0.0185 -0.4530  0.1750
  148MPD2     C 2253   2.445   0.079  10.392  0.3896  0.2402 -0.1659
  148MPD2    C1 2254   2.450   0.043  10.259 -0.6694  0.0727 -0.6214
  148MPD2    C2 2255   2.325   0.036  10.196  1.5102 -0.5255  0.0762
  148MPD2    C3 2256   2.206   0.055  10.272  0.8691  0.4255  0.2982
  148MPD2    C4 2257   2.213   0.092  10.403  0.1890 -0.1854  0.1527
  148MPD2    C5 2258   2.332   0.104  10.462  0.5335 -0.5886  0.2260
  148MPD2     H 2259   2.329   0.005  10.092 -2.0641 -0.7740  0.0037
  148MPD2    H1 2260   2.122   0.114  10.458  1.2119 -0.5151  1.9961
  148MPD2    H2 2261   2.538   0.077  10.447  0.9587 -1.8173 -1.2216
  148MPD2    H3 2262   2.348   0.148  10.560  0.3219 -1.7116  0.7620
  148MPD2     N 2263   2.081   0.021  10.218 -0.0811  0.1682 -0.0176
  148MPD2    H5 2264   2.012   0.018  10.292 -0.8788 -0.5126 -0.8011
  148MPD2    N1 2265   2.568   0.018  10.186 -0.7843 -0.0322  0.1033
  148MPD2    H7 2266   2.573   4.698  10.095  1.7588 -3.6004  1.9335
  149TCq2    C1 2267   2.692   0.046  10.246  0.1625  0.1643  0.1225
  149TCq2    O2 2268   2.716   0.115  10.340 -0.5557  0.0520 -0.0515
  149TCq2    C2 2269   2.798   4.677  10.204  0.8813 -0.6847  0.1194
  149TCq2    C3 2270   2.921   4.701  10.259 -0.2921  0.6477 -0.3533
  149TCq2    C4 2271   3.005   4.602  10.272 -0.3600 -0.5231  0.5463
  149TCq2    C5 2272   2.970   4.473  10.240  0.3004 -0.1209 -0.1265
  149TCq2    C6 2273   2.856   4.456  10.168 -0.4810  0.0697  0.4765
  149TCq2    C7 2274   2.763   4.556  10.148  0.3899  0.6626  0.9123
  149TCq2    C8 2275   2.821   4.315  10.128 -0.0067  0.1393  0.3295
  149TCq2    O4 2276   2.710   4.305  10.089 -0.1418  0.1863 -0.0154
  149TCq2    C9 2277   3.116   4.622  10.355  0.4885  0.0557 -0.0252
  149TCq2    O5 2278   3.212   4.541  10.345  0.0166 -0.1018 -0.2548
  149TCq2    O6 2279   3.122   4.719  10.436  0.8389 -0.0195  0.0533
  149TCq2    H2 2280   2.948   0.069  10.308 -1.5871 -0.0994  1.7550
  149TCq2    H3 2281   3.047   4.397  10.236  0.3997  0.0223 -0.9768
  149TCq2    H4 2282   2.667   4.528  10.105  0.1418  2.7806  0.0679
  150MPD2     C 2283   3.683   0.051  11.977 -0.1345 -0.6619  0.1992
  150MPD2    C1 2284   3.761   0.001  11.882 -0.9889  0.1104  0.5497
  150MPD2    C2 2285   3.892   4.708  11.903 -0.5240 -0.2102 -0.3503
  150MPD2    C3 2286   3.952   0.024  12.019 -0.3173 -0.6824  0.4173
  150MPD2    C4 2287   3.867   0.074  12.122 -0.0106 -0.6670 -0.4715
  150MPD2    C5 2288   3.739   0.095  12.090 -0.2426 -0.4594 -0.1733
  150MPD2     H 2289   3.949   4.662  11.823  0.0015 -1.7636  0.9086
  150MPD2    H1 2290   3.906   0.095  12.221  0.1098 -1.2947 -0.3869
  150MPD2    H2 2291   3.578   0.075  11.963 -0.4987 -2.1949  0.2720
  150MPD2    H3 2292   3.671   0.118  12.171 -0.3793  1.0409 -0.7345
  150MPD2     N 2293   4.096   0.022  12.030  0.0297 -0.6878  0.0354
  150MPD2    H5 2294   4.139   4.696  11.953  1.8164  0.0904  0.5305
  150MPD2    N1 2295   3.706   4.688  11.752  0.1263  0.3929  0.1447
  150MPD2    H7 2296   3.776   4.658  11.685  1.2084 -1.5915  2.1599
  151TCq2    C1 2297   4.175   0.063  12.132 -0.6735 -0.5811 -0.4386
  151TCq2    O2 2298   4.144   0.102  12.243 -0.5396  0.0097 -0.5437
  151TCq2    C2 2299   4.313   0.041  12.100  0.4501  0.1903 -0.1694
  151TCq2    C3 2300   4.350   0.034  11.970 -0.3322 -0.3058 -0.4095
  151TCq2    C4 2301   4.482   0.012  11.938 -0.3697  0.2394  0.8981
  151TCq2    C5 2302   4.573   0.004  12.039  0.2451  0.5086  0.4184
  151TCq2    C6 2303   4.522   0.013  12.168  0.7351 -0.5624 -0.2305
  151TCq2    C7 2304   4.392   0.027  12.203  0.0504  0.5838 -0.6644
  151TCq2    C8 2305   4.617   4.715  12.275 -0.3350  0.9920 -0.0693
  151TCq2    O4 2306   4.609   0.050  12.381  0.3821 -0.5522  0.5581
  151TCq2    C9 2307   4.521   0.009  11.796  0.8288  0.3508  0.5144
  151TCq2    O5 2308   4.436   0.017  11.701 -0.1946 -0.5087 -0.5450
  151TCq2    O6 2309   4.646   0.023  11.774 -0.1130 -0.1175 -0.4817
  151TCq2    H2 2310   4.284   0.050  11.887 -0.0951  1.1168 -0.3171
  151TCq2    H3 2311   4.677   4.703  12.020  0.0859 -0.0312  0.2584
  151TCq2    H4 2312   4.355   0.038  12.304 -2.2218  0.9374 -1.5505
  152MPD2     C 2313   3.502   3.731  12.242  0.5688 -0.6086 -0.0478
  152MPD2    C1 2314   3.546   3.857  12.275 -0.3123 -0.1995 -0.5192
  152MPD2    C2 2315   3.452   3.964  12.276 -0.5063 -0.8320  0.0551
  152MPD2    C3 2316   3.315   3.923  12.266  0.3056 -0.2661  1.1669
  152MPD2    C4 2317   3.279   3.797  12.232 -0.1569 -0.7205 -0.7755
  152MPD2    C5 2318   3.370   3.700  12.214  0.1503  0.2437 -0.1798
  152MPD2     H 2319   3.488   4.064  12.298 -1.3738  0.2550 -3.4759
  152MPD2    H1 2320   3.175   3.775  12.213 -0.5841  0.0793  0.6833
  152MPD2    H2 2321   3.572   3.650  12.224  2.4709  0.7715  1.1208
  152MPD2    H3 2322   3.346   3.597  12.191  0.4321  0.4635 -1.4149
  152MPD2     N 2323   3.219   4.018  12.271  0.0594 -0.1830  0.4087
  152MPD2    H5 2324   3.247   4.115  12.258  1.2338 -0.5738  0.0453
  152MPD2    N1 2325   3.686   3.885  12.298 -0.1565 -0.3526 -0.3005
  152MPD2    H7 2326   3.751   3.807  12.291  0.3604 -0.0666  1.2948
  153TCq2    C1 2327   3.753   4.001  12.332  0.4566 -0.8566 -0.0094
  153TCq2    O2 2328   3.708   4.113  12.355 -0.5280  0.1108  0.0994
  153TCq2    C2 2329   3.890   3.979  12.377  0.1370  0.5510  0.0714
  153TCq2    C3 2330   3.937   3.863  12.429  0.4568  0.1605 -0.1542
  153TCq2    C4 2331   4.072   3.859  12.445 -0.0272 -0.3921  0.3156
  153TCq2    C5 2332   4.150   3.967  12.437 -0.4033 -0.3788 -0.8063
  153TCq2    C6 2333   4.101   4.086  12.384 -0.0068  0.0612  0.6385
  153TCq2    C7 2334   3.968   4.090  12.346  0.4813  0.0003 -0.5688
  153TCq2    C8 2335   4.151   4.213  12.441  0.3208  0.6070  0.3301
  153TCq2    O4 2336   4.069   4.301  12.448 -0.0609 -0.4710  0.0576
  153TCq2    C9 2337   4.118   3.731  12.510 -0.1090 -0.0562 -0.1714
  153TCq2    O5 2338   4.038   3.640  12.536 -0.4777  0.4717  0.8203
  153TCq2    O6 2339   4.245   3.732  12.537 -0.3373 -0.1827 -0.2312
  153TCq2    H2 2340   3.869   3.783  12.458  2.0061 -0.8210  0.7876
  153TCq2    H3 2341   4.255   3.959  12.463 -0.5702  0.4580  0.1529
  153TCq2    H4 2342   3.933   4.177  12.291  0.4844  0.3495 -0.0194
  154MPD2     C 2343   1.402   4.018   0.961  0.0372  0.1948  0.2817
  154MPD2    C1 2344   1.286   4.050   1.027  0.0709  0.0312  0.6145
  154MPD2    C2 2345   1.163   4.042   0.970 -0.4848  0.3563  0.0508
  154MPD2    C3 2346   1.160   4.037   0.832 -0.3142  0.3167 -0.4655
  154MPD2    C4 2347   1.275   4.016   0.756 -0.8766  0.2139 -0.2738
  154MPD2    C5 2348   1.391   4.013   0.823  0.5863  0.4760  0.3154
  154MPD2     H 2349   1.070   4.066   1.019  0.5285  1.3726  1.4725
  154MPD2    H1 2350   1.271   3.991   0.651 -0.2979  0.0991 -0.2714
  154MPD2    H2 2351   1.500   4.014   1.007  0.0048  0.4205  0.3756
  154MPD2    H3 2352   1.488   3.996   0.777  0.7028  3.1241 -0.4338
  154MPD2     N 2353   1.035   4.041   0.764 -0.3504  0.2026 -0.2825
  154MPD2    H5 2354   0.962   4.075   0.826  1.7256 -1.3948  3.0104
  154MPD2    N1 2355   1.312   4.080   1.160 -0.0419 -0.8881 -1.2202
  154MPD2    H7 2356   1.411   4.086   1.181 -0.3052 -0.5033 -0.0873
  155TCq2    C1 2357   1.224   4.140   1.246 -0.0019 -0.9090  0.3612
  155TCq2    O2 2358   1.105   4.164   1.234  0.2084  0.7597 -0.1411
  155TCq2    C2 2359   1.280   4.199   1.369 -0.1107  0.2521 -0.5371
  155TCq2    C3 2360   1.226   4.312   1.422 -0.8480  0.1585  0.4402
  155TCq2    C4 2361   1.296   4.382   1.523  0.2665  0.0898 -0.9511
  155TCq2    C5 2362   1.407   4.323   1.577  0.6403 -0.5674  0.1233
  155TCq2    C6 2363   1.448   4.201   1.523  0.1596 -0.0303  0.0001
  155TCq2    C7 2364   1.394   4.143   1.415  0.3271  0.6848 -0.4648
  155TCq2    C8 2365   1.565   4.125   1.582  0.2504  1.0248  0.0141
  155TCq2    O4 2366   1.575   4.010   1.532 -0.1184  0.1073 -0.2785
  155TCq2    C9 2367   1.240   4.513   1.564 -0.5139 -1.0601 -0.0601
  155TCq2    O5 2368   1.302   4.568   1.669  0.0463  0.0778  0.2067
  155TCq2    O6 2369   1.152   4.562   1.483 -0.2321 -0.1700 -0.3566
  155TCq2    H2 2370   1.131   4.356   1.394 -0.1110  1.5743  0.1395
  155TCq2    H3 2371   1.450   4.361   1.669  1.4329 -1.0101 -0.0621
  155TCq2    H4 2372   1.440   4.054   1.376  0.0825  0.7521 -0.9048
  156MPD2     C 2373   4.338   1.522  11.682  0.1004  0.2147 -0.2158
  156MPD2    C1 2374   4.261   1.618  11.739  0.8533  1.3127  0.5646
  156MPD2    C2 2375   4.302   1.653  11.863 -0.4283  0.1982 -0.8731
  156MPD2    C3 2376   4.413   1.601  11.931  1.0183  0.6407 -0.3251
  156MPD2    C4 2377   4.489   1.510  11.866 -0.1862  0.8521  0.6558
  156MPD2    C5 2378   4.449   1.468  11.741 -0.7198 -0.8306  0.1093
  156MPD2     H 2379   4.252   1.727  11.924  1.7276  0.7701  0.1958
  156MPD2    H1 2380   4.577   1.457  11.899 -1.0591 -0.1278  1.3977
  156MPD2    H2 2381   4.312   1.490  11.582  0.7427  0.7931 -0.5751
  156MPD2    H3 2382   4.499   1.389  11.687 -0.5551 -0.3590 -0.4285
  156MPD2     N 2383   4.434   1.635  12.067  0.1975  0.5556 -0.0484
  156MPD2    H5 2384   4.368   1.700  12.107  1.3597  1.1071  0.9699
  156MPD2    N1 2385   4.152   1.672  11.670  0.2112  0.1700 -0.5555
  156MPD2    H7 2386   4.134   1.634  11.578  1.7875 -1.5347 -0.1423
  157TCq2    C1 2387   4.053   1.759  11.718 -0.2767 -0.1114  0.2520
  157TCq2    O2 2388   4.053   1.810  11.827  0.1320  0.1131 -0.3092
  157TCq2    C2 2389   3.947   1.785  11.620 -0.2281 -1.1798 -0.7988
  157TCq2    C3 2390   3.939   1.710  11.514 -0.0974 -0.3398 -0.7733
  157TCq2    C4 2391   3.839   1.751  11.428 -0.4036  0.3788 -0.2383
  157TCq2    C5 2392   3.765   1.863  11.442 -0.4642 -0.2262 -0.6202
  157TCq2    C6 2393   3.776   1.930  11.564  0.1233 -0.6058  0.2407
  157TCq2    C7 2394   3.871   1.895  11.659  0.7966 -0.0824  0.4556
  157TCq2    C8 2395   3.732   2.069  11.565 -0.0100  0.4208 -0.1619
  157TCq2    O4 2396   3.748   2.145  11.662 -0.3007 -0.8976 -0.2145
  157TCq2    C9 2397   3.828   1.675  11.311  0.3258 -0.3836  0.1602
  157TCq2    O5 2398   3.767   1.717  11.214  0.0907 -0.0684  0.3029
  157TCq2    O6 2399   3.880   1.559  11.314  0.4119 -0.3422  0.0906
  157TCq2    H2 2400   3.997   1.621  11.493 -0.0092 -0.5592  0.4189
  157TCq2    H3 2401   3.703   1.893  11.359 -1.4878 -0.1587  0.1555
  157TCq2    H4 2402   3.890   1.958  11.746  2.5339  0.6391 -0.4364
  158TMC2    C1 2403   4.067   0.498  13.207 -0.5528 -0.7641  0.2631
  158TMC2    C2 2404   4.088   0.589  13.103 -0.3748  0.0397 -0.4704
  158TMC2    C3 2405   3.982   0.664  13.064  0.9095 -0.2678  0.3619
  158TMC2    C4 2406   3.943   0.484  13.277  0.3714  0.4630  0.2300
  158TMC2    C5 2407   3.846   0.575  13.242  0.6145 -0.2790 -0.1418
  158TMC2    C6 2408   3.867   0.660  13.131 -0.1491 -0.4608 -0.1292
  158TMC2     C 2409   4.194   0.438  13.255  0.5565 -0.2145  0.2517
  158TMC2     O 2410   4.297   0.449  13.185 -0.1582 -0.0096  0.2089
  158TMC2     H 2411   4.186   0.613  13.062 -0.7174  0.0434 -1.2904
  158TMC2    H1 2412   3.925   0.404  13.348 -0.5263  0.6860  0.2557
  158TMC2    H2 2413   3.789   0.731  13.104 -0.0045  0.1386  1.0249
  158TMC2    C7 2414   3.710   0.565  13.289  0.3340  0.4464 -0.9013
  158TMC2    C8 2415   4.003   0.789  12.995 -0.4361  0.6678 -0.0685
  158TMC2    O1 2416   3.621   0.638  13.241 -0.2443 -0.5984  0.5740
  158TMC2    O2 2417   4.108   0.849  13.012  0.1135 -0.1152  0.2156
  158TMC2    O5 2418   3.934   0.778  12.881 -0.2931  0.3305 -0.1663
  158TMC2    H5 2419   3.863   0.711  12.884  0.4660 -0.4714  0.0625
  159MPD2     C 2420   4.501   0.251  13.627 -0.2089 -0.9506  0.0926
  159MPD2    C1 2421   4.380   0.284  13.680  0.7523  0.6953 -0.1681
  159MPD2    C2 2422   4.281   0.335  13.600 -0.4634  0.0247  1.1616
  159MPD2    C3 2423   4.294   0.359  13.464  0.2912  0.4401 -0.5530
  159MPD2    C4 2424   4.422   0.333  13.416  0.3659  0.3054  0.2883
  159MPD2    C5 2425   4.522   0.279  13.490 -0.2190 -0.6460  0.3755
  159MPD2     H 2426   4.181   0.357  13.635 -0.6568  1.2909 -0.1804
  159MPD2    H1 2427   4.438   0.325  13.309  1.9104 -1.2352  0.6247
  159MPD2    H2 2428   4.579   0.208  13.689 -0.8709 -1.5031  0.5495
  159MPD2    H3 2429   4.618   0.255  13.448  0.4193 -0.8995  1.9704
  159MPD2     N 2430   4.195   0.417  13.394  0.0024 -0.3530 -0.2633
  159MPD2    H5 2431   4.113   0.438  13.450 -0.1301 -2.9804  0.5124
  159MPD2    N1 2432   4.363   0.252  13.821  0.0460  0.5442 -0.4353
  159MPD2    H7 2433   4.444   0.219  13.872  1.3138  1.8257 -1.6301
  160TMC2    C1 2434   4.671   2.854   1.323 -0.4620 -0.1192 -0.1697
  160TMC2    C2 2435   4.649   2.733   1.394 -0.1432 -1.1400  0.0257
  160TMC2    C3 2436   4.715   2.610   1.354  0.8880  0.6984 -0.5120
  160TMC2    C4 2437   0.021   2.844   1.209 -0.0357 -0.0265  0.3685
  160TMC2    C5 2438   0.070   2.720   1.161 -0.9263 -0.1359 -0.5878
  160TMC2    C6 2439   0.061   2.608   1.236  0.0647  1.8416 -0.6461
  160TMC2     C 2440   4.609   2.983   1.352  0.0244  0.1033  0.1405
  160TMC2     O 2441   4.638   3.075   1.277  0.4304 -0.4264 -0.2813
  160TMC2     H 2442   4.583   2.721   1.479 -1.0178 -0.7071 -0.6022
  160TMC2    H1 2443   0.037   2.932   1.148 -1.5936 -0.8557 -1.2514
  160TMC2    H2 2444   0.119   2.522   1.204 -2.4928 -0.8539  1.8545
  160TMC2    C7 2445   0.118   2.707   1.022  0.6383  0.2309 -0.0962
  160TMC2    C8 2446   4.695   2.497   1.448 -0.1317  0.0707  0.0283
  160TMC2    O1 2447   0.139   2.592   0.982  0.2406  0.1800 -0.6493
  160TMC2    O2 2448   4.637   2.515   1.554  0.5822  0.1286  0.4420
  160TMC2    O5 2449   4.685   2.386   1.371 -0.5156 -0.1123 -0.1021
  160TMC2    H5 2450   4.700   2.398   1.275 -1.7233  3.3687  0.1521
  161MPD2     C 2451   4.518   3.142   1.665 -0.3705  0.3264 -0.6293
  161MPD2    C1 2452   4.503   3.111   1.528 -0.6539 -0.5823  0.1908
  161MPD2    C2 2453   4.429   3.184   1.447  0.1079  0.2250 -0.2556
  161MPD2    C3 2454   4.366   3.302   1.499  0.1654  0.2407  0.4254
  161MPD2    C4 2455   4.377   3.335   1.631  0.2648  0.3822 -0.2218
  161MPD2    C5 2456   4.467   3.259   1.709  0.1379 -1.0833 -0.0376
  161MPD2     H 2457   4.425   3.151   1.344  0.9417 -1.2678  0.1826
  161MPD2    H1 2458   4.337   3.428   1.671 -1.3661 -0.6661  0.6073
  161MPD2    H2 2459   4.579   3.078   1.728 -1.0029 -0.2914 -0.6480
  161MPD2    H3 2460   4.480   3.294   1.811 -1.5001 -2.9037  0.7926
  161MPD2     N 2461   4.289   3.391   1.412 -0.0967 -0.9463  0.2843
  161MPD2    H5 2462   4.255   3.476   1.457 -1.1200 -0.9377 -0.5046
  161MPD2    N1 2463   4.567   2.995   1.485 -0.0017  0.3925 -0.0616
  161MPD2    H7 2464   4.611   2.934   1.553 -0.4762  0.0559 -0.0559
  162TMC2    C1 2465   2.271   0.213   1.132 -0.0424  0.0104  0.1859
  162TMC2    C2 2466   2.182   0.277   1.052 -1.2500 -0.1476 -0.0417
  162TMC2    C3 2467   2.051   0.293   1.087 -0.6166  0.1299 -0.5694
  162TMC2    C4 2468   2.222   0.159   1.249 -0.5518  0.3439  0.5108
  162TMC2    C5 2469   2.092   0.182   1.285 -0.3560 -0.2158 -0.4576
  162TMC2    C6 2470   2.000   0.254   1.207 -0.1656 -0.7177  0.4020
  162TMC2     C 2471   2.407   0.195   1.076 -0.3340  0.8917 -0.0106
  162TMC2     O 2472   2.408   0.198   0.954 -0.8552 -0.3020  0.7665
  162TMC2     H 2473   2.213   0.303   0.952  0.0264  0.1604  0.4296
  162TMC2    H1 2474   2.290   0.095   1.305 -1.4795 -1.0253  0.0564
  162TMC2    H2 2475   1.897   0.270   1.238  0.1074 -1.6064  1.8238
  162TMC2    C7 2476   2.044   0.135   1.412  0.5595 -0.1279  0.0783
  162TMC2    C8 2477   1.956   0.327   0.978 -0.6232 -0.3867  0.9600
  162TMC2    O1 2478   1.924   0.130   1.438  0.2064  0.5690  0.3716
  162TMC2    O2 2479   1.863   0.252   0.956  0.3312 -0.0567 -0.2988
  162TMC2    O5 2480   2.007   0.421   0.899  0.3391  0.1908 -0.4733
  162TMC2    H5 2481   2.087   0.459   0.941  1.4568 -1.4760 -1.0680
  163MPD2     C 2482   2.882   0.007   1.046 -0.2884  0.4043  0.3784
  163MPD2    C1 2483   2.810   0.079   0.960 -0.3458  0.5196 -0.3399
  163MPD2    C2 2484   2.687   0.124   0.989  0.2613  0.0364 -0.7759
  163MPD2    C3 2485   2.632   0.096   1.116 -0.7586  0.1322 -0.4269
  163MPD2    C4 2486   2.715   0.045   1.211  0.1559 -0.2531  0.6501
  163MPD2    C5 2487   2.834   4.719   1.166  0.8632 -0.2934 -0.0807
  163MPD2     H 2488   2.632   0.179   0.913 -0.3881  1.9649  1.1039
  163MPD2    H1 2489   2.687   0.030   1.315 -1.4823  3.3372  0.7052
  163MPD2    H2 2490   2.978   4.686   1.027  0.2844  1.3888  0.9319
  163MPD2    H3 2491   2.897   4.659   1.231  0.0275 -1.4176 -0.2958
  163MPD2     N 2492   2.503   0.137   1.161 -0.6573 -0.2458  0.3151
  163MPD2    H5 2493   2.496   0.133   1.262  0.0579  1.3683  0.4276
  163MPD2    N1 2494   2.868   0.095   0.833 -0.9593 -0.1093  0.7075
  163MPD2    H7 2495   2.959   0.050   0.827  0.4950  2.6684  1.7711
  164TCq2    C1 2496   2.855   4.320  11.232  0.3789  0.2424 -0.3307
  164TCq2    O2 2497   2.762   4.339  11.309  1.0156 -0.0062 -0.2427
  164TCq2    C2 2498   2.866   4.417  11.124 -0.8077 -0.3193 -0.6615
  164TCq2    C3 2499   2.952   4.392  11.017  0.6801  0.6643 -0.2402
  164TCq2    C4 2500   2.931   4.450  10.896  0.3512 -0.0146  0.1853
  164TCq2    C5 2501   2.825   4.534  10.871  0.3739  0.6384 -0.4031
  164TCq2    C6 2502   2.736   4.559  10.977  0.5564  0.5211  0.3875
  164TCq2    C7 2503   2.763   4.508  11.104  0.6571  0.4206  0.1056
  164TCq2    C8 2504   2.647   4.667  10.964  0.3342  0.1360 -0.0977
  164TCq2    O4 2505   2.590   4.684  10.855 -0.0952 -0.9357  0.4512
  164TCq2    C9 2506   3.036   4.442  10.795 -0.6168  0.5290  0.0804
  164TCq2    O5 2507   3.022   4.528  10.700  0.0814 -0.2190  0.0759
  164TCq2    O6 2508   3.121   4.354  10.796 -0.0444 -0.5292  0.6983
  164TCq2    H2 2509   3.044   4.336  11.028  0.2344 -0.2617 -1.2038
  164TCq2    H3 2510   2.815   4.590  10.778 -0.9160 -0.5270 -0.9592
  164TCq2    H4 2511   2.693   4.534  11.183  0.5226  3.9819 -1.1809
  165MPD2     C 2512   4.138   1.855   1.328  0.5023 -0.0133 -0.7910
  165MPD2    C1 2513   4.250   1.821   1.260 -0.5874  0.0932 -0.7690
  165MPD2    C2 2514   4.370   1.877   1.295 -0.8641 -0.1366  0.5221
  165MPD2    C3 2515   4.370   1.983   1.380  0.1289 -0.2183 -0.2253
  165MPD2    C4 2516   4.249   2.017   1.445  0.2367 -0.4001  0.0107
  165MPD2    C5 2517   4.131   1.954   1.428  0.5651 -0.2575 -0.1762
  165MPD2     H 2518   4.454   1.833   1.243  0.2842  3.2618 -0.4547
  165MPD2    H1 2519   4.254   2.098   1.517  2.6483  1.5878 -2.3914
  165MPD2    H2 2520   4.043   1.812   1.298  1.1278 -0.9192 -1.4822
  165MPD2    H3 2521   4.040   1.997   1.468 -0.5544 -2.2784 -0.5382
  165MPD2     N 2522   4.496   2.046   1.414  0.5200 -0.2745 -0.4623
  165MPD2    H5 2523   4.491   2.126   1.477  0.7305 -0.1380 -0.6187
  165MPD2    N1 2524   4.222   1.731   1.150  0.3964 -0.1507  0.3491
  165MPD2    H7 2525   4.122   1.721   1.133  0.5793 -0.1930 -0.6604
  166TCq2    C1 2526   4.623   2.011   1.366  0.3264 -0.5465 -0.8132
  166TCq2    O2 2527   4.663   1.923   1.287  0.1388 -0.1231  0.3299
  166TCq2    C2 2528   4.719   2.078   1.446 -0.4811  0.8815 -0.2850
  166TCq2    C3 2529   4.690   2.110   1.575 -0.1555  0.1684 -0.4341
  166TCq2    C4 2530   0.063   2.174   1.646 -0.1512  0.2766 -0.1122
  166TCq2    C5 2531   0.184   2.211   1.591 -0.3190 -0.0366 -0.1843
  166TCq2    C6 2532   0.204   2.179   1.460  0.6973  0.2916 -0.2229
  166TCq2    C7 2533   0.116   2.106   1.387 -0.1223 -0.4362  0.7933
  166TCq2    C8 2534   0.293   2.265   1.385  0.7773  0.3880  0.2055
  166TCq2    O4 2535   0.318   2.246   1.266 -0.0237 -0.1118  0.0936
  166TCq2    C9 2536   0.038   2.207   1.786  1.0062 -0.4509 -0.4503
  166TCq2    O5 2537   0.144   2.241   1.844 -0.0897  0.3241  0.2143
  166TCq2    O6 2538   4.644   2.221   1.823 -0.3046  0.2050 -0.1846
  166TCq2    H2 2539   4.607   2.060   1.624 -0.7318 -0.4064 -1.9781
  166TCq2    H3 2540   0.257   2.259   1.655 -1.8004  0.7443  0.9232
  166TCq2    H4 2541   0.127   2.087   1.281 -0.9245 -0.9034  0.7933
  167TMC2    C1 2542   1.902   0.662  12.914  0.3175  0.5433  0.3247
  167TMC2    C2 2543   1.890   0.729  13.037  0.0229 -0.2312 -0.7628
  167TMC2    C3 2544   1.876   0.659  13.152  0.5782  0.5744  0.1274
  167TMC2    C4 2545   1.912   0.525  12.909  0.0031 -0.6434 -0.0750
  167TMC2    C5 2546   1.888   0.458  13.027 -0.0857 -0.4027 -0.1973
  167TMC2    C6 2547   1.867   0.522  13.144 -0.3510 -0.4535 -0.7385
  167TMC2     C 2548   1.929   0.743  12.798 -0.5464 -0.4464  0.8509
  167TMC2     O 2549   1.893   0.860  12.801 -0.6848  0.1906  0.3059
  167TMC2     H 2550   1.878   0.837  13.038 -0.2589 -0.2782  0.3359
  167TMC2    H1 2551   1.906   0.469  12.817  1.4354 -0.3834 -0.3284
  167TMC2    H2 2552   1.834   0.466  13.231 -0.8711 -0.7760 -1.1403
  167TMC2    C7 2553   1.870   0.313  13.028 -0.0481  0.7793  0.1341
  167TMC2    C8 2554   1.794   0.718  13.251 -0.1790  0.1956  0.4255
  167TMC2    O1 2555   1.801   0.271  13.121 -0.3168  0.0436 -0.4806
  167TMC2    O2 2556   1.685   0.670  13.273 -0.3213  0.3433  0.2128
  167TMC2    O5 2557   1.839   0.845  13.278  0.2580  0.7503  0.0391
  167TMC2    H5 2558   1.932   0.863  13.251  0.5019 -0.4653  0.0618
  168MPD2     C 2559   1.976   0.852  12.525  0.1624  0.6153 -0.0504
  168MPD2    C1 2560   1.978   0.720  12.551 -0.2112 -0.1919 -0.5659
  168MPD2    C2 2561   2.002   0.634  12.441  0.2714  0.5932 -0.4650
  168MPD2    C3 2562   2.011   0.677  12.306 -0.2127 -0.2113  0.8002
  168MPD2    C4 2563   1.994   0.815  12.291 -0.1059  0.5328  0.1149
  168MPD2    C5 2564   1.983   0.898  12.398  0.1709 -0.1671  0.5053
  168MPD2     H 2565   2.014   0.527  12.456 -0.2932  0.5951  0.0046
  168MPD2    H1 2566   1.991   0.859  12.192 -0.1460 -0.2113 -0.2099
  168MPD2    H2 2567   1.955   0.929  12.599  0.4013  0.0642  0.5958
  168MPD2    H3 2568   1.977   1.006  12.392 -1.9117 -0.3208 -0.2531
  168MPD2     N 2569   2.018   0.602  12.195 -0.2784 -0.1154  0.0436
  168MPD2    H5 2570   2.015   0.655  12.108 -0.3034  0.1170  0.1855
  168MPD2    N1 2571   1.965   0.669  12.683  0.1757  0.0890 -0.2683
  168MPD2    H7 2572   1.990   0.573  12.702 -1.3081  0.1571  1.9807
  169MPD1     C 2573   4.437   3.216  10.673  0.4632 -0.3769  0.2448
  169MPD1    C1 2574   4.345   3.227  10.576  0.1021  0.5237 -0.0132
  169MPD1    C2 2575   4.386   3.189  10.449 -0.3858 -0.7435 -0.4540
  169MPD1    C3 2576   4.508   3.124  10.430  0.0209 -0.3046  0.5178
  169MPD1    C4 2577   4.602   3.120  10.531 -0.2740  0.1104 -0.5554
  169MPD1    C5 2578   4.567   3.168  10.655 -0.5603 -0.0097 -0.4069
  169MPD1     H 2579   4.320   3.216  10.367 -1.8312  1.8008  1.5520
  169MPD1    H1 2580   4.701   3.080  10.517 -1.3240 -1.4789 -3.5831
  169MPD1    H2 2581   4.413   3.233  10.777  0.0808  0.0794  0.0801
  169MPD1    H3 2582   4.635   3.169  10.739 -0.1329  2.2803 -0.7788
  169MPD1     N 2583   4.531   3.074  10.302 -0.5608  0.5881 -0.1695
  169MPD1    H5 2584   4.456   3.088  10.236  1.3597  4.2106 -1.5812
  169MPD1    N1 2585   4.224   3.306  10.592  0.2680  1.5619  0.5643
  169MPD1    H6 2586   4.148   3.287  10.527 -0.0460  1.7246  0.8831
  169MPD1    H7 2587   4.194   3.313  10.689 -2.2509  0.7045 -0.1587
  170MPD1     C 2588   3.306   2.019  12.920 -0.5956 -1.0561 -0.0535
  170MPD1    C1 2589   3.190   2.091  12.939  0.3514  0.3509 -0.1289
  170MPD1    C2 2590   3.167   2.138  13.068  0.5091  0.2765  0.3590
  170MPD1    C3 2591   3.236   2.082  13.174  0.1938  0.1279  0.7236
  170MPD1    C4 2592   3.346   2.001  13.151 -0.6221  0.4649 -0.1407
  170MPD1    C5 2593   3.375   1.969  13.024 -0.1255 -0.6743  0.6241
  170MPD1     H 2594   3.093   2.216  13.081 -0.3054 -0.2296 -1.1767
  170MPD1    H1 2595   3.401   1.963  13.236 -2.1244 -2.1691 -0.3404
  170MPD1    H2 2596   3.347   1.993  12.823  1.9929  3.3935 -0.1196
  170MPD1    H3 2597   3.468   1.915  13.009 -0.0897 -0.9170  1.7110
  170MPD1     N 2598   3.226   2.142  13.300 -0.4870 -0.0520 -0.3862
  170MPD1    H5 2599   3.151   2.209  13.312 -0.4541 -0.4053  1.7056
  170MPD1    N1 2600   3.133   2.157  12.827  0.3348  0.2591 -0.4268
  170MPD1    H6 2601   3.162   2.106  12.744 -1.5198 -0.0671 -0.8754
  170MPD1    H7 2602   3.035   2.183  12.814  0.9116  2.4854 -0.4140
  171MPD1     C 2603   2.312   3.683  15.422  0.6712 -0.8371  0.1834
  171MPD1    C1 2604   2.216   3.605  15.371 -0.0290  0.0456  0.8297
  171MPD1    C2 2605   2.188   3.478  15.423  0.4504  0.7327  0.0845
  171MPD1    C3 2606   2.272   3.429  15.523 -0.0855  0.1601 -0.1689
  171MPD1    C4 2607   2.363   3.515  15.576  0.1764 -0.5385 -0.5797
  171MPD1    C5 2608   2.389   3.637  15.521 -0.6604 -0.0071  0.2134
  171MPD1     H 2609   2.114   3.410  15.383  1.0633 -0.5796  1.1813
  171MPD1    H1 2610   2.430   3.467  15.647 -0.6142 -0.8014 -0.0149
  171MPD1    H2 2611   2.322   3.787  15.391 -1.1988 -0.1892  1.7776
  171MPD1    H3 2612   2.470   3.696  15.562 -1.0806  0.5575  0.2239
  171MPD1     N 2613   2.245   3.309  15.592 -0.7678 -0.4880 -0.3620
  171MPD1    H5 2614   2.304   3.285  15.672  0.2087 -2.8987 -1.7920
  171MPD1    N1 2615   2.139   3.660  15.269  0.1885  0.3206 -0.1643
  171MPD1    H6 2616   2.125   3.583  15.205  1.8595 -1.0461  1.1115
  171MPD1    H7 2617   2.177   3.728  15.203 -0.7530  0.5661 -0.4444
  172MPD1     C 2618   1.206   2.070   0.403 -0.6814 -0.2618  0.4101
  172MPD1    C1 2619   1.134   2.181   0.380 -0.0188 -0.3703 -0.1383
  172MPD1    C2 2620   1.194   2.302   0.359 -0.2406  0.0145 -0.4534
  172MPD1    C3 2621   1.330   2.314   0.355  0.2815 -0.4682 -0.1460
  172MPD1    C4 2622   1.407   2.209   0.405 -0.3532  0.9098 -0.2297
  172MPD1    C5 2623   1.342   2.085   0.427 -0.1404  0.1716  0.1734
  172MPD1     H 2624   1.131   2.385   0.332  0.0454  0.8235  1.4001
  172MPD1    H1 2625   1.515   2.206   0.416 -0.4188  2.1956  0.8193
  172MPD1    H2 2626   1.163   1.972   0.419  0.9620 -1.2231 -1.0916
  172MPD1    H3 2627   1.400   2.000   0.460  2.2251  1.3083 -1.0875
  172MPD1     N 2628   1.401   2.433   0.331  0.2823 -0.0800  0.0523
  172MPD1    H5 2629   1.491   2.435   0.378  0.0773 -0.7266  0.4671
  172MPD1    N1 2630   0.993   2.177   0.404 -0.0455  0.0580 -0.2622
  172MPD1    H6 2631   0.943   2.255   0.359  0.3625 -0.9122 -2.4157
  172MPD1    H7 2632   0.944   2.088   0.392  2.0467 -1.0246 -0.7007
  173MPD1     C 2633   2.531   2.627  14.852 -0.3222  0.3672  0.5110
  173MPD1    C1 2634   2.405   2.598  14.903  0.0576 -0.6661  0.2126
  173MPD1    C2 2635   2.339   2.483  14.863  0.0276 -0.6091  0.0993
  173MPD1    C3 2636   2.398   2.395  14.773 -0.6294  0.9168  0.1151
  173MPD1    C4 2637   2.520   2.431  14.711  0.0616  0.0847  0.1639
  173MPD1    C5 2638   2.589   2.539  14.762  0.4118 -0.3633  0.5993
  173MPD1     H 2639   2.240   2.462  14.901  0.3395  1.3442  1.9831
  173MPD1    H1 2640   2.561   2.376  14.627  0.0511 -0.5149  0.5545
  173MPD1    H2 2641   2.590   2.716  14.874  1.2489 -0.5589  0.0750
  173MPD1    H3 2642   2.685   2.559  14.716 -0.5242 -1.6895 -1.9446
  173MPD1     N 2643   2.323   2.283  14.749 -0.2326 -0.1303  0.2289
  173MPD1    H5 2644   2.264   2.260  14.828  0.3098  0.6004  0.8542
  173MPD1    N1 2645   2.338   2.688  14.994  0.0284 -0.1791  0.3333
  173MPD1    H6 2646   2.265   2.635  15.041  1.2551 -1.4062  0.8649
  173MPD1    H7 2647   2.408   2.731  15.055  0.7113  0.8044 -1.1529
  174MPD1     C 2648   2.324   1.670  13.967  0.1084  0.0580  0.0264
  174MPD1    C1 2649   2.231   1.620  14.046  0.3926  0.8445  0.4740
  174MPD1    C2 2650   2.179   1.691  14.154 -0.1637  0.3020 -0.0663
  174MPD1    C3 2651   2.232   1.816  14.177  0.0705 -0.2783 -0.3797
  174MPD1    C4 2652   2.330   1.865  14.094  0.7690 -0.0893 -0.0258
  174MPD1    C5 2653   2.374   1.794  13.990  0.4337  0.5024  0.3845
  174MPD1     H 2654   2.102   1.650  14.218  1.2508  0.2446  1.6235
  174MPD1    H1 2655   2.365   1.968  14.093  0.9869 -0.1593  1.1112
  174MPD1    H2 2656   2.336   1.626  13.868 -0.7938 -0.1179 -0.0062
  174MPD1    H3 2657   2.442   1.836  13.917 -0.6668  0.7300 -0.5100
  174MPD1     N 2658   2.196   1.906  14.283  0.0947  0.9369  0.3747
  174MPD1    H5 2659   2.233   2.001  14.278 -0.1244  0.9151 -1.9430
  174MPD1    N1 2660   2.164   1.505  14.002 -0.2542  0.5096  0.1667
  174MPD1    H6 2661   2.147   1.453  14.088  2.2372  0.6293  0.7104
  174MPD1    H7 2662   2.229   1.463  13.936  0.0498  0.7131  0.3360
  175MPD1     C 2663   1.351   2.610  16.000 -0.5475 -0.3018  0.2909
  175MPD1    C1 2664   1.219   2.611  16.042 -0.3628  0.0832 -0.7954
  175MPD1    C2 2665   1.152   2.734  16.053  0.1396  0.0939 -0.5376
  175MPD1    C3 2666   1.233   2.856  16.038 -0.1644 -0.5354 -0.4947
  175MPD1    C4 2667   1.364   2.848  16.005 -1.1763  0.1617 -0.0799
  175MPD1    C5 2668   1.422   2.731  15.988 -0.2116 -0.6888  0.4238
  175MPD1     H 2669   1.047   2.738  16.078  0.3146 -0.0964  0.2211
  175MPD1    H1 2670   1.416   2.943  15.999 -1.0043  0.1072  0.5796
  175MPD1    H2 2671   1.397   2.514  15.979 -0.2341  0.1836 -1.2202
  175MPD1    H3 2672   1.525   2.720  15.956  0.4137 -0.0292  2.2203
  175MPD1     N 2673   1.175   2.982  16.061  0.2326  0.0316 -1.1692
  175MPD1    H5 2674   1.226   3.065  16.032  1.0193 -0.4253 -1.0798
  175MPD1    N1 2675   1.142   2.496  16.039  0.3500 -0.1712 -0.7584
  175MPD1    H6 2676   1.202   2.419  16.070  0.0321 -0.5977 -1.2091
  175MPD1    H7 2677   1.066   2.495  16.106  0.1963 -0.1320 -0.9332
  176MPD1     C 2678   2.040   0.007  17.662  0.3447  0.2628  0.3757
  176MPD1    C1 2679   2.157   0.039  17.588 -0.0558  0.1333 -0.2214
  176MPD1    C2 2680   2.246   0.132  17.639  0.8679 -0.5465  0.8246
  176MPD1    C3 2681   2.204   0.217   0.047  0.5281 -0.2003 -0.0922
  176MPD1    C4 2682   2.084   0.185   0.112 -0.1480  0.2726 -0.5368
  176MPD1    C5 2683   2.009   0.078   0.076  0.3241 -0.4528  0.0468
  176MPD1     H 2684   2.342   0.155  17.594  1.6693 -0.0210  2.7834
  176MPD1    H1 2685   2.051   0.252   0.190 -0.6964  0.1629 -0.6756
  176MPD1    H2 2686   1.968   4.658  17.627  0.1667  1.5931 -1.9880
  176MPD1    H3 2687   1.916   0.057   0.129  0.0531 -0.3371 -0.3807
  176MPD1     N 2688   2.288   0.333   0.073  0.2286  0.3679 -0.1056
  176MPD1    H5 2689   2.365   0.347   0.009  0.9476 -1.0481  0.4385
  176MPD1    N1 2690   2.194   4.670  17.488  0.5299 -0.2993  0.1859
  176MPD1    H6 2691   2.111   4.620  17.456 -0.2702 -0.0136  1.8122
  176MPD1    H7 2692   2.234   0.000  17.412  0.5775  0.6379  0.8777
  177MPD1     C 2693   0.820   0.789  10.095  0.6606  1.3423 -0.3615
  177MPD1    C1 2694   0.782   0.687  10.010 -0.1102 -0.1733 -0.0268
  177MPD1    C2 2695   0.646   0.686   9.963 -0.0165  0.4965 -0.1756
  177MPD1    C3 2696   0.566   0.793   9.998  0.0439 -0.6031 -0.3649
  177MPD1    C4 2697   0.616   0.899  10.059 -0.4535  0.0355  0.0878
  177MPD1    C5 2698   0.742   0.894  10.112 -0.0304  0.4910 -0.1251
  177MPD1     H 2699   0.595   0.609   9.906 -0.0411  0.4646 -0.1105
  177MPD1    H1 2700   0.562   0.992  10.072 -0.1103  0.3151 -0.4872
  177MPD1    H2 2701   0.920   0.782  10.137  0.3885 -0.5959 -0.0553
  177MPD1    H3 2702   0.791   0.980  10.157 -0.4923  0.1624  0.9998
  177MPD1     N 2703   0.436   0.780   9.957  0.2372 -0.0798  0.3101
  177MPD1    H5 2704   0.419   0.697   9.901 -0.4756 -1.1123  2.0770
  177MPD1    N1 2705   0.873   0.582  10.003  0.1248 -0.6335 -0.0249
  177MPD1    H6 2706   0.863   0.526   9.918 -2.0758  1.4902 -1.1774
  177MPD1    H7 2707   0.971   0.610   9.996 -0.0771 -0.0528 -0.5509
  178MPD1     C 2708   3.001   1.553   0.411 -0.9564 -0.0004 -0.0108
  178MPD1    C1 2709   2.905   1.508   0.324  0.6590 -1.0318  0.0675
  178MPD1    C2 2710   2.951   1.466   0.201  0.2288  0.2565  0.3043
  178MPD1    C3 2711   3.079   1.475   0.153 -0.1857  0.1949 -0.9843
  178MPD1    C4 2712   3.175   1.504   0.250 -0.4826 -0.4153  0.1198
  178MPD1    C5 2713   3.137   1.542   0.378 -0.1565 -0.4382 -0.4621
  178MPD1     H 2714   2.871   1.433   0.135  1.1789  0.4098 -0.9137
  178MPD1    H1 2715   3.283   1.501   0.238 -0.2673 -0.6352  2.1072
  178MPD1    H2 2716   2.970   1.579   0.511 -3.6202  1.0907 -1.1049
  178MPD1    H3 2717   3.211   1.554   0.455  0.6295  2.6303 -1.7042
  178MPD1     N 2718   3.123   1.438   0.025 -0.4620 -0.4264 -0.2665
  178MPD1    H5 2719   3.222   1.419   0.013 -0.1418  0.7274  0.5566
  178MPD1    N1 2720   2.766   1.492   0.362 -0.2264 -0.5785 -0.4492
  178MPD1    H6 2721   2.706   1.500   0.280 -0.2029  0.0871 -0.3999
  178MPD1    H7 2722   2.746   1.555   0.440 -2.1344 -0.3537 -1.1315
  179MPD1     C 2723   3.196   4.698  15.954 -0.0303  0.4226  0.2914
  179MPD1    C1 2724   3.066   4.691  15.996  0.4438 -0.6940 -0.6814
  179MPD1    C2 2725   2.989   4.589  15.950  0.6366  0.5261  0.4288
  179MPD1    C3 2726   3.050   4.476  15.902  0.0533 -0.0433  0.2637
  179MPD1    C4 2727   3.187   4.477  15.878  0.3548 -0.1907 -0.2457
  179MPD1    C5 2728   3.261   4.592  15.894  0.1894  0.1311  1.1057
  179MPD1     H 2729   2.883   4.594  15.969  0.4117 -1.5170 -0.2686
  179MPD1    H1 2730   3.239   4.397  15.828  1.6250  0.6398 -0.2500
  179MPD1    H2 2731   3.258   0.062  15.969  0.5211  0.1556 -0.4044
  179MPD1    H3 2732   3.365   4.594  15.865  0.2979 -0.3129  1.4698
  179MPD1     N 2733   2.981   4.360  15.857 -0.0237  0.3123  0.2540
  179MPD1    H5 2734   3.042   4.286  15.823  0.5480  0.4574  0.9389
  179MPD1    N1 2735   3.017   0.084  16.062  0.2090 -0.2810 -0.6112
  179MPD1    H6 2736   2.933   0.063  16.115  0.7594  0.9415  0.7564
  179MPD1    H7 2737   3.094   0.121  16.118 -1.5019 -0.4720  1.8498
  180MPD1     C 2738   2.567   0.454  15.620 -0.7989  0.1427  0.5237
  180MPD1    C1 2739   2.657   0.538  15.566  0.6638 -0.6346  0.1853
  180MPD1    C2 2740   2.632   0.580  15.435  0.0025  0.0773 -0.5882
  180MPD1    C3 2741   2.527   0.528  15.364 -0.2962  0.2674 -0.3788
  180MPD1    C4 2742   2.435   0.457  15.425  0.1435  0.5020 -0.0908
  180MPD1    C5 2743   2.451   0.419  15.556 -0.6336  0.4252 -0.3081
  180MPD1     H 2744   2.702   0.649  15.390  0.7666 -0.2640  0.0766
  180MPD1    H1 2745   2.346   0.422  15.374 -0.1505  1.3564 -0.1531
  180MPD1    H2 2746   2.578   0.407  15.717 -2.6396 -0.8283  0.2704
  180MPD1    H3 2747   2.380   0.348  15.596 -0.4639  1.4524  1.8131
  180MPD1     N 2748   2.523   0.543  15.220 -0.3320  0.3899  0.5094
  180MPD1    H5 2749   2.586   0.614  15.183 -1.4552  0.5607 -1.0967
  180MPD1    N1 2750   2.788   0.542  15.624  0.1684 -1.3569  0.2207
  180MPD1    H6 2751   2.793   0.536  15.725 -2.1995  0.1989  0.4477
  180MPD1    H7 2752   2.836   0.626  15.593 -0.5782 -1.1064 -0.2843
  181MPD1     C 2753   4.036   2.558  10.165 -0.7525 -0.2903  0.4574
  181MPD1    C1 2754   4.141   2.629  10.224 -0.0608  0.4367 -0.4652
  181MPD1    C2 2755   4.268   2.622  10.170 -0.2190 -0.1447  0.5650
  181MPD1    C3 2756   4.291   2.528  10.067  0.0813 -0.3081 -0.4059
  181MPD1    C4 2757   4.188   2.452  10.016 -0.6699 -0.1951 -0.2325
  181MPD1    C5 2758   4.062   2.472  10.063  0.0055  0.1803  0.0461
  181MPD1     H 2759   4.339   2.692  10.213  2.3261 -1.1795 -1.9944
  181MPD1    H1 2760   4.213   2.382   9.937 -0.2766  2.0708 -2.1134
  181MPD1    H2 2761   3.932   2.582  10.183 -1.0080 -0.3490 -0.9725
  181MPD1    H3 2762   3.984   2.409  10.023 -0.0547  0.7149 -0.6738
  181MPD1     N 2763   4.416   2.508  10.005 -0.0971  0.2108 -0.1307
  181MPD1    H5 2764   4.418   2.446   9.924  0.9192 -0.1642  0.1781
  181MPD1    N1 2765   4.116   2.734  10.309  0.2026 -0.4057 -0.0641
  181MPD1    H6 2766   4.190   2.766  10.372  1.2852 -1.7922 -0.6358
  181MPD1    H7 2767   4.043   2.707  10.374  1.2289 -0.5146  1.0494
  182MPD1     C 2768   0.354   0.469   0.696 -0.0358  0.8668 -0.0699
  182MPD1    C1 2769   0.316   0.547   0.801 -0.0171 -0.1833 -0.2210
  182MPD1    C2 2770   0.331   0.685   0.792 -0.3622 -0.0592  0.3684
  182MPD1    C3 2771   0.353   0.747   0.667 -0.0840 -0.4633 -0.4809
  182MPD1    C4 2772   0.364   0.657   0.561  0.1755  0.5394  0.1229
  182MPD1    C5 2773   0.367   0.521   0.572  1.1008 -0.2892 -0.2475
  182MPD1     H 2774   0.311   0.752   0.875 -1.2955 -2.0083  1.7301
  182MPD1    H1 2775   0.401   0.697   0.468  1.4200 -1.6354 -0.3252
  182MPD1    H2 2776   0.374   0.363   0.707 -0.8074  0.8810  1.4971
  182MPD1    H3 2777   0.382   0.469   0.479 -3.7530 -0.1999 -1.0862
  182MPD1     N 2778   0.385   0.881   0.648 -0.0529  0.0773 -0.2840
  182MPD1    H5 2779   0.386   0.928   0.557  0.8640  1.2032  0.2988
  182MPD1    N1 2780   0.316   0.491   0.931 -0.2060 -0.4744 -0.0504
  182MPD1    H6 2781   0.408   0.489   0.975 -0.4026 -2.3512  0.2711
  182MPD1    H7 2782   0.267   0.558   0.989 -0.9943 -2.0838  1.1371
  183MPD1     C 2783   4.487   1.710   8.981 -1.1197 -0.1331 -0.3570
  183MPD1    C1 2784   4.456   1.815   9.056  0.7833 -1.1076 -0.8942
  183MPD1    C2 2785   4.554   1.896   9.103 -0.4001 -0.0396  0.3285
  183MPD1    C3 2786   4.684   1.842   9.101  0.6865  0.0250  0.3133
  183MPD1    C4 2787   4.711   1.729   9.038  0.2697 -0.5217  0.2384
  183MPD1    C5 2788   4.614   1.663   8.968 -0.2893 -0.1643  0.1292
  183MPD1     H 2789   4.530   1.998   9.132  2.8968  0.4393  1.3863
  183MPD1    H1 2790   0.088   1.693   9.023 -0.5278 -1.9804 -1.6877
  183MPD1    H2 2791   4.408   1.659   8.928 -0.3680 -0.3065 -1.3028
  183MPD1    H3 2792   4.638   1.582   8.901 -2.0121  0.3995 -1.1566
  183MPD1     N 2793   0.053   1.935   9.150 -0.1624  0.7803 -0.2879
  183MPD1    H5 2794   0.012   2.007   9.208  0.1641  0.8120 -0.0963
  183MPD1    N1 2795   4.327   1.866   9.037  1.0249  0.4898 -0.3436
  183MPD1    H6 2796   4.263   1.787   9.046  1.9280 -0.1965  0.0531
  183MPD1    H7 2797   4.299   1.935   9.108  0.2880 -0.9625  0.7734
  184MPD1     C 2798   0.568   4.289  10.065  0.1908 -0.1526 -0.8975
  184MPD1    C1 2799   0.576   4.419  10.107 -0.1072  0.4153 -0.3078
  184MPD1    C2 2800   0.459   4.492  10.109  0.3738  0.0276  0.2342
  184MPD1    C3 2801   0.342   4.446  10.053 -0.6698  0.6231  0.6264
  184MPD1    C4 2802   0.336   4.319  10.003 -0.8027 -0.1764  0.7727
  184MPD1    C5 2803   0.450   4.245  10.009  0.3876  0.1513 -0.9382
  184MPD1     H 2804   0.465   4.588  10.159  0.5825  0.8060 -1.2579
  184MPD1    H1 2805   0.244   4.279   9.963 -1.1052  1.9813 -0.7106
  184MPD1    H2 2806   0.653   4.222  10.055 -0.4710 -1.0474 -0.4981
  184MPD1    H3 2807   0.451   4.144   9.970 -0.5593  0.1057 -0.8294
  184MPD1     N 2808   0.220   4.517  10.060 -0.7627 -0.2249 -0.2237
  184MPD1    H5 2809   0.132   4.473  10.038 -1.6571 -0.0369  2.9895
  184MPD1    N1 2810   0.693   4.461  10.174  0.1769 -0.1927  0.2041
  184MPD1    H6 2811   0.775   4.414  10.138  0.4444  0.5230 -0.1246
  184MPD1    H7 2812   0.706   4.562  10.163 -0.0411 -0.2668 -0.7829
  185MPD1     C 2813   3.978   4.392  10.099 -0.0024 -0.5093  0.0754
  185MPD1    C1 2814   4.091   4.318  10.115  0.1729 -0.5825  0.2205
  185MPD1    C2 2815   4.210   4.384  10.093  1.1013  0.4874 -0.3623
  185MPD1    C3 2816   4.213   4.524  10.088 -0.4646  0.4403 -0.3222
  185MPD1    C4 2817   4.094   4.599  10.092 -0.3859  0.0124 -0.3853
  185MPD1    C5 2818   3.979   4.531  10.091 -0.1777 -0.6445 -1.0096
  185MPD1     H 2819   4.298   4.321  10.094  0.9770  0.3191  0.3735
  185MPD1    H1 2820   4.094   4.708  10.091  1.3876  0.0167 -1.2434
  185MPD1    H2 2821   3.883   4.341  10.093 -0.1484 -0.1654 -0.6011
  185MPD1    H3 2822   3.886   4.587  10.084 -1.4173 -2.5409  0.1551
  185MPD1     N 2823   4.331   4.600  10.092  0.2268 -0.1216  0.2859
  185MPD1    H5 2824   4.310   4.699  10.091  1.4983  0.1364 -1.0364
  185MPD1    N1 2825   4.079   4.178  10.114 -0.0899 -0.4831  0.0990
  185MPD1    H6 2826   3.999   4.138  10.164 -0.0630 -0.1150  0.4378
  185MPD1    H7 2827   4.173   4.145  10.136 -0.1643  0.3925  1.7575
  186MPD1     C 2828   3.837   4.273  15.712  0.4994 -0.9607  0.1778
  186MPD1    C1 2829   3.782   4.209  15.819  0.1529  0.0021  0.5078
  186MPD1    C2 2830   3.698   4.276  15.903 -0.0374  0.2257 -0.2055
  186MPD1    C3 2831   3.675   4.411  15.881 -0.0293 -0.3171 -0.1720
  186MPD1    C4 2832   3.733   4.480  15.771 -0.0396  0.5410  0.7775
  186MPD1    C5 2833   3.800   4.403  15.681 -0.4630  0.0939  0.6174
  186MPD1     H 2834   3.656   4.231  15.991  1.9428  0.0954  0.6872
  186MPD1    H1 2835   3.696   4.579  15.749  1.3973  0.6838 -0.9961
  186MPD1    H2 2836   3.905   4.233  15.638 -0.8634  1.2002 -2.2509
  186MPD1    H3 2837   3.834   4.449  15.589  0.5744 -0.7737  0.5587
  186MPD1     N 2838   3.604   4.490  15.967 -0.0794 -0.1425  0.4399
  186MPD1    H5 2839   3.599   4.589  15.945  0.5136 -0.1949  0.0685
  186MPD1    N1 2840   3.791   4.072  15.830 -0.2057 -1.0830 -0.2642
  186MPD1    H6 2841   3.875   4.032  15.789  0.0439 -0.3299 -0.4939
  186MPD1    H7 2842   3.776   4.031  15.921 -1.7117 -0.1515 -0.0885
  187MPD1     C 2843   3.211   1.640  17.157  0.7681 -0.0246 -0.5411
  187MPD1    C1 2844   3.271   1.720  17.255 -0.2720 -0.1732  0.4083
  187MPD1    C2 2845   3.190   1.808  17.326 -0.9049  0.6695  0.3962
  187MPD1    C3 2846   3.056   1.786  17.326  0.5750 -0.8090  0.0141
  187MPD1    C4 2847   2.998   1.689  17.251 -0.1045  0.3854  0.3461
  187MPD1    C5 2848   3.082   1.607  17.173  0.2924 -0.1529 -0.2079
  187MPD1     H 2849   3.239   1.876  17.394 -1.9984  1.1530  0.7046
  187MPD1    H1 2850   2.891   1.670  17.260  0.2101 -0.0028  3.5071
  187MPD1    H2 2851   3.270   1.581  17.087  1.5061 -0.1619  0.1976
  187MPD1    H3 2852   3.036   1.528  17.116  2.8893 -0.6379 -1.6036
  187MPD1     N 2853   2.970   1.867  17.398 -0.3289  1.2825  0.7423
  187MPD1    H5 2854   2.871   1.845  17.394 -0.3909  1.3349  2.2552
  187MPD1    N1 2855   3.414   1.746  17.240 -0.0736 -0.1365 -0.4476
  187MPD1    H6 2856   3.453   1.664  17.194  4.1477  0.1250  2.6230
  187MPD1    H7 2857   3.452   1.766  17.332 -0.9802  0.7859 -0.2725
  188MPD1     C 2858   1.607   1.568   9.922 -0.2867  0.3106  0.1079
  188MPD1    C1 2859   1.736   1.539   9.945 -0.0526 -0.4883  0.2289
  188MPD1    C2 2860   1.779   1.417   9.897  0.5639  0.1981 -0.1303
  188MPD1    C3 2861   1.692   1.313   9.858  0.4348  0.7573  0.2918
  188MPD1    C4 2862   1.557   1.345   9.846 -0.4006 -0.2364  0.7010
  188MPD1    C5 2863   1.525   1.479   9.866  0.0264  0.2793 -0.6338
  188MPD1     H 2864   1.887   1.405   9.900  0.0944 -2.9754  3.3128
  188MPD1    H1 2865   1.487   1.268   9.815 -1.0184  0.7355 -0.3183
  188MPD1    H2 2866   1.566   1.666   9.945  0.2458  0.1922  1.5763
  188MPD1    H3 2867   1.424   1.502   9.832 -1.2652 -2.2984  1.4294
  188MPD1     N 2868   1.739   1.183   9.835 -0.8261  0.1291 -0.3351
  188MPD1    H5 2869   1.678   1.109   9.801  1.1899 -1.3878 -0.6556
  188MPD1    N1 2870   1.828   1.641   9.970 -0.0784 -0.2833  0.5961
  188MPD1    H6 2871   1.780   1.709  10.028  0.3087  0.1391  0.4173
  188MPD1    H7 2872   1.909   1.606  10.020  0.4763  1.9080  1.2194
  189MPD1     C 2873   4.139   1.712   0.609  0.0033 -0.0162 -0.3910
  189MPD1    C1 2874   4.049   1.663   0.511  0.1694 -0.3652 -0.5148
  189MPD1    C2 2875   3.972   1.763   0.455  0.2225  0.3777 -0.0647
  189MPD1    C3 2876   3.993   1.901   0.480 -0.1293 -0.6088 -0.7568
  189MPD1    C4 2877   4.092   1.939   0.562 -0.2659  0.9287  0.2814
  189MPD1    C5 2878   4.161   1.843   0.627 -0.0420 -0.3955  0.0390
  189MPD1     H 2879   3.884   1.750   0.393 -0.3740  1.4317  0.5543
  189MPD1    H1 2880   4.114   2.043   0.584  1.5498  0.6612 -0.2785
  189MPD1    H2 2881   4.190   1.645   0.677  0.1491  1.6255  1.1220
  189MPD1    H3 2882   4.232   1.884   0.698  1.7016 -2.0646 -0.7306
  189MPD1     N 2883   3.914   1.999   0.420  0.0681 -0.1384  0.3025
  189MPD1    H5 2884   3.842   1.957   0.363  0.3780  2.0924 -1.7342
  189MPD1    N1 2885   4.018   1.525   0.484 -0.3097  0.5624 -0.1814
  189MPD1    H6 2886   4.103   1.469   0.490 -1.8229 -1.7840 -0.3490
  189MPD1    H7 2887   3.973   1.508   0.394  0.6534  1.9115 -0.9114
  190MPD1     C 2888   2.402   0.929  15.389 -0.1263 -0.0359 -0.3815
  190MPD1    C1 2889   2.438   0.863  15.501 -0.6595 -0.2908 -0.3751
  190MPD1    C2 2890   2.562   0.889  15.549 -0.0068 -0.0215  0.4004
  190MPD1    C3 2891   2.656   0.968  15.483  0.4917  0.5728  1.2245
  190MPD1    C4 2892   2.623   1.017  15.358  0.1522  0.4612  1.2436
  190MPD1    C5 2893   2.493   1.005  15.318  0.3381 -0.4062 -0.5254
  190MPD1     H 2894   2.599   0.852  15.644 -0.5864  1.8932  1.3827
  190MPD1    H1 2895   2.681   1.083  15.295 -0.3867 -0.0461  0.2125
  190MPD1    H2 2896   2.306   0.917  15.339 -1.1075  0.2143  1.3992
  190MPD1    H3 2897   2.475   1.068  15.232 -0.4660  0.2036  0.0802
  190MPD1     N 2898   2.785   0.989  15.543  0.0026  0.1528 -0.2973
  190MPD1    H5 2899   2.794   0.942  15.632  0.0209 -1.8589 -1.3629
  190MPD1    N1 2900   2.338   0.807  15.585  0.1685 -0.8800 -0.3156
  190MPD1    H6 2901   2.380   0.739  15.647 -1.5715 -2.5013 -0.9121
  190MPD1    H7 2902   2.272   0.756  15.527 -1.9518 -0.2712  1.5496
  191MPD1     C 2903   2.112   2.590  12.715 -0.0323 -0.2888 -0.8064
  191MPD1    C1 2904   2.224   2.555  12.641  0.6614  0.5196  0.6227
  191MPD1    C2 2905   2.273   2.638  12.542 -0.7403  0.8678 -0.2700
  191MPD1    C3 2906   2.202   2.758  12.517 -0.3900 -0.4864 -0.7189
  191MPD1    C4 2907   2.096   2.802  12.601 -0.1080  0.0270  0.6076
  191MPD1    C5 2908   2.050   2.707  12.692  0.3319 -0.2673  0.0165
  191MPD1     H 2909   2.355   2.621  12.473 -0.8698 -1.6747  0.2119
  191MPD1    H1 2910   2.044   2.896  12.590 -0.2752 -0.1463 -0.1222
  191MPD1    H2 2911   2.073   2.532  12.798 -1.0827 -0.0324 -1.1176
  191MPD1    H3 2912   1.961   2.733  12.749  0.0819 -0.0633 -0.4618
  191MPD1     N 2913   2.264   2.843  12.420 -0.5011  0.6971  0.2532
  191MPD1    H5 2914   2.357   2.820  12.384 -0.7582  0.4236 -0.2438
  191MPD1    N1 2915   2.296   2.443  12.684  0.0062  0.3136  0.5142
  191MPD1    H6 2916   2.228   2.375  12.718 -0.7894  2.3687  3.0709
  191MPD1    H7 2917   2.341   2.393  12.608  1.7546  1.3625  0.8645
  192MPD1     C 2918   2.121   3.629  11.665 -0.7198  0.2749  0.3341
  192MPD1    C1 2919   2.097   3.639  11.797 -0.1645  0.7375  0.1558
  192MPD1    C2 2920   2.151   3.547  11.885  0.4523 -0.0675  0.3901
  192MPD1    C3 2921   2.218   3.436  11.836  0.5682 -0.1224 -0.5462
  192MPD1    C4 2922   2.250   3.438  11.700 -0.7194 -0.4020 -0.5900
  192MPD1    C5 2923   2.200   3.529  11.617 -0.0759  0.1735 -0.1883
  192MPD1     H 2924   2.137   3.552  11.993  0.0234  0.8563  0.2914
  192MPD1    H1 2925   2.316   3.366  11.653 -2.5821 -2.8225  0.4729
  192MPD1    H2 2926   2.097   3.707  11.594  0.3415  0.8826  0.6338
  192MPD1    H3 2927   2.213   3.511  11.511  0.8746  1.9776 -0.3755
  192MPD1     N 2928   2.268   3.325  11.905  0.2075  0.3119  0.0973
  192MPD1    H5 2929   2.322   3.258  11.850  0.3903  2.4801 -2.3697
  192MPD1    N1 2930   2.052   3.760  11.850  0.6880  0.2517  0.0783
  192MPD1    H6 2931   1.979   3.793  11.786 -0.1538 -0.1293  0.8582
  192MPD1    H7 2932   2.009   3.749  11.941 -0.8820  1.5300 -0.4868
  193MPD1     C 2933   1.759   2.931  16.022  0.0286  0.1023  0.3480
  193MPD1    C1 2934   1.785   3.062  16.054  0.8834 -0.3196 -0.6480
  193MPD1    C2 2935   1.864   3.092  16.159 -0.2451  0.5829  0.1226
  193MPD1    C3 2936   1.932   2.991  16.230 -0.1316  0.0300 -0.2775
  193MPD1    C4 2937   1.914   2.862  16.197 -0.3491  0.3067  0.3210
  193MPD1    C5 2938   1.828   2.829  16.092 -0.3225 -0.2344 -0.0554
  193MPD1     H 2939   1.866   3.195  16.190  0.0973  0.0946  1.7433
  193MPD1    H1 2940   1.969   2.788  16.253 -0.4909 -0.0360  0.0090
  193MPD1    H2 2941   1.689   2.886  15.953 -0.6445  1.2010  0.3182
  193MPD1    H3 2942   1.809   2.725  16.071 -1.3683 -0.4702  2.0466
  193MPD1     N 2943   2.021   3.016  16.342 -0.3595 -0.3452 -0.1647
  193MPD1    H5 2944   2.054   2.931  16.387 -0.7640  0.0303  0.8235
  193MPD1    N1 2945   1.705   3.165  16.000 -0.1780 -0.4417  0.0614
  193MPD1    H6 2946   1.756   3.253  15.999  0.4291 -0.8082 -1.4906
  193MPD1    H7 2947   1.686   3.146  15.901  0.9047  0.2250 -0.2739
  194MPD1     C 2948   4.642   0.699  17.106 -0.3099 -0.0802  0.1457
  194MPD1    C1 2949   4.587   0.593  17.037  0.4699  0.7337 -0.0071
  194MPD1    C2 2950   4.679   0.508  16.974  0.2097  0.1135  0.1058
  194MPD1    C3 2951   0.090   0.522  16.985  0.7248 -0.4517 -0.4397
  194MPD1    C4 2952   0.133   0.628  17.054 -0.3084  0.1744  0.0798
  194MPD1    C5 2953   0.051   0.716  17.119  0.4908 -0.9120 -0.3816
  194MPD1     H 2954   4.639   0.429  16.912 -0.5343  0.5565  0.0233
  194MPD1    H1 2955   0.238   0.652  17.065 -0.2236  0.3879 -1.1888
  194MPD1    H2 2956   4.582   0.769  17.163 -0.0253  1.0996 -0.9920
  194MPD1    H3 2957   0.089   0.800  17.177  0.9902 -1.4933  0.1261
  194MPD1     N 2958   0.189   0.448  16.923  0.4102 -1.0049 -0.9662
  194MPD1    H5 2959   0.287   0.472  16.933  0.6446 -2.2657 -0.3005
  194MPD1    N1 2960   4.449   0.572  17.042  0.1225 -0.7335  0.0391
  194MPD1    H6 2961   4.396   0.629  17.108  0.5122 -0.3915  0.0556
  194MPD1    H7 2962   4.430   0.482  17.086 -1.0824 -0.5019 -0.0069
  195MPD1     C 2963   2.687   2.313   0.409 -0.5836 -0.1871  0.6226
  195MPD1    C1 2964   2.656   2.290   0.539  0.7213  0.3705 -0.2013
  195MPD1    C2 2965   2.557   2.197   0.567 -1.2039  0.1052  0.7450
  195MPD1    C3 2966   2.504   2.113   0.470  0.1921  0.3419 -0.8883
  195MPD1    C4 2967   2.538   2.143   0.340 -0.2440 -0.3078  0.0549
  195MPD1    C5 2968   2.623   2.242   0.306 -0.4827  0.2923  1.1018
  195MPD1     H 2969   2.539   2.178   0.672  1.2630 -0.9533  0.9656
  195MPD1    H1 2970   2.518   2.079   0.255 -2.1116 -0.0340  0.2941
  195MPD1    H2 2971   2.764   2.382   0.379  0.7508 -0.2799  3.8961
  195MPD1    H3 2972   2.642   2.274   0.204 -0.7243 -0.3823  0.8455
  195MPD1     N 2973   2.421   1.998   0.490 -0.1474  0.2326  0.0986
  195MPD1    H5 2974   2.390   1.943   0.410 -0.1722  1.1588 -0.5344
  195MPD1    N1 2975   2.715   2.374   0.635 -0.7389 -0.1611  0.1048
  195MPD1    H6 2976   2.802   2.422   0.611 -0.5391  0.3433  1.8812
  195MPD1    H7 2977   2.737   2.326   0.722  1.1808 -2.0618 -1.3955
  196MPD1     C 2978   0.953   0.518   0.234  0.4607  0.5072 -0.0756
  196MPD1    C1 2979   1.049   0.621   0.213  0.2980  0.6272  0.3445
  196MPD1    C2 2980   1.058   0.705   0.320 -0.0465 -0.0761  0.1887
  196MPD1    C3 2981   0.996   0.691   0.438  0.1919  0.3004  0.0825
  196MPD1    C4 2982   0.914   0.585   0.460 -0.6131 -1.1102  0.2128
  196MPD1    C5 2983   0.892   0.500   0.354  0.8994 -0.0931  0.0203
  196MPD1     H 2984   1.130   0.785   0.305 -1.1417  1.4010  2.8665
  196MPD1    H1 2985   0.857   0.577   0.551 -2.1971  0.7033 -0.6155
  196MPD1    H2 2986   0.922   0.447   0.158  1.6245 -2.0222  1.8185
  196MPD1    H3 2987   0.813   0.425   0.359  1.2863 -0.5326 -0.3929
  196MPD1     N 2988   1.001   0.782   0.550 -0.2701 -0.0504 -0.1123
  196MPD1    H5 2989   0.942   0.759   0.629 -0.0888  0.3198  0.1339
  196MPD1    N1 2990   1.102   0.637   0.081 -0.0275  0.1293  0.5822
  196MPD1    H6 2991   1.194   0.677   0.094 -0.4439  1.3002 -0.1359
  196MPD1    H7 2992   1.127   0.552   0.030  0.3015 -1.8603  4.0314
  197MPD1     C 2993   1.083   3.117  17.521 -0.0728  0.4745  0.0843
  197MPD1    C1 2994   1.180   3.207  17.539  0.5251 -0.1502 -0.4579
  197MPD1    C2 2995   1.197   3.316  17.461  0.5650  0.4445 -0.2914
  197MPD1    C3 2996   1.094   3.352  17.380  0.2392  0.5748 -0.0628
  197MPD1    C4 2997   0.989   3.262  17.363  0.9667 -0.1827 -0.7977
  197MPD1    C5 2998   0.983   3.148  17.436  0.3588 -0.8654 -0.5491
  197MPD1     H 2999   1.284   3.379  17.477  0.2734  1.2631 -1.8561
  197MPD1    H1 3000   0.909   3.287  17.294 -0.7142  2.9720  2.2964
  197MPD1    H2 3001   1.088   3.013  17.549  0.9369  0.1275 -1.3706
  197MPD1    H3 3002   0.892   3.090  17.421  0.9973 -1.8656 -0.5162
  197MPD1     N 3003   1.098   3.465  17.301  0.4183  0.2610  0.8558
  197MPD1    H5 3004   1.025   3.482  17.232  1.4180 -1.4638 -0.6145
  197MPD1    N1 3005   1.291   3.163  17.611 -0.9364  0.1815 -0.5134
  197MPD1    H6 3006   1.266   3.087  17.675  2.3874  3.6224  4.8698
  197MPD1    H7 3007   1.337   3.233  17.670 -0.7802  1.0340 -1.6511
  198MPD1     C 3008   2.285   1.756  15.473 -0.2963 -0.1836 -0.1210
  198MPD1    C1 3009   2.395   1.766  15.390  0.8679 -0.2092 -0.0130
  198MPD1    C2 3010   2.514   1.811  15.450  0.5837 -0.0863 -0.9119
  198MPD1    C3 3011   2.528   1.838  15.579 -0.0585 -0.2729 -0.0092
  198MPD1    C4 3012   2.416   1.814  15.661  0.1838 -0.0332  0.6896
  198MPD1    C5 3013   2.296   1.777  15.611 -0.5267  0.1169  0.1448
  198MPD1     H 3014   2.602   1.822  15.386  1.1907  2.9258  0.4188
  198MPD1    H1 3015   2.411   1.826  15.769  1.0475  0.4384  0.6761
  198MPD1    H2 3016   2.194   1.729  15.420 -0.8485  0.5709  0.4411
  198MPD1    H3 3017   2.209   1.760  15.674 -1.3225  0.7043 -0.7983
  198MPD1     N 3018   2.648   1.890  15.631  0.1937 -0.1501  0.7322
  198MPD1    H5 3019   2.715   1.940  15.573  0.4713 -3.0153 -1.4430
  198MPD1    N1 3020   2.369   1.762  15.252 -0.8186  0.1691 -0.2344
  198MPD1    H6 3021   2.294   1.698  15.230 -1.7078  1.0267  0.2966
  198MPD1    H7 3022   2.444   1.730  15.191 -0.3298 -0.5114  0.7127
  199MPD1     C 3023   0.379   2.083   8.745  0.6506  0.1358  0.2587
  199MPD1    C1 3024   0.374   2.212   8.801  0.3682  1.2378 -1.0080
  199MPD1    C2 3025   0.258   2.248   8.864 -0.0462  0.8927 -0.2775
  199MPD1    C3 3026   0.151   2.164   8.875 -0.3033 -0.2342  0.2401
  199MPD1    C4 3027   0.155   2.046   8.805 -0.3604 -0.1300 -0.7960
  199MPD1    C5 3028   0.269   1.998   8.743 -0.6241 -0.4040 -0.0527
  199MPD1     H 3029   0.251   2.352   8.895 -2.8115  0.5537  0.3059
  199MPD1    H1 3030   0.074   1.973   8.799 -1.0127  0.5031  0.4261
  199MPD1    H2 3031   0.469   2.042   8.700 -0.1099 -1.6761  0.3769
  199MPD1    H3 3032   0.277   1.898   8.701 -2.5879 -0.5694 -0.0324
  199MPD1     N 3033   0.027   2.206   8.930 -0.1038  0.5813  0.7499
  199MPD1    H5 3034   4.678   2.138   8.913  0.6155 -0.2035  0.7721
  199MPD1    N1 3035   0.483   2.299   8.810 -0.2450  0.1208 -0.0757
  199MPD1    H6 3036   0.563   2.276   8.752  0.1491 -0.8450  0.8464
  199MPD1    H7 3037   0.464   2.399   8.820 -1.4558 -0.2724  1.7480
  200MPD1     C 3038   3.270   3.058  15.031 -0.3526 -0.2713 -0.0804
  200MPD1    C1 3039   3.302   3.002  14.908 -0.0918  0.6200  0.6129
  200MPD1    C2 3040   3.433   2.999  14.870  0.1265  0.2160  0.0929
  200MPD1    C3 3041   3.541   3.042  14.951 -0.6995  0.4727  0.2186
  200MPD1    C4 3042   3.509   3.106  15.066 -0.5522  0.7506  0.5279
  200MPD1    C5 3043   3.374   3.123  15.099  0.5322  0.3176  0.1724
  200MPD1     H 3044   3.452   2.955  14.773  1.6863  0.0828  0.4654
  200MPD1    H1 3045   3.584   3.133  15.139  0.1858  1.8182 -0.6261
  200MPD1    H2 3046   3.163   3.062  15.051 -0.4855 -2.7426 -0.2480
  200MPD1    H3 3047   3.345   3.177  15.188 -0.9973 -1.1503  0.5699
  200MPD1     N 3048   3.667   3.034  14.891  0.8920 -0.5643 -0.5116
  200MPD1    H5 3049   3.662   2.978  14.806 -0.6611  0.1376 -0.8882
  200MPD1    N1 3050   3.209   2.919  14.836  0.5408  0.7721 -0.4042
  200MPD1    H6 3051   3.229   2.916  14.736 -1.6684 -2.1124 -0.7647
  200MPD1    H7 3052   3.116   2.959  14.840  0.6487  0.9340  0.6891
  201MPD1     C 3053   1.203   2.347  13.258 -0.1863 -0.2161 -0.3784
  201MPD1    C1 3054   1.261   2.310  13.384 -0.2139 -0.2657 -0.6971
  201MPD1    C2 3055   1.318   2.183  13.392 -0.3161  0.2753 -0.1047
  201MPD1    C3 3056   1.326   2.099  13.288 -0.0766 -0.2334 -0.0699
  201MPD1    C4 3057   1.279   2.141  13.166 -0.1913 -0.2700  0.1562
  201MPD1    C5 3058   1.213   2.260  13.154 -0.0046  0.8768 -0.4618
  201MPD1     H 3059   1.363   2.158  13.488  1.3810  1.0592 -0.6899
  201MPD1    H1 3060   1.278   2.072  13.082  2.1112 -0.5664  0.3843
  201MPD1    H2 3061   1.147   2.439  13.250 -1.0658 -0.8063 -1.0528
  201MPD1    H3 3062   1.161   2.287  13.063 -0.4750  0.1353 -0.4119
  201MPD1     N 3063   1.379   1.974  13.313 -1.5868  0.1116 -0.1246
  201MPD1    H5 3064   1.388   1.941  13.408  0.1955  1.0171  0.0191
  201MPD1    N1 3065   1.243   2.397  13.500  0.5059 -0.2606  0.0905
  201MPD1    H6 3066   1.299   2.375  13.582 -0.4370 -1.1631  0.4802
  201MPD1    H7 3067   1.221   2.496  13.497  1.2244 -0.0590  1.6506
  202MPD1     C 3068   0.313   1.033   9.033  0.1406  0.1639  0.2308
  202MPD1    C1 3069   0.361   0.931   9.112  0.5049  0.1330 -0.8064
  202MPD1    C2 3070   0.466   0.961   9.191  0.8525  0.7614  0.1352
  202MPD1    C3 3071   0.484   1.092   9.238  0.2895 -0.8693 -0.8142
  202MPD1    C4 3072   0.418   1.192   9.170  0.0963  0.3115 -0.0995
  202MPD1    C5 3073   0.342   1.159   9.069  0.0972  0.0759 -0.8154
  202MPD1     H 3074   0.498   0.877   9.252  1.4011  0.3520 -0.7088
  202MPD1    H1 3075   0.418   1.292   9.211  0.9969 -0.7444  2.4720
  202MPD1    H2 3076   0.247   1.013   8.949 -1.9179  1.1890  1.6082
  202MPD1    H3 3077   0.292   1.238   9.015  2.5105  0.4289 -2.5280
  202MPD1     N 3078   0.560   1.121   9.354  0.1620  0.5728  0.2101
  202MPD1    H5 3079   0.543   1.218   9.381 -0.7448  0.9138 -1.6039
  202MPD1    N1 3080   0.354   0.804   9.058 -0.3359  0.1904 -0.4700
  202MPD1    H6 3081   0.386   0.734   9.124  1.5820  1.9415  0.4671
  202MPD1    H7 3082   0.259   0.778   9.031 -0.9446 -0.5501  2.3142
  203MPD1     C 3083   4.352   2.802  12.355  0.3360 -0.3596  0.0521
  203MPD1    C1 3084   4.363   2.724  12.238  0.0285  0.1566  0.2827
  203MPD1    C2 3085   4.392   2.593  12.246 -0.0401 -0.1564 -0.0623
  203MPD1    C3 3086   4.437   2.535  12.361 -0.1379 -0.1270 -0.1160
  203MPD1    C4 3087   4.437   2.620  12.478 -0.6950  0.3829  0.2937
  203MPD1    C5 3088   4.395   2.752  12.473 -0.1564 -0.2317 -0.2960
  203MPD1     H 3089   4.382   2.532  12.157  2.4547 -0.6374 -0.0169
  203MPD1    H1 3090   4.476   2.596  12.576 -1.7756  0.7289  0.8077
  203MPD1    H2 3091   4.324   2.906  12.342  2.1391 -0.2097 -2.7202
  203MPD1    H3 3092   4.394   2.815  12.561 -0.8444 -0.6334 -0.0139
  203MPD1     N 3093   4.480   2.399  12.358 -0.1930  0.2807  0.3407
  203MPD1    H5 3094   4.498   2.356  12.268 -1.7038  1.1885 -0.4083
  203MPD1    N1 3095   4.310   2.773  12.116  0.4583 -0.4423 -0.5400
  203MPD1    H6 3096   4.319   2.873  12.103  0.0423 -0.2122  0.9230
  203MPD1    H7 3097   4.349   2.731  12.032  0.9408  1.3604 -1.2082
  204MPD1     C 3098   0.232   4.579  17.571 -0.3951 -0.6065 -0.3069
  204MPD1    C1 3099   0.233   4.523  17.447  0.2575 -0.4530  0.3704
  204MPD1    C2 3100   0.216   4.388  17.440  0.3849  0.5967 -0.7862
  204MPD1    C3 3101   0.169   4.311  17.551 -0.1931  0.5496 -0.0313
  204MPD1    C4 3102   0.143   4.379  17.667 -0.1507  0.0461  0.4175
  204MPD1    C5 3103   0.179   4.511  17.676 -0.2858 -0.2396  0.3086
  204MPD1     H 3104   0.231   4.340  17.344  1.3965 -1.4137  0.3701
  204MPD1    H1 3105   0.116   4.325   0.061 -0.3113 -0.7426 -0.0982
  204MPD1    H2 3106   0.256   4.682  17.593 -2.2478  0.3071 -2.5919
  204MPD1    H3 3107   0.162   4.561   0.074  1.7874 -0.2535  0.6785
  204MPD1     N 3108   0.150   4.169  17.542 -0.2182 -0.5068 -0.1758
  204MPD1    H5 3109   0.161   4.129  17.450  1.5969 -0.5553  0.0581
  204MPD1    N1 3110   0.283   4.587  17.328  0.0053 -0.0493  0.2043
  204MPD1    H6 3111   0.247   4.546  17.242  1.1872  1.9013 -1.2057
  204MPD1    H7 3112   0.278   4.688  17.333  0.5913 -0.0490  0.8269
  205MPD1     C 3113   4.389   2.919  16.965 -0.4351 -0.0287 -0.5693
  205MPD1    C1 3114   4.489   2.879  17.042 -0.2825 -0.5664  0.7897
  205MPD1    C2 3115   4.464   2.884  17.175  0.1713  0.1369 -0.5679
  205MPD1    C3 3116   4.347   2.939  17.229 -0.4419  0.0685  0.8052
  205MPD1    C4 3117   4.248   2.972  17.139 -0.2811  0.4630  0.0674
  205MPD1    C5 3118   4.272   2.964  17.009 -0.3157  0.2210 -0.1106
  205MPD1     H 3119   4.542   2.837  17.234  0.7129 -1.7450 -2.7786
  205MPD1    H1 3120   4.155   3.022  17.165 -1.1169 -0.7014 -0.7402
  205MPD1    H2 3121   4.400   2.918  16.857  0.8164 -2.3395 -0.4218
  205MPD1    H3 3122   4.197   2.989  16.934  1.4110  1.9260 -1.2638
  205MPD1     N 3123   4.325   2.936  17.370  0.3224  0.2918 -0.2345
  205MPD1    H5 3124   4.238   2.970  17.409 -0.9325 -3.3962  0.2162
  205MPD1    N1 3125   4.600   2.811  16.989  0.2178  0.0499 -0.0223
  205MPD1    H6 3126   4.679   2.818  17.051  1.1435  0.2370 -1.2177
  205MPD1    H7 3127   4.628   2.847  16.898  0.5323 -1.6018 -0.5770
  206MPD1     C 3128   4.578   0.584  16.227 -0.2325 -0.0267 -0.0902
  206MPD1    C1 3129   4.573   0.459  16.178  0.1167  0.0067 -0.2225
  206MPD1    C2 3130   4.579   0.443  16.037 -0.7422  0.2464 -0.3358
  206MPD1    C3 3131   4.535   0.545  15.949  0.2314  0.2320  0.3699
  206MPD1    C4 3132   4.509   0.665  16.011  0.6360  0.7289  0.1947
  206MPD1    C5 3133   4.538   0.687  16.144 -0.4907 -0.3116  0.7974
  206MPD1     H 3134   4.599   0.345  15.995  2.1728  0.8942 -0.4519
  206MPD1    H1 3135   4.468   0.749  15.956  0.3128  3.3295  4.3850
  206MPD1    H2 3136   4.592   0.609  16.331  1.6977  0.3054 -0.4391
  206MPD1    H3 3137   4.523   0.785  16.189 -0.1498 -0.7196  1.8053
  206MPD1     N 3138   4.515   0.527  15.807  0.2648 -0.0121 -0.5036
  206MPD1    H5 3139   4.480   0.609  15.757  1.8555  0.5022 -0.7804
  206MPD1    N1 3140   4.593   0.343  16.257 -0.6360 -0.1160 -0.3412
  206MPD1    H6 3141   4.577   0.255  16.208 -0.6868  1.0559 -2.4235
  206MPD1    H7 3142   4.537   0.349  16.341  1.5996 -0.5187  1.1907
  207MPD1     C 3143   1.747   2.669   9.676  0.2355  0.2610  0.1135
  207MPD1    C1 3144   1.763   2.787   9.609 -0.1245  0.6831 -0.4279
  207MPD1    C2 3145   1.855   2.876   9.664  0.3001 -0.0311  0.2226
  207MPD1    C3 3146   1.928   2.849   9.780  0.2477  0.1002 -0.1041
  207MPD1    C4 3147   1.906   2.727   9.849 -0.0543 -0.8773 -0.4972
  207MPD1    C5 3148   1.815   2.645   9.796 -0.3457 -0.5765  0.2523
  207MPD1     H 3149   1.868   2.963   9.601  1.6538 -0.4207 -0.0472
  207MPD1    H1 3150   1.965   2.703   9.936  1.2683  0.9118 -0.8771
  207MPD1    H2 3151   1.687   2.582   9.653 -1.7307  1.1577  1.8284
  207MPD1    H3 3152   1.800   2.551   9.849 -2.3568  2.0025  4.3244
  207MPD1     N 3153   2.024   2.934   9.840  0.7462 -0.6859  0.3231
  207MPD1    H5 3154   2.065   2.910   9.930 -0.3886  3.4355  1.9605
  207MPD1    N1 3155   1.729   2.804   9.476 -0.4064  0.3917  0.2418
  207MPD1    H6 3156   1.647   2.747   9.454 -0.9922  0.4715  2.2174
  207MPD1    H7 3157   1.713   2.899   9.446 -0.2898  0.6938  1.1325
  208MPD1     C 3158   4.432   2.230  17.133 -0.1412  0.1066 -0.3176
  208MPD1    C1 3159   4.498   2.321  17.212 -0.5553 -0.0298 -0.2443
  208MPD1    C2 3160   4.570   2.266  17.317 -0.3405 -0.0392  0.2875
  208MPD1    C3 3161   4.567   2.132  17.349 -0.2429  0.3848  0.1957
  208MPD1    C4 3162   4.498   2.053  17.263  0.3971 -0.1395 -0.6404
  208MPD1    C5 3163   4.423   2.103  17.160 -0.4899 -0.1192 -0.3821
  208MPD1     H 3164   4.621   2.334  17.384 -0.1759 -0.0768  0.1981
  208MPD1    H1 3165   4.472   1.953  17.297 -0.7099  0.1621 -0.6149
  208MPD1    H2 3166   4.383   2.261  17.041 -1.2980  0.4377  0.3929
  208MPD1    H3 3167   4.377   2.031  17.093 -1.1686  1.9858 -2.1948
  208MPD1     N 3168   4.625   2.090  17.472 -0.3285 -0.4670  0.2304
  208MPD1    H5 3169   4.656   2.159  17.539 -1.2208  0.6331 -0.4883
  208MPD1    N1 3170   4.508   2.462  17.187 -0.7614  0.4219 -0.0269
  208MPD1    H6 3171   4.496   2.514  17.273  1.4522 -1.0650  1.1968
  208MPD1    H7 3172   4.445   2.495  17.114  0.3297  0.9283 -0.7536
  209MPD1     C 3173   2.534   2.172  11.260 -0.0523 -0.2300  0.2969
  209MPD1    C1 3174   2.567   2.105  11.147 -0.2637  0.0674 -0.1476
  209MPD1    C2 3175   2.509   2.156  11.028  0.0248 -1.0537 -0.2491
  209MPD1    C3 3176   2.428   2.265  11.026 -0.0014  0.2297  0.1916
  209MPD1    C4 3177   2.388   2.322  11.142 -0.2571  0.0683  0.2458
  209MPD1    C5 3178   2.446   2.276  11.258 -0.4208 -0.4091  0.4032
  209MPD1     H 3179   2.536   2.106  10.935  0.1880  0.9481 -1.2627
  209MPD1    H1 3180   2.313   2.399  11.154 -0.3918  0.0662 -0.5952
  209MPD1    H2 3181   2.578   2.148  11.356  1.0099  1.5398  0.2579
  209MPD1    H3 3182   2.419   2.318  11.354 -1.3581  2.1291 -0.9837
  209MPD1     N 3183   2.360   2.303  10.903  0.2997  0.9525  0.2575
  209MPD1    H5 3184   2.372   2.250  10.817  0.7260  0.8064  0.4071
  209MPD1    N1 3185   2.647   1.990  11.155  0.2060 -0.1694  0.0963
  209MPD1    H6 3186   2.699   1.995  11.243  2.1744  2.9378 -1.2638
  209MPD1    H7 3187   2.708   1.975  11.075  0.6225  1.8947  0.0157
  210MPD1     C 3188   2.187   1.920  10.026  0.2407  0.9056  0.0472
  210MPD1    C1 3189   2.147   1.874  10.148  0.1869 -0.1200 -0.5154
  210MPD1    C2 3190   2.129   1.967  10.248  0.1531 -0.1819 -0.2898
  210MPD1    C3 3191   2.173   2.098  10.229  0.4344 -0.7480  0.5443
  210MPD1    C4 3192   2.224   2.146  10.108  0.1439  1.1213  0.0516
  210MPD1    C5 3193   2.231   2.049  10.012  0.3475 -0.2247  0.6752
  210MPD1     H 3194   2.088   1.945  10.346 -0.3398 -0.5310 -0.5713
  210MPD1    H1 3195   2.276   2.238  10.081  0.7057  1.4311  2.1726
  210MPD1    H2 3196   2.210   1.853   9.944  1.9028  0.3108  1.0080
  210MPD1    H3 3197   2.268   2.075   9.914  2.2478 -1.6121  1.0194
  210MPD1     N 3198   2.183   2.184  10.347  0.2176  0.0002 -0.4743
  210MPD1    H5 3199   2.225   2.274  10.325  0.0400 -0.0998 -1.2395
  210MPD1    N1 3200   2.108   1.739  10.176 -0.2029 -0.3789 -0.3921
  210MPD1    H6 3201   2.096   1.721  10.276 -1.3331  1.5562 -0.1741
  210MPD1    H7 3202   2.167   1.676  10.123 -0.7780 -1.7275  0.5787
  211MPD1     C 3203   0.330   2.127  15.724  0.5267 -0.0089 -0.5164
  211MPD1    C1 3204   0.300   2.053  15.834 -0.1132  0.2482 -0.8356
  211MPD1    C2 3205   0.219   2.118  15.926  0.1667  0.1751  0.1008
  211MPD1    C3 3206   0.157   2.240  15.900 -0.6200  0.2077 -0.6692
  211MPD1    C4 3207   0.184   2.306  15.786 -0.3361  0.0181  0.1620
  211MPD1    C5 3208   0.270   2.249  15.696 -0.7290 -0.1452  0.2031
  211MPD1     H 3209   0.205   2.072  16.023 -0.2512  0.1870  0.0473
  211MPD1    H1 3210   0.139   2.398  15.752  0.0072 -0.2564 -1.0449
  211MPD1    H2 3211   0.414   2.100  15.661  0.7402 -3.0772  1.0999
  211MPD1    H3 3212   0.298   2.297  15.602 -1.1621 -0.5056 -0.1115
  211MPD1     N 3213   0.079   2.305  15.990 -0.5533 -0.0499  0.1157
  211MPD1    H5 3214   0.033   2.392  15.965 -0.3126  0.3636  1.0940
  211MPD1    N1 3215   0.370   1.933  15.871  0.2468 -0.0800 -0.4058
  211MPD1    H6 3216   0.313   1.882  15.938  1.2382 -0.7027 -0.0260
  211MPD1    H7 3217   0.406   1.871  15.799  0.0394  0.0740 -0.6408
  212MPD1     C 3218   4.247   0.809  16.366  0.0891 -0.3070 -0.1715
  212MPD1    C1 3219   4.176   0.879  16.450  0.1697  0.1335  0.0757
  212MPD1    C2 3220   4.108   0.803  16.548  0.4192 -0.0716 -0.4243
  212MPD1    C3 3221   4.111   0.668  16.550 -0.2829  0.0653  0.3172
  212MPD1    C4 3222   4.180   0.597  16.454 -0.6932 -0.1169 -0.1192
  212MPD1    C5 3223   4.259   0.672  16.370  0.2336  0.5333 -0.1362
  212MPD1     H 3224   4.034   0.850  16.612  0.9443  0.7842 -0.4501
  212MPD1    H1 3225   4.192   0.489  16.451 -2.4262 -0.2938 -0.5612
  212MPD1    H2 3226   4.304   0.863  16.292  1.8336 -1.2371  0.4932
  212MPD1    H3 3227   4.315   0.621  16.292  1.6134 -0.5523  1.5730
  212MPD1     N 3228   4.032   0.585  16.633 -0.8286  0.3962 -0.0809
  212MPD1    H5 3229   4.045   0.487  16.610 -1.6991 -0.5554  3.6201
  212MPD1    N1 3230   4.147   1.009  16.435 -0.0630  0.1072  0.5484
  212MPD1    H6 3231   4.225   1.064  16.399 -0.6422 -0.3958 -1.4685
  212MPD1    H7 3232   4.123   1.047  16.526 -0.2554 -0.6769  0.8169
  213MPD1     C 3233   2.105   1.389  15.696  0.3521  0.2023 -0.1037
  213MPD1    C1 3234   2.190   1.449  15.603  0.2812 -0.7017 -0.4684
  213MPD1    C2 3235   2.140   1.449  15.471 -0.1471  0.5322 -0.4550
  213MPD1    C3 3236   2.018   1.414  15.434  0.6529 -0.6185  0.5985
  213MPD1    C4 3237   1.927   1.392  15.535  0.5103 -0.2173 -0.4728
  213MPD1    C5 3238   1.973   1.372  15.660 -1.4677  0.8268 -0.3703
  213MPD1     H 3239   2.216   1.469  15.396  0.2330 -0.2951 -0.2908
  213MPD1    H1 3240   1.821   1.373  15.519  0.9400 -2.8846 -0.0126
  213MPD1    H2 3241   2.149   1.385  15.795 -0.5518  2.0089  0.3695
  213MPD1    H3 3242   1.902   1.345  15.737 -0.2511 -1.1235  0.0638
  213MPD1     N 3243   1.982   1.405  15.299  0.5007 -0.1850 -0.3986
  213MPD1    H5 3244   2.062   1.381  15.241  1.1058  0.5069  0.1461
  213MPD1    N1 3245   2.326   1.442  15.618 -0.3831 -0.6090 -0.2584
  213MPD1    H6 3246   2.372   1.510  15.557 -1.6335  1.3607  0.9803
  213MPD1    H7 3247   2.356   1.466  15.712 -0.4859  0.5389 -0.5068
  214MPD1     C 3248   1.184   1.009  14.806 -0.0396  0.5131  0.0776
  214MPD1    C1 3249   1.247   1.093  14.712  0.0526  0.6073 -0.9537
  214MPD1    C2 3250   1.369   1.159  14.748 -0.2675  0.6816  0.7349
  214MPD1    C3 3251   1.407   1.159  14.877 -0.0862 -0.2884  0.1399
  214MPD1    C4 3252   1.339   1.086  14.970 -1.3698 -0.0846  0.8712
  214MPD1    C5 3253   1.232   1.012  14.935  0.1595 -0.1820 -0.0951
  214MPD1     H 3254   1.424   1.221  14.678 -1.2560  0.4438 -0.2533
  214MPD1    H1 3255   1.375   1.080  15.072 -3.6540  0.5801  1.7045
  214MPD1    H2 3256   1.092   0.956  14.784 -0.4158  1.4285 -0.5151
  214MPD1    H3 3257   1.171   0.966  15.012 -0.9561  0.5679 -0.5325
  214MPD1     N 3258   1.528   1.220  14.919 -0.9986 -0.2694  0.4750
  214MPD1    H5 3259   1.551   1.221  15.018 -0.4005  1.1368  0.3243
  214MPD1    N1 3260   1.208   1.077  14.574  0.0867  0.4567  0.3568
  214MPD1    H6 3261   1.237   1.156  14.517 -0.2881 -0.7530 -1.4869
  214MPD1    H7 3262   1.109   1.055  14.562  0.0155  0.8405  0.2501
  215MPD1     C 3263   0.905   2.294  11.161 -0.6162  0.4299 -0.3758
  215MPD1    C1 3264   0.963   2.360  11.270  0.4752 -0.0906  0.4403
  215MPD1    C2 3265   1.087   2.412  11.250 -0.0880 -0.4466  0.3988
  215MPD1    C3 3266   1.162   2.388  11.134 -0.2359 -0.1707 -0.7277
  215MPD1    C4 3267   1.114   2.309  11.037 -0.3198  1.0856  0.0470
  215MPD1    C5 3268   0.986   2.264  11.057  0.0599  0.1876  0.4852
  215MPD1     H 3269   1.129   2.482  11.322 -0.0923 -1.5941  1.5183
  215MPD1    H1 3270   1.176   2.280  10.953  0.7615 -0.2132  1.2818
  215MPD1    H2 3271   0.809   2.245  11.169  0.1524 -1.1222 -0.5688
  215MPD1    H3 3272   0.948   2.197  10.981 -0.8349 -0.0394  1.1220
  215MPD1     N 3273   1.290   2.453  11.123  0.0948 -0.0108 -0.1740
  215MPD1    H5 3274   1.338   2.500  11.199 -1.2261 -0.3088  0.8576
  215MPD1    N1 3275   0.883   2.393  11.386  0.2116  0.3434 -0.2562
  215MPD1    H6 3276   0.826   2.315  11.419 -0.8077  0.9713 -0.5031
  215MPD1    H7 3277   0.944   2.421  11.462 -2.8253  3.7748  0.9458
  216MPD1     C 3278   4.110   0.904   0.545  0.2849  0.3188 -0.5754
  216MPD1    C1 3279   4.056   0.798   0.609  0.5980 -0.3239  0.1295
  216MPD1    C2 3280   4.107   0.671   0.578 -0.2390  0.0925  0.1423
  216MPD1    C3 3281   4.209   0.658   0.487  0.5152  0.3766  0.3594
  216MPD1    C4 3282   4.258   0.763   0.416  0.0252  0.0737 -0.5258
  216MPD1    C5 3283   4.203   0.881   0.448 -0.1835  0.0568  0.6826
  216MPD1     H 3284   4.067   0.580   0.621  0.9166 -0.5285 -0.1054
  216MPD1    H1 3285   4.326   0.741   0.334 -0.8169 -0.4049 -1.1094
  216MPD1    H2 3286   4.075   1.005   0.557  1.5140  0.7901 -0.9816
  216MPD1    H3 3287   4.242   0.964   0.390  2.3919  0.0854  2.4824
  216MPD1     N 3288   4.261   0.532   0.448 -0.1876 -0.2705 -0.1891
  216MPD1    H5 3289   4.214   0.452   0.489 -2.6424  0.8302 -0.8737
  216MPD1    N1 3290   3.940   0.799   0.690  0.4283 -0.4176  0.1370
  216MPD1    H6 3291   3.912   0.893   0.718  1.5499 -0.5006  1.5355
  216MPD1    H7 3292   3.948   0.738   0.771  1.1714  0.0289  0.3935
  217MPD1     C 3293   3.437   0.211   9.631  0.1508 -0.2364  0.1635
  217MPD1    C1 3294   3.415   0.350   9.631  0.6486 -0.6078  0.6540
  217MPD1    C2 3295   3.530   0.429   9.609  0.4034  0.6278 -0.1731
  217MPD1    C3 3296   3.655   0.376   9.577  0.3321  0.2060 -0.9596
  217MPD1    C4 3297   3.666   0.238   9.572 -0.1432 -0.2948 -0.4214
  217MPD1    C5 3298   3.556   0.157   9.592  0.3828 -0.0227  0.0371
  217MPD1     H 3299   3.512   0.536   9.601  1.1084  0.7170 -0.5381
  217MPD1    H1 3300   3.759   0.185   9.556  1.2957  2.1021  0.0863
  217MPD1    H2 3301   3.363   0.135   9.653 -0.7322  0.5510 -0.0759
  217MPD1    H3 3302   3.574   0.050   9.593  1.7562  0.2181  0.0405
  217MPD1     N 3303   3.770   0.457   9.550 -0.5594 -0.2849  0.6737
  217MPD1    H5 3304   3.857   0.408   9.536 -0.3540 -0.2880  2.0117
  217MPD1    N1 3305   3.287   0.407   9.650  0.2015 -0.3038 -0.9147
  217MPD1    H6 3306   3.285   0.486   9.714  0.7715 -0.4568 -0.7096
  217MPD1    H7 3307   3.205   0.350   9.668  0.2181 -1.3253 -4.1599
  218MPD1     C 3308   1.502   3.086  12.791  0.2138 -0.5870  0.5376
  218MPD1    C1 3309   1.622   3.092  12.726  0.3610 -0.2964  0.0750
  218MPD1    C2 3310   1.672   2.981  12.662 -1.1964 -0.1920  0.0442
  218MPD1    C3 3311   1.612   2.861  12.682 -0.1123  0.1106 -0.2794
  218MPD1    C4 3312   1.500   2.853  12.757 -0.0651  0.0784  0.3828
  218MPD1    C5 3313   1.442   2.963  12.811  0.8814  0.5291 -0.0839
  218MPD1     H 3314   1.753   2.991  12.591 -0.6378  2.3235  1.0436
  218MPD1    H1 3315   1.452   2.757  12.775  0.6646 -0.5786 -1.2309
  218MPD1    H2 3316   1.458   3.179  12.826 -0.6118 -0.1792 -1.5930
  218MPD1    H3 3317   1.346   2.959  12.860  1.4770 -1.9538  0.8871
  218MPD1     N 3318   1.677   2.747  12.625 -0.2997 -0.1898  0.4939
  218MPD1    H5 3319   1.750   2.773  12.559 -2.2246  2.6581 -0.5320
  218MPD1    N1 3320   1.675   3.219  12.710  1.1400  0.1862  0.0202
  218MPD1    H6 3321   1.668   3.279  12.792  0.0145 -0.2234  0.2243
  218MPD1    H7 3322   1.771   3.213  12.676  1.3475  0.7543  0.5062
  219MPD1     C 3323   2.129   2.883  11.923 -0.5391 -0.3743 -0.2475
  219MPD1    C1 3324   2.178   2.756  11.964 -0.8426 -0.4318  0.1195
  219MPD1    C2 3325   2.116   2.682  12.058 -0.4483 -1.0108  0.1631
  219MPD1    C3 3326   1.991   2.730  12.108  0.0138  0.4773  0.3444
  219MPD1    C4 3327   1.943   2.845  12.067  0.2473 -0.0796  0.1492
  219MPD1    C5 3328   2.013   2.919  11.975 -0.7337  0.2236 -0.6036
  219MPD1     H 3329   2.148   2.582  12.082  2.3904 -1.1177 -4.1176
  219MPD1    H1 3330   1.851   2.881  12.112  0.8320 -0.6885  1.8366
  219MPD1    H2 3331   2.186   2.948  11.858  1.8650 -0.6700  1.5704
  219MPD1    H3 3332   1.968   3.014  11.946  0.4322  1.1340  0.5705
  219MPD1     N 3333   1.927   2.662  12.217 -0.0345  0.2574 -0.2783
  219MPD1    H5 3334   1.854   2.718  12.261  0.3084 -0.1608  0.8261
  219MPD1    N1 3335   2.307   2.722  11.922 -0.2854  0.4395 -0.8053
  219MPD1    H6 3336   2.328   2.623  11.939 -2.6556  0.2500  0.9170
  219MPD1    H7 3337   2.330   2.755  11.828 -0.6459  2.1779 -0.2764
  220MPD1     C 3338   1.881   3.485   9.801 -0.1933 -0.0605  0.3491
  220MPD1    C1 3339   1.823   3.436   9.684 -0.0955  0.3447 -0.2453
  220MPD1    C2 3340   1.765   3.310   9.695 -1.1781  0.4212  0.0594
  220MPD1    C3 3341   1.774   3.233   9.808 -0.1914 -1.3492 -0.6882
  220MPD1    C4 3342   1.848   3.274   9.915 -0.4098 -0.9284  0.0165
  220MPD1    C5 3343   1.898   3.404   9.912  0.4764 -0.3803  0.1136
  220MPD1     H 3344   1.703   3.270   9.615 -0.4614  0.6139 -0.5855
  220MPD1    H1 3345   1.845   3.211  10.003 -1.7156 -0.1048  0.5638
  220MPD1    H2 3346   1.908   3.590   9.803  1.3482 -0.4468 -0.0234
  220MPD1    H3 3347   1.928   3.446  10.008  0.5290  0.0113 -0.0729
  220MPD1     N 3348   1.699   3.114   9.810 -0.0649  0.0869  0.2523
  220MPD1    H5 3349   1.673   3.071   9.721  4.0289 -2.1649  0.1853
  220MPD1    N1 3350   1.801   3.526   9.573 -0.3530  0.5370  0.2517
  220MPD1    H6 3351   1.777   3.490   9.481  0.4435 -0.8053  0.5692
  220MPD1    H7 3352   1.886   3.582   9.564 -0.4842  0.9372  1.4206
  221MPD1     C 3353   4.193   2.273  16.279  1.0260 -0.3299 -0.2662
  221MPD1    C1 3354   4.211   2.160  16.207 -0.2672 -0.6757  0.4170
  221MPD1    C2 3355   4.315   2.073  16.246  0.3453  0.6205 -0.0931
  221MPD1    C3 3356   4.400   2.109  16.358 -0.0952 -0.9666  0.3321
  221MPD1    C4 3357   4.382   2.231  16.415 -0.1777 -0.1830  0.2304
  221MPD1    C5 3358   4.275   2.308  16.386  0.0239  0.5792 -0.2964
  221MPD1     H 3359   4.333   1.983  16.189 -2.5028 -0.7400  1.1283
  221MPD1    H1 3360   4.441   2.275  16.494 -0.3262 -1.8031  1.2294
  221MPD1    H2 3361   4.109   2.339  16.260  0.4497 -1.2558 -0.9332
  221MPD1    H3 3362   4.257   2.398  16.444  1.3731 -0.2803  1.4812
  221MPD1     N 3363   4.507   2.033  16.401 -0.3206 -0.3908  0.6035
  221MPD1    H5 3364   4.564   2.083  16.469 -1.0121  0.6119  0.4488
  221MPD1    N1 3365   4.126   2.141  16.102  0.1031 -0.1763 -0.1337
  221MPD1    H6 3366   4.122   2.043  16.076  0.5064 -0.2407  0.0522
  221MPD1    H7 3367   4.034   2.181  16.121 -1.0071 -2.3846 -0.9463
  222MPD1     C 3368   4.203   0.080  16.809  0.1085  0.6368  0.1397
  222MPD1    C1 3369   4.281   0.113  16.696  0.6121 -0.2840 -0.7144
  222MPD1    C2 3370   4.334   0.243  16.696 -0.0604 -0.4232 -0.3174
  222MPD1    C3 3371   4.295   0.342  16.786  0.0489 -0.4444 -0.5086
  222MPD1    C4 3372   4.212   0.307  16.891 -0.1492 -0.2951 -0.3616
  222MPD1    C5 3373   4.178   0.175  16.906 -0.1900  0.5048 -0.0263
  222MPD1     H 3374   4.410   0.261  16.621  0.3772  0.7000  0.3833
  222MPD1    H1 3375   4.198   0.378  16.972  0.8847  0.4349 -0.8190
  222MPD1    H2 3376   4.164   4.704  16.825 -0.4707  0.9634  0.7750
  222MPD1    H3 3377   4.123   0.151  16.996  1.4604  2.3293  1.4743
  222MPD1     N 3378   4.340   0.471  16.768  0.4653 -0.4279 -0.4690
  222MPD1    H5 3379   4.329   0.540  16.841 -1.0500 -0.4790 -0.6525
  222MPD1    N1 3380   4.322   0.019  16.604  0.2093  0.4431  0.1899
  222MPD1    H6 3381   4.254   4.669  16.587 -0.7548  1.2762  0.4219
  222MPD1    H7 3382   4.335   0.062  16.513 -0.0253  0.0650 -0.0213
  223MPD1     C 3383   0.503   0.489  16.538 -0.4570  0.6690  0.3387
  223MPD1    C1 3384   0.393   0.438  16.480  0.0360 -0.6224  0.0414
  223MPD1    C2 3385   0.267   0.495  16.501 -0.6395  0.7465  0.1148
  223MPD1    C3 3386   0.246   0.604  16.581 -0.6482  0.0462 -0.4591
  223MPD1    C4 3387   0.357   0.666  16.627 -0.1839  0.4371 -0.1919
  223MPD1    C5 3388   0.479   0.606  16.602  0.7607 -0.0042 -0.2469
  223MPD1     H 3389   0.179   0.443  16.465  1.8212 -3.2700 -0.1334
  223MPD1    H1 3390   0.357   0.748  16.697  1.3211  0.8100 -0.6163
  223MPD1    H2 3391   0.605   0.457  16.522  0.0883  2.1384  0.8857
  223MPD1    H3 3392   0.564   0.661  16.642  0.2470 -1.6296  3.0685
  223MPD1     N 3393   0.121   0.646  16.612 -0.5126  0.5284  0.2310
  223MPD1    H5 3394   0.048   0.585  16.575 -0.9137  0.2332  1.5346
  223MPD1    N1 3395   0.399   0.349  16.371  0.0835 -0.4042 -0.2179
  223MPD1    H6 3396   0.316   0.290  16.368 -0.3148  0.0518  1.6328
  223MPD1    H7 3397   0.480   0.288  16.373  0.6528  0.3854  0.8263
  224MPD1     C 3398   3.908   1.639   9.071 -0.0283 -0.4844 -0.5207
  224MPD1    C1 3399   3.976   1.522   9.066  1.0034  0.2194 -0.3290
  224MPD1    C2 3400   4.094   1.510   9.146 -0.2318  0.2576  0.0062
  224MPD1    C3 3401   4.154   1.616   9.213 -0.2881  0.6134  0.5138
  224MPD1    C4 3402   4.085   1.736   9.205  0.5226  0.0677  0.2106
  224MPD1    C5 3403   3.964   1.744   9.139  0.0977  0.5534  0.0074
  224MPD1     H 3404   4.147   1.417   9.129 -2.2625 -1.0325  0.7479
  224MPD1    H1 3405   4.124   1.828   9.246  3.8564 -0.6362 -1.3011
  224MPD1    H2 3406   3.810   1.648   9.026 -0.6130  0.1093  0.8571
  224MPD1    H3 3407   3.905   1.835   9.147 -0.8548 -0.1374  0.8913
  224MPD1     N 3408   4.285   1.616   9.275  0.6727 -0.2735 -0.2994
  224MPD1    H5 3409   4.320   1.705   9.310  2.2476 -1.2116  0.5076
  224MPD1    N1 3410   3.922   1.413   8.994 -0.3038  0.2389  0.6186
  224MPD1    H6 3411   3.870   1.445   8.913  2.7698  2.2481 -0.5364
  224MPD1    H7 3412   3.981   1.332   8.975 -0.9545  0.4480 -2.1825
  225MPD1     C 3413   1.913   3.719  12.672  0.1431 -0.0753  0.2918
  225MPD1    C1 3414   1.872   3.816  12.583 -0.4325 -0.2509 -0.1871
  225MPD1    C2 3415   1.792   3.777  12.476 -0.9846 -0.0804  0.3644
  225MPD1    C3 3416   1.767   3.645  12.460 -0.6246  0.6654 -0.6724
  225MPD1    C4 3417   1.812   3.546  12.543  0.1103  0.8964  0.0170
  225MPD1    C5 3418   1.890   3.583  12.649  0.8491 -0.1308  0.2426
  225MPD1     H 3419   1.757   3.847  12.401 -1.6716  1.1801  1.8683
  225MPD1    H1 3420   1.797   3.439  12.530  1.2720  0.5602  1.4414
  225MPD1    H2 3421   1.975   3.753  12.755 -0.2059 -3.0597  1.7700
  225MPD1    H3 3422   1.932   3.503  12.709 -0.7133  0.5393  2.1937
  225MPD1     N 3423   1.673   3.612  12.358 -0.3252 -0.1758  0.3286
  225MPD1    H5 3424   1.637   3.693  12.308  1.8808 -0.5837 -1.9157
  225MPD1    N1 3425   1.893   3.948  12.618  0.1514 -0.2024  0.9184
  225MPD1    H6 3426   1.984   3.957  12.662 -0.5210  2.4344  1.7658
  225MPD1    H7 3427   1.886   4.016  12.542 -1.1649 -0.5501  0.7394
  226MPD1     C 3428   4.003   2.482   8.926  0.5115 -0.0347  0.2383
  226MPD1    C1 3429   4.111   2.547   8.866 -0.1727  0.0384 -0.2890
  226MPD1    C2 3430   4.179   2.642   8.944  0.0614  0.3333 -0.4701
  226MPD1    C3 3431   4.135   2.681   9.069  0.3230  0.1408 -0.6852
  226MPD1    C4 3432   4.030   2.606   9.128  0.1769  0.6676  0.7002
  226MPD1    C5 3433   3.968   2.512   9.052 -0.2750 -0.3495 -0.7042
  226MPD1     H 3434   4.260   2.696   8.896  1.3887 -0.4353  0.8740
  226MPD1    H1 3435   3.990   2.613   9.228  0.7304  0.6023  0.9270
  226MPD1    H2 3436   3.947   2.404   8.875  0.9540 -0.2205  0.0410
  226MPD1    H3 3437   3.878   2.462   9.089  0.7784 -2.2022 -0.6409
  226MPD1     N 3438   4.210   2.780   9.139  0.2629  0.1545  0.0783
  226MPD1    H5 3439   4.280   2.833   9.087  0.6965  0.0559  0.5558
  226MPD1    N1 3440   4.160   2.517   8.740  0.4444  0.1420  0.2238
  226MPD1    H6 3441   4.121   2.432   8.701  0.7199 -0.1542  0.5977
  226MPD1    H7 3442   4.261   2.503   8.733  0.4841  1.1713 -1.2716
  227MPD1     C 3443   4.508   3.392  10.016 -0.1021 -0.7964 -0.6299
  227MPD1    C1 3444   4.577   3.434   9.899 -0.1415  0.4980 -0.0148
  227MPD1    C2 3445   4.534   3.386   9.772  0.1187 -0.8088 -0.1700
  227MPD1    C3 3446   4.439   3.283   9.768 -0.0873  1.2254  0.1545
  227MPD1    C4 3447   4.369   3.246   9.883  0.4127  0.3401  0.1345
  227MPD1    C5 3448   4.404   3.305  10.002  0.8791 -0.5439 -0.3284
  227MPD1     H 3449   4.596   3.415   9.688  1.3042  0.9754  1.3155
  227MPD1    H1 3450   4.297   3.165   9.891  0.6538  0.1578  0.5233
  227MPD1    H2 3451   4.541   3.422  10.115 -0.9783  2.9109 -1.4924
  227MPD1    H3 3452   4.360   3.274  10.096 -0.9540  0.1210 -0.9684
  227MPD1     N 3453   4.414   3.222   9.645 -0.3646  0.0580 -0.3579
  227MPD1    H5 3454   4.464   3.254   9.563 -1.4615  2.6882  0.0042
  227MPD1    N1 3455   4.697   3.513   9.907 -0.1190  0.7040  0.1591
  227MPD1    H6 3456   4.711   3.589   9.840  0.5477 -0.9251 -1.5352
  227MPD1    H7 3457   4.704   3.559   9.998  2.1812  0.1548  0.2366
  228MPD1     C 3458   3.287   1.561  12.791 -0.8544 -0.3444 -0.0434
  228MPD1    C1 3459   3.176   1.594  12.708  0.0164  0.0222  0.2374
  228MPD1    C2 3460   3.061   1.527  12.730  0.0738 -0.1384  0.3770
  228MPD1    C3 3461   3.065   1.410  12.801  0.0358  0.8508 -0.1487
  228MPD1    C4 3462   3.183   1.364  12.855  0.1198 -0.3270  0.6384
  228MPD1    C5 3463   3.287   1.448  12.857  0.2016  0.2043 -0.6789
  228MPD1     H 3464   2.969   1.556  12.679 -0.7283 -1.0426  1.3135
  228MPD1    H1 3465   3.195   1.269  12.906  0.3274 -1.6389 -1.8809
  228MPD1    H2 3466   3.381   1.614  12.795 -0.2862 -1.2414 -1.4354
  228MPD1    H3 3467   3.375   1.407  12.905 -0.0168  1.1632  0.5257
  228MPD1     N 3468   2.942   1.339  12.806 -0.1088  0.3170  0.2415
  228MPD1    H5 3469   2.864   1.378  12.755 -0.9861 -0.4948  0.9571
  228MPD1    N1 3470   3.175   1.712  12.641 -0.1740  0.2725 -0.4691
  228MPD1    H6 3471   3.108   1.714  12.565 -1.9861 -0.0163  1.1069
  228MPD1    H7 3472   3.263   1.725  12.591  0.8139 -0.2571  1.1180
  229MPD1     C 3473   2.831   4.663  14.525  0.4828  0.5665 -0.2034
  229MPD1    C1 3474   2.804   4.527  14.498  0.0852  0.2415 -0.2684
  229MPD1    C2 3475   2.872   4.429  14.575  0.3377  0.7658  0.5675
  229MPD1    C3 3476   2.977   4.456  14.668 -0.0410  0.4189 -0.4408
  229MPD1    C4 3477   3.000   4.590  14.682  0.7760  0.8338  0.1252
  229MPD1    C5 3478   2.922   4.688  14.623 -0.6807 -0.4268 -0.1249
  229MPD1     H 3479   2.840   4.326  14.563 -1.8263  1.2221  2.3614
  229MPD1    H1 3480   3.086   4.634  14.730  0.5243 -0.0046  1.3346
  229MPD1    H2 3481   2.794   0.022  14.465 -1.0343 -0.5271 -0.7699
  229MPD1    H3 3482   2.945   0.068  14.647 -0.1366 -0.6257  0.2328
  229MPD1     N 3483   3.049   4.363  14.745 -0.1820  0.0171  1.2735
  229MPD1    H5 3484   3.122   4.396  14.807  1.8580  0.2652 -1.2560
  229MPD1    N1 3485   2.707   4.492  14.405  0.7845 -0.0272 -0.0958
  229MPD1    H6 3486   2.705   4.559  14.329  1.3869 -1.2092 -1.1495
  229MPD1    H7 3487   2.720   4.396  14.374  1.1797 -1.4815  4.5515
  230MPD1     C 3488   3.463   4.237  15.621 -0.4497  0.1060  0.2187
  230MPD1    C1 3489   3.496   4.111  15.574 -0.4727 -0.3702 -0.5825
  230MPD1    C2 3490   3.437   4.070  15.456 -0.5552  0.1985 -0.4229
  230MPD1    C3 3491   3.374   4.157  15.369 -0.3902 -0.2279  0.1011
  230MPD1    C4 3492   3.351   4.291  15.418  0.2846  0.0714  0.2215
  230MPD1    C5 3493   3.409   4.330  15.537 -0.0081 -0.7992 -0.0922
  230MPD1     H 3494   3.454   3.966  15.430  1.0414  0.0150  1.3803
  230MPD1    H1 3495   3.288   4.366  15.372  1.0100  0.2706 -0.4419
  230MPD1    H2 3496   3.498   4.265  15.719 -0.3923 -0.0160  0.2337
  230MPD1    H3 3497   3.395   4.430  15.576  0.0445 -0.2374 -1.5060
  230MPD1     N 3498   3.319   4.108  15.248 -0.4139  0.1427 -0.5337
  230MPD1    H5 3499   3.332   4.008  15.234 -0.9191  0.0446 -0.3026
  230MPD1    N1 3500   3.561   4.018  15.660  0.5670 -0.1042  0.5339
  230MPD1    H6 3501   3.630   4.062  15.721 -1.4468  1.8704  1.4179
  230MPD1    H7 3502   3.606   3.945  15.606 -1.4258 -0.0740 -1.1621
  231MPD1     C 3503   0.855   0.916  15.267 -0.0105 -0.0684 -0.4501
  231MPD1    C1 3504   0.978   0.971  15.308 -0.5073 -0.4983  0.2701
  231MPD1    C2 3505   1.010   1.091  15.243  0.1723  0.1417  0.4050
  231MPD1    C3 3506   0.940   1.136  15.135  0.6158  0.1239  0.4967
  231MPD1    C4 3507   0.821   1.083  15.094 -0.0663  0.1596 -0.0576
  231MPD1    C5 3508   0.779   0.968  15.163  0.3049  0.3173  0.7292
  231MPD1     H 3509   1.094   1.142  15.289 -0.4994  2.1354 -0.5699
  231MPD1    H1 3510   0.749   1.120  15.022  0.1995  1.6671  0.4500
  231MPD1    H2 3511   0.816   0.823  15.309 -3.9235  0.8900 -1.9261
  231MPD1    H3 3512   0.683   0.923  15.144  0.1859  1.0244 -0.3611
  231MPD1     N 3513   1.001   1.240  15.062 -0.5270 -0.4527  0.1943
  231MPD1    H5 3514   1.075   1.280  15.118 -1.3753 -0.5403  1.3736
  231MPD1    N1 3515   1.046   0.927  15.430 -0.2456 -0.3317  0.1991
  231MPD1    H6 3516   1.054   0.826  15.443  2.4741 -0.0412  0.8599
  231MPD1    H7 3517   1.138   0.969  15.443 -0.4469  0.1106  0.1637
  232MPD1     C 3518   3.264   4.195   0.087 -0.2188 -0.0868  0.4787
  232MPD1    C1 3519   3.283   4.060   0.059 -0.2008 -0.3575 -0.1807
  232MPD1    C2 3520   3.203   3.973   0.129  0.1759  0.7576  0.0672
  232MPD1    C3 3521   3.131   4.023   0.242 -0.2862  0.2223  0.2039
  232MPD1    C4 3522   3.121   4.159   0.273 -0.1042 -0.1905  0.1761
  232MPD1    C5 3523   3.187   4.242   0.191 -0.4781 -0.0959 -1.0800
  232MPD1     H 3524   3.197   3.868   0.101  2.3288  0.8212 -0.5908
  232MPD1    H1 3525   3.059   4.202   0.350 -0.2878  0.8462 -0.5499
  232MPD1    H2 3526   3.317   4.274   0.036 -0.3302 -0.9806 -1.0150
  232MPD1    H3 3527   3.175   4.347   0.214 -1.2931 -0.3669 -0.2462
  232MPD1     N 3528   3.067   3.927   0.324  0.1862  0.0117 -0.6462
  232MPD1    H5 3529   3.077   3.834   0.285 -0.9566 -0.6910  0.7265
  232MPD1    N1 3530   3.359   4.028  17.640 -0.0829 -0.3359 -0.0714
  232MPD1    H6 3531   3.434   4.095  17.619  0.6735 -1.2181 -0.2077
  232MPD1    H7 3532   3.391   3.931  17.638 -2.4282 -1.0825 -0.4612
  233MPD1     C 3533   4.201   2.048   1.927  0.0619 -0.1151  0.1346
  233MPD1    C1 3534   4.335   2.042   1.908 -0.1040 -0.3326 -0.0800
  233MPD1    C2 3535   4.388   1.940   1.834 -1.2048  0.3134 -0.6863
  233MPD1    C3 3536   4.319   1.850   1.760  0.1509 -0.4959 -0.6306
  233MPD1    C4 3537   4.178   1.859   1.767  0.5362  0.1161 -0.4139
  233MPD1    C5 3538   4.126   1.957   1.852 -0.3273 -0.6155  0.0427
  233MPD1     H 3539   4.495   1.928   1.847 -1.2560 -1.2049 -1.7376
  233MPD1    H1 3540   4.117   1.790   1.711 -0.7196  1.9952 -1.3706
  233MPD1    H2 3541   4.153   2.111   2.001  0.7452  0.6075 -0.0476
  233MPD1    H3 3542   4.019   1.974   1.861 -0.0681  0.8335  0.3482
  233MPD1     N 3543   4.372   1.755   1.670 -0.3891  0.1768  0.0782
  233MPD1    H5 3544   4.304   1.696   1.622 -1.3357  0.7801  0.6691
  233MPD1    N1 3545   4.418   2.128   1.984 -0.2877 -0.9740 -0.0450
  233MPD1    H6 3546   4.381   2.222   1.998 -2.4797 -1.5393 -1.9761
  233MPD1    H7 3547   4.509   2.140   1.940 -1.0386  0.0583 -1.3157
  234MPD1     C 3548   0.920   0.051   9.522 -0.1132  0.6072 -0.3823
  234MPD1    C1 3549   0.895   0.155   9.606 -0.3415  0.6786 -0.3024
  234MPD1    C2 3550   0.767   0.223   9.599  0.0263  0.2814 -0.6973
  234MPD1    C3 3551   0.669   0.171   9.516 -0.3834 -0.1402 -0.2936
  234MPD1    C4 3552   0.693   0.064   9.432 -0.5169  0.2404 -0.5780
  234MPD1    C5 3553   0.822   0.014   9.438  0.2975 -0.4631 -0.5978
  234MPD1     H 3554   0.751   0.317   9.651 -0.7564 -1.7715  2.7799
  234MPD1    H1 3555   0.621   0.012   9.370 -0.3562  2.8537 -2.9860
  234MPD1    H2 3556   1.014   4.722   9.524  0.2121  1.2067  0.0279
  234MPD1    H3 3557   0.846   4.650   9.379 -0.1191 -2.2788  1.9277
  234MPD1     N 3558   0.551   0.251   9.517 -0.1648 -0.1323  0.0247
  234MPD1    H5 3559   0.565   0.333   9.575  1.6305 -0.7014  0.3921
  234MPD1    N1 3560   0.994   0.206   9.696  0.3907  0.4153  0.5308
  234MPD1    H6 3561   0.952   0.231   9.785  1.7826 -0.1056  1.3320
  234MPD1    H7 3562   1.060   0.135   9.727 -0.1465 -0.8918 -1.3024
  235MPD1     C 3563   2.387   0.500   8.268 -0.7633  0.2077 -0.1077
  235MPD1    C1 3564   2.486   0.536   8.353  0.0851  0.0626  0.3369
  235MPD1    C2 3565   2.529   0.440   8.441 -0.9949  1.3324 -0.2703
  235MPD1    C3 3566   2.463   0.317   8.460 -0.2269 -0.2252 -0.9554
  235MPD1    C4 3567   2.348   0.292   8.389  0.6483  0.1899 -0.2534
  235MPD1    C5 3568   2.311   0.378   8.288  0.0410  0.6161 -0.0294
  235MPD1     H 3569   2.621   0.454   8.497 -0.9502 -1.8045  0.4368
  235MPD1    H1 3570   2.286   0.205   8.404  0.7653  0.2470  0.5994
  235MPD1    H2 3571   2.341   0.557   8.188 -0.7070  1.4834  0.7796
  235MPD1    H3 3572   2.226   0.354   8.226  2.1658  0.8132 -2.9844
  235MPD1     N 3573   2.505   0.228   8.561  0.2209  0.1591  0.3351
  235MPD1    H5 3574   2.588   0.257   8.612 -1.1288 -0.2997  2.8197
  235MPD1    N1 3575   2.555   0.654   8.337 -0.6406  0.0109 -0.0102
  235MPD1    H6 3576   2.497   0.725   8.293 -2.8865 -2.1195 -0.4648
  235MPD1    H7 3577   2.592   0.699   8.420 -0.3313  0.1734 -0.2369
  236MPD1     C 3578   1.440   4.426   9.404 -0.6039  0.3081  0.0468
  236MPD1    C1 3579   1.475   4.553   9.446 -0.7080  0.2690 -1.2300
  236MPD1    C2 3580   1.560   4.566   9.551 -0.2985 -0.1877  0.4550
  236MPD1    C3 3581   1.607   4.456   9.623 -0.0816  0.8321 -0.1731
  236MPD1    C4 3582   1.534   4.341   9.600 -0.5633 -0.2628  1.5367
  236MPD1    C5 3583   1.462   4.321   9.488  0.0439 -0.5523  0.2952
  236MPD1     H 3584   1.581   4.665   9.589  0.8721 -1.0073  1.9623
  236MPD1    H1 3585   1.567   4.251   9.650 -1.1094 -1.0110  0.5611
  236MPD1    H2 3586   1.380   4.424   9.313  2.0409  0.6516 -1.7174
  236MPD1    H3 3587   1.446   4.215   9.472  0.7520 -0.7496  0.8707
  236MPD1     N 3588   1.700   4.457   9.730  0.0157  0.3830 -0.2441
  236MPD1    H5 3589   1.727   4.371   9.777 -0.8150  0.3584  0.1915
  236MPD1    N1 3590   1.443   4.673   9.372 -0.2049  0.7011  0.4377
  236MPD1    H6 3591   1.345   4.671   9.344 -0.5391  1.8027  1.5576
  236MPD1    H7 3592   1.450   0.027   9.438  1.4255 -0.1658  1.3063
  237MPD1     C 3593   1.772   2.629  15.760  0.0441  0.8983 -0.1948
  237MPD1    C1 3594   1.713   2.750  15.720 -0.2591  0.1231 -0.4578
  237MPD1    C2 3595   1.591   2.742  15.661  0.2609  0.0335  0.9295
  237MPD1    C3 3596   1.516   2.618  15.656  0.2555  0.2623 -0.8585
  237MPD1    C4 3597   1.574   2.505  15.707 -0.0620 -0.7097 -0.0726
  237MPD1    C5 3598   1.707   2.505  15.740 -0.4527 -0.1082  0.1375
  237MPD1     H 3599   1.564   2.827  15.599  0.4154  0.0316  0.8613
  237MPD1    H1 3600   1.511   2.418  15.722  1.1879 -1.5306  0.4068
  237MPD1    H2 3601   1.867   2.642  15.809  1.2731  0.5706 -2.4917
  237MPD1    H3 3602   1.748   2.418  15.790  0.8000  0.1161 -0.5044
  237MPD1     N 3603   1.388   2.600  15.608  0.3097  0.2646  0.3414
  237MPD1    H5 3604   1.348   2.507  15.610 -0.3501  0.6115  2.6197
  237MPD1    N1 3605   1.794   2.862  15.712  0.0140 -0.2102 -0.0620
  237MPD1    H6 3606   1.740   2.948  15.721  1.1049  0.2492  2.0285
  237MPD1    H7 3607   1.866   2.859  15.784 -1.8073 -0.0832  1.7702
  238MPD1     C 3608   3.000   2.003  15.285 -0.2887  0.4211 -0.0423
  238MPD1    C1 3609   2.865   1.991  15.300  0.1259 -0.1288  0.0677
  238MPD1    C2 3610   2.800   1.900  15.220  0.5565 -0.5463 -0.1023
  238MPD1    C3 3611   2.863   1.840  15.107  0.2610  0.0335  0.1897
  238MPD1    C4 3612   2.997   1.860  15.096  0.0617  0.2549 -0.0471
  238MPD1    C5 3613   3.066   1.939  15.183  0.9294  0.6324  0.1404
  238MPD1     H 3614   2.693   1.881  15.227  0.6381 -1.4446 -1.3025
  238MPD1    H1 3615   3.057   1.813  15.019  0.5019 -0.5447  0.7693
  238MPD1    H2 3616   3.060   2.077  15.337  0.9858 -0.8863  0.3582
  238MPD1    H3 3617   3.172   1.950  15.165  0.8671 -1.4691 -1.5320
  238MPD1     N 3618   2.812   1.744  15.016  0.0117 -0.4934 -0.1096
  238MPD1    H5 3619   2.872   1.702  14.945 -3.1440 -0.3384 -2.9002
  238MPD1    N1 3620   2.796   2.063  15.393  0.1306 -0.4106  0.2482
  238MPD1    H6 3621   2.700   2.071  15.360  0.0430 -0.4690  0.4906
  238MPD1    H7 3622   2.832   2.156  15.415 -2.5976  0.5081  0.8742
  239MPD1     C 3623   3.786   2.154  15.047 -0.8605  0.7498 -0.1119
  239MPD1    C1 3624   3.854   2.117  14.935  0.1242  0.3525 -0.3553
  239MPD1    C2 3625   3.806   2.163  14.811  0.2644  0.1938 -0.1534
  239MPD1    C3 3626   3.683   2.226  14.805 -0.2955  0.1212 -0.9746
  239MPD1    C4 3627   3.613   2.247  14.922 -1.1570  0.2514 -0.5759
  239MPD1    C5 3628   3.665   2.211  15.039 -0.3692  0.0656  0.2624
  239MPD1     H 3629   3.866   2.144  14.722  1.0966  1.2368  0.1943
  239MPD1    H1 3630   3.510   2.282  14.924 -1.6697 -1.2986 -0.1412
  239MPD1    H2 3631   3.832   2.117  15.137  0.2532  0.1620 -0.9238
  239MPD1    H3 3632   3.611   2.228  15.131  2.0209  0.7374  1.5567
  239MPD1     N 3633   3.607   2.234  14.687 -0.2374  0.0387 -0.1413
  239MPD1    H5 3634   3.511   2.261  14.705 -0.3261  0.0371 -0.6057
  239MPD1    N1 3635   3.983   2.063  14.945  0.2973  0.8642  0.5905
  239MPD1    H6 3636   4.013   2.003  15.022 -0.0772 -1.5327 -1.1234
  239MPD1    H7 3637   4.013   2.019  14.858  0.1576  0.8656  0.5412
  240MPD1     C 3638   2.629   1.803  13.527 -0.2697 -0.1740  0.0283
  240MPD1    C1 3639   2.745   1.844  13.600  0.5000 -0.3712  0.9863
  240MPD1    C2 3640   2.753   1.787  13.721 -0.2741 -0.2450 -0.4085
  240MPD1    C3 3641   2.676   1.682  13.765  1.0335  0.3195  0.1392
  240MPD1    C4 3642   2.579   1.632  13.683 -0.0408  0.4940 -0.3120
  240MPD1    C5 3643   2.563   1.691  13.558  0.6236 -0.1697 -0.3501
  240MPD1     H 3644   2.817   1.828  13.798 -1.1436  0.6652 -0.1691
  240MPD1    H1 3645   2.517   1.547  13.709 -0.6260  0.3490 -2.2051
  240MPD1    H2 3646   2.620   1.845  13.427 -2.1766 -2.0913 -0.6073
  240MPD1    H3 3647   2.476   1.669  13.498 -1.0362 -0.0291  2.0336
  240MPD1     N 3648   2.683   1.648  13.902 -0.3082  0.0671 -0.7560
  240MPD1    H5 3649   2.748   1.700  13.959 -1.7957 -0.0975  1.0877
  240MPD1    N1 3650   2.815   1.958  13.565 -0.5038  0.0237  0.0316
  240MPD1    H6 3651   2.907   1.946  13.607 -1.0897 -3.8006  0.2354
  240MPD1    H7 3652   2.825   1.980  13.466  0.0368  3.4620  0.8300
  241MPD1     C 3653   2.872   2.292  14.416 -0.2171 -0.5406 -0.0504
  241MPD1    C1 3654   2.799   2.221  14.511  0.0130  0.4395  0.6243
  241MPD1    C2 3655   2.765   2.089  14.474  0.0860  0.3657  0.0464
  241MPD1    C3 3656   2.780   2.033  14.344 -1.0029  0.3551 -1.1145
  241MPD1    C4 3657   2.832   2.119  14.255 -0.0957  0.4508 -0.5384
  241MPD1    C5 3658   2.886   2.246  14.292 -0.0779  0.0809 -0.1587
  241MPD1     H 3659   2.688   2.044  14.536 -1.4104  2.4981 -0.2714
  241MPD1    H1 3660   2.860   2.088  14.155  0.0436 -0.5506 -0.1934
  241MPD1    H2 3661   2.895   2.397  14.430 -0.3299 -0.6859  1.1906
  241MPD1    H3 3662   2.941   2.306  14.220  1.8436 -2.8679 -1.1929
  241MPD1     N 3663   2.722   1.912  14.298  0.2454 -0.5915  1.0819
  241MPD1    H5 3664   2.721   1.898  14.198  0.0105 -0.6861  1.0970
  241MPD1    N1 3665   2.789   2.260  14.647 -0.3104  0.1522 -0.2934
  241MPD1    H6 3666   2.775   2.359  14.665  1.4786  0.5946 -1.3228
  241MPD1    H7 3667   2.723   2.206  14.703  2.5049 -0.1069  2.7781
  242MPD1     C 3668   2.451   0.106  16.035  0.7379 -0.2842  0.1706
  242MPD1    C1 3669   2.347   0.090  15.942 -0.2870  0.4839  0.5136
  242MPD1    C2 3670   2.387   0.081  15.809  0.3683  0.3314 -0.3275
  242MPD1    C3 3671   2.520   0.080  15.771  0.0709 -0.2669 -0.1374
  242MPD1    C4 3672   2.619   0.108  15.862  0.4102  0.9418 -0.3919
  242MPD1    C5 3673   2.585   0.119  15.997 -0.1111 -0.4015 -0.4382
  242MPD1     H 3674   2.303   0.064  15.742  0.4307 -0.4596 -0.1961
  242MPD1    H1 3675   2.726   0.108  15.841  0.5939  0.3334  0.5393
  242MPD1    H2 3676   2.433   0.106  16.142  1.3664 -1.6099  0.2773
  242MPD1    H3 3677   2.660   0.129  16.075 -2.2272  0.1088  1.5209
  242MPD1     N 3678   2.564   0.050  15.641 -0.5190 -0.1020 -0.4681
  242MPD1    H5 3679   2.658   0.010  15.642 -0.0315  1.0805  2.0766
  242MPD1    N1 3680   2.211   0.109  15.976 -0.8350  0.4007 -0.2432
  242MPD1    H6 3681   2.162   0.065  15.898 -1.9906 -1.0174  1.2945
  242MPD1    H7 3682   2.183   0.063  16.062  2.9388  0.8957  1.2306
  243MPD1     C 3683   4.560   0.390  17.585 -0.4408  0.3630  0.4250
  243MPD1    C1 3684   4.530   0.344  17.458 -0.8615 -0.1061  0.5357
  243MPD1    C2 3685   4.528   0.204  17.441 -0.9714  0.1378  0.4021
  243MPD1    C3 3686   4.542   0.121  17.551 -0.5467  0.2357  1.0806
  243MPD1    C4 3687   4.566   0.169  17.684 -0.1027  0.6626  0.8686
  243MPD1    C5 3688   4.577   0.308  17.692  0.0070 -0.0413  0.1993
  243MPD1     H 3689   4.523   0.153  17.345  0.4923  0.4910  0.1267
  243MPD1    H1 3690   4.583   0.105   0.073  1.4101  0.2268  0.2457
  243MPD1    H2 3691   4.573   0.497  17.599 -1.0413  0.6964 -1.6083
  243MPD1    H3 3692   4.602   0.346   0.093  0.2283  0.8337 -0.1942
  243MPD1     N 3693   4.535   4.708  17.513  0.5526 -0.0272  0.0740
  243MPD1    H5 3694   4.516   4.677  17.418  1.0506 -1.9434  0.5820
  243MPD1    N1 3695   4.534   0.425  17.347 -0.2510  0.6258  0.2446
  243MPD1    H6 3696   4.509   0.522  17.364  1.1841  0.7883  1.5020
  243MPD1    H7 3697   4.481   0.390  17.268 -1.7878  0.2731  1.4410
  244MPD1     C 3698   4.239   3.810   0.240 -0.4938  0.3717 -0.1709
  244MPD1    C1 3699   4.220   3.943   0.284  0.3257  0.4120 -0.6667
  244MPD1    C2 3700   4.277   4.045   0.210  0.4260 -0.0965  0.3434
  244MPD1    C3 3701   4.358   4.021   0.095 -0.1492  0.4986  0.3393
  244MPD1    C4 3702   4.373   3.888   0.064  0.0033  0.9047  0.7952
  244MPD1    C5 3703   4.302   3.781   0.126  0.2111 -0.2026  0.3658
  244MPD1     H 3704   4.262   4.149   0.237 -0.6707 -0.2380  0.2639
  244MPD1    H1 3705   4.439   3.857  17.681 -3.1485 -0.1759 -1.3668
  244MPD1    H2 3706   4.197   3.728   0.296  1.9904 -1.2491 -0.7069
  244MPD1    H3 3707   4.322   3.681   0.088 -0.2404 -0.5340  0.9919
  244MPD1     N 3708   4.422   4.129   0.022 -0.4964  0.0168 -0.0380
  244MPD1    H5 3709   4.406   4.224   0.052  2.6194  0.0119  1.6332
  244MPD1    N1 3710   4.163   3.967   0.410  0.1897 -0.1677  0.1856
  244MPD1    H6 3711   4.098   3.895   0.442  1.6421 -0.9750  1.3250
  244MPD1    H7 3712   4.118   4.058   0.419 -0.3056 -0.3266 -0.6400
  245MPD1     C 3713   0.707   3.770  13.122 -0.5702  0.8377 -0.2245
  245MPD1    C1 3714   0.838   3.747  13.141 -0.1210  0.1274 -0.5137
  245MPD1    C2 3715   0.912   3.841  13.207 -0.0820  0.0417 -0.0588
  245MPD1    C3 3716   0.852   3.956  13.274  0.4928  0.2083 -0.8006
  245MPD1    C4 3717   0.720   3.975  13.253  1.0477  0.8753  0.0785
  245MPD1    C5 3718   0.653   3.885  13.180  0.2954  0.5310  0.0248
  245MPD1     H 3719   1.018   3.822  13.217  0.0448  0.6424 -0.2754
  245MPD1    H1 3720   0.668   4.060  13.296 -1.1570  0.4738 -1.8107
  245MPD1    H2 3721   0.640   3.700  13.071  0.4793 -1.0521  1.0036
  245MPD1    H3 3722   0.550   3.918  13.166  0.6919  1.2646 -1.1035
  245MPD1     N 3723   0.926   4.052  13.336 -0.6225 -0.1031 -0.1718
  245MPD1    H5 3724   0.875   4.122  13.388  1.3644  1.0039  0.2908
  245MPD1    N1 3725   0.900   3.641  13.069  0.3591 -0.5708  0.4456
  245MPD1    H6 3726   0.985   3.603  13.112  0.8133 -0.5440 -0.4398
  245MPD1    H7 3727   0.831   3.566  13.067 -0.1996 -0.1078  2.1967
  246MPD1     C 3728   2.947   0.537   9.687 -0.1685  0.3433  0.4552
  246MPD1    C1 3729   2.960   0.674   9.674 -1.5118  0.5485 -0.4060
  246MPD1    C2 3730   2.891   0.729   9.568  0.1157 -0.9497 -0.3761
  246MPD1    C3 3731   2.814   0.649   9.485 -0.1792  0.3183 -0.6159
  246MPD1    C4 3732   2.804   0.513   9.507 -0.6899  0.2180  0.7769
  246MPD1    C5 3733   2.861   0.460   9.616 -0.1932 -0.0772 -0.2733
  246MPD1     H 3734   2.894   0.836   9.551 -1.0609 -0.8378  0.1123
  246MPD1    H1 3735   2.737   0.454   9.446 -0.4685 -1.3269  2.0295
  246MPD1    H2 3736   3.002   0.492   9.769  0.8708  1.5469  0.4194
  246MPD1    H3 3737   2.847   0.356   9.644 -1.2313  0.7427  2.2252
  246MPD1     N 3738   2.746   0.715   9.378 -0.0969 -1.1177  0.5798
  246MPD1    H5 3739   2.755   0.816   9.372  0.6177 -1.0967  2.0054
  246MPD1    N1 3740   3.022   0.760   9.768 -0.4171  1.0790 -0.2214
  246MPD1    H6 3741   3.055   0.841   9.716 -0.5945  0.5521 -1.1539
  246MPD1    H7 3742   3.101   0.714   9.814 -0.9242 -0.2422 -0.6538
  247MPD1     C 3743   0.682   3.183  15.619 -0.0451  0.0041  0.4371
  247MPD1    C1 3744   0.555   3.241  15.633 -0.1455 -0.1120  0.5266
  247MPD1    C2 3745   0.551   3.372  15.692  0.1594  0.4809  0.2422
  247MPD1    C3 3746   0.659   3.431  15.764 -0.0203  0.4706  0.4000
  247MPD1    C4 3747   0.778   3.367  15.754  0.3614 -0.1522  0.3582
  247MPD1    C5 3748   0.789   3.249  15.679 -0.2013  0.1664  0.6499
  247MPD1     H 3749   0.461   3.430  15.678 -0.2275  0.1282  1.3160
  247MPD1    H1 3750   0.860   3.414  15.807  0.3650  0.2626 -0.0184
  247MPD1    H2 3751   0.706   3.086  15.577 -0.5219  0.1162 -0.1021
  247MPD1    H3 3752   0.889   3.207  15.671  0.1788  1.0028  0.9739
  247MPD1     N 3753   0.653   3.540  15.849 -0.0403 -0.0948  0.0878
  247MPD1    H5 3754   0.745   3.576  15.875  0.4169 -1.2296  0.0347
  247MPD1    N1 3755   0.447   3.182  15.573  0.5743  0.8401  0.3345
  247MPD1    H6 3756   0.436   3.081  15.580 -0.9570  0.9117 -0.8905
  247MPD1    H7 3757   0.360   3.224  15.607  2.2257  2.5124  2.5324
  248MPD1     C 3758   1.951   4.065   1.904  0.5178 -0.0777 -0.1019
  248MPD1    C1 3759   1.899   4.183   1.937  0.5234 -0.1730 -0.3135
  248MPD1    C2 3760   1.795   4.236   1.853 -0.3087  0.1417  0.1124
  248MPD1    C3 3761   1.745   4.156   1.748  0.5937 -0.0352 -0.5082
  248MPD1    C4 3762   1.797   4.027   1.732 -0.4660  0.8302 -1.1167
  248MPD1    C5 3763   1.896   3.984   1.810 -0.0194  0.0127  0.1205
  248MPD1     H 3764   1.759   4.337   1.871 -0.8718  0.1964 -1.3160
  248MPD1    H1 3765   1.754   3.956   1.662 -0.3234  0.0600 -0.4355
  248MPD1    H2 3766   2.035   4.030   1.962  0.9146  0.5432 -0.3047
  248MPD1    H3 3767   1.915   3.878   1.818 -1.4820 -0.2645  0.0092
  248MPD1     N 3768   1.633   4.197   1.673 -0.3203  0.3683 -0.2321
  248MPD1    H5 3769   1.598   4.292   1.684 -1.2695 -0.1690  1.4874
  248MPD1    N1 3770   1.957   4.271   2.025 -0.4481 -0.4223 -0.2442
  248MPD1    H6 3771   2.021   4.220   2.087 -0.3484 -1.9244 -1.5734
  248MPD1    H7 3772   1.893   4.335   2.071  1.2024  0.1666  1.2492
  249MPD1     C 3773   2.630   3.601   9.114  0.4162  0.6645 -0.3912
  249MPD1    C1 3774   2.742   3.535   9.163  0.0466  0.4879  0.1020
  249MPD1    C2 3775   2.711   3.427   9.245  0.1524 -0.4413 -0.3145
  249MPD1    C3 3776   2.586   3.379   9.267 -0.2904 -0.1903  0.1812
  249MPD1    C4 3777   2.478   3.442   9.198  0.2255 -0.7817 -0.2365
  249MPD1    C5 3778   2.502   3.556   9.126  0.7468  0.0115 -0.3502
  249MPD1     H 3779   2.792   3.384   9.303 -1.2803 -4.6675 -1.4577
  249MPD1    H1 3780   2.372   3.419   9.208  0.7577 -2.6638  0.8902
  249MPD1    H2 3781   2.643   3.693   9.059  1.2682 -0.5812 -2.2492
  249MPD1    H3 3782   2.419   3.611   9.084 -0.4302  0.8134  3.0148
  249MPD1     N 3783   2.569   3.273   9.350  0.3778 -0.2270 -0.2461
  249MPD1    H5 3784   2.648   3.224   9.390 -0.3286 -1.4216 -0.3073
  249MPD1    N1 3785   2.865   3.592   9.155 -0.0201  0.2693 -0.3700
  249MPD1    H6 3786   2.945   3.529   9.165 -0.4528 -0.0639  0.9899
  249MPD1    H7 3787   2.880   3.642   9.068 -0.6275 -1.2501 -1.3496
  250MPD2     C 3788   4.030   2.985  13.078 -0.0609  0.0179  0.4491
  250MPD2    C1 3789   4.097   3.041  12.970 -0.2794 -0.1653 -0.2731
  250MPD2    C2 3790   4.113   2.976  12.856  0.3461 -0.3691 -0.4260
  250MPD2    C3 3791   4.038   2.860  12.834  0.5576 -0.7637  0.3175
  250MPD2    C4 3792   3.972   2.805  12.943  0.0317 -0.4071 -0.1446
  250MPD2    C5 3793   3.966   2.864  13.061  0.1711  0.1256 -0.2816
  250MPD2     H 3794   4.172   3.012  12.772  0.1668 -1.4373 -1.0045
  250MPD2    H1 3795   3.910   2.716  12.942 -2.0866  1.0636  1.1875
  250MPD2    H2 3796   4.008   3.039  13.169 -0.6570 -0.9956  0.9121
  250MPD2    H3 3797   3.896   2.825  13.135 -0.3188 -0.8085 -1.2413
  250MPD2     N 3798   4.031   2.785  12.710  0.6900 -0.0665 -0.2132
  250MPD2    H5 3799   3.983   2.695  12.713 -1.0981  0.9540  2.0893
  250MPD2    N1 3800   4.160   3.163  12.999 -0.2527  0.6493  0.9918
  250MPD2    H7 3801   4.137   3.200  13.091 -1.1525  0.6836  0.7557
  251TMC3    C1 3802   4.293   3.342  12.977  0.3422  0.2990  0.4088
  251TMC3    C2 3803   4.205   3.434  13.029  0.4619 -0.3974 -0.2803
  251TMC3    C3 3804   4.233   3.569  13.015 -0.3530 -0.4379  0.1829
  251TMC3    C4 3805   4.416   3.380  12.932  0.5126 -0.3499  0.2062
  251TMC3    C5 3806   4.442   3.516  12.927  0.1575 -0.0536 -0.4736
  251TMC3    C6 3807   4.353   3.615  12.956 -0.4457 -0.0983  0.1869
  251TMC3     C 3808   4.250   3.223  12.916  0.2961  1.0050  0.0909
  251TMC3     O 3809   4.296   3.177  12.815  0.0885  0.3263 -1.0981
  251TMC3     H 3810   4.110   3.402  13.070  0.2830 -0.4007 -0.7036
  251TMC3    H1 3811   4.493   3.308  12.906  1.0751  0.1527  0.4676
  251TMC3    H2 3812   4.370   3.722  12.955  1.0659 -0.3504 -0.1655
  251TMC3    C7 3813   4.576   3.547  12.887  0.5746 -0.1781 -0.0652
  251TMC3    C8 3814   4.137   3.672  13.055 -0.4090 -0.2171 -0.7137
  251TMC3    O1 3815   4.653   3.453  12.882  0.5680  0.1690 -0.1705
  251TMC3    O2 3816   4.083   3.661  13.165 -0.2685 -0.0714 -0.5661
  252TMC3    C1 3817   4.636   2.994  10.096  0.7209 -0.6414 -0.1004
  252TMC3    C2 3818   0.011   3.039  10.009  0.4619  0.4972 -0.1224
  252TMC3    C3 3819   4.707   3.030   9.875  0.4142 -0.2989  0.5804
  252TMC3    C4 3820   4.514   2.952  10.062  0.9239  0.2695  0.2709
  252TMC3    C5 3821   4.507   2.915   9.929  0.0330  0.0177  0.1943
  252TMC3    C6 3822   4.598   2.962   9.831  0.4970  0.2891 -0.3544
  252TMC3     C 3823   4.652   3.030  10.238 -0.4511  0.2059 -0.7613
  252TMC3     O 3824   0.041   3.020  10.281 -0.3546 -0.0228  0.1166
  252TMC3     H 3825   0.104   3.084  10.043 -0.2506  1.2962  0.7398
  252TMC3    H1 3826   4.443   2.915  10.136  1.0871 -3.0933 -1.2287
  252TMC3    H2 3827   4.563   2.962   9.728  1.4240 -0.2145 -0.6729
  252TMC3    C7 3828   4.393   2.847   9.885  0.5393 -0.4489 -0.4888
  252TMC3    C8 3829   0.064   3.094   9.769 -0.5555  0.5047 -0.0585
  252TMC3    O1 3830   4.298   2.862   9.953 -0.2062 -0.1527 -0.5684
  252TMC3    O2 3831   0.043   3.069   9.652  0.2939  0.4995  0.1093
  253MPD2     C 3832   0.948   2.871  15.628 -0.6189  0.3071 -0.1401
  253MPD2    C1 3833   0.844   2.818  15.565  0.1535  0.6138  0.5072
  253MPD2    C2 3834   0.762   2.726  15.624 -0.0219 -0.5780  0.4955
  253MPD2    C3 3835   0.788   2.687  15.758 -0.1413 -0.6595  0.3656
  253MPD2    C4 3836   0.901   2.739  15.818  0.6166  0.6824  0.4889
  253MPD2    C5 3837   0.977   2.836  15.755 -0.4029 -0.4277 -0.2302
  253MPD2     H 3838   0.686   2.680  15.561  1.7820  0.1928 -2.2757
  253MPD2    H1 3839   0.919   2.708  15.920  2.9745 -0.1732 -0.2027
  253MPD2    H2 3840   1.018   2.942  15.585  0.2762 -1.2613 -1.2388
  253MPD2    H3 3841   1.059   2.881  15.810 -0.8573 -1.8457  1.6013
  253MPD2     N 3842   0.698   2.615  15.839  0.1020 -0.1995 -0.3884
  253MPD2    H5 3843   0.732   2.579  15.927 -1.6318  1.1022  0.8057
  253MPD2    N1 3844   0.814   2.853  15.434  0.1458  0.9184  0.1551
  253MPD2    H7 3845   0.732   2.814  15.388  1.5933  0.0337 -1.6936
  254TMC3    C1 3846   0.480   2.561  15.913  0.5833 -0.0147  0.2619
  254TMC3    C2 3847   0.348   2.585  15.891  0.3902  0.1406  0.2640
  254TMC3    C3 3848   0.263   2.573  15.999 -0.3515 -0.2729 -0.1027
  254TMC3    C4 3849   0.523   2.518  16.036 -0.3258  0.8663  0.0955
  254TMC3    C5 3850   0.432   2.496  16.138 -0.7135  0.7178 -0.1158
  254TMC3    C6 3851   0.299   2.531  16.127 -0.1019 -0.4340 -0.2914
  254TMC3     C 3852   0.568   2.604  15.797 -0.0234 -0.3047 -0.1609
  254TMC3     O 3853   0.512   2.606  15.688 -0.1266 -0.5836  0.1501
  254TMC3     H 3854   0.314   2.626  15.797 -1.5287  0.6017  1.1646
  254TMC3    H1 3855   0.629   2.502  16.048 -0.2186  1.6995  0.2706
  254TMC3    H2 3856   0.225   2.522  16.206 -1.5931 -0.0276 -1.6657
  254TMC3    C7 3857   0.490   2.445  16.262 -0.8733 -0.5272  0.2169
  254TMC3    C8 3858   0.128   2.626  15.985  0.3890  0.2164  0.6207
  254TMC3    O1 3859   0.612   2.468  16.276 -0.5291 -0.4042  0.1999
  254TMC3    O2 3860   0.047   2.586  15.904  0.5820  0.0985  0.4044
  255MPD2     C 3861   3.697   0.559  10.250  0.3104 -0.1880  0.3711
  255MPD2    C1 3862   3.737   0.691  10.249  1.1252 -0.4291  0.2679
  255MPD2    C2 3863   3.865   0.722  10.299 -0.0265  0.0457 -0.3387
  255MPD2    C3 3864   3.955   0.630  10.340  1.2910  0.7085  0.1097
  255MPD2    C4 3865   3.907   0.502  10.350  0.0965 -0.7520 -0.0323
  255MPD2    C5 3866   3.789   0.464  10.291 -0.3638  0.3635 -0.5784
  255MPD2     H 3867   3.896   0.826  10.301  0.1115  0.0305 -1.6446
  255MPD2    H1 3868   3.967   0.421  10.388  0.5062 -1.0924 -1.4191
  255MPD2    H2 3869   3.597   0.532  10.219 -0.4810  0.7326  2.1251
  255MPD2    H3 3870   3.744   0.366  10.301  1.1742 -0.3636 -0.8191
  255MPD2     N 3871   4.079   0.673  10.386  0.1956  0.1984  0.9221
  255MPD2    H5 3872   4.108   0.768  10.366 -2.1369  0.4368 -1.2600
  255MPD2    N1 3873   3.642   0.782  10.197  0.0486 -0.1556  0.0015
  255MPD2    H7 3874   3.560   0.737  10.159  0.6465 -2.2569  1.1490
  256TMC3    C1 3875   3.527   0.967  10.140  0.3452  0.3218  0.4594
  256TMC3    C2 3876   3.504   1.048  10.035 -0.5154  1.1060  0.3221
  256TMC3    C3 3877   3.375   1.038   9.981 -0.2326 -0.1621  0.0131
  256TMC3    C4 3878   3.421   0.909  10.201  0.1460  0.9261 -0.5201
  256TMC3    C5 3879   3.305   0.885  10.143 -0.0746 -0.3028  0.3130
  256TMC3    C6 3880   3.279   0.949  10.028  0.4680 -0.5237  0.8221
  256TMC3     C 3881   3.656   0.912  10.172  0.5450 -0.3283 -0.0180
  256TMC3     O 3882   3.763   0.976  10.167  0.0922 -0.9944 -0.3592
  256TMC3     H 3883   3.587   1.095   9.983  0.0227 -0.1424  0.0681
  256TMC3    H1 3884   3.427   0.857  10.296  1.5531 -0.3150 -1.2980
  256TMC3    H2 3885   3.184   0.925   9.981  0.3501 -2.6077  2.0897
  256TMC3    C7 3886   3.280   0.744  10.133  0.5526 -0.3876  0.2975
  256TMC3    C8 3887   3.333   1.106   9.861 -0.6144 -0.9585  0.3121
  256TMC3    O1 3888   3.376   0.670  10.148  0.4320 -0.2736  0.3554
  256TMC3    O2 3889   3.230   1.068   9.812 -0.3573  0.4617  0.2037
  257MPD2     C 3890   3.132   3.016  13.322 -0.0638  0.1313 -0.1082
  257MPD2    C1 3891   3.149   2.918  13.230 -0.3759 -0.0595  0.1818
  257MPD2    C2 3892   3.165   2.785  13.271 -0.7394  0.3528  0.2681
  257MPD2    C3 3893   3.151   2.757  13.406  0.5859  0.3654  0.1060
  257MPD2    C4 3894   3.130   2.864  13.502  0.3852  0.4082  0.5923
  257MPD2    C5 3895   3.129   2.992  13.457  1.1454 -0.1005 -0.0611
  257MPD2     H 3896   3.182   2.711  13.194  2.9865  0.4228  1.0064
  257MPD2    H1 3897   3.123   2.843  13.608 -1.6129  1.8458  0.7569
  257MPD2    H2 3898   3.124   3.118  13.287 -0.1201 -0.6838 -2.4607
  257MPD2    H3 3899   3.118   3.071  13.530  2.0670  0.7062 -0.7877
  257MPD2     N 3900   3.153   2.618  13.434  0.7292  0.7314  0.0365
  257MPD2    H5 3901   3.164   2.548  13.362  1.1071 -0.4981  1.2955
  257MPD2    N1 3902   3.158   2.965  13.098 -0.4042 -0.0832  0.0912
  257MPD2    H7 3903   3.164   3.065  13.080  0.2715 -0.2441 -0.5685
  258TMC3    C1 3904   3.166   2.419  13.572 -0.2442 -0.3144 -0.0141
  258TMC3    C2 3905   3.222   2.337  13.481  0.3082 -0.4763  0.3895
  258TMC3    C3 3906   3.240   2.211  13.516 -0.1244 -0.0222 -0.0954
  258TMC3    C4 3907   3.134   2.374  13.697 -0.5288  0.6098  0.0740
  258TMC3    C5 3908   3.170   2.243  13.728  0.5470 -0.6561  0.0034
  258TMC3    C6 3909   3.223   2.157  13.638 -0.0249  0.3674  0.5285
  258TMC3     C 3910   3.143   2.561  13.557 -0.2428 -0.6160 -0.5327
  258TMC3     O 3911   3.133   2.621  13.660  0.1246  0.4753  0.2702
  258TMC3     H 3912   3.258   2.383  13.389 -0.0892  0.6841  0.8172
  258TMC3    H1 3913   3.072   2.425  13.771  0.1698  1.0145  0.3749
  258TMC3    H2 3914   3.213   2.050  13.647  1.5713  0.0177 -1.7591
  258TMC3    C7 3915   3.162   2.213  13.872 -0.4324 -0.3413  0.3611
  258TMC3    C8 3916   3.291   2.118  13.417 -0.4540 -0.4729 -0.3650
  258TMC3    O1 3917   3.079   2.266  13.946 -0.1608 -0.4192  0.9454
  258TMC3    O2 3918   3.372   2.032  13.451 -0.4000  0.7071 -0.1340
  259MPD2     C 3919   2.067   3.291   2.030 -0.1824 -0.3735 -0.4597
  259MPD2    C1 3920   2.069   3.424   2.008  0.5223  0.1821 -0.2603
  259MPD2    C2 3921   2.088   3.466   1.878  0.0140 -0.5995  0.4240
  259MPD2    C3 3922   2.111   3.377   1.769 -0.0243 -0.8523 -0.0069
  259MPD2    C4 3923   2.117   3.244   1.798  0.2841 -0.1780 -0.6056
  259MPD2    C5 3924   2.098   3.205   1.930  0.1488  0.1826 -0.4343
  259MPD2     H 3925   2.079   3.570   1.848  0.4977 -1.2688 -2.0914
  259MPD2    H1 3926   2.128   3.164   1.725  2.3143  0.1087 -0.6174
  259MPD2    H2 3927   2.059   3.248   2.130 -1.4227 -0.2986 -0.5246
  259MPD2    H3 3928   2.113   3.097   1.927 -0.7188  0.0788 -1.2533
  259MPD2     N 3929   2.126   3.440   1.641 -0.9113  0.9528 -0.8288
  259MPD2    H5 3930   2.106   3.539   1.637  1.7427  1.5156 -0.2990
  259MPD2    N1 3931   2.039   3.521   2.103 -0.5131 -0.5425 -0.0622
  259MPD2    H7 3932   1.999   3.499   2.194  4.0443 -0.0119  2.0888
  260TMC3    C1 3933   2.146   3.467   1.411  0.2153  0.1273 -0.6868
  260TMC3    C2 3934   2.209   3.593   1.424  0.5629 -0.3193  0.1685
  260TMC3    C3 3935   2.225   3.666   1.300 -0.1513 -0.2631  0.4414
  260TMC3    C4 3936   2.087   3.426   1.295 -0.5034 -1.1741  0.2087
  260TMC3    C5 3937   2.101   3.507   1.186 -0.4291 -0.1623  0.0908
  260TMC3    C6 3938   2.170   3.627   1.182  0.6621 -0.3452  0.1923
  260TMC3     C 3939   2.147   3.376   1.518  0.2759  0.0359 -0.4116
  260TMC3     O 3940   2.138   3.256   1.501 -0.2460 -0.2388  0.2332
  260TMC3     H 3941   2.273   3.612   1.509 -0.0177  1.7791  0.1328
  260TMC3    H1 3942   2.050   3.325   1.284  2.2348 -2.1207 -0.4819
  260TMC3    H2 3943   2.172   3.693   1.096  2.3953  0.1941  0.6471
  260TMC3    C7 3944   2.026   3.461   1.072  0.1382 -0.1242 -0.7718
  260TMC3    C8 3945   2.322   3.783   1.300 -0.1054  0.2229  0.5495
  260TMC3    O1 3946   1.944   3.372   1.100  0.2964  0.5772 -0.7023
  260TMC3    O2 3947   2.328   3.854   1.396 -0.3404 -0.2809  0.4720
  261MPD2     C 3948   3.808   2.843  11.891 -0.2657  0.6255 -0.2487
  261MPD2    C1 3949   3.882   2.905  11.988  0.7673  0.0983  0.0700
  261MPD2    C2 3950   3.892   3.038  11.978 -0.8155  0.8873 -0.3623
  261MPD2    C3 3951   3.838   3.113  11.871 -0.1370 -0.1307  0.2341
  261MPD2    C4 3952   3.753   3.052  11.783  0.1268  0.4374  0.0117
  261MPD2    C5 3953   3.750   2.917  11.793 -0.2537  0.4490 -0.2479
  261MPD2     H 3954   3.953   3.086  12.052 -1.7558  1.2181  0.1934
  261MPD2    H1 3955   3.701   3.095  11.699  0.3563 -1.1814 -0.9393
  261MPD2    H2 3956   3.792   2.736  11.891  1.7955  0.3293  0.5819
  261MPD2    H3 3957   3.683   2.856  11.735  0.4600 -0.2375 -0.3580
  261MPD2     N 3958   3.865   3.253  11.861 -0.2124  0.6627 -0.8895
  261MPD2    H5 3959   3.931   3.300  11.922  0.0027 -2.2750  1.1285
  261MPD2    N1 3960   3.952   2.841  12.090 -0.0891  0.6385  0.3216
  261MPD2    H7 3961   3.988   2.904  12.161 -0.4617  2.0827 -0.7979
  262TMC3    C1 3962   3.867   3.462  11.758  0.4626  0.2701  0.0249
  262TMC3    C2 3963   3.797   3.563  11.714  0.1091 -0.1874  0.1606
  262TMC3    C3 3964   3.850   3.684  11.677  1.3130 -0.0261 -0.6299
  262TMC3    C4 3965   3.999   3.483  11.779 -0.4556  0.0882 -0.0128
  262TMC3    C5 3966   4.059   3.598  11.736  0.4519  0.1970  0.0196
  262TMC3    C6 3967   3.989   3.700  11.687 -0.1549  0.4588  0.0108
  262TMC3     C 3968   3.804   3.334  11.771  0.2369 -0.3506  0.3604
  262TMC3     O 3969   3.714   3.312  11.689 -0.1793  0.4646  0.3455
  262TMC3     H 3970   3.692   3.539  11.696  0.3246  1.3353 -3.1350
  262TMC3    H1 3971   4.061   3.407  11.825 -0.2143 -0.5289 -1.3710
  262TMC3    H2 3972   4.031   3.799  11.676 -2.3744  1.2870 -1.0621
  262TMC3    C7 3973   4.197   3.621  11.751 -0.4193  0.3394 -0.9001
  262TMC3    C8 3974   3.760   3.798  11.657  0.5264 -0.3350 -0.9562
  262TMC3    O1 3975   4.235   3.545  11.840 -0.5618  0.7733 -0.0368
  262TMC3    O2 3976   3.795   3.890  11.591  0.7526 -0.4658 -0.1955
  263MPD2     C 3977   4.694   2.422  11.584 -0.0633  0.4086 -0.1477
  263MPD2    C1 3978   0.057   2.440  11.477 -0.4453  0.5030 -0.2008
  263MPD2    C2 3979   0.005   2.483  11.356 -0.4192  0.0697 -0.1795
  263MPD2    C3 3980   4.598   2.535  11.351  0.5695 -0.5077  0.6015
  263MPD2    C4 3981   4.515   2.522  11.460  0.6121  0.5276 -0.3718
  263MPD2    C5 3982   4.568   2.458  11.571  0.2717  0.8396 -0.6862
  263MPD2     H 3983   0.070   2.509  11.273  0.7559  0.2288  0.7822
  263MPD2    H1 3984   4.421   2.574  11.470 -0.4607 -1.1951 -1.4582
  263MPD2    H2 3985   4.717   2.364  11.673  0.5314  0.0723 -0.5191
  263MPD2    H3 3986   4.501   2.438  11.654  0.5207  2.1643 -0.1538
  263MPD2     N 3987   4.559   2.602  11.237  0.2007 -0.1762 -0.1129
  263MPD2    H5 3988   4.633   2.622  11.170  0.6631 -0.9860  0.1535
  263MPD2    N1 3989   0.183   2.391  11.502 -0.2488 -0.5453  0.1668
  263MPD2    H7 3990   0.191   2.341  11.590  1.9525 -1.5436 -0.6044
  264TMC3    C1 3991   4.446   2.738  11.092 -0.8681  0.0110 -0.6213
  264TMC3    C2 3992   4.389   2.862  11.092  0.7500  0.0308  1.1460
  264TMC3    C3 3993   4.398   2.941  10.979 -1.0013 -0.1444  0.0861
  264TMC3    C4 3994   4.491   2.676  10.977 -0.3531  0.8871  0.4389
  264TMC3    C5 3995   4.503   2.761  10.868  0.1359 -0.2465  0.6193
  264TMC3    C6 3996   4.452   2.888  10.862 -0.6164  0.0599 -0.3629
  264TMC3     C 3997   4.444   2.675  11.219  0.4703  0.0454  0.0435
  264TMC3     O 3998   4.353   2.706  11.293  0.3293 -0.3996 -0.2885
  264TMC3     H 3999   4.344   2.902  11.182 -0.6301 -2.3084  1.4788
  264TMC3    H1 4000   4.533   2.577  10.983 -2.5433  0.0125  1.2533
  264TMC3    H2 4001   4.458   2.941  10.768 -1.3809 -0.8190 -0.9119
  264TMC3    C7 4002   4.621   2.741  10.780  0.0969 -0.6335 -0.7151
  264TMC3    C8 4003   4.481   3.052  11.013  0.0740  0.2211 -0.5229
  264TMC3    O1 4004   4.650   2.626  10.751 -0.4452  0.1453  0.2523
  264TMC3    O2 4005   4.588   3.050  10.959  0.2049  0.4960 -0.1009
  265MPD2     C 4006   2.070   2.470  15.535  0.9901 -0.0685  0.5399
  265MPD2    C1 4007   2.162   2.564  15.492  0.5922 -0.3977  0.1145
  265MPD2    C2 4008   2.252   2.530  15.391 -0.4042  0.2032 -0.2050
  265MPD2    C3 4009   2.251   2.406  15.327 -0.5017  0.7195 -0.2457
  265MPD2    C4 4010   2.169   2.313  15.381 -0.0724  0.2204 -0.0481
  265MPD2    C5 4011   2.078   2.347  15.476  0.0173 -0.2453  0.9495
  265MPD2     H 4012   2.320   2.604  15.352 -0.7110  0.0745 -0.9759
  265MPD2    H1 4013   2.167   2.217  15.331  4.5708 -0.4274  1.0098
  265MPD2    H2 4014   2.002   2.474  15.620 -0.1115 -0.9022 -0.3044
  265MPD2    H3 4015   2.007   2.273  15.512  1.2178 -0.7934  2.2058
  265MPD2     N 4016   2.343   2.362  15.231  0.5771 -0.1972 -0.0988
  265MPD2    H5 4017   2.329   2.270  15.189 -2.0928  1.1112 -2.0989
  265MPD2    N1 4018   2.170   2.690  15.545  0.1311 -0.3368 -0.2921
  265MPD2    H7 4019   2.199   2.766  15.483 -0.6082 -0.1202 -0.3792
  266TMC3    C1 4020   2.131   2.871  15.707 -0.3181 -0.4856  0.7962
  266TMC3    C2 4021   2.139   2.910  15.840 -0.3380 -0.1191 -0.3836
  266TMC3    C3 4022   2.150   3.044  15.881 -0.4657 -0.3848 -0.1829
  266TMC3    C4 4023   2.114   2.974  15.614  0.1372 -0.4996  0.7787
  266TMC3    C5 4024   2.138   3.103  15.655 -0.6759  1.6782  0.6074
  266TMC3    C6 4025   2.156   3.145  15.787  0.3393  0.5130 -0.0405
  266TMC3     C 4026   2.132   2.723  15.673  0.5192  0.2501  0.0067
  266TMC3     O 4027   2.106   2.643  15.762  0.2133 -0.3013 -0.2933
  266TMC3     H 4028   2.138   2.834  15.917  0.7150  1.8459  1.5701
  266TMC3    H1 4029   2.120   2.956  15.507 -0.1028 -1.5052  0.9356
  266TMC3    H2 4030   2.164   3.249  15.818 -2.8212  1.0696 -1.0385
  266TMC3    C7 4031   2.154   3.209  15.556 -0.0957  0.8136  0.5690
  266TMC3    C8 4032   2.229   3.057  16.005  0.4815  0.3738 -0.1107
  266TMC3    O1 4033   2.090   3.201  15.452 -0.0901  0.1403  0.7671
  266TMC3    O2 4034   2.266   2.952  16.057  0.6148  0.3749 -0.7072
  267MPD2     C 4035   0.409   0.281   0.151  0.3153 -0.1068  0.3729
  267MPD2    C1 4036   0.350   0.155   0.172 -0.1606 -0.1987 -0.1604
  267MPD2    C2 4037   0.225   0.147   0.224 -0.2035  0.6028 -0.9946
  267MPD2    C3 4038   0.161   0.262   0.260 -0.2899 -0.4842  0.3003
  267MPD2    C4 4039   0.213   0.392   0.251 -0.0971  0.3454  1.1460
  267MPD2    C5 4040   0.338   0.396   0.187  0.5876  0.1544  0.8969
  267MPD2     H 4041   0.188   0.045   0.217  0.1083  0.2630  2.3126
  267MPD2    H1 4042   0.155   0.482   0.269  0.7250  1.5196 -2.1657
  267MPD2    H2 4043   0.507   0.295   0.107  0.1855 -1.0547 -0.2333
  267MPD2    H3 4044   0.384   0.495   0.187  1.1212 -0.0857  1.9922
  267MPD2     N 4045   0.029   0.257   0.309  0.3147 -0.2226 -0.2658
  267MPD2    H5 4046   4.718   0.349   0.334  0.9312 -0.3160  0.9336
  267MPD2    N1 4047   0.431   0.045   0.139  0.1138 -0.3221 -0.1814
  267MPD2    H7 4048   0.519   0.069   0.093  0.9011 -1.0824  0.9284
  268TMC3    C1 4049   0.476   4.536   0.093  0.3826  0.0701 -0.9645
  268TMC3    C2 4050   0.529   4.575  17.667  0.5108 -0.1326 -0.0064
  268TMC3    C3 4051   0.593   4.475  17.595  0.1689 -0.8469  0.0461
  268TMC3    C4 4052   0.451   4.405   0.120 -0.7164 -0.9401 -0.0594
  268TMC3    C5 4053   0.500   4.307   0.036  0.5898 -0.0845 -0.2852
  268TMC3    C6 4054   0.574   4.342  17.622  0.4496 -0.0381  0.2224
  268TMC3     C 4055   0.406   4.638   0.176 -0.5684 -0.1977  0.0580
  268TMC3     O 4056   0.314   4.601   0.250 -0.4036  0.0482 -0.3500
  268TMC3     H 4057   0.554   4.678  17.647  0.2693  0.1928  1.3497
  268TMC3    H1 4058   0.412   4.387   0.219 -0.7206  0.2764  0.1573
  268TMC3    H2 4059   0.639   4.274  17.569 -1.6888  0.4193 -2.9723
  268TMC3    C7 4060   0.489   4.167   0.071  0.4210 -0.2802 -0.6762
  268TMC3    C8 4061   0.687   4.515  17.490  0.0581  0.2156 -0.0737
  268TMC3    O1 4062   0.464   4.143   0.188  0.4608  0.5927  0.2583
  268TMC3    O2 4063   0.779   4.437  17.468  0.4933  0.1996  0.1077
  269MPD2     C 4064   0.043   2.986  15.468 -0.2562  0.1919  0.2493
  269MPD2    C1 4065   4.642   3.020  15.513  0.1466  0.1575  0.9986
  269MPD2    C2 4066   4.601   3.147  15.476  0.7935  0.5926 -0.1437
  269MPD2    C3 4067   4.677   3.228  15.395 -0.3202 -0.2052 -0.1685
  269MPD2    C4 4068   0.079   3.191  15.361 -0.4946  0.3559  0.0522
  269MPD2    C5 4069   0.121   3.071  15.400  0.3811 -0.1713 -0.0893
  269MPD2     H 4070   4.506   3.186  15.511  0.0694 -0.7295 -0.6750
  269MPD2    H1 4071   0.135   3.246  15.286 -0.8020  0.2609 -0.2517
  269MPD2    H2 4072   0.066   2.881  15.478 -0.8165  0.2094  1.7491
  269MPD2    H3 4073   0.217   3.033  15.366  0.6432  1.1586 -0.8040
  269MPD2     N 4074   4.619   3.355  15.363  0.0082  0.5821  0.3117
  269MPD2    H5 4075   4.529   3.368  15.407 -0.2104  0.3731 -0.0711
  269MPD2    N1 4076   4.567   2.917  15.565 -1.0624  0.6389 -0.3022
  269MPD2    H7 4077   4.605   2.823  15.569  1.8488  1.7793 -1.1630
  270TMC3    C1 4078   4.400   2.794  15.662 -0.1063 -0.2888  0.2389
  270TMC3    C2 4079   4.258   2.776  15.672  0.3200  0.0059  0.0558
  270TMC3    C3 4080   4.216   2.648  15.676  0.2636  0.0223 -0.0730
  270TMC3    C4 4081   4.487   2.689  15.661 -0.1335 -0.1038 -0.1878
  270TMC3    C5 4082   4.433   2.562  15.663  0.5661 -0.0638  0.8728
  270TMC3    C6 4083   4.300   2.540  15.676 -0.1132 -0.0507  0.4689
  270TMC3     C 4084   4.446   2.922  15.615 -0.4247 -0.0046  0.4306
  270TMC3     O 4085   4.367   3.020  15.610  0.3762 -0.1464 -0.2160
  270TMC3     H 4086   4.186   2.857  15.668 -2.0369 -2.0421  1.8008
  270TMC3    H1 4087   4.594   2.703  15.671 -0.2890  1.7685 -1.1452
  270TMC3    H2 4088   4.261   2.442  15.652 -0.6868  0.2168  0.3055
  270TMC3    C7 4089   4.521   2.451  15.659  0.0828 -0.1675  0.6260
  270TMC3    C8 4090   4.090   2.630  15.615  0.0302  0.6025 -0.3382
  270TMC3    O1 4091   4.631   2.473  15.614  0.7570 -0.1065  0.6689
  270TMC3    O2 4092   4.002   2.705  15.646  0.0463  0.3355  0.0733
  271MPD2     C 4093   3.576   3.054  14.012  0.9735 -0.3308 -0.1942
  271MPD2    C1 4094   3.488   2.981  14.080 -0.2884 -0.5128 -0.0045
  271MPD2    C2 4095   3.352   3.020  14.066  0.3119 -0.4389 -0.6553
  271MPD2    C3 4096   3.313   3.108  13.965 -0.0169 -0.9648 -0.0144
  271MPD2    C4 4097   3.409   3.173  13.894  0.3526 -0.2891 -0.7256
  271MPD2    C5 4098   3.537   3.147  13.916  0.2516  0.1672  0.7560
  271MPD2     H 4099   3.274   2.981  14.131  0.6572 -0.5574 -0.3114
  271MPD2    H1 4100   3.375   3.246  13.822  0.0550 -1.1006 -1.4104
  271MPD2    H2 4101   3.685   3.052  14.016  0.9508 -0.9350  0.2168
  271MPD2    H3 4102   3.611   3.193  13.852  1.8408  0.0708  2.5251
  271MPD2     N 4103   3.178   3.133  13.934  0.5760 -0.2064 -0.1454
  271MPD2    H5 4104   3.153   3.218  13.884  0.2005 -0.0339  0.3437
  271MPD2    N1 4105   3.518   2.873  14.168  0.1046  0.4261 -0.2661
  271MPD2    H7 4106   3.447   2.833  14.229 -0.8615  0.1358 -1.5939
  272TMC3    C1 4107   3.653   2.683  14.251  1.0267  0.6115  0.2910
  272TMC3    C2 4108   3.760   2.603  14.225 -0.4071 -0.3346  0.2142
  272TMC3    C3 4109   3.813   2.521  14.327 -0.3589 -0.1638  0.7559
  272TMC3    C4 4110   3.594   2.673  14.372 -0.0130  0.7768  0.5769
  272TMC3    C5 4111   3.649   2.602  14.472 -0.0681  0.4597 -0.6316
  272TMC3    C6 4112   3.759   2.521  14.459 -0.1003 -0.7399 -0.2358
  272TMC3     C 4113   3.646   2.806  14.168 -0.2257 -0.1964 -0.3608
  272TMC3     O 4114   3.746   2.823  14.095  0.5730 -0.1388 -0.5082
  272TMC3     H 4115   3.811   2.609  14.130  1.1888  0.1012  1.0955
  272TMC3    H1 4116   3.516   2.747  14.392  0.7839  1.7310  0.1343
  272TMC3    H2 4117   3.799   2.471  14.546  0.9925  1.0886  0.3238
  272TMC3    C7 4118   3.601   2.633  14.606  0.2716  0.7943 -0.3147
  272TMC3    C8 4119   3.949   2.466  14.314  0.2473  0.5102 -0.7141
  272TMC3    O1 4120   3.477   2.636  14.621  0.0725  0.0460 -0.0827
  272TMC3    O2 4121   4.023   2.528  14.241  0.2727 -0.4308 -0.1094
  273MPD2     C 4122   0.507   0.982  11.636 -0.2734  0.0700 -0.3243
  273MPD2    C1 4123   0.604   1.075  11.600 -0.1915  0.1032 -0.3589
  273MPD2    C2 4124   0.604   1.128  11.470 -0.4215  0.1833 -0.7890
  273MPD2    C3 4125   0.509   1.080  11.376  0.5815  0.0781  0.0104
  273MPD2    C4 4126   0.418   0.988  11.421 -0.2968  0.0218 -0.0919
  273MPD2    C5 4127   0.420   0.939  11.548  0.1622 -0.5489 -0.3227
  273MPD2     H 4128   0.667   1.212  11.442  0.3062  0.3233  1.2355
  273MPD2    H1 4129   0.351   0.950  11.346  0.8157  1.1849 -1.6892
  273MPD2    H2 4130   0.498   0.934  11.732 -1.4990  1.4899  0.2596
  273MPD2    H3 4131   0.353   0.857  11.570  0.9874 -1.0019  0.4713
  273MPD2     N 4132   0.502   1.121  11.242 -0.9407  0.5460 -0.8123
  273MPD2    H5 4133   0.432   1.073  11.186 -0.4421 -0.2726 -0.7320
  273MPD2    N1 4134   0.699   1.118  11.699 -0.0532  0.0469  0.0672
  273MPD2    H7 4135   0.686   1.070  11.787  0.2937 -0.0862  0.0483
  274TMC3    C1 4136   0.543   1.263  11.062  0.4003 -0.5955  0.2260
  274TMC3    C2 4137   0.412   1.253  11.022  0.5342  0.3350  0.1157
  274TMC3    C3 4138   0.364   1.350  10.934  0.0405 -0.2877  1.3158
  274TMC3    C4 4139   0.622   1.369  11.019  0.5978  0.0201  0.0153
  274TMC3    C5 4140   0.560   1.471  10.952  0.6677 -0.3867 -0.6903
  274TMC3    C6 4141   0.438   1.457  10.895 -0.3271  0.1505  0.1146
  274TMC3     C 4142   0.591   1.206  11.185  0.6697  0.7224 -0.1678
  274TMC3     O 4143   0.700   1.243  11.230 -0.1293 -0.0950  0.4915
  274TMC3     H 4144   0.348   1.174  11.057  1.0473 -0.1054  0.0588
  274TMC3    H1 4145   0.722   1.384  11.059  0.8829 -0.8215 -0.3754
  274TMC3    H2 4146   0.389   1.548  10.865  0.8663  1.6714  2.7684
  274TMC3    C7 4147   0.579   1.601  11.003  0.2385 -0.4403  0.9389
  274TMC3    C8 4148   0.219   1.369  10.929  0.1708 -0.3405 -0.0446
  274TMC3    O1 4149   0.485   1.676  11.018  0.0483  0.1530 -0.1706
  274TMC3    O2 4150   0.154   1.307  11.014 -0.0665  0.1015  0.5727
  275MPD2     C 4151   0.418   3.798  14.381  0.2343  0.5126 -0.2570
  275MPD2    C1 4152   0.377   3.752  14.501  0.6711 -0.2558  0.3050
  275MPD2    C2 4153   0.274   3.664  14.506  0.1710  0.1162 -0.6218
  275MPD2    C3 4154   0.208   3.625  14.391  0.3832  0.6352  0.7094
  275MPD2    C4 4155   0.262   3.662  14.266  0.5297  0.6465  0.4540
  275MPD2    C5 4156   0.376   3.739  14.268  0.1317  0.1214 -0.1148
  275MPD2     H 4157   0.239   3.637  14.605  0.4323 -0.5278 -0.7070
  275MPD2    H1 4158   0.219   3.611  14.180  1.2619  0.3876  0.2453
  275MPD2    H2 4159   0.504   3.865  14.378 -1.0226  2.1891  1.0922
  275MPD2    H3 4160   0.427   3.766  14.176 -0.1147 -0.2961 -0.3752
  275MPD2     N 4161   0.085   3.544  14.394  0.0306 -0.7690  0.2404
  275MPD2    H5 4162   0.055   3.497  14.309  0.3973 -1.5804  0.5629
  275MPD2    N1 4163   0.418   3.812  14.624 -0.7615 -0.1808  0.8501
  275MPD2    H7 4164   0.381   3.773  14.710 -0.6389  0.8970  1.3888
  276TMC3    C1 4165   0.484   3.975  14.765 -0.6684 -0.0907 -0.2520
  276TMC3    C2 4166   0.422   3.914  14.873  0.1054  0.3536 -0.6531
  276TMC3    C3 4167   0.418   3.984  14.995  0.4227  0.3775  0.7706
  276TMC3    C4 4168   0.544   4.098  14.784 -0.1673 -0.7781 -0.2421
  276TMC3    C5 4169   0.541   4.158  14.906  0.2512 -0.8897  0.0682
  276TMC3    C6 4170   0.468   4.111  15.012  0.1669  0.0096  0.4383
  276TMC3     C 4171   0.488   3.928  14.631  0.1141 -0.7861  0.7846
  276TMC3     O 4172   0.539   4.005  14.553  0.2068 -0.5584  0.2568
  276TMC3     H 4173   0.383   3.813  14.866  1.2145 -0.2081  1.1570
  276TMC3    H1 4174   0.592   4.149  14.702 -2.2080  2.2021  0.4038
  276TMC3    H2 4175   0.467   4.153  15.112  2.2102 -0.5498  0.6891
  276TMC3    C7 4176   0.664   4.218  14.949 -0.1191  0.0898  0.0162
  276TMC3    C8 4177   0.381   3.912  15.118 -0.5313  0.0237  0.0690
  276TMC3    O1 4178   0.678   4.283  15.051  0.0898  0.1959  0.7791
  276TMC3    O2 4179   0.345   3.988  15.209  0.0384  0.0088 -0.2554
  277MPD2     C 4180   2.412   2.469  13.247 -0.4641  0.2657  0.2287
  277MPD2    C1 4181   2.271   2.472  13.254 -0.1158 -1.4637 -0.1093
  277MPD2    C2 4182   2.211   2.439  13.377 -0.1615  0.5677 -0.1105
  277MPD2    C3 4183   2.287   2.407  13.486 -0.2013 -0.5198  0.2318
  277MPD2    C4 4184   2.425   2.420  13.481  0.4918  0.7157  0.4148
  277MPD2    C5 4185   2.487   2.453  13.360 -1.1051 -0.4303 -0.6003
  277MPD2     H 4186   2.102   2.439  13.374 -0.2257  1.1224  2.2471
  277MPD2    H1 4187   2.489   2.409  13.567  0.0731 -2.1517  0.3534
  277MPD2    H2 4188   2.467   2.480  13.155  0.0627 -0.9539  0.4036
  277MPD2    H3 4189   2.595   2.458  13.354 -0.8846 -2.8372  1.3491
  277MPD2     N 4190   2.207   2.404  13.606  0.1761 -0.2244 -0.3040
  277MPD2    H5 4191   2.107   2.396  13.590 -0.0822  2.5586  0.0291
  277MPD2    N1 4192   2.205   2.551  13.155  0.1166  0.7133 -0.1046
  277MPD2    H7 4193   2.264   2.590  13.082 -0.9476  2.8810  0.1950
  278TMC3    C1 4194   2.137   2.430  13.819 -0.3379 -0.0604 -0.0316
  278TMC3    C2 4195   2.112   2.322  13.886  1.2337 -0.1140  0.8550
  278TMC3    C3 4196   1.981   2.290  13.914  0.2810  0.0038 -0.4227
  278TMC3    C4 4197   2.040   2.511  13.773 -0.7010 -0.5809  0.5528
  278TMC3    C5 4198   1.912   2.477  13.795 -0.1719  0.3828 -0.6103
  278TMC3    C6 4199   1.879   2.371  13.867  0.1457  0.2514  0.3334
  278TMC3     C 4200   2.254   2.415  13.731  0.0950  0.1705 -0.2279
  278TMC3     O 4201   2.367   2.411  13.777  0.0164  0.4273  0.1396
  278TMC3     H 4202   2.189   2.249  13.910 -0.2027 -1.7677  0.4203
  278TMC3    H1 4203   2.064   2.588  13.701  0.0219 -1.5657 -0.2677
  278TMC3    H2 4204   1.777   2.350  13.897  0.8756 -0.8196  2.0641
  278TMC3    C7 4205   1.813   2.525  13.707 -0.9576 -0.2996  0.3501
  278TMC3    C8 4206   1.950   2.153  13.956 -1.0609 -0.0838 -0.1769
  278TMC3    O1 4207   1.857   2.548  13.598 -0.1330  0.5270 -0.2279
  278TMC3    O2 4208   2.036   2.105  14.026  0.0184  1.0502 -0.2893
  279MPD2     C 4209   2.037   2.991   0.199  0.6030  0.7345  0.2032
  279MPD2    C1 4210   1.935   2.915   0.147  0.2745 -0.7045 -0.4419
  279MPD2    C2 4211   1.929   2.902   0.003 -0.4883 -0.1118  0.1078
  279MPD2    C3 4212   2.015   2.972  17.623 -0.3262  0.3541 -0.1343
  279MPD2    C4 4213   2.111   3.048  17.676  0.0737  0.4081 -0.1384
  279MPD2    C5 4214   2.120   3.060   0.112  0.1117 -0.1740  0.1309
  279MPD2     H 4215   1.855   2.839  17.652  2.5563 -1.6546 -2.5923
  279MPD2    H1 4216   2.166   3.123  17.620  0.7822  0.5065  0.6829
  279MPD2    H2 4217   2.054   3.012   0.304 -0.1003  0.2647  0.4084
  279MPD2    H3 4218   2.196   3.119   0.161 -1.4025  1.7537  0.1352
  279MPD2     N 4219   2.005   2.981  17.481 -0.2154  0.0958 -0.4759
  279MPD2    H5 4220   2.068   3.044  17.433  1.8638 -1.3758  0.3141
  279MPD2    N1 4221   1.848   2.850   0.237  0.2384  0.0331 -0.7473
  279MPD2    H7 4222   1.858   2.878   0.334 -0.7374 -1.5703 -0.1864
  280TMC3    C1 4223   1.648   2.748   0.309  0.2264  0.5317  0.6200
  280TMC3    C2 4224   1.567   2.640   0.289  0.0232  0.0736 -0.8450
  280TMC3    C3 4225   1.430   2.659   0.286  0.0360 -0.1860 -0.0311
  280TMC3    C4 4226   1.589   2.867   0.346  0.1261  1.0811  0.4696
  280TMC3    C5 4227   1.456   2.881   0.349 -0.3010 -0.0800  0.0164
  280TMC3    C6 4228   1.372   2.775   0.319  0.1366 -0.2098  0.2008
  280TMC3     C 4229   1.745   2.764   0.202 -0.4011  0.0336  0.1234
  280TMC3     O 4230   1.724   2.712   0.090 -0.0434 -0.0638  0.1338
  280TMC3     H 4231   1.613   2.552   0.246  0.2246  0.9032 -2.3525
  280TMC3    H1 4232   1.648   2.951   0.382 -1.0327  1.7514  0.8250
  280TMC3    H2 4233   1.265   2.777   0.337 -0.0968  0.4177 -1.2047
  280TMC3    C7 4234   1.402   3.010   0.386 -0.1727 -0.3798 -0.1908
  280TMC3    C8 4235   1.341   2.549   0.297  0.0369 -0.0729  0.4148
  280TMC3    O1 4236   1.477   3.083   0.456  0.0260  0.1851 -0.0390
  280TMC3    O2 4237   1.225   2.554   0.256  0.3300 -0.1519 -0.1660
  281TMC3    C1 4238   0.168   3.539  13.175 -0.3389 -0.9290  0.0309
  281TMC3    C2 4239   0.284   3.548  13.104  0.2740 -0.5550  0.0388
  281TMC3    C3 4240   0.301   3.455  13.001 -0.3379  0.2416 -0.0181
  281TMC3    C4 4241   0.085   3.428  13.157 -0.0638  0.0581 -0.7193
  281TMC3    C5 4242   0.117   3.339  13.057 -0.2938  0.3977 -0.2313
  281TMC3    C6 4243   0.220   3.348  12.972 -0.6866  0.0668 -0.4305
  281TMC3     C 4244   0.105   3.654  13.233  0.4878 -0.6850  0.4929
  281TMC3     O 4245   4.711   3.644  13.266 -0.2924 -0.0056 -0.0514
  281TMC3     H 4246   0.354   3.630  13.116 -1.3835  1.0477 -0.9927
  281TMC3    H1 4247   4.714   3.415  13.207  0.2449 -0.4630 -0.2639
  281TMC3    H2 4248   0.250   3.277  12.896 -0.8751  1.2347 -1.6009
  281TMC3    C7 4249   0.039   3.226  13.044  0.0839 -0.0572 -0.4292
  281TMC3    C8 4250   0.377   3.509  12.885  0.6387 -0.3420 -0.6458
  281TMC3    O1 4251   0.019   3.179  12.930 -0.3130 -0.2721 -0.5779
  281TMC3    O2 4252   0.474   3.442  12.866 -0.8619 -0.5614  0.0960
  282MPD2     C 4253   2.264   4.334  15.021  0.1586  0.9225 -0.4578
  282MPD2    C1 4254   2.129   4.366  15.049 -0.2295 -0.1193 -0.3873
  282MPD2    C2 4255   2.034   4.369  14.945  0.0019 -0.7823  0.0229
  282MPD2    C3 4256   2.067   4.329  14.819 -0.6227 -0.2042  0.0332
  282MPD2    C4 4257   2.195   4.287  14.793  0.5188  0.2142  0.5517
  282MPD2    C5 4258   2.289   4.295  14.890  0.3319  0.2759  0.4394
  282MPD2     H 4259   1.933   4.393  14.974  0.1916 -2.6484  2.2808
  282MPD2    H1 4260   2.219   4.257  14.691 -0.6204 -1.4252  0.7689
  282MPD2    H2 4261   2.341   4.355  15.094 -0.8022  2.5529  0.0960
  282MPD2    H3 4262   2.389   4.267  14.857  0.2591  1.7795 -1.0460
  282MPD2     N 4263   1.972   4.349  14.718 -0.0535  0.0095 -0.4068
  282MPD2    H5 4264   1.894   4.411  14.737  1.5934  1.6712  0.9016
  282MPD2    N1 4265   2.079   4.405  15.173  0.1497  0.2704 -0.1938
  282MPD2    H7 4266   1.977   4.406  15.175  0.1220 -0.3588 -0.9265
  283TMC3    C1 4267   2.063   4.463  15.396  0.9026 -0.0324 -0.7082
  283TMC3    C2 4268   2.096   4.570  15.472 -0.0596 -0.0818  0.2514
  283TMC3    C3 4269   2.016   4.589  15.580  0.2931  0.6755  0.3337
  283TMC3    C4 4270   1.964   4.380  15.425 -0.0398 -0.2789 -1.0038
  283TMC3    C5 4271   1.891   4.406  15.535 -0.0776 -0.1959 -0.3416
  283TMC3    C6 4272   1.917   4.506  15.621 -0.3349 -0.0254 -0.0049
  283TMC3     C 4273   2.155   4.425  15.287  0.4444 -0.3588  0.0754
  283TMC3     O 4274   2.275   4.439  15.293  0.4356 -0.1339  0.3176
  283TMC3     H 4275   2.183   4.633  15.458  0.7730 -1.5481 -1.1316
  283TMC3    H1 4276   1.937   4.291  15.369 -1.7200  0.0434 -0.7114
  283TMC3    H2 4277   1.857   4.541  15.704 -2.2128 -0.3350 -1.2344
  283TMC3    C7 4278   1.773   4.328  15.582 -0.3688 -0.6254  0.5342
  283TMC3    C8 4279   2.037   4.708  15.655 -0.1554  0.0587  0.2422
  283TMC3    O1 4280   1.742   4.340  15.697  0.2231 -0.4415 -0.1371
  283TMC3    O2 4281   2.032   4.705  15.777  0.5975  0.6520 -0.1342
  284MPD2     C 4282   0.055   3.720  12.085 -0.3068 -0.4551 -0.1688
  284MPD2    C1 4283   0.101   3.837  12.042 -0.4056  0.8416 -0.2377
  284MPD2    C2 4284   0.237   3.869  12.038  0.0008 -0.2141  0.6061
  284MPD2    C3 4285   0.328   3.770  12.059  1.0016 -0.2736 -0.2910
  284MPD2    C4 4286   0.284   3.643  12.090  0.2275 -0.1913  0.6260
  284MPD2    C5 4287   0.151   3.619  12.107  0.7019  0.3032  0.5323
  284MPD2     H 4288   0.274   3.966  12.006 -1.0136 -0.5570 -1.5951
  284MPD2    H1 4289   0.356   3.564  12.106 -1.5786 -2.1760 -1.1331
  284MPD2    H2 4290   4.673   3.700  12.080 -0.3060 -0.4482 -0.2127
  284MPD2    H3 4291   0.111   3.520  12.131 -1.7266  0.7124 -1.7570
  284MPD2     N 4292   0.468   3.788  12.047 -0.8163 -0.6798  0.0553
  284MPD2    H5 4293   0.517   3.699  12.056 -0.9544 -0.9920 -2.2895
  284MPD2    N1 4294   4.720   3.920  11.994 -0.2016  0.2863  0.0445
  284MPD2    H7 4295   4.627   3.884  12.007  1.1485 -3.2878 -0.2808
  285TMC3    C1 4296   0.116   4.087  11.849  0.8577 -0.2754 -0.4541
  285TMC3    C2 4297   0.171   3.993  11.771  0.0161  0.5147 -0.1606
  285TMC3    C3 4298   0.297   4.003  11.731  0.7170 -0.9640  0.3691
  285TMC3    C4 4299   0.185   4.197  11.892 -0.5949  0.1627  0.1126
  285TMC3    C5 4300   0.313   4.206  11.854  0.1016  0.0096 -0.2335
  285TMC3    C6 4301   0.374   4.110  11.773 -0.1894  1.0179  0.1623
  285TMC3     C 4302   0.005   4.049  11.941 -0.6488  0.5749  0.7522
  285TMC3     O 4303   4.641   4.135  11.958  0.4498  0.4321  0.1330
  285TMC3     H 4304   0.108   3.911  11.739 -0.0874  1.2998 -1.9640
  285TMC3    H1 4305   0.146   4.262  11.969 -1.3037  1.5956 -1.4599
  285TMC3    H2 4306   0.479   4.123  11.747  0.0703 -1.1835  0.1105
  285TMC3    C7 4307   0.381   4.331  11.880  0.2266 -0.2195  0.4739
  285TMC3    C8 4308   0.363   3.884  11.682 -0.1079 -0.6556  0.0802
  285TMC3    O1 4309   0.319   4.435  11.883  0.5812  0.1735  0.0075
  285TMC3    O2 4310   0.316   3.773  11.699 -0.0023  0.6680  0.2842
  286MPD2     C 4311   0.667   2.271   0.501  0.5761 -0.4440 -0.3714
  286MPD2    C1 4312   0.617   2.300   0.634 -0.3180 -0.5046 -0.5019
  286MPD2    C2 4313   0.620   2.191   0.725 -0.3633  0.5256 -0.3860
  286MPD2    C3 4314   0.678   2.067   0.695 -0.3714  0.0858 -0.6337
  286MPD2    C4 4315   0.710   2.048   0.561  0.1891 -0.1454 -0.1818
  286MPD2    C5 4316   0.693   2.139   0.470 -0.6696 -0.2963 -0.0253
  286MPD2     H 4317   0.578   2.204   0.824 -0.3991  1.9112 -0.5900
  286MPD2    H1 4318   0.759   1.959   0.520 -2.0969 -1.9919  1.1131
  286MPD2    H2 4319   0.668   2.343   0.420  0.3603  0.2374  0.2242
  286MPD2    H3 4320   0.711   2.112   0.366  3.3720 -1.3850  0.9724
  286MPD2     N 4321   0.712   1.966   0.787 -0.0568 -0.1246  0.2792
  286MPD2    H5 4322   0.738   1.876   0.748  1.5475  0.6973 -0.5666
  286MPD2    N1 4323   0.575   2.428   0.684 -0.8737 -0.3406 -0.1859
  286MPD2    H7 4324   0.539   2.420   0.779  0.7074  0.0850  0.4448
  287TMC3    C1 4325   0.739   1.853   0.984  0.9538  0.6006 -0.1997
  287TMC3    C2 4326   0.747   1.745   0.900 -0.3742  0.8759  0.0981
  287TMC3    C3 4327   0.795   1.635   0.964  0.2673 -0.4777  0.2625
  287TMC3    C4 4328   0.767   1.856   1.115 -0.4588  0.4729 -0.2750
  287TMC3    C5 4329   0.810   1.743   1.177 -0.6129  0.3403 -0.8836
  287TMC3    C6 4330   0.827   1.632   1.103  0.1883  0.0253 -0.1910
  287TMC3     C 4331   0.696   1.980   0.920 -0.3977 -0.3184  0.0740
  287TMC3     O 4332   0.659   2.071   0.993  0.1505  0.2797 -0.4473
  287TMC3     H 4333   0.696   1.727   0.806 -2.2504  1.3957  1.0214
  287TMC3    H1 4334   0.752   1.944   1.176  0.2905  0.7366 -0.4720
  287TMC3    H2 4335   0.881   1.548   1.142 -1.9748  0.0892  2.9085
  287TMC3    C7 4336   0.884   1.769   1.295  0.3112 -0.9012  0.4647
  287TMC3    C8 4337   0.794   1.509   0.892 -0.6018  0.1662  0.7225
  287TMC3    O1 4338   0.872   1.881   1.345  0.5720  0.6292 -0.3044
  287TMC3    O2 4339   0.784   1.505   0.770  0.3539 -0.0062  0.3213
  288TMC3    C1 4340   2.110   1.967  14.483  0.1720  0.0955  0.3603
  288TMC3    C2 4341   2.016   1.938  14.581  0.0867  0.2898  0.1003
  288TMC3    C3 4342   2.043   1.984  14.703  0.1525  0.2940  0.0292
  288TMC3    C4 4343   2.227   2.036  14.501 -0.3310 -0.2171  0.0126
  288TMC3    C5 4344   2.236   2.093  14.626 -0.4663  0.7220 -0.0536
  288TMC3    C6 4345   2.153   2.066  14.728  0.4892  0.2898 -0.7801
  288TMC3     C 4346   2.095   1.878  14.371 -0.0289 -0.9952 -0.4286
  288TMC3     O 4347   2.013   1.780  14.378 -0.2693 -0.1288 -0.3165
  288TMC3     H 4348   1.924   1.895  14.543 -0.8798  2.9194 -0.5328
  288TMC3    H1 4349   2.297   2.066  14.423 -0.9319  3.7022  0.9585
  288TMC3    H2 4350   2.177   2.101  14.828  0.0049 -0.1328 -0.5124
  288TMC3    C7 4351   2.330   2.210  14.629  0.0811 -0.0096  0.8271
  288TMC3    C8 4352   1.977   1.940  14.821  0.7221  0.4666  0.8174
  288TMC3    O1 4353   2.386   2.247  14.523  0.2885 -0.3703  0.4913
  288TMC3    O2 4354   2.002   1.994  14.927  0.0454 -0.5428 -0.5369
  289MPD2     C 4355   2.335   1.042  14.274 -0.5259 -0.1186 -0.0423
  289MPD2    C1 4356   2.318   1.175  14.311  0.3007 -0.2955  0.3757
  289MPD2    C2 4357   2.188   1.219  14.315 -0.2483 -0.1999 -0.7119
  289MPD2    C3 4358   2.077   1.139  14.283 -0.3699  0.8237 -0.0768
  289MPD2    C4 4359   2.094   1.005  14.252 -0.1579 -0.1940  0.9171
  289MPD2    C5 4360   2.224   0.957  14.244 -0.0702 -1.0119  0.2375
  289MPD2     H 4361   2.176   1.323  14.342 -1.4556 -0.8026  1.1129
  289MPD2    H1 4362   2.008   0.943  14.228 -1.6372  1.9510  0.6331
  289MPD2    H2 4363   2.433   0.996  14.275 -0.6031 -0.2347  2.9484
  289MPD2    H3 4364   2.246   0.854  14.218  0.3571 -1.3763  2.0577
  289MPD2     N 4365   1.940   1.185  14.263 -0.1184 -0.0314 -0.9115
  289MPD2    H5 4366   1.880   1.117  14.217  0.3917 -0.0827 -1.5194
  289MPD2    N1 4367   2.425   1.268  14.321 -0.0608 -0.4096 -0.3697
  289MPD2    H7 4368   2.519   1.239  14.297 -0.8660 -0.7961 -3.0265
  290TMC3    C1 4369   1.761   1.332  14.255 -0.0076 -0.2123  0.1919
  290TMC3    C2 4370   1.725   1.457  14.209  0.2646  0.0394  0.2073
  290TMC3    C3 4371   1.609   1.478  14.148  0.4193 -1.0842  0.8126
  290TMC3    C4 4372   1.679   1.224  14.246 -0.1739 -0.3117 -0.4010
  290TMC3    C5 4373   1.557   1.246  14.187 -0.6282  0.1621 -0.2200
  290TMC3    C6 4374   1.522   1.373  14.142  0.2939 -0.1072  0.0216
  290TMC3     C 4375   1.906   1.318  14.267 -1.3295 -0.3877  0.3798
  290TMC3     O 4376   1.985   1.412  14.259 -0.0963 -0.3526  0.1423
  290TMC3     H 4377   1.802   1.534  14.214  0.4821 -0.3168  2.2378
  290TMC3    H1 4378   1.703   1.142  14.313 -1.2194 -1.2846 -1.2242
  290TMC3    H2 4379   1.426   1.379  14.093  0.2198  0.3084  0.2206
  290TMC3    C7 4380   1.452   1.162  14.243  0.4099  0.1295  0.2610
  290TMC3    C8 4381   1.548   1.612  14.120 -0.3840 -0.2651  0.2663
  290TMC3    O1 4382   1.348   1.224  14.264 -0.0509  0.8439 -0.2660
  290TMC3    O2 4383   1.458   1.626  14.039  0.4096 -0.3421 -0.1906
  291MPD2     C 4384   1.642   1.757   0.157 -0.3130  0.4526  0.2764
  291MPD2    C1 4385   1.674   1.642   0.228 -0.3393  0.7472  0.6657
  291MPD2    C2 4386   1.787   1.647   0.303 -1.0160  0.2423 -0.6384
  291MPD2    C3 4387   1.866   1.757   0.322  0.1704  0.0633 -0.2260
  291MPD2    C4 4388   1.829   1.874   0.255 -0.0198 -0.3912  0.0536
  291MPD2    C5 4389   1.725   1.865   0.171  0.5695  0.3903 -0.4293
  291MPD2     H 4390   1.813   1.554   0.352 -1.9902 -0.1253 -0.8131
  291MPD2    H1 4391   1.874   1.971   0.272  1.9016 -1.3910  0.6837
  291MPD2    H2 4392   1.548   1.763   0.104 -0.4899 -1.9208  0.2833
  291MPD2    H3 4393   1.702   1.949   0.107  2.2521 -0.3246 -1.9762
  291MPD2     N 4394   1.977   1.768   0.406  0.4853  0.1536  0.1581
  291MPD2    H5 4395   2.023   1.858   0.417  0.4526  0.4579 -2.1674
  291MPD2    N1 4396   1.594   1.518   0.237  0.4883  1.0193 -0.3277
  291MPD2    H7 4397   1.630   1.442   0.295  0.5816  0.6969 -0.8112
  292TMC3    C1 4398   1.425   1.361   0.215 -0.2677 -0.0484  0.4594
  292TMC3    C2 4399   1.455   1.314   0.346 -0.1904  0.7227 -0.8695
  292TMC3    C3 4400   1.435   1.185   0.373 -0.2599 -0.1969  0.4104
  292TMC3    C4 4401   1.404   1.267   0.117 -0.0160  0.3990  0.3974
  292TMC3    C5 4402   1.404   1.138   0.150 -1.2875 -0.0588  0.3209
  292TMC3    C6 4403   1.426   1.085   0.277  0.1721  0.2530 -0.6739
  292TMC3     C 4404   1.473   1.491   0.175 -0.6988  0.0951 -0.5100
  292TMC3     O 4405   1.413   1.556   0.089  0.1833  0.0738  0.7073
  292TMC3     H 4406   1.465   1.393   0.419  1.4546 -0.3381  0.0411
  292TMC3    H1 4407   1.403   1.308   0.017 -1.4631 -0.8295 -0.0902
  292TMC3    H2 4408   1.431   0.978   0.287 -0.9674  0.1539 -1.1853
  292TMC3    C7 4409   1.435   1.044   0.045  0.5561 -0.1086  0.6287
  292TMC3    C8 4410   1.419   1.157   0.511 -0.9131 -0.1786 -0.4393
  292TMC3    O1 4411   1.519   0.955   0.065 -0.7269  0.0357  0.6080
  292TMC3    O2 4412   1.379   1.249   0.582 -0.5078 -0.3718 -0.3383
  293MPD2     C 4413   3.606   2.858  12.622  0.3665 -0.4671 -0.3681
  293MPD2    C1 4414   3.508   2.777  12.666 -0.8204 -1.2206  0.6447
  293MPD2    C2 4415   3.473   2.773  12.801  0.1483 -0.9674  0.8999
  293MPD2    C3 4416   3.560   2.829  12.892  0.1969  0.4227 -0.4903
  293MPD2    C4 4417   3.668   2.910  12.840  0.5372  0.0625 -0.0871
  293MPD2    C5 4418   3.698   2.909  12.710  0.5939  0.8439 -0.2109
  293MPD2     H 4419   3.381   2.734  12.843 -1.2813 -1.1884 -2.3793
  293MPD2    H1 4420   3.737   2.965  12.903  0.2144 -1.2134  1.3820
  293MPD2    H2 4421   3.612   2.873  12.515 -1.0192  0.4819 -0.3084
  293MPD2    H3 4422   3.791   2.952  12.675  1.0372 -1.0566 -1.4092
  293MPD2     N 4423   3.530   2.819  13.031  0.3654 -0.0783  0.6530
  293MPD2    H5 4424   3.456   2.753  13.050  0.6167 -1.1381 -1.9921
  293MPD2    N1 4425   3.436   2.713  12.563 -0.5825 -0.2502  0.1924
  293MPD2    H7 4426   3.479   2.724  12.471 -1.0692  1.2023  0.1446
  294TMC3    C1 4427   3.262   2.621  12.457 -0.2089  0.3169 -0.2296
  294TMC3    C2 4428   3.127   2.599  12.459  0.2707 -0.0836  0.3460
  294TMC3    C3 4429   3.061   2.569  12.335 -0.5727  0.0372 -0.7505
  294TMC3    C4 4430   3.323   2.648  12.338  0.0617  0.1033 -0.0896
  294TMC3    C5 4431   3.255   2.629  12.222 -0.0065  0.2250  0.0604
  294TMC3    C6 4432   3.129   2.582  12.212 -0.2733 -0.4454  0.6891
  294TMC3     C 4433   3.320   2.653  12.583 -0.8786 -0.3523 -0.4853
  294TMC3     O 4434   3.252   2.642  12.683  0.4992  0.5635 -0.2745
  294TMC3     H 4435   3.074   2.603  12.554 -1.2113 -1.9679 -0.3888
  294TMC3    H1 4436   3.429   2.670  12.328 -0.4531  1.8117 -1.7687
  294TMC3    H2 4437   3.074   2.584  12.119  1.8660  4.2557 -0.5066
  294TMC3    C7 4438   3.325   2.655  12.097  0.3416  0.5011 -0.2185
  294TMC3    C8 4439   2.917   2.560  12.339 -0.0471 -0.8745  0.7826
  294TMC3    O1 4440   3.434   2.706  12.120  0.1305  0.2731 -0.1861
  294TMC3    O2 4441   2.877   2.546  12.455 -0.2272  0.0689 -0.2982
  295MPD2     C 4442   3.402   1.066  17.501  0.6599 -0.2909  0.4049
  295MPD2    C1 4443   3.483   1.105  17.618  0.6345 -0.5318  0.0828
  295MPD2    C2 4444   3.426   1.100   0.048 -0.3424  0.4981 -0.4410
  295MPD2    C3 4445   3.289   1.073   0.068  0.3983  0.1860  0.5908
  295MPD2    C4 4446   3.219   1.044  17.655 -0.1865  0.4529  0.3612
  295MPD2    C5 4447   3.267   1.037  17.529 -1.2379 -0.9980  0.1440
  295MPD2     H 4448   3.499   1.120   0.126  1.2830 -1.5128 -1.4472
  295MPD2    H1 4449   3.112   1.029  17.669 -0.2362  0.3122 -0.1662
  295MPD2    H2 4450   3.442   1.053  17.401  1.8013  1.7245  0.6055
  295MPD2    H3 4451   3.198   1.018  17.446  0.8650  0.8755 -2.0207
  295MPD2     N 4452   3.229   1.069   0.196 -0.4802 -0.1469 -0.0692
  295MPD2    H5 4453   3.129   1.083   0.195 -0.2724  1.2583 -1.4962
  295MPD2    N1 4454   3.618   1.128  17.611 -0.1178  0.3317 -0.8146
  295MPD2    H7 4455   3.664   1.141   0.004  0.7589 -2.4344 -0.8800
  296TMC3    C1 4456   3.224   1.122   0.429 -0.0738 -0.0926 -0.6276
  296TMC3    C2 4457   3.293   1.193   0.524  0.2492  0.1478 -0.0677
  296TMC3    C3 4458   3.231   1.255   0.631 -0.1932  0.9278 -0.4823
  296TMC3    C4 4459   3.082   1.102   0.437  0.1401  0.3885 -0.2223
  296TMC3    C5 4460   3.027   1.158   0.555  0.3823  0.0507 -0.2349
  296TMC3    C6 4461   3.097   1.233   0.646 -0.0677  0.4565 -0.5838
  296TMC3     C 4462   3.301   1.095   0.308  0.1511 -0.6286  0.1060
  296TMC3     O 4463   3.420   1.098   0.326  0.0693  0.3537  0.1339
  296TMC3     H 4464   3.399   1.211   0.515  0.0732  1.4136  0.3352
  296TMC3    H1 4465   3.018   1.049   0.368  0.4256 -0.2826  0.0295
  296TMC3    H2 4466   3.060   1.274   0.739 -3.4463 -2.5456 -0.6116
  296TMC3    C7 4467   2.920   1.095   0.617 -0.8172  0.5928 -0.4987
  296TMC3    C8 4468   3.301   1.255   0.764 -0.2491  0.2724  0.1967
  296TMC3    O1 4469   2.819   1.165   0.621 -0.4267  0.2370 -0.0061
  296TMC3    O2 4470   3.239   1.233   0.866  0.1026  0.0873  0.2805
  297MPD2     C 4471   1.308   3.609  16.400  0.3854  0.2460  0.5299
  297MPD2    C1 4472   1.317   3.628  16.261  0.2377 -0.3914  0.5681
  297MPD2    C2 4473   1.393   3.726  16.205  1.3411 -0.1418  0.0148
  297MPD2    C3 4474   1.447   3.821  16.285  0.1265  0.0279 -0.5434
  297MPD2    C4 4475   1.434   3.807  16.426 -0.0225  1.0263 -0.6450
  297MPD2    C5 4476   1.371   3.701  16.479  0.5408 -0.1310 -0.0689
  297MPD2     H 4477   1.404   3.738  16.098  2.8514  1.7704  0.3944
  297MPD2    H1 4478   1.452   3.882  16.502  2.5682 -1.2850  1.0320
  297MPD2    H2 4479   1.234   3.541  16.439  0.7183 -0.9053 -0.8516
  297MPD2    H3 4480   1.363   3.694  16.587 -0.5671 -1.2750 -0.2250
  297MPD2     N 4481   1.536   3.916  16.228  0.4413  1.0162  0.2087
  297MPD2    H5 4482   1.565   3.904  16.131 -1.2447 -0.1898 -0.1614
  297MPD2    N1 4483   1.247   3.547  16.176 -0.2255  0.1998  0.0857
  297MPD2    H7 4484   1.232   3.571  16.079 -0.0625 -0.6663 -0.1549
  298TMC3    C1 4485   1.126   3.351  16.116  0.5981 -0.2148  0.1298
  298TMC3    C2 4486   1.138   3.221  16.120 -0.3555  0.7468 -0.0957
  298TMC3    C3 4487   1.029   3.143  16.085 -0.1273  0.3926 -0.3354
  298TMC3    C4 4488   1.003   3.413  16.096 -0.0606 -0.1483 -0.5586
  298TMC3    C5 4489   0.893   3.332  16.091 -0.1644 -0.0492 -0.1969
  298TMC3    C6 4490   0.903   3.197  16.073  0.9890  0.0241 -0.0976
  298TMC3     C 4491   1.193   3.420  16.217 -0.7048 -0.2909 -0.4758
  298TMC3     O 4492   1.223   3.352  16.312 -0.5078  0.7200 -0.2551
  298TMC3     H 4493   1.234   3.188  16.158 -0.9137  0.9801  1.5535
  298TMC3    H1 4494   0.991   3.519  16.113  0.7445 -0.1702  0.1355
  298TMC3    H2 4495   0.812   3.139  16.067 -0.2532  1.7477  2.1222
  298TMC3    C7 4496   0.775   3.390  16.154  0.7881  0.3220  0.9902
  298TMC3    C8 4497   1.040   3.004  16.084  0.3225 -0.8937 -0.4898
  298TMC3    O1 4498   0.787   3.501  16.198  0.2294 -0.5809 -0.9637
  298TMC3    O2 4499   0.936   2.935  16.086  0.6141  0.7424 -0.0789
  299MPD2     C 4500   1.606   2.852  10.999 -0.0760 -0.2906  0.6264
  299MPD2    C1 4501   1.624   2.873  10.863  0.4380  0.4082  0.9483
  299MPD2    C2 4502   1.510   2.864  10.780 -0.3332  0.2749 -0.5518
  299MPD2    C3 4503   1.389   2.822  10.833  0.5827 -0.0827 -0.3058
  299MPD2    C4 4504   1.370   2.824  10.966  0.4131  0.1082 -0.6854
  299MPD2    C5 4505   1.481   2.833  11.049 -0.2764  0.4888 -0.2831
  299MPD2     H 4506   1.522   2.884  10.674 -2.2201  0.5834 -0.7096
  299MPD2    H1 4507   1.268   2.821  11.003  0.4970 -2.5589 -0.6266
  299MPD2    H2 4508   1.691   2.865  11.064  1.5189 -1.2654 -1.2440
  299MPD2    H3 4509   1.464   2.841  11.156  3.4935 -0.2933  0.3786
  299MPD2     N 4510   1.280   2.777  10.748 -0.1224  0.1080  0.6097
  299MPD2    H5 4511   1.189   2.757  10.788 -0.1447 -3.3345 -1.1853
  299MPD2    N1 4512   1.755   2.896  10.814  0.7553 -0.1907  0.3541
  299MPD2    H7 4513   1.825   2.893  10.887  1.3638 -0.4732 -0.2360
  300TMC3    C1 4514   1.169   2.713  10.549 -0.0641  0.0157  0.0406
  300TMC3    C2 4515   1.194   2.693  10.413 -0.3139 -0.4491  0.4179
  300TMC3    C3 4516   1.098   2.723  10.321  0.6402  0.4035 -0.2586
  300TMC3    C4 4517   1.052   2.761  10.594  0.3214  0.4173  0.2053
  300TMC3    C5 4518   0.964   2.797  10.506  0.1886  0.5114  0.0648
  300TMC3    C6 4519   0.985   2.782  10.371  0.0360 -0.0971  0.1973
  300TMC3     C 4520   1.292   2.744  10.617 -0.1674  0.0174  0.0403
  300TMC3     O 4521   1.391   2.752  10.546  0.1733 -0.0426  0.0569
  300TMC3     H 4522   1.290   2.664  10.373 -1.3374 -0.8989 -1.7655
  300TMC3    H1 4523   1.040   2.779  10.700  0.6562 -0.2688  0.3573
  300TMC3    H2 4524   0.906   2.824  10.310  1.2962 -1.1213 -2.1114
  300TMC3    C7 4525   0.833   2.813  10.552 -0.1548 -0.4055  0.0790
  300TMC3    C8 4526   1.149   2.768  10.188  0.7820  0.2441  0.4658
  300TMC3    O1 4527   0.749   2.773  10.477 -0.1128 -0.9061  0.0865
  300TMC3    O2 4528   1.265   2.743  10.154 -0.0528 -0.4178  0.1821
  301MPD2     C 4529   3.717   3.995   1.615  1.0262  0.4647  0.4321
  301MPD2    C1 4530   3.694   3.987   1.484 -0.4836  0.7453 -0.1011
  301MPD2    C2 4531   3.783   3.914   1.402  0.3668 -0.3446  0.0895
  301MPD2    C3 4532   3.891   3.843   1.459  0.0271 -0.2510 -0.7831
  301MPD2    C4 4533   3.914   3.847   1.594  0.6619 -0.7157  0.6574
  301MPD2    C5 4534   3.816   3.919   1.666 -0.3233 -0.3209  0.0285
  301MPD2     H 4535   3.771   3.917   1.295 -1.1745 -1.4580  0.2360
  301MPD2    H1 4536   3.987   3.787   1.647  0.4254 -1.4720  0.1344
  301MPD2    H2 4537   3.650   4.050   1.680  2.5771  1.0610  1.5085
  301MPD2    H3 4538   3.817   3.922   1.775  1.8201 -0.7175  0.0242
  301MPD2     N 4539   3.988   3.774   1.378  0.4644 -0.2795  0.0989
  301MPD2    H5 4540   4.070   3.735   1.423  0.4530  0.1489  0.5000
  301MPD2    N1 4541   3.589   4.059   1.425  0.5863 -0.5063  0.1621
  301MPD2    H7 4542   3.570   4.049   1.326  1.4573  1.7199 -0.2233
  302TMC3    C1 4543   4.061   3.650   1.184 -0.1460 -1.2241 -0.5695
  302TMC3    C2 4544   4.116   3.556   1.271  0.5154 -0.1574 -0.5020
  302TMC3    C3 4545   4.210   3.474   1.205  0.6662 -0.2395  0.3221
  302TMC3    C4 4546   4.083   3.661   1.050 -0.0880  0.0141  0.0283
  302TMC3    C5 4547   4.175   3.573   0.995 -0.6563  0.2793 -0.0048
  302TMC3    C6 4548   4.246   3.487   1.069 -0.3610 -0.5737  0.2390
  302TMC3     C 4549   3.975   3.759   1.240  0.8247 -0.8287  0.0593
  302TMC3     O 4550   3.918   3.823   1.153  0.5332  0.1370  0.5869
  302TMC3     H 4551   4.070   3.537   1.367  0.2937  1.2749 -0.3206
  302TMC3    H1 4552   4.031   3.738   0.994 -2.4764 -0.1913  1.9913
  302TMC3    H2 4553   4.324   3.425   1.026  1.5346  1.0518  1.3628
  302TMC3    C7 4554   4.179   3.550   0.851  0.5629 -0.3405  0.2232
  302TMC3    C8 4555   4.298   3.389   1.276  0.1981 -0.0531 -0.4095
  302TMC3    O1 4556   4.266   3.480   0.807 -0.2382 -0.4080  0.0684
  302TMC3    O2 4557   4.351   3.299   1.208  0.3030 -0.1373  0.1247
  303MPD2     C 4558   3.909   2.143   9.962 -0.4813 -0.8581  0.6041
  303MPD2    C1 4559   3.775   2.106   9.987  1.0752 -0.5784  0.5674
  303MPD2    C2 4560   3.690   2.099   9.876  0.1301  0.0323 -0.2715
  303MPD2    C3 4561   3.740   2.124   9.746  0.7145  1.1209  0.1370
  303MPD2    C4 4562   3.867   2.172   9.729  0.0229 -1.3333 -0.2923
  303MPD2    C5 4563   3.948   2.189   9.839  0.1247 -0.3355  0.4423
  303MPD2     H 4564   3.590   2.058   9.878 -0.3504  1.2192  0.1003
  303MPD2    H1 4565   3.905   2.195   9.631  1.8422  2.6879  1.3820
  303MPD2    H2 4566   3.973   2.159  10.048 -0.8245  0.2760  0.6499
  303MPD2    H3 4567   4.048   2.226   9.820  0.0153  1.3272  3.1932
  303MPD2     N 4568   3.666   2.115   9.629  0.0206  0.2761  0.0531
  303MPD2    H5 4569   3.718   2.128   9.542 -0.6831 -1.2464 -0.5941
  303MPD2    N1 4570   3.729   2.067  10.114  0.1974 -0.3049 -0.1020
  303MPD2    H7 4571   3.797   2.044  10.186  0.8254  0.2784 -0.5044
  304TMC3    C1 4572   3.583   2.029  10.293 -0.4557 -0.6475 -0.6941
  304TMC3    C2 4573   3.468   2.075  10.359  0.4986 -0.0706 -0.7171
  304TMC3    C3 4574   3.437   2.006  10.474 -0.2251  0.3536  0.2289
  304TMC3    C4 4575   3.651   1.924  10.337  0.3402  0.4048 -0.0022
  304TMC3    C5 4576   3.626   1.868  10.452  0.3393 -0.5326  0.7083
  304TMC3    C6 4577   3.519   1.906  10.523 -0.3026  0.1879 -0.9867
  304TMC3     C 4578   3.602   2.080  10.158 -0.0162  0.3847 -0.5038
  304TMC3     O 4579   3.503   2.117  10.096 -0.3070 -0.8455 -0.2279
  304TMC3     H 4580   3.405   2.150  10.312 -0.7224  1.1766  2.9222
  304TMC3    H1 4581   3.713   1.863  10.272 -1.2592 -0.4507 -0.7636
  304TMC3    H2 4582   3.506   1.860  10.620  0.9415  0.6278 -0.6116
  304TMC3    C7 4583   3.631   1.722  10.441  0.3679 -0.6538  0.0255
  304TMC3    C8 4584   3.298   1.975  10.496  0.1849  0.5984 -0.6794
  304TMC3    O1 4585   3.731   1.673  10.396 -0.2537 -0.8565 -0.1822
  304TMC3    O2 4586   3.274   1.863  10.537  0.1158  0.3163  0.1966
  305MPD2     C 4587   1.849   4.704  13.925 -0.5498  0.0109 -0.1881
  305MPD2    C1 4588   1.979   4.694  13.907 -0.6370  0.5390  0.9699
  305MPD2    C2 4589   2.027   4.656  13.779 -0.2197 -0.0193  0.0273
  305MPD2    C3 4590   1.942   4.645  13.675  0.0050  0.8207  0.2810
  305MPD2    C4 4591   1.812   4.686  13.691 -0.1111 -0.0308 -0.0458
  305MPD2    C5 4592   1.759   4.699  13.819  0.1725 -0.8032 -0.2184
  305MPD2     H 4593   2.131   4.631  13.757  0.4908  2.2069  0.8376
  305MPD2    H1 4594   1.746   4.715  13.611  0.6355 -0.7442 -0.9236
  305MPD2    H2 4595   1.820   4.722  14.028 -3.7439 -0.6393 -0.9820
  305MPD2    H3 4596   1.656   0.004  13.835 -0.2205 -1.0609 -2.2250
  305MPD2     N 4597   1.977   4.604  13.544  0.7524  0.4088 -0.1777
  305MPD2    H5 4598   1.903   4.592  13.475  3.4477 -2.1617 -2.6330
  305MPD2    N1 4599   2.056   4.691  14.027  0.5503 -0.4728 -0.3307
  305MPD2    H7 4600   2.010   4.702  14.117 -1.7068  2.2102 -1.7988
  306TMC3    C1 4601   2.250   4.635  14.146  0.0521  0.1170 -0.0754
  306TMC3    C2 4602   2.333   4.528  14.151 -0.1022  0.4796 -0.0633
  306TMC3    C3 4603   2.352   4.463  14.269 -0.0673 -1.2648  0.4248
  306TMC3    C4 4604   2.184   4.674  14.249 -0.1204 -0.3365  0.9085
  306TMC3    C5 4605   2.214   4.618  14.370  0.0732 -0.2214 -0.3332
  306TMC3    C6 4606   2.288   4.502  14.383  0.4727  0.1554 -0.0643
  306TMC3     C 4607   2.194   4.675  14.019 -0.3898 -0.3275 -0.2346
  306TMC3     O 4608   2.270   4.653  13.925  0.0080 -1.2909  0.1742
  306TMC3     H 4609   2.396   4.509  14.064  0.9464  3.7644 -0.0151
  306TMC3    H1 4610   2.103   0.022  14.240  1.4432  0.9205 -3.0236
  306TMC3    H2 4611   2.294   4.434  14.467  0.5966  1.0293  0.6302
  306TMC3    C7 4612   2.145   4.662  14.489  0.6000  0.7932 -0.7752
  306TMC3    C8 4613   2.416   4.337  14.260  0.5843  0.3518  0.0899
  306TMC3    O1 4614   2.027   4.694  14.471  0.2247 -0.2746  0.7725
  306TMC3    O2 4615   2.412   4.286  14.149 -0.0355  0.3869 -0.3569
  307MPD2     C 4616   0.176   1.760   0.711 -0.0327  0.0731 -1.0187
  307MPD2    C1 4617   0.153   1.897   0.705 -0.1349  0.8774 -0.2035
  307MPD2    C2 4618   0.067   1.951   0.797 -0.2531  0.8244 -0.6056
  307MPD2    C3 4619   4.720   1.860   0.886 -0.5123  0.4129 -0.7415
  307MPD2    C4 4620   0.021   1.727   0.891  0.3776  0.3905  0.3511
  307MPD2    C5 4621   0.118   1.679   0.805 -0.3382  0.1005 -0.0019
  307MPD2     H 4622   0.045   2.057   0.791 -1.0987  0.7311  0.6998
  307MPD2    H1 4623   4.698   1.656   0.958  1.3783  0.7080  1.3791
  307MPD2    H2 4624   0.234   1.708   0.636 -0.7916  0.4096 -1.8390
  307MPD2    H3 4625   0.120   1.571   0.791 -0.1585  0.2502 -1.1378
  307MPD2     N 4626   4.611   1.903   0.965 -0.1422 -0.6972  0.0578
  307MPD2    H5 4627   4.559   1.836   1.020 -0.5155  0.5944  1.2837
  307MPD2    N1 4628   0.210   1.987   0.611 -0.0303  0.0252 -0.1038
  307MPD2    H7 4629   0.178   2.083   0.618  0.5081  0.1675  0.3829
  308TMC3    C1 4630   4.230   2.069   1.009 -0.5021  0.5725 -0.6170
  308TMC3    C2 4631   4.214   2.170   1.102 -0.4875 -0.4445  0.2247
  308TMC3    C3 4632   4.326   2.224   1.152  0.2723 -0.0895 -0.3891
  308TMC3    C4 4633   4.352   2.012   0.979  0.8074 -1.0379 -1.1376
  308TMC3    C5 4634   4.460   2.063   1.044 -0.8618  0.2567 -0.2422
  308TMC3    C6 4635   4.448   2.174   1.118 -0.0972  0.0032 -0.1779
  308TMC3     C 4636   4.114   2.017   0.934 -0.3435  0.4763 -0.1395
  308TMC3     O 4637   4.107   1.897   0.908  0.3673  0.1413  0.5940
  308TMC3     H 4638   4.115   2.206   1.127  0.3193  0.0262  2.7308
  308TMC3    H1 4639   4.358   1.919   0.923  1.0494 -0.0703 -2.7206
  308TMC3    H2 4640   4.538   2.213   1.164 -0.1517 -1.0241  0.7698
  308TMC3    C7 4641   4.586   2.035   0.984 -0.2208 -0.1247  0.0132
  308TMC3    C8 4642   4.312   2.345   1.232 -0.3733  0.1939 -0.7301
  308TMC3    O1 4643   4.667   2.127   0.980  0.1866 -0.2668 -0.4555
  308TMC3    O2 4644   4.218   2.351   1.305 -0.5323 -0.3147 -0.9160
  309MPD2     C 4645   4.060   3.320  17.321  0.2774 -0.1923 -0.2424
  309MPD2    C1 4646   3.973   3.329  17.216  0.1827  0.3896 -0.5123
  309MPD2    C2 4647   3.835   3.322  17.242  0.4903  0.2580  0.2505
  309MPD2    C3 4648   3.789   3.319  17.373 -0.5197 -0.2891  0.0092
  309MPD2    C4 4649   3.878   3.307  17.483 -0.2033 -0.6646  0.4860
  309MPD2    C5 4650   4.009   3.312  17.449  0.4901 -0.1035  0.0528
  309MPD2     H 4651   3.766   3.335  17.160 -0.2738 -2.0052  0.5207
  309MPD2    H1 4652   3.843   3.283  17.583 -2.3152  0.8756  0.1233
  309MPD2    H2 4653   4.167   3.333  17.311  0.4057  0.9314  2.5432
  309MPD2    H3 4654   4.078   3.319  17.532  0.8273 -1.5016 -0.1119
  309MPD2     N 4655   3.656   3.312  17.407 -0.4783 -0.4287 -0.0310
  309MPD2    H5 4656   3.628   3.326  17.504 -0.2376  0.4599 -0.0919
  309MPD2    N1 4657   4.018   3.314  17.081 -0.3122 -0.1267  0.2081
  309MPD2    H7 4658   3.943   3.303  17.014  0.1118  4.3068 -1.0057
  310TMC3    C1 4659   4.179   3.310  16.900  0.0454 -0.3774  0.0663
  310TMC3    C2 4660   4.097   3.365  16.801 -0.3481 -0.6401  0.1757
  310TMC3    C3 4661   4.150   3.394  16.677 -0.1219 -0.1416 -0.2760
  310TMC3    C4 4662   4.305   3.255  16.855 -0.0269  0.7970  0.6212
  310TMC3    C5 4663   4.344   3.271  16.727 -0.1869 -0.0550  0.5684
  310TMC3    C6 4664   4.269   3.342  16.635  0.6628  0.8537  0.2966
  310TMC3     C 4665   4.157   3.321  17.038  0.1524  0.4319 -0.0200
  310TMC3     O 4666   4.260   3.315  17.105  0.4610  0.1808 -0.3648
  310TMC3     H 4667   4.007   3.417  16.832 -0.7367 -2.2168  1.6840
  310TMC3    H1 4668   4.364   3.199  16.927 -0.0093  0.4602  0.3425
  310TMC3    H2 4669   4.307   3.347  16.534  0.3578 -0.4037  0.1226
  310TMC3    C7 4670   4.431   3.167  16.668 -0.6931 -0.4912  0.1290
  310TMC3    C8 4671   4.076   3.480  16.585 -0.3511 -0.0749  0.4791
  310TMC3    O1 4672   4.401   3.121  16.556 -1.2050  0.6721  0.0915
  310TMC3    O2 4673   3.956   3.484  16.601  0.3402  0.1819 -0.4859
  311MPD2     C 4674   1.049   4.160  12.597  0.6802  0.5289  0.6150
  311MPD2    C1 4675   1.018   4.274  12.669  0.1113 -0.4202 -0.4753
  311MPD2    C2 4676   0.888   4.288  12.708 -0.2306  0.6158 -0.4591
  311MPD2    C3 4677   0.788   4.192  12.683 -0.4371  0.4578 -0.7007
  311MPD2    C4 4678   0.827   4.077  12.618  0.1402  1.5547 -0.0989
  311MPD2    C5 4679   0.955   4.067  12.576 -0.3112 -0.3440  0.5408
  311MPD2     H 4680   0.860   4.383  12.753 -0.0903  1.0748 -1.3357
  311MPD2    H1 4681   0.757   3.998  12.598  0.2994  1.7276 -1.3130
  311MPD2    H2 4682   1.147   4.137  12.556  0.5044  1.9969 -0.6492
  311MPD2    H3 4683   0.974   3.976  12.520  1.1073  0.5754 -0.4954
  311MPD2     N 4684   0.655   4.227  12.727  0.0637  0.0237  0.2189
  311MPD2    H5 4685   0.639   4.321  12.761  2.2594 -0.1962  1.8858
  311MPD2    N1 4686   1.119   4.373  12.703 -0.1894  0.5506 -0.0347
  311MPD2    H7 4687   1.085   4.455  12.752 -1.8856  0.9154 -1.8145
  312TMC3    C1 4688   0.423   4.217  12.753 -0.1802 -0.3859  0.7505
  312TMC3    C2 4689   0.310   4.198  12.679 -0.5096 -0.1101  0.1441
  312TMC3    C3 4690   0.202   4.272  12.718 -0.5690  0.3104  0.1596
  312TMC3    C4 4691   0.432   4.308  12.854 -0.3224  0.4843 -0.0165
  312TMC3    C5 4692   0.317   4.366  12.899  0.0712 -0.3353  0.1388
  312TMC3    C6 4693   0.203   4.356  12.826  0.2035 -0.6088  0.4628
  312TMC3     C 4694   0.545   4.147  12.706  0.4446 -0.3606 -0.1278
  312TMC3     O 4695   0.543   4.039  12.656  0.1527  0.1226 -0.1554
  312TMC3     H 4696   0.312   4.144  12.585 -2.3457  0.6381 -0.3079
  312TMC3    H1 4697   0.521   4.326  12.914  1.4089 -2.8872 -1.5890
  312TMC3    H2 4698   0.120   4.419  12.855 -0.1835 -1.4242  1.1476
  312TMC3    C7 4699   0.299   4.378  13.050 -0.1352  0.4864  0.2175
  312TMC3    C8 4700   0.066   4.254  12.656  0.0649  0.1206  0.3127
  312TMC3    O1 4701   0.191   4.434  13.073  0.8053  0.3338 -0.5061
  312TMC3    O2 4702   0.049   4.140  12.616  0.0064 -0.2768 -0.7509
  313MPD2     C 4703   1.256   3.667  10.654 -0.5561 -0.2312 -0.9403
  313MPD2    C1 4704   1.134   3.665  10.707 -0.0183 -0.6813 -0.3946
  313MPD2    C2 4705   1.056   3.553  10.699 -0.1086 -0.4353  0.2764
  313MPD2    C3 4706   1.090   3.457  10.608  0.7121 -0.3026  0.3084
  313MPD2    C4 4707   1.215   3.457  10.557 -0.3841 -0.1578  0.4772
  313MPD2    C5 4708   1.294   3.568  10.573 -0.1303 -0.8430  0.5928
  313MPD2     H 4709   0.956   3.552  10.740 -0.4515 -2.4134 -0.5935
  313MPD2    H1 4710   1.250   3.369  10.504  1.6004  1.7475 -1.3656
  313MPD2    H2 4711   1.314   3.756  10.671  0.1514 -0.8615 -0.0609
  313MPD2    H3 4712   1.394   3.573  10.533  0.0876  0.3189  1.2868
  313MPD2     N 4713   0.993   3.356  10.581 -0.1929 -0.0358  0.4866
  313MPD2    H5 4714   0.902   3.363  10.625  0.3255 -0.2233  1.5812
  313MPD2    N1 4715   1.072   3.770  10.781  0.3395 -0.0743 -0.3569
  313MPD2    H7 4716   0.981   3.744  10.818  0.1710 -0.4057 -1.0043
  314TMC3    C1 4717   1.018   3.990  10.851 -0.2551 -0.0122 -0.6690
  314TMC3    C2 4718   1.061   4.095  10.934  0.0524 -0.1304  0.2075
  314TMC3    C3 4719   0.952   4.165  10.992  0.2290  0.6751 -0.4299
  314TMC3    C4 4720   0.890   3.975  10.812  0.2801  0.1917  0.5355
  314TMC3    C5 4721   0.787   4.054  10.869  0.1772 -0.1123 -0.0685
  314TMC3    C6 4722   0.817   4.149  10.962  0.5368  1.0464  0.4172
  314TMC3     C 4723   1.119   3.900  10.801  0.4664 -0.0192 -0.4196
  314TMC3     O 4724   1.226   3.951  10.775  0.7297 -0.1584 -0.1001
  314TMC3     H 4725   1.165   4.106  10.961  0.4599  1.0547 -1.8557
  314TMC3    H1 4726   0.864   3.896  10.743  1.0037  0.1757  0.2792
  314TMC3    H2 4727   0.747   4.221  11.002 -0.4540  0.1375  0.3263
  314TMC3    C7 4728   0.669   4.078  10.783 -0.6651 -0.7858 -0.2382
  314TMC3    C8 4729   0.986   4.280  11.068  0.2377  0.0762 -0.0446
  314TMC3    O1 4730   0.571   4.127  10.834  0.1170  0.7300 -0.8035
  314TMC3    O2 4731   0.897   4.334  11.132  0.2859  0.0680  0.1158
  315MPD2     C 4732   0.431   2.812  17.518 -0.0233  0.2962 -0.3649
  315MPD2    C1 4733   0.516   2.836  17.624 -0.0251  0.2439  0.6262
  315MPD2    C2 4734   0.580   2.954  17.628  0.0210 -0.3422  0.0582
  315MPD2    C3 4735   0.557   3.056  17.538 -0.1489 -0.5033 -0.0787
  315MPD2    C4 4736   0.460   3.040  17.452  0.1384  0.5491 -0.0600
  315MPD2    C5 4737   0.401   2.916  17.444 -0.2239 -0.6691  0.1842
  315MPD2     H 4738   0.662   2.966   0.001  1.6641 -1.7951 -1.6231
  315MPD2    H1 4739   0.440   3.116  17.377 -0.7611 -1.0481 -1.4379
  315MPD2    H2 4740   0.376   2.721  17.499  1.8781 -0.7608 -0.8139
  315MPD2    H3 4741   0.329   2.905  17.365 -1.4448 -0.0803  1.2224
  315MPD2     N 4742   0.633   3.175  17.558 -0.2767  0.1970  0.4144
  315MPD2    H5 4743   0.711   3.163  17.621  0.0508 -2.0322 -0.4485
  315MPD2    N1 4744   0.551   2.740   0.026  0.0759  0.1367 -0.2769
  315MPD2    H7 4745   0.611   2.780   0.097 -2.3770  1.2391  1.1680
  316TMC3    C1 4746   0.716   3.395  17.515 -0.5432  0.3888  0.0415
  316TMC3    C2 4747   0.789   3.382  17.628 -0.5399 -0.7826  0.2357
  316TMC3    C3 4748   0.876   3.483  17.652  0.4472 -0.6355  0.8506
  316TMC3    C4 4749   0.734   3.494  17.421 -0.4421  0.4024  1.1616
  316TMC3    C5 4750   0.822   3.591  17.453 -0.4687 -0.4603 -0.3632
  316TMC3    C6 4751   0.879   3.599  17.580  0.4843 -0.3603  0.1862
  316TMC3     C 4752   0.622   3.294  17.484 -0.8757 -0.1773  0.4689
  316TMC3     O 4753   0.535   3.326  17.405  0.5521 -0.4357 -0.1244
  316TMC3     H 4754   0.775   3.308   0.008 -0.6950 -0.4298  0.5448
  316TMC3    H1 4755   0.676   3.493  17.330  2.3802  2.3343 -0.6232
  316TMC3    H2 4756   0.943   3.682  17.607  0.0659 -0.1345  0.4641
  316TMC3    C7 4757   0.828   3.710  17.370 -0.4383  0.1322 -0.6595
  316TMC3    C8 4758   0.964   3.482   0.074  0.0083  0.0235 -0.1169
  316TMC3    O1 4759   0.937   3.769  17.385  0.1401  1.0749  0.6994
  316TMC3    O2 4760   0.999   3.586   0.127 -0.4748 -0.7852  0.4765
  317MPD2     C 4761   1.984   1.790  13.423 -0.3589 -0.6402  0.4012
  317MPD2    C1 4762   1.984   1.712  13.309 -0.4362  0.0905  0.3112
  317MPD2    C2 4763   2.053   1.596  13.311 -0.4353 -0.6537  0.1946
  317MPD2    C3 4764   2.109   1.548  13.432  0.9574 -0.3622  0.1781
  317MPD2    C4 4765   2.093   1.623  13.551  0.5416 -0.5232  0.1061
  317MPD2    C5 4766   2.032   1.742  13.535 -0.2455 -0.3466 -0.5045
  317MPD2     H 4767   2.056   1.538  13.220  0.8802  0.1159 -0.2595
  317MPD2    H1 4768   2.129   1.599  13.650  1.6989 -1.7278 -0.6071
  317MPD2    H2 4769   1.917   1.874  13.436 -1.3347 -1.3017 -0.3520
  317MPD2    H3 4770   2.027   1.807  13.622 -3.0869 -0.8103 -0.2920
  317MPD2     N 4771   2.178   1.429  13.428 -0.2808 -0.2936 -0.5783
  317MPD2    H5 4772   2.183   1.382  13.338  1.6358  2.1638 -1.7377
  317MPD2    N1 4773   1.941   1.751  13.183  0.4779 -0.2802 -0.2904
  317MPD2    H7 4774   1.972   1.693  13.106  1.2021 -1.9898  1.2890
  318TMC3    C1 4775   2.320   1.256  13.485 -0.3067 -0.2716 -0.1388
  318TMC3    C2 4776   2.301   1.125  13.529 -0.0410  0.1819 -0.3044
  318TMC3    C3 4777   2.391   1.030  13.487 -0.1568  0.1110  0.5549
  318TMC3    C4 4778   2.442   1.300  13.433 -0.2615 -0.3365 -0.2707
  318TMC3    C5 4779   2.542   1.207  13.415 -0.5128  0.4421 -0.3130
  318TMC3    C6 4780   2.517   1.075  13.439  0.1448  0.3041 -0.0928
  318TMC3     C 4781   2.224   1.352  13.532  0.0495  0.0189 -0.5708
  318TMC3     O 4782   2.192   1.363  13.649  0.1976  0.1405  0.4257
  318TMC3     H 4783   2.210   1.094  13.578 -1.7132  1.0971 -2.8869
  318TMC3    H1 4784   2.467   1.404  13.415 -0.7572  0.3447  2.9441
  318TMC3    H2 4785   2.595   1.005  13.412  0.8912  1.6214 -1.3910
  318TMC3    C7 4786   2.656   1.246  13.342 -0.5186 -0.6674  0.1774
  318TMC3    C8 4787   2.361   0.889  13.464 -0.1988 -0.3269 -0.2136
  318TMC3    O1 4788   2.651   1.356  13.280 -0.7006  0.4056  0.7098
  318TMC3    O2 4789   2.462   0.823  13.462 -0.2456  0.0530 -0.1718
  319MPD2     C 4790   3.543   2.887  16.663  0.5759 -0.6024  0.7195
  319MPD2    C1 4791   3.456   2.851  16.763 -0.1300 -0.0378  0.7258
  319MPD2    C2 4792   3.338   2.791  16.728 -0.5030  0.2415 -0.5012
  319MPD2    C3 4793   3.306   2.773  16.594 -0.5481  0.0495  0.3031
  319MPD2    C4 4794   3.398   2.814  16.497 -0.4209 -0.5672 -0.0470
  319MPD2    C5 4795   3.513   2.868  16.538 -0.0248 -0.4800  0.6033
  319MPD2     H 4796   3.271   2.770  16.811  0.9928 -1.4854  0.2508
  319MPD2    H1 4797   3.390   2.806  16.389 -0.3269  2.4844 -0.2849
  319MPD2    H2 4798   3.633   2.946  16.681 -0.6126  1.6508 -0.7794
  319MPD2    H3 4799   3.579   2.908  16.462  0.3127 -1.9450  0.1234
  319MPD2     N 4800   3.173   2.738  16.547 -0.0015  0.0345 -0.1278
  319MPD2    H5 4801   3.158   2.729  16.447  1.8011 -0.8332 -0.3262
  319MPD2    N1 4802   3.471   2.877  16.900  0.6703  0.6029  0.1245
  319MPD2    H7 4803   3.388   2.865  16.957 -1.3849  2.5427 -2.4251
  320TMC3    C1 4804   2.936   2.714  16.545  0.1462  0.1789  0.1870
  320TMC3    C2 4805   2.930   2.754  16.419 -0.0625 -0.7771 -0.0546
  320TMC3    C3 4806   2.809   2.730  16.354 -0.1593 -0.2877 -0.4494
  320TMC3    C4 4807   2.827   2.669  16.619  0.7239  0.4216  0.1202
  320TMC3    C5 4808   2.708   2.651  16.548  0.0862 -0.4615 -1.1269
  320TMC3    C6 4809   2.702   2.674  16.415 -0.2670  0.8523 -0.2281
  320TMC3     C 4810   3.060   2.716  16.621 -0.5225  0.4188 -0.0409
  320TMC3     O 4811   3.046   2.693  16.738  0.1625  0.2688  0.0454
  320TMC3     H 4812   3.005   2.814  16.369  1.1751 -0.4504  2.1625
  320TMC3    H1 4813   2.835   2.680  16.727  0.9939 -0.7671  0.2275
  320TMC3    H2 4814   2.605   2.661  16.368  0.2346 -0.7123 -0.8184
  320TMC3    C7 4815   2.595   2.588  16.620 -0.4535 -0.5973  0.1541
  320TMC3    C8 4816   2.787   2.807  16.233 -0.7512  0.1668  0.2969
  320TMC3    O1 4817   2.589   2.604  16.739 -0.4694  0.2489 -0.0775
  320TMC3    O2 4818   2.859   2.903  16.225  0.0098 -0.1496  0.3769
  321TMC3    C1 4819   3.592   2.911  17.097  0.0773 -0.1254  0.2473
  321TMC3    C2 4820   3.517   2.824  17.169 -0.2648 -0.7692  0.4946
  321TMC3    C3 4821   3.532   2.823  17.309 -0.3333  0.2956  0.4566
  321TMC3    C4 4822   3.680   2.995  17.160  0.2561  0.1423  0.0542
  321TMC3    C5 4823   3.701   2.995  17.296  0.1907  0.1785 -0.1418
  321TMC3    C6 4824   3.621   2.913  17.375  0.2131 -0.2749 -0.3651
  321TMC3     C 4825   3.589   2.917  16.952 -0.4230  0.5281  0.0423
  321TMC3     O 4826   3.675   2.981  16.897 -0.1811  0.2235 -0.0348
  321TMC3     H 4827   3.436   2.767  17.125 -2.2894  1.2951  1.5264
  321TMC3    H1 4828   3.753   3.052  17.103  2.4551 -0.5751  2.1820
  321TMC3    H2 4829   3.628   2.903  17.483 -0.0260 -2.1457 -0.5199
  321TMC3    C7 4830   3.841   2.972  17.326 -0.4849 -0.2301 -0.3411
  321TMC3    C8 4831   3.530   2.688  17.374  0.1098  0.6618  0.2127
  321TMC3    O1 4832   3.914   2.937  17.234  0.5286 -1.0494 -0.5456
  321TMC3    O2 4833   3.584   2.671  17.479  0.2087  0.4205  0.1219
  322MPD2     C 4834   1.386   3.525  13.616 -0.2797  0.3199  0.2439
  322MPD2    C1 4835   1.474   3.492  13.713  0.2156  0.0226 -0.2842
  322MPD2    C2 4836   1.527   3.365  13.713 -0.2887 -0.0006  0.8037
  322MPD2    C3 4837   1.491   3.280  13.608 -0.2906 -0.6803 -0.0485
  322MPD2    C4 4838   1.399   3.314  13.512 -0.1641  0.4989  0.3312
  322MPD2    C5 4839   1.339   3.432  13.525 -0.1549  0.3268 -1.0183
  322MPD2     H 4840   1.609   3.335  13.777  0.0420 -1.4943 -0.3143
  322MPD2    H1 4841   1.367   3.241  13.439  1.3802  0.9530 -0.8029
  322MPD2    H2 4842   1.350   3.627  13.613 -0.4742  0.2967  1.6589
  322MPD2    H3 4843   1.266   3.460  13.450 -2.0880 -1.3395  0.2610
  322MPD2     N 4844   1.561   3.154  13.605 -0.0582  0.3420  0.2071
  322MPD2    H5 4845   1.636   3.151  13.673  1.6692 -0.3226 -1.7664
  322MPD2    N1 4846   1.519   3.590  13.807  0.4624  0.1670 -0.0472
  322MPD2    H7 4847   1.507   3.689  13.788  0.7459  0.0335 -0.9151
  323TMC3    C1 4848   1.649   3.662  13.993  0.4588 -0.5147  0.4828
  323TMC3    C2 4849   1.692   3.767  13.921  0.3198  0.3146  0.5580
  323TMC3    C3 4850   1.767   3.864  13.983  0.4305  0.2511 -0.8021
  323TMC3    C4 4851   1.707   3.637  14.113 -0.4412 -0.9149 -0.3257
  323TMC3    C5 4852   1.792   3.734  14.166 -0.3989 -0.1750 -0.3746
  323TMC3    C6 4853   1.819   3.850  14.104 -0.4249 -0.3400  0.2366
  323TMC3     C 4854   1.587   3.553  13.920 -0.4611  0.3561 -0.4756
  323TMC3     O 4855   1.595   3.443  13.972  0.0180  0.1278 -0.2241
  323TMC3     H 4856   1.669   3.770  13.815 -0.2067 -0.8578  0.6381
  323TMC3    H1 4857   1.682   3.549  14.172  2.7883 -1.9461 -0.4655
  323TMC3    H2 4858   1.878   3.930  14.150 -0.7089 -1.0160  1.7791
  323TMC3    C7 4859   1.887   3.687  14.267 -0.5329  0.0305 -0.0621
  323TMC3    C8 4860   1.831   3.969  13.896 -0.0919  0.0582  0.6757
  323TMC3    O1 4861   1.892   3.568  14.291 -0.2674 -0.0692  0.6864
  323TMC3    O2 4862   1.922   4.029  13.950  0.9815  0.3714 -0.6087
  324MPD2     C 4863   3.716   0.782  14.799 -0.3510  0.1950  0.0088
  324MPD2    C1 4864   3.744   0.834  14.677  0.8713 -0.2424  0.0368
  324MPD2    C2 4865   3.661   0.931  14.629 -0.0620  0.5650  0.1119
  324MPD2    C3 4866   3.539   0.955  14.689 -0.8213 -0.6886  0.5439
  324MPD2    C4 4867   3.508   0.896  14.815 -0.3307  0.4092 -0.1472
  324MPD2    C5 4868   3.603   0.817  14.877  0.8020 -0.9053  0.5164
  324MPD2     H 4869   3.679   0.978  14.533  1.6561  0.4024  0.3486
  324MPD2    H1 4870   3.418   0.926  14.868 -1.1003 -1.8607 -0.1603
  324MPD2    H2 4871   3.776   0.701  14.839  0.2048  1.1813  1.1707
  324MPD2    H3 4872   3.577   0.775  14.974  0.5191 -0.8048  0.4839
  324MPD2     N 4873   3.438   1.040  14.637 -0.5746 -0.2781 -0.2539
  324MPD2    H5 4874   3.356   1.049  14.696  0.9637 -2.0266  2.1428
  324MPD2    N1 4875   3.854   0.799  14.599 -0.5886 -0.1141  0.2720
  324MPD2    H7 4876   3.861   0.853  14.513 -0.0817 -1.1374 -0.3165
  325TMC3    C1 4877   3.308   1.155  14.467 -0.1890 -0.0979  0.0206
  325TMC3    C2 4878   3.255   1.108  14.348  0.4617 -0.3665  0.6718
  325TMC3    C3 4879   3.123   1.107  14.325 -0.6738  0.3518 -0.5434
  325TMC3    C4 4880   3.231   1.210  14.559 -0.1314 -0.3474 -0.0262
  325TMC3    C5 4881   3.097   1.205  14.540 -0.0819 -0.5286  0.3138
  325TMC3    C6 4882   3.042   1.162  14.424 -0.4530 -0.5641  0.8535
  325TMC3     C 4883   3.435   1.085  14.506 -0.0307 -0.6077 -0.4443
  325TMC3     O 4884   3.506   1.050  14.414  1.0135  0.1693 -0.2048
  325TMC3     H 4885   3.318   1.047  14.284  0.2490 -0.0813  0.1896
  325TMC3    H1 4886   3.271   1.226  14.658  0.8691  2.4887 -0.8765
  325TMC3    H2 4887   2.935   1.168  14.411 -0.2452  1.2422 -0.0003
  325TMC3    C7 4888   3.015   1.232  14.656  0.0160  0.1569  0.5449
  325TMC3    C8 4889   3.068   0.999  14.234 -0.2366 -0.1668  0.5486
  325TMC3    O1 4890   3.037   1.322  14.735  0.0077 -0.3010  0.3757
  325TMC3    O2 4891   3.150   0.925  14.186 -0.1022 -0.1922  0.2069
  326MPD2     C 4892   0.103   1.421  11.369 -0.1869  0.1057  0.2531
  326MPD2    C1 4893   0.010   1.517  11.342 -0.2830 -0.2859  0.1077
  326MPD2    C2 4894   0.057   1.609  11.255  0.9517  0.1540  0.4023
  326MPD2    C3 4895   0.187   1.613  11.205 -0.3868 -0.3099  0.6661
  326MPD2    C4 4896   0.278   1.517  11.244 -0.2400  1.0974 -0.5372
  326MPD2    C5 4897   0.233   1.423  11.334  0.0758 -0.4252 -0.0435
  326MPD2     H 4898   4.713   1.693  11.239 -1.2813 -1.6926  0.1064
  326MPD2    H1 4899   0.383   1.518  11.215  0.3445 -2.3451  1.5498
  326MPD2    H2 4900   0.078   1.335  11.429  0.7590 -1.1995 -1.2271
  326MPD2    H3 4901   0.304   1.348  11.370 -1.2126 -1.3934  0.4660
  326MPD2     N 4902   0.227   1.708  11.108 -0.3038  0.1548  0.4486
  326MPD2    H5 4903   0.328   1.710  11.097 -0.2170  0.9055  1.3202
  326MPD2    N1 4904   4.599   1.506  11.381 -0.2518  0.4294  0.1635
  326MPD2    H7 4905   4.554   1.415  11.393 -2.2556  1.4690  0.4891
  327TMC3    C1 4906   4.391   1.607  11.352 -0.2105 -0.0658 -0.2626
  327TMC3    C2 4907   4.317   1.726  11.366 -0.2682 -0.1257  0.6793
  327TMC3    C3 4908   4.217   1.755  11.272 -0.1217 -0.2946  0.7127
  327TMC3    C4 4909   4.366   1.525  11.241  0.6506 -0.5298 -0.5042
  327TMC3    C5 4910   4.277   1.566  11.150 -0.2968  0.0922 -0.2753
  327TMC3    C6 4911   4.201   1.674  11.165  0.0970 -0.4637 -0.2750
  327TMC3     C 4912   4.526   1.616  11.412  0.3755  0.6575 -0.0386
  327TMC3     O 4913   4.568   1.730  11.430  0.1606 -0.0594 -0.3423
  327TMC3     H 4914   4.320   1.784  11.457 -1.1698 -0.7861  1.1387
  327TMC3    H1 4915   4.425   1.436  11.223  2.2734 -0.2279  3.3891
  327TMC3    H2 4916   4.124   1.704  11.094  0.2905  0.1377 -0.2300
  327TMC3    C7 4917   4.309   1.529  11.012  0.4571 -0.0577 -0.4302
  327TMC3    C8 4918   4.144   1.875  11.287 -0.3269 -0.3655 -0.3400
  327TMC3    O1 4919   4.221   1.551  10.928  0.4021  0.1498  0.4355
  327TMC3    O2 4920   4.146   1.929  11.394  0.6187 -0.1872 -0.0863
  328MPD2     C 4921   2.030   0.854  17.464  0.2915 -0.0154  0.5140
  328MPD2    C1 4922   2.163   0.877  17.474  0.2485 -0.0481 -0.6353
  328MPD2    C2 4923   2.228   0.981  17.398  0.0998  0.0318  0.6417
  328MPD2    C3 4924   2.151   1.056  17.312 -0.3259 -0.0639  0.2397
  328MPD2    C4 4925   2.022   1.018  17.293  0.1119  0.3135  0.3257
  328MPD2    C5 4926   1.965   0.921  17.362 -0.1834 -0.4818  0.1614
  328MPD2     H 4927   2.333   1.003  17.416 -0.1135  1.1233  0.5732
  328MPD2    H1 4928   1.963   1.084  17.230  0.9926 -0.0765 -0.9032
  328MPD2    H2 4929   1.971   0.777  17.512  0.1150 -0.1321  0.1128
  328MPD2    H3 4930   1.860   0.899  17.344  0.1356 -2.1551  0.4205
  328MPD2     N 4931   2.190   1.163  17.239 -0.0177  0.7712  0.3861
  328MPD2    H5 4932   2.126   1.199  17.169 -0.2253  1.0088  0.7028
  328MPD2    N1 4933   2.223   0.797  17.575  0.7684 -0.1471  0.3064
  328MPD2    H7 4934   2.159   0.730  17.616  0.4565 -0.4414 -0.6482
  329TMC3    C1 4935   2.369   0.735   0.048  0.0173 -0.1671 -0.4716
  329TMC3    C2 4936   2.392   0.805   0.165  0.0013 -0.4897  0.6840
  329TMC3    C3 4937   2.389   0.736   0.282 -0.5621  0.0825  0.5192
  329TMC3    C4 4938   2.342   0.598   0.048 -0.9904 -0.6321 -0.0783
  329TMC3    C5 4939   2.357   0.536   0.169  0.4802 -0.2673  0.4512
  329TMC3    C6 4940   2.371   0.605   0.285  0.9736  0.0751 -0.3855
  329TMC3     C 4941   2.339   0.820  17.637  0.0688  0.0953  0.0026
  329TMC3     O 4942   2.426   0.893  17.591 -0.0020 -0.2064 -0.3318
  329TMC3     H 4943   2.405   0.913   0.163 -0.2541 -0.4684  0.0770
  329TMC3    H1 4944   2.311   0.548  17.654 -0.9746  1.3292 -1.1606
  329TMC3    H2 4945   2.368   0.552   0.379  0.5090 -0.7937 -0.8893
  329TMC3    C7 4946   2.279   0.414   0.184 -0.1232  0.0003 -0.4289
  329TMC3    C8 4947   2.400   0.799   0.412 -0.0724 -0.2025  0.6721
  329TMC3    O1 4948   2.215   0.397   0.289 -0.4566  0.4530 -0.0418
  329TMC3    O2 4949   2.416   0.726   0.508 -1.0561  0.1697 -0.5020
  330TMC3    C1 4950   0.008   0.887   9.809  0.3914 -0.2485  0.3412
  330TMC3    C2 4951   4.716   0.764   9.743  0.1315 -0.2927  0.3476
  330TMC3    C3 4952   0.085   0.667   9.782  0.0482 -0.2595  0.2148
  330TMC3    C4 4953   0.119   0.925   9.882 -0.2052  0.9078  0.2561
  330TMC3    C5 4954   0.216   0.831   9.909  0.1984 -0.2718  0.0106
  330TMC3    C6 4955   0.197   0.697   9.866 -0.3564  0.5668  0.2032
  330TMC3     C 4956   4.612   0.969   9.826 -0.2188  0.6540  0.0867
  330TMC3     O 4957   4.627   1.088   9.847 -0.4827  0.2310 -0.2856
  330TMC3     H 4958   4.633   0.731   9.680 -1.2996  2.2888  0.9058
  330TMC3    H1 4959   0.123   1.020   9.933  1.5569  0.7456  0.4159
  330TMC3    H2 4960   0.263   0.614   9.888  0.6168  1.0204 -0.9977
  330TMC3    C7 4961   0.335   0.872   9.979 -0.7517 -0.0720 -0.3169
  330TMC3    C8 4962   0.062   0.528   9.733 -0.1273  0.1044 -1.1096
  330TMC3    O1 4963   0.344   0.986  10.027 -0.6478 -0.9352  0.0077
  330TMC3    O2 4964   4.711   0.519   9.635 -0.5215  0.3269 -0.1057
  331MPD2     C 4965   2.894   4.653  12.903  0.5295  0.4973  0.0384
  331MPD2    C1 4966   2.960   4.696  12.790 -0.3757 -0.2649 -0.0848
  331MPD2    C2 4967   2.956   4.623  12.673 -0.5565 -0.4136 -0.3712
  331MPD2    C3 4968   2.877   4.510  12.668  0.3753  0.0440  0.2326
  331MPD2    C4 4969   2.817   4.459  12.783  1.0712 -0.5571  0.1757
  331MPD2    C5 4970   2.821   4.540  12.897 -0.4958  0.0525 -0.1886
  331MPD2     H 4971   3.004   4.669  12.588  0.7534 -2.9585 -0.9991
  331MPD2    H1 4972   2.755   4.370  12.783  0.2162  0.0462 -0.9434
  331MPD2    H2 4973   2.894   4.717  12.990  1.3817  2.3549 -1.3299
  331MPD2    H3 4974   2.761   4.507  12.981 -0.5788  1.0017  0.1200
  331MPD2     N 4975   2.865   4.443  12.543  0.0977  0.0472  0.4665
  331MPD2    H5 4976   2.923   4.469  12.464  0.5099 -2.5229 -0.0613
  331MPD2    N1 4977   3.032   0.091  12.806  0.0563 -0.6044  0.0258
  331MPD2    H7 4978   3.018   0.144  12.891  1.1095 -0.7272  0.2790
  332TMC3    C1 4979   2.848   4.250  12.401 -0.5010 -0.5320 -0.5074
  332TMC3    C2 4980   2.869   4.352  12.311 -0.2522 -0.3917  0.6161
  332TMC3    C3 4981   2.960   4.322  12.211 -0.0785  0.5301  0.2861
  332TMC3    C4 4982   2.911   4.129  12.403 -1.1705  0.7252 -0.3917
  332TMC3    C5 4983   3.007   4.110  12.302  0.2870 -0.2106 -0.0523
  332TMC3    C6 4984   3.031   4.205  12.208 -0.2189 -0.6310  0.1716
  332TMC3     C 4985   2.822   4.311  12.534 -0.0680 -0.3038 -0.1809
  332TMC3     O 4986   2.787   4.233  12.618  0.2740  0.8091  0.3858
  332TMC3     H 4987   2.821   4.449  12.317  2.8347  1.2500 -1.1883
  332TMC3    H1 4988   2.898   4.062  12.487  0.5405  0.0546 -0.6732
  332TMC3    H2 4989   3.104   4.183  12.131  0.3710 -2.4709  1.2616
  332TMC3    C7 4990   3.088   3.989  12.319 -0.3198  0.4122 -0.7357
  332TMC3    C8 4991   3.004   4.436  12.130  0.1710  0.2417 -0.0654
  332TMC3    O1 4992   3.045   3.891  12.379  0.5509 -0.5010 -0.2484
  332TMC3    O2 4993   3.110   4.427  12.069  0.0705 -0.6010 -0.7581
  333MPD2     C 4994   3.188   4.632  11.375 -0.7729 -0.1381  0.4246
  333MPD2    C1 4995   3.228   4.520  11.311 -0.0003 -0.5113  0.1344
  333MPD2    C2 4996   3.209   4.397  11.372  0.5709 -0.2358  0.3605
  333MPD2    C3 4997   3.138   4.394  11.495 -0.7469  0.0285 -0.3346
  333MPD2    C4 4998   3.095   4.511  11.551  0.5640  0.0593  0.8331
  333MPD2    C5 4999   3.122   4.628  11.495  1.1979 -0.3139 -0.4735
  333MPD2     H 5000   3.238   4.302  11.329  0.6947 -0.2687  0.5172
  333MPD2    H1 5001   3.047   4.518  11.648  1.2089  1.2271  1.0723
  333MPD2    H2 5002   3.204   0.006  11.330  0.7013 -0.2626  0.6773
  333MPD2    H3 5003   3.098   4.723  11.542  2.6150 -2.0440  3.6886
  333MPD2     N 5004   3.121   4.268  11.552  0.1257  0.6566 -0.1086
  333MPD2    H5 5005   3.158   4.194  11.494 -0.3771 -0.9505  1.6053
  333MPD2    N1 5006   3.312   4.549  11.201 -0.1357 -0.0756  0.5714
  333MPD2    H7 5007   3.313   4.644  11.166 -0.1225  0.2458  1.4442
  334TMC3    C1 5008   3.452   4.511  11.028 -0.6702 -0.2627  0.7404
  334TMC3    C2 5009   3.583   4.459  11.004 -0.3565  0.4640  0.7868
  334TMC3    C3 5010   3.656   4.528  10.912  0.3040 -0.2217 -0.3064
  334TMC3    C4 5011   3.401   4.623  10.973  0.0582  0.7629 -0.2849
  334TMC3    C5 5012   3.489   4.684  10.885  0.1386 -0.1316  0.2573
  334TMC3    C6 5013   3.612   4.644  10.855  0.8465  0.5852 -0.4215
  334TMC3     C 5014   3.387   4.452  11.138 -0.0769  0.7809  0.2245
  334TMC3     O 5015   3.406   4.332  11.161 -0.1984  0.7806 -0.1627
  334TMC3     H 5016   3.622   4.369  11.051  0.6522  0.0293 -0.8737
  334TMC3    H1 5017   3.302   4.665  10.979 -0.3627 -0.3355  0.3108
  334TMC3    H2 5018   3.679   4.693  10.785  0.1737  0.7500 -0.9528
  334TMC3    C7 5019   3.449   0.095  10.839  0.9049  0.2576 -0.0325
  334TMC3    C8 5020   3.792   4.486  10.882  0.6425 -0.0994 -0.1222
  334TMC3    O1 5021   3.461   0.189  10.915  0.2337  0.4387 -0.4279
  334TMC3    O2 5022   3.808   4.364  10.880  0.1139 -0.5110  0.1229
  335TMC3    C1 5023   3.107   1.374  17.486  0.1225  0.5817 -0.5019
  335TMC3    C2 5024   3.041   1.295  17.394 -0.1226  0.1634  0.2547
  335TMC3    C3 5025   3.096   1.263  17.276  0.1226  0.1315 -0.3100
  335TMC3    C4 5026   3.233   1.413  17.462  0.6965  0.4350  0.2357
  335TMC3    C5 5027   3.295   1.365  17.349 -0.4077  0.2154 -0.2333
  335TMC3    C6 5028   3.226   1.298  17.254  0.3502 -0.0577 -0.0663
  335TMC3     C 5029   3.045   1.401  17.615  0.1717  0.6820  1.1028
  335TMC3     O 5030   2.922   1.398  17.613  0.0868  0.5703  0.0010
  335TMC3     H 5031   2.939   1.264  17.412  0.5144 -3.3027 -2.1454
  335TMC3    H1 5032   3.279   1.485  17.529  0.3261 -0.0808  1.0450
  335TMC3    H2 5033   3.271   1.262  17.163  0.2536  1.0943 -0.5723
  335TMC3    C7 5034   3.436   1.402  17.325  0.0885 -0.1171 -0.4498
  335TMC3    C8 5035   3.048   1.140  17.217 -0.1886 -0.0454 -0.0145
  335TMC3    O1 5036   3.476   1.388  17.209 -0.3667  0.3355 -0.1934
  335TMC3    O2 5037   2.973   1.076  17.283 -0.4369  0.1878  0.2175
  336MPD2     C 5038   3.145   3.849  16.167  0.7221  0.0374  0.1189
  336MPD2    C1 5039   3.088   3.798  16.051 -0.4949 -0.1161 -1.2755
  336MPD2    C2 5040   3.082   3.656  16.044 -0.2032 -0.2824 -0.2711
  336MPD2    C3 5041   3.136   3.573  16.141 -0.4565 -0.1337  0.2476
  336MPD2    C4 5042   3.201   3.632  16.244 -0.1364  0.4718 -0.3036
  336MPD2    C5 5043   3.206   3.767  16.256 -0.4802  0.3601 -0.0192
  336MPD2     H 5044   3.017   3.612  15.970  1.5357 -1.9496 -0.7960
  336MPD2    H1 5045   3.269   3.585  16.314  1.5622  0.8857 -1.6834
  336MPD2    H2 5046   3.147   3.957  16.179  2.6278  0.0371 -0.2553
  336MPD2    H3 5047   3.249   3.817  16.342 -2.4939 -0.7148  1.6142
  336MPD2     N 5048   3.123   3.431  16.142  0.3788 -0.1400 -0.6943
  336MPD2    H5 5049   3.138   3.381  16.229  2.3335 -0.9398 -1.4920
  336MPD2    N1 5050   3.030   3.891  15.955 -0.5143 -0.5690  0.2758
  336MPD2    H7 5051   3.062   3.987  15.961  0.6453 -0.8935 -0.7570
  337TMC3    C1 5052   2.859   3.983  15.826  0.3040  0.7452  0.2516
  337TMC3    C2 5053   2.754   3.959  15.741 -0.3220 -0.1446 -0.6022
  337TMC3    C3 5054   2.663   4.062  15.718  0.6906  0.7753  0.6475
  337TMC3    C4 5055   2.895   4.104  15.878 -0.0575 -0.3207  0.5951
  337TMC3    C5 5056   2.808   4.205  15.844 -0.5537  0.0001  0.0176
  337TMC3    C6 5057   2.693   4.186  15.771  0.0752  0.0329  0.5978
  337TMC3     C 5058   2.917   3.867  15.880 -0.3012  0.2041 -0.1956
  337TMC3     O 5059   2.858   3.757  15.885  0.0210  0.0510  0.5554
  337TMC3     H 5060   2.742   3.857  15.704  1.3753 -0.4117 -0.4158
  337TMC3    H1 5061   2.981   4.124  15.942  1.0576  0.8305 -1.2922
  337TMC3    H2 5062   2.625   4.265  15.742  0.6028  0.4440  0.4772
  337TMC3    C7 5063   2.846   4.345  15.865 -0.9155 -0.5058 -0.5244
  337TMC3    C8 5064   2.541   4.052  15.631 -0.0024 -0.0615  0.2223
  337TMC3    O1 5065   2.760   4.429  15.850  0.1952 -0.8861 -0.2659
  337TMC3    O2 5066   2.544   3.967  15.541 -0.2814  0.1357  0.3190
  338MPD2     C 5067   3.303   2.958   1.018 -0.3494  0.5761 -0.2577
  338MPD2    C1 5068   3.281   2.836   0.954  0.5907  0.2165  0.4847
  338MPD2    C2 5069   3.160   2.777   0.968 -0.1676 -0.2601 -0.4418
  338MPD2    C3 5070   3.058   2.829   1.045  0.3952 -0.6519  0.1079
  338MPD2    C4 5071   3.080   2.952   1.103  0.1949  0.7571  0.1467
  338MPD2    C5 5072   3.199   3.012   1.087 -0.2941 -0.4213 -0.3262
  338MPD2     H 5073   3.145   2.678   0.925  2.5264 -0.8525  0.0240
  338MPD2    H1 5074   2.997   2.998   1.153 -0.5446  0.6690 -0.9874
  338MPD2    H2 5075   3.403   3.001   1.013 -1.7535  3.9659  0.7641
  338MPD2    H3 5076   3.218   3.108   1.134 -0.0402 -0.7399  0.2271
  338MPD2     N 5077   2.928   2.776   1.053  0.1651  0.1780  0.1752
  338MPD2    H5 5078   2.857   2.827   1.106  0.3566 -0.8156  1.3885
  338MPD2    N1 5079   3.373   2.768   0.868 -0.4233 -0.2557  0.7139
  338MPD2    H7 5080   3.357   2.670   0.848  2.4802 -0.6772  0.4958
  339TMC3    C1 5081   2.750   2.691   0.936 -0.3516 -0.5720  0.5210
  339TMC3    C2 5082   2.656   2.725   1.024  0.2028  0.3117  0.4498
  339TMC3    C3 5083   2.556   2.808   0.987 -0.4095  0.5802  0.7663
  339TMC3    C4 5084   2.759   2.738   0.814  0.5480 -0.0082 -0.6126
  339TMC3    C5 5085   2.664   2.832   0.773  0.2952  0.4439 -0.1988
  339TMC3    C6 5086   2.565   2.863   0.859 -0.3963 -0.6543  0.2868
  339TMC3     C 5087   2.881   2.664   0.983 -0.1365  0.7105 -0.8640
  339TMC3     O 5088   2.942   2.580   0.910  0.2829  0.5304 -0.2679
  339TMC3     H 5089   2.678   2.694   1.126 -0.7712  1.8050  1.1071
  339TMC3    H1 5090   2.847   2.719   0.754  1.6107  5.1842 -0.6878
  339TMC3    H2 5091   2.496   2.941   0.831  0.5802  0.0200 -0.2043
  339TMC3    C7 5092   2.722   2.957   0.718 -0.2402 -0.0772  0.7727
  339TMC3    C8 5093   2.431   2.821   1.056 -0.1000 -0.0101  0.9917
  339TMC3    O1 5094   2.656   3.060   0.711 -0.1819 -0.3765  0.6409
  339TMC3    O2 5095   2.357   2.912   1.025  0.2752 -0.2553 -0.1890
  340MPD2     C 5096   2.991   0.342  10.038 -0.4593 -0.1747  0.0817
  340MPD2    C1 5097   3.128   0.358  10.019 -0.2239 -0.1972  0.1783
  340MPD2    C2 5098   3.179   0.484  10.055  1.0106 -0.0043  0.3953
  340MPD2    C3 5099   3.099   0.590  10.095  0.4857 -0.5962 -0.4996
  340MPD2    C4 5100   2.966   0.565  10.099  0.3777  0.4267 -0.1414
  340MPD2    C5 5101   2.916   0.445  10.075  0.3739 -0.2004  0.1131
  340MPD2     H 5102   3.285   0.505  10.048  1.6103 -2.8889  0.6942
  340MPD2    H1 5103   2.901   0.648  10.124  0.9436  0.2787  1.8054
  340MPD2    H2 5104   2.947   0.244  10.026 -0.8896 -0.0394  0.5315
  340MPD2    H3 5105   2.811   0.420  10.086  0.5257 -0.5169  0.8119
  340MPD2     N 5106   3.146   0.717  10.117  0.1747  0.0496 -0.5010
  340MPD2    H5 5107   3.078   0.787  10.146 -0.0479  0.0944 -1.1286
  340MPD2    N1 5108   3.206   0.248   9.976  0.0948 -0.0939  0.0343
  340MPD2    H7 5109   3.146   0.169   9.953  0.9349 -1.2431  1.8337
  341TMC3    C1 5110   3.393   0.103   9.990  0.7615 -0.2515  0.6635
  341TMC3    C2 5111   3.310   0.002   9.953  0.3091 -0.5656 -0.1850
  341TMC3    C3 5112   3.307   4.614  10.021 -0.4885 -0.3700 -0.9385
  341TMC3    C4 5113   3.478   0.083  10.096  0.5982  0.7641  0.2532
  341TMC3    C5 5114   3.476   4.691  10.160  0.2258 -0.1274 -0.1358
  341TMC3    C6 5115   3.395   4.587  10.117 -0.6503  0.6043 -0.2454
  341TMC3     C 5116   3.344   0.238   9.984  0.4214 -0.0009 -0.4042
  341TMC3     O 5117   3.429   0.322  10.005  0.2287 -0.4911 -0.2813
  341TMC3     H 5118   3.237   0.014   9.874 -1.1011 -0.6268  1.1072
  341TMC3    H1 5119   3.540   0.164  10.132  1.4210  0.6198 -0.8480
  341TMC3    H2 5120   3.371   4.497  10.171 -0.7887  1.4927  1.1970
  341TMC3    C7 5121   3.587   4.662  10.254  0.1556 -0.1911  0.1604
  341TMC3    C8 5122   3.221   4.519   9.961 -0.3608 -0.2033 -0.6746
  341TMC3    O1 5123   3.691   0.004  10.252 -0.9265  0.6227 -0.0371
  341TMC3    O2 5124   3.108   4.556   9.938  0.3925  0.0163 -0.1488
  342MPD2     C 5125   1.739   4.286  17.506 -0.0174  0.4650 -1.4167
  342MPD2    C1 5126   1.701   4.343  17.389  0.3013  0.6375  0.9408
  342MPD2    C2 5127   1.676   4.478  17.390  0.8093 -0.4490 -0.7467
  342MPD2    C3 5128   1.708   4.559  17.496 -0.4926  0.1121  0.2663
  342MPD2    C4 5129   1.753   4.499  17.613  0.1653 -0.1793 -0.1927
  342MPD2    C5 5130   1.763   4.365  17.619  0.0622 -0.4256  0.5303
  342MPD2     H 5131   1.645   4.520  17.295  2.0486 -1.8627 -1.7708
  342MPD2    H1 5132   1.768   4.576  17.687  3.8290 -0.6350 -0.4310
  342MPD2    H2 5133   1.757   4.180  17.519  1.3759  0.9429  0.5417
  342MPD2    H3 5134   1.801   4.317   0.012  1.7413  1.6833  0.9201
  342MPD2     N 5135   1.693   4.698  17.498 -0.3758  0.0836 -0.2273
  342MPD2    H5 5136   1.729   0.022  17.580  0.3131  0.9118 -1.0014
  342MPD2    N1 5137   1.691   4.277  17.262  0.1202  0.0656 -0.2481
  342MPD2    H7 5138   1.679   4.340  17.184 -0.5330  0.5334  0.2336
  343TMC3    C1 5139   1.654   4.086  17.117  0.0324  0.8890 -0.3888
  343TMC3    C2 5140   1.760   4.097  17.034  0.0469  0.6365 -0.2293
  343TMC3    C3 5141   1.785   3.993  16.946 -1.1419  0.1115  0.0563
  343TMC3    C4 5142   1.573   3.971  17.105 -0.0843  0.1815  0.2989
  343TMC3    C5 5143   1.602   3.876  17.017  0.1918  0.6721 -0.4085
  343TMC3    C6 5144   1.712   3.881  16.943 -0.3394 -0.1654 -0.3527
  343TMC3     C 5145   1.666   4.137  17.250  0.3207 -0.8713 -0.0828
  343TMC3     O 5146   1.640   4.057  17.344  0.0028  0.2085 -0.1817
  343TMC3     H 5147   1.827   4.178  17.062  0.2942  0.6167 -0.7688
  343TMC3    H1 5148   1.489   3.961  17.172 -3.1648  0.2055 -3.5329
  343TMC3    H2 5149   1.738   3.791  16.889 -0.7402 -0.8208  0.5593
  343TMC3    C7 5150   1.564   3.740  17.055 -0.1388 -1.6007  0.0846
  343TMC3    C8 5151   1.922   3.970  16.927  0.1887 -1.4732  0.4474
  343TMC3    O1 5152   1.544   3.659  16.968  0.3771  0.6115  0.1293
  343TMC3    O2 5153   1.996   4.025  17.009 -0.3249 -0.2855 -0.3666
  344MPD2     C 5154   2.263   3.494  10.626  0.7057 -0.1599 -0.0338
  344MPD2    C1 5155   2.236   3.393  10.535  0.0235  0.0103 -0.6030
  344MPD2    C2 5156   2.252   3.419  10.398 -0.0808 -0.4684  0.9180
  344MPD2    C3 5157   2.305   3.545  10.356 -0.2215  0.2957 -0.3730
  344MPD2    C4 5158   2.347   3.632  10.457  0.3772 -0.5119 -0.3680
  344MPD2    C5 5159   2.324   3.612  10.587 -0.6543 -0.0082 -0.3748
  344MPD2     H 5160   2.214   3.342  10.332  0.3725  0.0013  0.1042
  344MPD2    H1 5161   2.398   3.722  10.424  1.1733 -0.2090  1.6856
  344MPD2    H2 5162   2.265   3.486  10.734 -0.8968 -3.4365 -0.2612
  344MPD2    H3 5163   2.341   3.690  10.660  1.2636 -0.7729 -0.0150
  344MPD2     N 5164   2.327   3.584  10.226 -0.0988 -0.2150  0.4190
  344MPD2    H5 5165   2.378   3.671  10.216  1.1201 -0.7663  1.9299
  344MPD2    N1 5166   2.180   3.269  10.580  0.6574 -0.1975  0.4660
  344MPD2    H7 5167   2.154   3.202  10.509 -0.7791  1.1575 -0.2995
  345TMC3    C1 5168   2.321   3.599   9.993  0.4298 -0.3949  0.4075
  345TMC3    C2 5169   2.442   3.665   9.995 -0.5460  0.4573  0.3129
  345TMC3    C3 5170   2.460   3.771   9.912  0.1069  0.1053  0.0051
  345TMC3    C4 5171   2.220   3.630   9.905 -0.3400 -0.1866 -0.1460
  345TMC3    C5 5172   2.243   3.739   9.818  0.4702  0.4991 -0.2478
  345TMC3    C6 5173   2.360   3.808   9.822  0.2293 -0.4219 -0.4944
  345TMC3     C 5174   2.271   3.529  10.109  0.3825  0.2231  0.5136
  345TMC3     O 5175   2.185   3.439  10.092  0.6751  0.4106  0.5322
  345TMC3     H 5176   2.515   3.628  10.065  1.0074  2.7420 -0.0973
  345TMC3    H1 5177   2.135   3.566   9.888  0.0651 -0.5461 -0.8422
  345TMC3    H2 5178   2.391   3.875   9.742  3.8684 -0.2779  1.0172
  345TMC3    C7 5179   2.144   3.766   9.720  0.7736  0.0550 -0.6902
  345TMC3    C8 5180   2.563   3.869   9.946  0.2150 -0.0589  0.4315
  345TMC3    O1 5181   2.086   3.675   9.666  0.1118 -0.1007  0.3242
  345TMC3    O2 5182   2.526   3.981   9.913 -0.1484 -0.1085 -0.2257
  346MPD2     C 5183   2.469   0.111  14.207  0.0748  0.2280 -0.5260
  346MPD2    C1 5184   2.434   0.246  14.196  0.6184  0.2780 -0.5030
  346MPD2    C2 5185   2.433   0.323  14.312 -0.2666 -0.3050 -0.1561
  346MPD2    C3 5186   2.469   0.270  14.435 -0.0848  0.0538 -0.1805
  346MPD2    C4 5187   2.502   0.137  14.444  0.1813 -0.5175  0.0216
  346MPD2    C5 5188   2.503   0.063  14.332  0.0532  0.0731  0.6781
  346MPD2     H 5189   2.399   0.426  14.303  0.0650 -0.3998 -2.4496
  346MPD2    H1 5190   2.525   0.091  14.539 -0.1778  1.0699  0.8808
  346MPD2    H2 5191   2.472   0.043  14.122  2.1891  0.3586 -0.5479
  346MPD2    H3 5192   2.518   4.682  14.352 -1.9504 -0.5913 -1.3577
  346MPD2     N 5193   2.465   0.353  14.550  0.5326  0.1924 -0.0062
  346MPD2    H5 5194   2.425   0.445  14.533 -1.3329 -0.8328 -1.1603
  346MPD2    N1 5195   2.406   0.306  14.069 -0.2791 -0.0442  0.5624
  346MPD2    H7 5196   2.378   0.404  14.067  0.6587  0.1965 -0.8397
  347TMC3    C1 5197   2.482   0.412  14.770  0.7512 -0.1915  0.0156
  347TMC3    C2 5198   2.519   0.539  14.721 -0.5704 -0.5182  0.5080
  347TMC3    C3 5199   2.531   0.638  14.826  0.1225 -0.7023 -0.6175
  347TMC3    C4 5200   2.470   0.385  14.900  0.9377 -0.6999 -0.2704
  347TMC3    C5 5201   2.482   0.486  14.992 -1.2697 -0.0837  0.3600
  347TMC3    C6 5202   2.513   0.608  14.955  0.2039  0.0698 -0.6109
  347TMC3     C 5203   2.497   0.310  14.679  0.6496  0.0092 -0.3664
  347TMC3     O 5204   2.549   0.204  14.719 -0.6496  0.3893  0.1723
  347TMC3     H 5205   2.550   0.564  14.620 -0.4339  0.5829  0.8165
  347TMC3    H1 5206   2.460   0.284  14.936  2.6204 -1.3128 -1.5640
  347TMC3    H2 5207   2.507   0.692  15.023  2.4950  1.2526 -1.8683
  347TMC3    C7 5208   2.455   0.461  15.133 -0.1906  0.6412  0.5113
  347TMC3    C8 5209   2.606   0.759  14.793 -0.1577 -0.3616  0.0319
  347TMC3    O1 5210   2.385   0.366  15.159  0.6435  0.1920  0.2699
  347TMC3    O2 5211   2.677   0.753  14.692 -0.0988  0.0321 -0.1662
  348MPD2     C 5212   1.140   0.539  12.106  0.0655 -0.7322 -1.1543
  348MPD2    C1 5213   1.228   0.542  11.997 -0.3560  0.2102  0.3811
  348MPD2    C2 5214   1.201   0.614  11.883 -0.6178  0.1196 -0.0802
  348MPD2    C3 5215   1.078   0.679  11.880 -0.0933 -0.0015 -0.5597
  348MPD2    C4 5216   0.989   0.680  11.988 -0.0531 -0.0198  0.2318
  348MPD2    C5 5217   1.029   0.615  12.107 -0.3390 -0.3533 -0.3351
  348MPD2     H 5218   1.259   0.616  11.791  1.8392 -1.2583  1.4234
  348MPD2    H1 5219   0.894   0.732  11.989 -0.0368 -0.0194  2.4094
  348MPD2    H2 5220   1.160   0.482  12.196  0.8439  1.8941  0.3257
  348MPD2    H3 5221   0.964   0.615  12.195  0.7392 -0.3309  0.4596
  348MPD2     N 5222   1.038   0.730  11.753  0.6787 -0.0824 -0.1532
  348MPD2    H5 5223   1.103   0.751  11.679  1.7351  0.5322  0.9548
  348MPD2    N1 5224   1.333   0.450  11.995 -0.6771 -0.0168 -0.1681
  348MPD2    H7 5225   1.387   0.454  11.909  0.5255 -1.1893  0.5343
  349TMC3    C1 5226   1.467   0.254  12.039  0.2228 -0.5399  0.3508
  349TMC3    C2 5227   1.469   0.142  12.109  0.5560 -0.1088  0.3247
  349TMC3    C3 5228   1.460   0.023  12.046  0.0536 -0.4106  0.6402
  349TMC3    C4 5229   1.485   0.243  11.902  0.1287  0.0965  0.4546
  349TMC3    C5 5230   1.488   0.125  11.828 -0.0448  0.1167  0.3964
  349TMC3    C6 5231   1.475   0.017  11.909 -0.3804 -0.7654 -0.1446
  349TMC3     C 5232   1.361   0.344  12.080 -0.0522 -0.7724 -0.2658
  349TMC3     O 5233   1.301   0.304  12.179 -0.2014 -0.3095 -0.4314
  349TMC3     H 5234   1.469   0.139  12.217  3.6538 -0.3837  0.3321
  349TMC3    H1 5235   1.483   0.336  11.846 -2.0211  0.6632  1.4574
  349TMC3    H2 5236   1.460   4.644  11.861 -1.4269 -0.5613 -0.2460
  349TMC3    C7 5237   1.388   0.131  11.721 -0.7796 -0.3238  0.6201
  349TMC3    C8 5238   1.471   4.619  12.128 -0.4553 -0.4365 -0.3842
  349TMC3    O1 5239   1.307   0.041  11.711  0.7202  0.1409 -0.4947
  349TMC3    O2 5240   1.416   4.615  12.235  0.1161  0.0132  0.1725
  350MPD2     C 5241   0.413   2.916   9.779 -0.5505 -0.4447 -0.3271
  350MPD2    C1 5242   0.352   2.879   9.897  0.4198  0.1050  0.3077
  350MPD2    C2 5243   0.407   2.937  10.013  0.3966 -0.2681  0.5216
  350MPD2    C3 5244   0.518   3.022  10.005 -0.8607 -0.3773  0.0737
  350MPD2    C4 5245   0.583   3.053   9.888 -0.6680  0.8779 -0.6455
  350MPD2    C5 5246   0.524   2.996   9.775  0.1605 -0.0880 -0.6302
  350MPD2     H 5247   0.368   2.913  10.111  0.5912 -0.8547  0.4601
  350MPD2    H1 5248   0.667   3.121   9.878  1.1825 -1.5149 -1.2518
  350MPD2    H2 5249   0.362   2.894   9.686 -0.1884 -0.6936 -0.4658
  350MPD2    H3 5250   0.563   3.022   9.677  0.7374 -0.4192 -0.4890
  350MPD2     N 5251   0.569   3.072  10.127  0.0994  0.1874  0.3613
  350MPD2    H5 5252   0.521   3.031  10.207 -0.0977  1.3964  0.8732
  350MPD2    N1 5253   0.250   2.778   9.911  0.1226 -0.0324  0.1807
  350MPD2    H7 5254   0.207   2.770  10.002 -1.7032  1.5491 -0.5521
  351TMC3    C1 5255   0.128   2.587   9.859 -0.2296 -0.0927 -1.0382
  351TMC3    C2 5256   0.133   2.464   9.793 -0.1672 -0.0266 -0.3254
  351TMC3    C3 5257   0.036   2.373   9.828 -0.6763  0.5841  0.4325
  351TMC3    C4 5258   0.023   2.627   9.941  0.3712  0.3577  0.3259
  351TMC3    C5 5259   4.649   2.535   9.952 -0.3977  0.0230 -0.5459
  351TMC3    C6 5260   4.648   2.411   9.891 -0.2676  0.0561  0.0783
  351TMC3     C 5261   0.218   2.685   9.812 -0.5855 -0.6893 -0.6666
  351TMC3     O 5262   0.288   2.661   9.714  0.3622 -0.2156 -0.0328
  351TMC3     H 5263   0.221   2.442   9.734  0.5995  1.1821  0.3732
  351TMC3    H1 5264   0.017   2.731   9.972  0.3360  0.2023  0.8345
  351TMC3    H2 5265   4.585   2.327   9.917  1.9091 -1.3141  0.9079
  351TMC3    C7 5266   4.533   2.574  10.035 -0.1336 -0.0308  0.1854
  351TMC3    C8 5267   0.043   2.246   9.770 -0.1396  0.2541  0.3380
  351TMC3    O1 5268   4.549   2.666  10.112  0.2440  0.0089 -0.4198
  351TMC3    O2 5269   4.668   2.184   9.742 -0.2609  0.2289 -0.5248
  352MPD2     C 5270   3.051   0.204   1.552  0.3136  0.5138  0.9133
  352MPD2    C1 5271   3.054   0.184   1.414 -0.5644 -0.4309 -0.1305
  352MPD2    C2 5272   3.124   0.066   1.378 -0.5520 -0.0763  0.2682
  352MPD2    C3 5273   3.181   4.710   1.470 -0.3891 -0.2118 -0.5785
  352MPD2    C4 5274   3.183   0.015   1.607  0.5951 -0.2093 -0.4462
  352MPD2    C5 5275   3.118   0.130   1.643 -0.4304 -0.2026 -0.2171
  352MPD2     H 5276   3.133   0.041   1.273 -0.5853  0.1861  0.2033
  352MPD2    H1 5277   3.217   4.678   1.690 -2.1901 -0.6459  0.3796
  352MPD2    H2 5278   3.003   0.296   1.584 -1.5321 -0.4564  0.9303
  352MPD2    H3 5279   3.110   0.158   1.748 -0.5275 -2.1502  0.2980
  352MPD2     N 5280   3.251   4.592   1.433  0.1399 -0.3975  0.2149
  352MPD2    H5 5281   3.288   4.534   1.507 -0.2076  2.3210  2.5181
  352MPD2    N1 5282   2.979   0.267   1.332  0.6292  0.0919  0.9100
  352MPD2    H7 5283   2.905   0.324   1.373 -2.2620 -1.3144 -2.3002
  353TMC3    C1 5284   3.308   4.394   1.305  0.1554  0.3071  0.3950
  353TMC3    C2 5285   3.369   4.330   1.412 -0.0528  0.5060  0.2040
  353TMC3    C3 5286   3.397   4.201   1.401  0.9868  0.1971  0.5784
  353TMC3    C4 5287   3.265   4.323   1.194  0.4650  0.3157  0.6139
  353TMC3    C5 5288   3.284   4.190   1.197 -0.0585  0.1416  0.1132
  353TMC3    C6 5289   3.359   4.126   1.294  0.1802 -0.5425 -0.1673
  353TMC3     C 5290   3.259   4.532   1.304 -0.5561 -0.2237 -0.1370
  353TMC3     O 5291   3.230   4.578   1.195  0.1176  0.2624 -0.0331
  353TMC3     H 5292   3.408   4.384   1.498  1.6171  2.4352 -1.7426
  353TMC3    H1 5293   3.225   4.370   1.105  1.9862 -1.3656 -0.9549
  353TMC3    H2 5294   3.366   4.018   1.298 -0.9827 -0.5442  1.8519
  353TMC3    C7 5295   3.285   4.133   1.068 -0.1079  0.1381  0.0923
  353TMC3    C8 5296   3.508   4.151   1.489 -0.8044  0.2009 -0.1365
  353TMC3    O1 5297   3.345   4.202   0.983  0.1745 -0.4421  0.2906
  353TMC3    O2 5298   3.510   4.199   1.602 -0.8431 -0.4773 -0.1835
  354TMC3    C1 5299   0.205   1.396  13.297  0.0994 -0.5073  0.8639
  354TMC3    C2 5300   0.123   1.482  13.230  0.6039  0.3327  0.0696
  354TMC3    C3 5301   0.162   1.525  13.109  0.6020 -0.1480  0.4967
  354TMC3    C4 5302   0.315   1.338  13.245  0.4149  0.3766  0.0428
  354TMC3    C5 5303   0.359   1.386  13.127  0.3045 -0.0218  0.8696
  354TMC3    C6 5304   0.288   1.487  13.061  0.0797 -0.5398  0.2143
  354TMC3     C 5305   0.181   1.372  13.436 -0.1342 -0.1071  0.6546
  354TMC3     O 5306   0.178   1.258  13.481  0.1950 -0.1034 -0.1968
  354TMC3     H 5307   0.029   1.515  13.273  0.7533 -0.5450  1.0781
  354TMC3    H1 5308   0.377   1.279  13.312 -0.9350  1.2980  2.0982
  354TMC3    H2 5309   0.322   1.529  12.967 -1.6212  0.4605  0.0455
  354TMC3    C7 5310   0.495   1.346  13.083 -0.5236 -0.7042 -0.2850
  354TMC3    C8 5311   0.071   1.609  13.029 -0.0837 -0.1466 -0.0617
  354TMC3    O1 5312   0.529   1.237  13.131 -0.4458 -0.5529 -0.0367
  354TMC3    O2 5313   0.121   1.660  12.931  0.2936  0.1915 -0.1463
  355MPD2     C 5314   0.395   2.533  11.929 -1.0077 -0.1100  0.0681
  355MPD2    C1 5315   0.499   2.498  11.852 -0.4521 -0.3219 -0.9608
  355MPD2    C2 5316   0.587   2.397  11.897  0.2091 -0.3292 -0.2902
  355MPD2    C3 5317   0.567   2.336  12.017 -0.6769 -0.4622 -0.5154
  355MPD2    C4 5318   0.449   2.358  12.084  0.4885 -0.4506  0.2148
  355MPD2    C5 5319   0.377   2.470  12.050 -0.0113  0.3045 -0.2523
  355MPD2     H 5320   0.673   2.371  11.837  1.1899 -0.0488  0.9777
  355MPD2    H1 5321   0.418   2.296  12.167  1.3832  0.3879  1.1723
  355MPD2    H2 5322   0.341   2.625  11.908  0.4351  0.9456  1.0364
  355MPD2    H3 5323   0.289   2.490  12.111  0.8890 -2.3029  1.8641
  355MPD2     N 5324   0.660   2.249  12.072 -0.1089  0.2007  0.7642
  355MPD2    H5 5325   0.619   2.171  12.123  0.4761 -1.1333 -0.7779
  355MPD2    N1 5326   0.528   2.577  11.739 -0.7129 -0.3760  0.1075
  355MPD2    H7 5327   0.479   2.664  11.721 -1.1003 -0.5946  0.1216
  356TMC3    C1 5328   0.849   2.391  12.038 -0.2267  0.8620 -0.3795
  356TMC3    C2 5329   0.910   2.416  11.922 -0.7660  0.0158 -0.9119
  356TMC3    C3 5330   0.944   2.544  11.895  0.5981  0.1997 -0.1600
  356TMC3    C4 5331   0.851   2.485  12.133 -0.7861 -0.4730  0.3088
  356TMC3    C5 5332   0.887   2.615  12.110  0.5251 -0.1059 -0.4043
  356TMC3    C6 5333   0.933   2.648  11.987 -1.2718  0.7164 -0.3446
  356TMC3     C 5334   0.800   2.263  12.072 -0.7124 -0.4903 -0.1175
  356TMC3     O 5335   0.886   2.195  12.133 -0.0669  0.6674  0.2989
  356TMC3     H 5336   0.912   2.338  11.846 -1.6645  0.2112 -1.1442
  356TMC3    H1 5337   0.818   2.451  12.231 -0.7360 -0.8845  0.1833
  356TMC3    H2 5338   0.949   2.748  11.949 -2.4911  0.4858 -1.4571
  356TMC3    C7 5339   0.842   2.716  12.211  0.4471 -0.0288 -0.1569
  356TMC3    C8 5340   0.965   2.581  11.751 -0.3618 -0.6679  0.0524
  356TMC3    O1 5341   0.760   2.680  12.293  0.5066  0.2936 -0.4028
  356TMC3    O2 5342   0.906   2.513  11.666  0.0219  0.2022 -0.0132
  357MPD2     C 5343   0.407   1.772   0.943  0.1066  0.3199  0.0287
  357MPD2    C1 5344   0.373   1.638   0.973 -0.5382  0.0944 -0.1127
  357MPD2    C2 5345   0.289   1.612   1.077  0.6233 -0.0095 -0.4507
  357MPD2    C3 5346   0.226   1.717   1.146 -0.2507 -0.0162  0.0247
  357MPD2    C4 5347   0.276   1.845   1.125 -0.5585 -0.5861 -0.2210
  357MPD2    C5 5348   0.361   1.876   1.021  0.0535  0.0220  0.0593
  357MPD2     H 5349   0.267   1.507   1.088 -0.7649  0.3680  0.3130
  357MPD2    H1 5350   0.237   1.930   1.180  0.1039  1.4441 -2.9158
  357MPD2    H2 5351   0.469   1.802   0.859  0.3142 -1.4312 -0.4492
  357MPD2    H3 5352   0.383   1.977   0.988 -1.5805 -0.5008 -2.6236
  357MPD2     N 5353   0.118   1.692   1.239 -1.0043 -0.4934  0.5645
  357MPD2    H5 5354   0.061   1.773   1.263 -0.9175 -0.5807  1.0565
  357MPD2    N1 5355   0.430   1.539   0.893  0.1696  0.8799 -0.1005
  357MPD2    H7 5356   0.463   1.569   0.801 -0.4949  1.0391 -0.2845
  358TMC3    C1 5357   0.455   1.331   0.789  0.3035 -0.2867  0.3221
  358TMC3    C2 5358   0.426   1.379   0.667 -0.1110  1.0066 -0.8308
  358TMC3    C3 5359   0.394   1.289   0.567  0.2241  0.8602  0.4059
  358TMC3    C4 5360   0.453   1.196   0.813 -0.1376 -0.4845 -0.1450
  358TMC3    C5 5361   0.412   1.110   0.720 -0.0871 -0.2738  0.1824
  358TMC3    C6 5362   0.398   1.149   0.589  0.4565 -0.1372  0.3654
  358TMC3     C 5363   0.430   1.406   0.917  0.0693  0.4843 -0.0194
  358TMC3     O 5364   0.437   1.347   1.027  0.8430 -0.2215  0.3585
  358TMC3     H 5365   0.395   1.482   0.656  2.1748  1.4949 -2.8800
  358TMC3    H1 5366   0.466   1.171   0.918  0.3875  1.8386  0.3556
  358TMC3    H2 5367   0.327   1.089   0.534  3.6123 -2.0053 -1.6378
  358TMC3    C7 5368   0.400   0.970   0.756 -0.2245 -0.1661  0.0490
  358TMC3    C8 5369   0.342   1.343   0.444 -0.3487 -0.2329 -0.0898
  358TMC3    O1 5370   0.389   0.953   0.882 -0.4250  0.0038 -0.0053
  358TMC3    O2 5371   0.313   1.459   0.442 -0.5128 -0.0728 -0.4252
  359MPD2     C 5372   0.943   0.879  12.334 -0.5823 -0.2278  0.4142
  359MPD2    C1 5373   0.857   0.894  12.233  0.3051 -0.0621 -0.2256
  359MPD2    C2 5374   0.754   0.803  12.221 -0.2846 -0.0544 -0.0381
  359MPD2    C3 5375   0.723   0.714  12.320  0.3814 -0.7112 -0.5201
  359MPD2    C4 5376   0.802   0.717  12.432  0.6370  0.2294  0.0601
  359MPD2    C5 5377   0.910   0.792  12.434 -0.6010 -0.2856  0.0351
  359MPD2     H 5378   0.684   0.810  12.138  1.4285  1.0550 -1.4068
  359MPD2    H1 5379   0.774   0.651  12.513 -0.9444  0.0992 -0.5877
  359MPD2    H2 5380   1.031   0.942  12.345 -0.2585 -0.4002 -1.3060
  359MPD2    H3 5381   0.970   0.801  12.524 -1.7260  1.1435  0.6498
  359MPD2     N 5382   0.609   0.637  12.320 -0.2040  0.1550 -0.5134
  359MPD2    H5 5383   0.596   0.580  12.402  0.3320 -0.4863 -0.8709
  359MPD2    N1 5384   0.878   0.999  12.137  0.3161  0.0790 -0.0692
  359MPD2    H7 5385   0.803   1.018  12.071 -0.6356  0.8661  1.2296
  360TMC3    C1 5386   0.983   1.171  12.004  0.2325 -0.8949  0.6643
  360TMC3    C2 5387   1.108   1.224  11.973  0.6202 -0.1861 -0.5547
  360TMC3    C3 5388   1.125   1.280  11.850 -0.1354 -1.1352 -0.2431
  360TMC3    C4 5389   0.876   1.180  11.914 -0.7334  0.1608 -0.4777
  360TMC3    C5 5390   0.896   1.230  11.788  0.2541  0.5067  1.2663
  360TMC3    C6 5391   1.021   1.281  11.757 -0.1768 -0.0757  0.1803
  360TMC3     C 5392   0.985   1.093  12.125  1.0536  0.7036  0.3371
  360TMC3     O 5393   1.092   1.091  12.185  0.3334  0.1757  0.2822
  360TMC3     H 5394   1.197   1.190  12.025 -1.1894 -1.8555  1.4287
  360TMC3    H1 5395   0.779   1.146  11.948 -0.2710  1.1751  1.8599
  360TMC3    H2 5396   1.045   1.305  11.654 -0.5415 -1.2080 -0.1666
  360TMC3    C7 5397   0.799   1.215  11.679  0.1306 -0.4083  0.9565
  360TMC3    C8 5398   1.263   1.308  11.809  0.3413  0.1883  0.1514
  360TMC3    O1 5399   0.829   1.281  11.580  0.3378 -0.0442  0.1650
  360TMC3    O2 5400   1.348   1.312  11.894 -0.4631 -0.4412 -0.0018
  361MPD2     C 5401   2.374   4.608  16.661 -0.0943  0.2170 -0.0577
  361MPD2    C1 5402   2.431   4.683  16.756  0.0408  0.2460  0.5947
  361MPD2    C2 5403   2.532   4.637  16.833 -0.4090  0.5820  0.6796
  361MPD2    C3 5404   2.575   4.508  16.813 -0.4107 -0.0575 -0.4074
  361MPD2    C4 5405   2.525   4.429  16.715  0.6056  0.0199 -0.2618
  361MPD2    C5 5406   2.414   4.479  16.645  0.2007 -0.3332  0.5485
  361MPD2     H 5407   2.578   4.695  16.912  1.1412  1.4850 -0.8935
  361MPD2    H1 5408   2.560   4.328  16.694 -0.4949  0.0655 -2.3452
  361MPD2    H2 5409   2.290   4.641  16.600  0.9844  1.5144 -0.8330
  361MPD2    H3 5410   2.365   4.415  16.572 -1.7972  1.8930 -0.0790
  361MPD2     N 5411   2.685   4.453  16.889 -0.0614  0.6857 -0.1420
  361MPD2    H5 5412   2.722   4.362  16.864  0.8076  1.6360 -2.2938
  361MPD2    N1 5413   2.365   0.083  16.782 -0.3443 -0.4540  0.2406
  361MPD2    H7 5414   2.271   0.098  16.747  0.8367  2.4750 -1.6672
  362TMC3    C1 5415   2.311   0.294  16.853  0.0679  0.3898  0.8463
  362TMC3    C2 5416   2.197   0.277  16.922  0.6165 -1.0408  0.7685
  362TMC3    C3 5417   2.111   0.384  16.930 -0.5528 -0.2670  0.5070
  362TMC3    C4 5418   2.344   0.417  16.791  0.5605  0.0496  0.1914
  362TMC3    C5 5419   2.263   0.523  16.817  0.7088 -0.2025 -0.0174
  362TMC3    C6 5420   2.146   0.513  16.886  0.4308 -0.0617 -0.8173
  362TMC3     C 5421   2.417   0.191  16.848 -0.9660  0.2440  0.2481
  362TMC3     O 5422   2.531   0.224  16.872  0.8793 -0.4449 -0.3071
  362TMC3     H 5423   2.177   0.173  16.943 -0.6796 -0.1855  3.7932
  362TMC3    H1 5424   2.439   0.425  16.740  1.4205 -1.9273  1.4560
  362TMC3    H2 5425   2.084   0.598  16.913 -0.2733 -0.7335 -0.3122
  362TMC3    C7 5426   2.255   0.644  16.727 -0.2994  0.1612  0.1581
  362TMC3    C8 5427   1.971   0.353  16.972  0.1859 -1.3919 -0.2814
  362TMC3    O1 5428   2.167   0.728  16.745 -0.3698  0.5605 -0.5664
  362TMC3    O2 5429   1.933   0.236  16.950 -0.2495 -0.3144 -0.1632
  363TMC3    C1 5430   0.251   2.029   9.229 -0.2447 -0.0067 -0.8575
  363TMC3    C2 5431   0.375   1.996   9.282  0.4717 -0.1179  0.0635
  363TMC3    C3 5432   0.436   2.091   9.360  0.1835  0.0982  0.3269
  363TMC3    C4 5433   0.191   2.145   9.243  0.0037 -0.5671 -0.6516
  363TMC3    C5 5434   0.258   2.238   9.323 -0.0273  0.4281  0.1842
  363TMC3    C6 5435   0.381   2.216   9.376  0.0278 -0.0061 -0.5142
  363TMC3     C 5436   0.187   1.919   9.158 -0.1558  0.5029 -0.9074
  363TMC3     O 5437   0.251   1.829   9.109  0.2715 -0.0116 -0.3451
  363TMC3     H 5438   0.407   1.895   9.261  0.5975  0.1046 -0.8217
  363TMC3    H1 5439   0.092   2.170   9.209  0.3215  0.6159 -0.7304
  363TMC3    H2 5440   0.425   2.287   9.445  1.2756 -0.5563 -0.7449
  363TMC3    C7 5441   0.197   2.351   9.366 -0.5013  0.0820 -0.4843
  363TMC3    C8 5442   0.560   2.062   9.428  0.0514  0.2253 -0.0538
  363TMC3    O1 5443   0.075   2.355   9.383 -0.8588  0.1817  0.2096
  363TMC3    O2 5444   0.620   2.161   9.474 -0.2303 -0.2365 -0.0292
  364MPD2     C 5445   3.941   2.303  11.103  0.1120  0.1650 -0.4895
  364MPD2    C1 5446   4.005   2.237  10.996  0.3718  0.5205  0.3303
  364MPD2    C2 5447   4.052   2.108  11.020 -0.0228 -0.2934 -0.1420
  364MPD2    C3 5448   4.041   2.047  11.145  0.3228  0.9602 -0.4624
  364MPD2    C4 5449   3.969   2.112  11.247  0.2397  0.8753 -0.8950
  364MPD2    C5 5450   3.923   2.238  11.223  0.1695  0.2650 -0.2306
  364MPD2     H 5451   4.109   2.057  10.943 -0.4628 -1.4653  0.3072
  364MPD2    H1 5452   3.960   2.073  11.348 -3.0196  1.5314 -0.9119
  364MPD2    H2 5453   3.897   2.401  11.089  0.7003  0.4537 -0.3170
  364MPD2    H3 5454   3.888   2.294  11.309  0.3663 -0.2416  0.1818
  364MPD2     N 5455   4.105   1.926  11.164  0.0078 -0.8200 -0.4473
  364MPD2    H5 5456   4.152   1.893  11.080 -1.3754 -1.2518 -1.0569
  364MPD2    N1 5457   4.026   2.311  10.877  0.5675 -0.4809  0.0232
  364MPD2    H7 5458   3.980   2.401  10.882  1.1304 -0.1513 -0.7593
  365TMC3    C1 5459   4.111   2.386  10.667 -0.5753  0.3533 -0.0886
  365TMC3    C2 5460   4.204   2.357  10.577 -0.7582 -0.0138 -1.0897
  365TMC3    C3 5461   4.281   2.461  10.527 -0.6746 -0.1667  0.0274
  365TMC3    C4 5462   4.088   2.513  10.714 -0.4461  0.0721  0.1891
  365TMC3    C5 5463   4.173   2.609  10.672 -0.6403 -0.6648  0.1176
  365TMC3    C6 5464   4.279   2.584  10.588 -0.5922  0.2923  0.0809
  365TMC3     C 5465   4.089   2.274  10.763 -0.4709 -0.4630  0.3421
  365TMC3     O 5466   4.122   2.158  10.734 -0.1901 -0.1230  0.5497
  365TMC3     H 5467   4.230   2.252  10.567 -0.4999 -0.1939  1.6445
  365TMC3    H1 5468   4.013   2.534  10.789  0.3896 -1.5834  1.5015
  365TMC3    H2 5469   4.347   2.659  10.551 -1.0611 -1.2428 -3.8827
  365TMC3    C7 5470   4.163   2.754  10.705  0.0632  0.1576  0.0531
  365TMC3    C8 5471   4.397   2.417  10.453 -0.4061 -0.1185  0.7201
  365TMC3    O1 5472   4.214   2.835  10.630 -0.7236 -0.1151  0.3773
  365TMC3    O2 5473   4.496   2.490  10.448 -0.1710 -0.1472  0.0488
  366MPD2     C 5474   2.539   2.751  15.559 -0.2868 -0.5415 -0.4342
  366MPD2    C1 5475   2.659   2.820  15.541 -0.1272 -0.1868 -0.2643
  366MPD2    C2 5476   2.779   2.759  15.534  0.7720  0.1333 -0.7832
  366MPD2    C3 5477   2.786   2.620  15.533  0.2118  0.0701  0.3925
  366MPD2    C4 5478   2.662   2.549  15.539  0.8192 -0.5608 -0.8052
  366MPD2    C5 5479   2.545   2.614  15.550  0.2608 -0.0295 -0.0716
  366MPD2     H 5480   2.865   2.823  15.518  2.2830 -1.5966  0.4228
  366MPD2    H1 5481   2.660   2.440  15.535 -0.9257 -0.5543 -0.0243
  366MPD2    H2 5482   2.444   2.801  15.570  0.1176  0.0713  0.2596
  366MPD2    H3 5483   2.451   2.562  15.563  0.8009 -0.4210  2.1595
  366MPD2     N 5484   2.911   2.561  15.505 -0.0762 -0.2005  0.2479
  366MPD2    H5 5485   2.986   2.624  15.480  0.2161 -0.4937  0.3983
  366MPD2    N1 5486   2.662   2.961  15.526 -0.2206  0.4404 -0.2987
  366MPD2    H7 5487   2.751   3.009  15.522 -1.1408  2.0030 -2.0296
  367TMC3    C1 5488   2.582   3.179  15.484  0.3160  1.0527  0.0117
  367TMC3    C2 5489   2.669   3.259  15.554  0.5226  0.7290  0.3559
  367TMC3    C3 5490   2.699   3.385  15.513 -0.3762 -0.6795 -0.1397
  367TMC3    C4 5491   2.526   3.229  15.371  0.1326  0.0094 -0.4572
  367TMC3    C5 5492   2.559   3.351  15.327  0.6101 -0.7887 -0.1838
  367TMC3    C6 5493   2.654   3.434  15.391  0.1626  0.1648 -0.1128
  367TMC3     C 5494   2.557   3.040  15.503  0.2856 -0.1825  0.2732
  367TMC3     O 5495   2.447   2.997  15.469  0.3739  0.1880  0.6492
  367TMC3     H 5496   2.702   3.217  15.648  0.6475 -1.7413 -0.7812
  367TMC3    H1 5497   2.475   3.156  15.310 -0.1498  0.7179 -1.0618
  367TMC3    H2 5498   2.678   3.529  15.345  2.6618 -0.1078  0.6223
  367TMC3    C7 5499   2.500   3.409  15.203  0.2078 -0.3784 -0.5221
  367TMC3    C8 5500   2.826   3.442  15.563  0.4691 -0.3711  0.1731
  367TMC3    O1 5501   2.543   3.516  15.164  0.0932 -0.0964 -0.2743
  367TMC3    O2 5502   2.876   3.371  15.650  0.3544 -0.4067 -0.3211
  368MPD2     C 5503   3.747   0.070  13.303  0.9177 -0.4912  0.4271
  368MPD2    C1 5504   3.730   0.141  13.184 -0.3801 -0.1770  0.1507
  368MPD2    C2 5505   3.843   0.166  13.105 -0.1271  0.5792  0.4459
  368MPD2    C3 5506   3.969   0.127  13.146  0.7850  0.2657  0.1014
  368MPD2    C4 5507   3.982   0.049  13.258  0.8373 -0.2516 -0.3095
  368MPD2    C5 5508   3.871   0.015  13.330  0.1621 -0.6210 -0.2329
  368MPD2     H 5509   3.831   0.224  13.014  0.7567  1.6568  1.0259
  368MPD2    H1 5510   4.073   4.723  13.291  0.3382 -0.6258  0.5036
  368MPD2    H2 5511   3.663   0.051  13.368 -0.7198  2.9483 -0.7062
  368MPD2    H3 5512   3.880   4.689  13.426 -0.0175 -0.5982 -0.2043
  368MPD2     N 5513   4.090   0.171  13.082  0.2581  0.1084 -0.6558
  368MPD2    H5 5514   4.175   0.154  13.134 -1.3939  0.5624  2.1568
  368MPD2    N1 5515   3.605   0.192  13.157 -0.2107  0.0139  0.0217
  368MPD2    H7 5516   3.531   0.155  13.216 -0.0903 -1.5351 -0.7971
  369TMC3    C1 5517   3.442   0.334  13.056 -0.1967  0.8020  0.1872
  369TMC3    C2 5518   3.437   0.469  13.031  0.7291  0.1469 -0.0278
  369TMC3    C3 5519   3.313   0.533  13.044 -0.0310  0.8927  0.4566
  369TMC3    C4 5520   3.339   0.262  13.112 -0.3178  0.5598  0.3777
  369TMC3    C5 5521   3.219   0.333  13.123 -0.1443 -0.7447 -0.3402
  369TMC3    C6 5522   3.202   0.467  13.087  0.6357 -0.3427  1.1374
  369TMC3     C 5523   3.576   0.276  13.058 -0.4059  0.8464  0.0274
  369TMC3     O 5524   3.653   0.338  12.987 -0.1335 -0.7281  0.3717
  369TMC3     H 5525   3.522   0.507  12.974  0.8802  0.5132  0.4468
  369TMC3    H1 5526   3.339   0.154  13.125 -0.5575  0.6285  0.9585
  369TMC3    H2 5527   3.101   0.508  13.081  0.8793 -0.2968 -3.0074
  369TMC3    C7 5528   3.101   0.252  13.131 -0.4593 -0.1414 -0.3066
  369TMC3    C8 5529   3.291   0.671  12.999  0.3027 -0.1521 -0.4597
  369TMC3    O1 5530   3.014   0.248  13.044  0.3742 -0.2516 -0.3733
  369TMC3    O2 5531   3.191   0.705  12.943 -0.0660  0.3320  0.8244
  370TMC3    C1 5532   3.508   0.855  16.265  0.5119  0.5112 -0.5112
  370TMC3    C2 5533   3.421   0.769  16.338 -0.4125 -0.0009 -0.4014
  370TMC3    C3 5534   3.413   0.637  16.311 -0.1458  0.8544  0.6730
  370TMC3    C4 5535   3.574   0.793  16.160  0.1764  0.1760 -0.2833
  370TMC3    C5 5536   3.561   0.664  16.134 -0.0758  0.1999 -0.5381
  370TMC3    C6 5537   3.483   0.582  16.209  0.2312 -0.4386  0.1193
  370TMC3     C 5538   3.490   0.997  16.260 -0.1645  0.0270 -0.2427
  370TMC3     O 5539   3.384   1.036  16.299 -0.1936 -0.4321 -0.1899
  370TMC3     H 5540   3.346   0.812  16.404 -1.2606 -0.9956 -0.7088
  370TMC3    H1 5541   3.645   0.847  16.098  0.4865 -0.9753 -0.9180
  370TMC3    H2 5542   3.486   0.474  16.195  0.0085 -0.1935 -1.8885
  370TMC3    C7 5543   3.630   0.615  16.016 -0.9466 -0.3898  0.0296
  370TMC3    C8 5544   3.365   0.542  16.411 -0.1210 -0.2241  0.2526
  370TMC3    O1 5545   3.673   0.700  15.944 -0.1581  0.6200  0.1348
  370TMC3    O2 5546   3.356   0.426  16.376 -0.0778 -0.2955  0.4199
  371TMC3    C1 5547   4.629   3.586  15.299 -0.0796 -0.2895 -0.0702
  371TMC3    C2 5548   4.616   3.624  15.432  0.8411  0.2323  0.2524
  371TMC3    C3 5549   4.604   3.759  15.458 -0.5950  0.1407  0.4617
  371TMC3    C4 5550   4.644   3.684  15.200 -0.2529  0.0146  0.0301
  371TMC3    C5 5551   4.643   3.814  15.233 -0.3204 -0.2510  0.2772
  371TMC3    C6 5552   4.628   3.856  15.360 -0.3257 -0.6886 -0.3000
  371TMC3     C 5553   4.666   3.452  15.273 -0.6093  0.5403 -0.1723
  371TMC3     O 5554   0.022   3.434  15.178 -0.2064 -0.0187 -0.0171
  371TMC3     H 5555   4.604   3.560  15.519 -1.7790  1.5502  0.8533
  371TMC3    H1 5556   4.648   3.658  15.095  2.1492 -1.6114  0.5089
  371TMC3    H2 5557   4.632   3.960  15.390 -1.4544 -0.4943 -0.8415
  371TMC3    C7 5558   4.687   3.910  15.137  0.2506  0.4214  0.1205
  371TMC3    C8 5559   4.573   3.798  15.600 -0.0697 -0.6755  0.2072
  371TMC3    O1 5560   4.683   4.024  15.184  0.2356 -0.1503  0.1726
  371TMC3    O2 5561   4.577   3.722  15.697  0.3209  0.0701  0.1465
  372MPD2     C 5562   3.458   0.491  13.433 -0.4337 -0.1912 -0.2110
  372MPD2    C1 5563   3.579   0.425  13.453 -0.0695  0.3979 -0.1983
  372MPD2    C2 5564   3.581   0.305  13.525 -0.0504 -0.3945  0.5975
  372MPD2    C3 5565   3.462   0.244  13.560 -0.6145 -0.1845  0.6242
  372MPD2    C4 5566   3.345   0.309  13.544 -0.4783  0.2706 -1.1276
  372MPD2    C5 5567   3.345   0.433  13.482  0.4415 -0.7088 -0.5550
  372MPD2     H 5568   3.674   0.254  13.547 -0.9087 -1.8147  0.9293
  372MPD2    H1 5569   3.253   0.273  13.589 -0.0737  0.2115 -0.3418
  372MPD2    H2 5570   3.440   0.583  13.378 -3.2738 -0.6781 -0.0655
  372MPD2    H3 5571   3.250   0.483  13.464 -0.2285 -1.5062  0.7754
  372MPD2     N 5572   3.475   0.115  13.610 -0.7605 -0.2985 -0.5371
  372MPD2    H5 5573   3.569   0.077  13.619 -0.8194 -0.8584 -2.2745
  372MPD2    N1 5574   3.702   0.477  13.396 -0.5951 -0.2357  0.5525
  372MPD2    H7 5575   3.786   0.435  13.435 -0.1761 -0.8851 -1.0793
  373TMC3    C1 5576   3.423   4.632  13.695 -0.4303  0.1610 -0.3149
  373TMC3    C2 5577   3.414   4.623  13.827 -0.2522  0.3648  0.0264
  373TMC3    C3 5578   3.485   4.526  13.892  0.1122 -0.1869  0.3318
  373TMC3    C4 5579   3.509   4.555  13.616  0.3381 -0.3184 -0.4499
  373TMC3    C5 5580   3.575   4.462  13.688 -0.1179  1.2660  0.5954
  373TMC3    C6 5581   3.556   4.440  13.816 -0.3913 -0.0177  0.1911
  373TMC3     C 5582   3.374   0.037  13.654  0.5048 -0.7587  0.5382
  373TMC3     O 5583   3.252   0.052  13.666  0.0511 -0.2338  0.0959
  373TMC3     H 5584   3.352   4.696  13.879  2.5938  3.1029 -0.4216
  373TMC3    H1 5585   3.532   4.573  13.512 -1.7135 -0.4126 -0.9104
  373TMC3    H2 5586   3.598   4.359  13.874 -1.2239  1.0361  2.2683
  373TMC3    C7 5587   3.694   4.410  13.631  0.5314  0.1904 -0.0757
  373TMC3    C8 5588   3.583   4.576  13.980 -0.0077  0.2257 -0.4303
  373TMC3    O1 5589   3.699   4.398  13.510  0.2352  0.2691 -0.0286
  373TMC3    O2 5590   3.700   4.569  13.944  0.2540 -0.1387 -0.0402
  374TMC3    C1 5591   0.069   4.680  10.068 -0.7699  0.2050 -0.0417
  374TMC3    C2 5592   0.046   0.091  10.042  0.4446  0.1825  0.3449
  374TMC3    C3 5593   4.641   0.132  10.023  0.5208 -0.1574 -0.7837
  374TMC3    C4 5594   4.686   4.591  10.080  0.7246 -0.0501  0.0361
  374TMC3    C5 5595   4.559   4.645  10.073  0.6130  0.2757 -0.1928
  374TMC3    C6 5596   4.538   0.047  10.042  0.6006  0.8532  0.6036
  374TMC3     C 5597   0.205   4.648  10.100  0.2604  0.6869  0.0464
  374TMC3     O 5598   0.287   0.010  10.130 -0.2316  0.2277 -0.4900
  374TMC3     H 5599   0.127   0.156  10.010  0.2791 -0.2957 -1.0344
  374TMC3    H1 5600   4.703   4.490  10.117  2.4952  0.3277  0.2349
  374TMC3    H2 5601   4.436   0.086  10.043 -0.4510 -1.8143 -1.4762
  374TMC3    C7 5602   4.460   4.547  10.094  0.6726 -0.7519  0.0446
  374TMC3    C8 5603   4.612   0.274  10.013 -1.6609  0.3015 -0.0790
  374TMC3    O1 5604   4.493   4.430  10.097 -0.2486  0.5107  0.4503
  374TMC3    O2 5605   4.499   0.299   9.984 -0.6705  0.1813  0.1656
  375MPD2     C 5606   0.031   1.391  16.911  0.4594 -0.2242  0.2575
  375MPD2    C1 5607   4.656   1.325  16.839  0.2542 -0.1446  0.1175
  375MPD2    C2 5608   4.694   1.252  16.726  0.4937 -0.3368 -0.8061
  375MPD2    C3 5609   0.104   1.238  16.689 -1.0389  0.0699  0.1099
  375MPD2    C4 5610   0.202   1.292  16.771  0.1172 -0.5221  0.7656
  375MPD2    C5 5611   0.163   1.376  16.871 -0.1577  0.2995 -0.0459
  375MPD2     H 5612   4.610   1.207  16.673 -0.7982  2.5123 -1.1961
  375MPD2    H1 5613   0.307   1.291  16.742  0.2252 -0.8634  1.1816
  375MPD2    H2 5614   0.012   1.453  16.998  0.9600  1.8483 -1.1172
  375MPD2    H3 5615   0.238   1.417  16.937  0.0435 -2.1962  1.2444
  375MPD2     N 5616   0.140   1.165  16.572 -0.6777  0.8037 -0.6231
  375MPD2    H5 5617   0.235   1.178  16.541 -0.4711 -1.7704 -1.0641
  375MPD2    N1 5618   4.511   1.328  16.877  0.6894  1.1610 -0.0657
  375MPD2    H7 5619   4.441   1.293  16.813  0.0406 -0.8723  1.7607
  376TMC3    C1 5620   0.139   1.003  16.401  0.0215  0.0900  0.2281
  376TMC3    C2 5621   0.265   0.971  16.436 -0.3067  0.2568 -0.0037
  376TMC3    C3 5622   0.324   0.881  16.356 -0.6046 -0.2623 -0.1495
  376TMC3    C4 5623   0.064   0.943  16.298 -0.5633  0.2939  0.0426
  376TMC3    C5 5624   0.131   0.843  16.224  0.6765  0.0554  0.3131
  376TMC3    C6 5625   0.261   0.818  16.250 -0.4662 -0.3388  0.0411
  376TMC3     C 5626   0.056   1.084  16.491 -0.1565  0.7878 -0.5590
  376TMC3     O 5627   4.659   1.075  16.488 -0.4505  0.2397  0.3582
  376TMC3     H 5628   0.327   1.002  16.520  1.4717  0.5634 -1.4246
  376TMC3    H1 5629   4.687   0.977  16.277  0.3124  2.5001 -0.5773
  376TMC3    H2 5630   0.331   0.779  16.177  0.2688 -2.1161  1.6834
  376TMC3    C7 5631   0.093   0.822  16.088 -0.5969  0.2005  0.8206
  376TMC3    C8 5632   0.472   0.878  16.351 -0.2402 -0.4166  0.1691
  376TMC3    O1 5633   0.009   0.903  16.052 -0.2739  0.2419 -0.0445
  376TMC3    O2 5634   0.524   0.975  16.404 -0.3674  0.0191  0.4344
  377MPD2     C 5635   2.475   1.168  12.311 -0.0626 -0.5111 -0.2059
  377MPD2    C1 5636   2.554   1.080  12.385 -0.8334  0.7643  0.2391
  377MPD2    C2 5637   2.499   1.017  12.500  0.3437  0.2430  0.3651
  377MPD2    C3 5638   2.367   1.040  12.528  0.2540  0.3646  0.2799
  377MPD2    C4 5639   2.296   1.133  12.460  0.4950 -0.6948 -0.8250
  377MPD2    C5 5640   2.348   1.195  12.351 -0.1485  0.3150 -0.5659
  377MPD2     H 5641   2.560   0.950  12.558  0.9692 -1.2150 -1.9721
  377MPD2    H1 5642   2.193   1.154  12.486  0.3794 -1.4113 -0.6991
  377MPD2    H2 5643   2.510   1.217  12.221 -0.2256 -2.4561 -1.3285
  377MPD2    H3 5644   2.287   1.275  12.310  0.5350  0.3898 -1.4415
  377MPD2     N 5645   2.299   0.979  12.632 -0.0379  0.0467 -0.2477
  377MPD2    H5 5646   2.211   1.019  12.662 -0.2061  0.3841 -1.1954
  377MPD2    N1 5647   2.685   1.056  12.336 -0.1705 -0.5746  0.5932
  377MPD2    H7 5648   2.705   1.110  12.252 -1.8622  2.3208  2.0359
  378TMC3    C1 5649   3.038   0.963  12.130 -0.0517 -0.4395  1.1575
  378TMC3    C2 5650   2.910   0.973  12.185  0.0715 -0.2671  0.0531
  378TMC3    C3 5651   2.902   0.955  12.319 -0.0249  1.0215  0.4243
  378TMC3    C4 5652   3.150   0.924  12.208  0.1468  0.7911 -0.4687
  378TMC3    C5 5653   3.127   0.906  12.342 -0.0907  0.5021  0.2621
  378TMC3    C6 5654   3.008   0.926  12.403 -0.4568 -0.7172 -0.2225
  378TMC3     C 5655   3.055   0.982  11.983 -0.0891  0.5480 -0.4061
  378TMC3     O 5656   2.950   1.014  11.930 -0.3320  0.4962  0.1722
  378TMC3     H 5657   2.831   1.005  12.119 -0.6243  2.2072  2.0689
  378TMC3    H1 5658   3.247   0.909  12.164 -0.5362 -2.1015 -0.9976
  378TMC3    H2 5659   2.997   0.926  12.511  0.2580 -1.1396 -0.1550
  378TMC3    C7 5660   3.239   0.886  12.435  0.7140 -0.4854 -0.2896
  378TMC3    C8 5661   2.778   0.971  12.387 -0.5148  0.7076 -0.5567
  378TMC3    O1 5662   3.228   0.921  12.553 -0.2188  0.9789  0.1993
  378TMC3    O2 5663   2.773   0.911  12.493 -0.3239  0.0686 -0.0407
  379MPD2     C 5664   4.013   3.706  16.130 -0.2812  0.0137  0.0940
  379MPD2    C1 5665   3.912   3.650  16.214  0.3395 -0.0671  0.1551
  379MPD2    C2 5666   3.964   3.592  16.330 -0.0843 -0.0158  0.8170
  379MPD2    C3 5667   4.099   3.589  16.368 -0.4639  0.2079 -0.3160
  379MPD2    C4 5668   4.188   3.646  16.280 -0.6036  0.1829 -0.0868
  379MPD2    C5 5669   4.143   3.712  16.168  0.6180 -0.6397  0.5478
  379MPD2     H 5670   3.887   3.556  16.397 -1.2397 -0.3915 -0.7137
  379MPD2    H1 5671   4.294   3.638  16.299 -0.4520  1.9317 -0.1801
  379MPD2    H2 5672   3.987   3.754  16.036 -0.3644 -0.9348 -0.3720
  379MPD2    H3 5673   4.209   3.761  16.098 -0.8226  1.0426  0.3736
  379MPD2     N 5674   4.152   3.529  16.481  0.2981  0.5194  0.0250
  379MPD2    H5 5675   4.253   3.541  16.482  0.4141 -0.3038 -1.1500
  379MPD2    N1 5676   3.777   3.647  16.171 -0.6486 -0.7715 -0.0826
  379MPD2    H7 5677   3.753   3.689  16.082  0.5375 -2.0542 -1.0018
  380TMC3    C1 5678   3.584   3.524  16.130 -0.1386  0.0768  0.5197
  380TMC3    C2 5679   3.566   3.391  16.128 -0.3003  0.4056 -0.0071
  380TMC3    C3 5680   3.486   3.346  16.019  0.4656 -0.5558  0.5178
  380TMC3    C4 5681   3.524   3.618  16.049  0.0601 -0.2012  0.0161
  380TMC3    C5 5682   3.441   3.563  15.952  0.0119  0.5356  0.4257
  380TMC3    C6 5683   3.419   3.431  15.935  0.4753 -0.5936 -0.2504
  380TMC3     C 5684   3.688   3.561  16.226  0.7673  0.3301 -0.3124
  380TMC3     O 5685   3.696   3.492  16.328 -0.0309 -0.4219  0.1113
  380TMC3     H 5686   3.627   3.332  16.196  0.1852  0.1680 -0.6384
  380TMC3    H1 5687   3.546   3.724  16.053 -0.9181  0.0566 -1.7266
  380TMC3    H2 5688   3.363   3.392  15.851  1.6324  1.8270 -2.1473
  380TMC3    C7 5689   3.371   3.654  15.865  0.4924  0.0867 -0.2790
  380TMC3    C8 5690   3.544   3.231  15.945 -0.0408  0.4438  0.5101
  380TMC3    O1 5691   3.409   3.768  15.870 -0.4108  0.0379 -0.0490
  380TMC3    O2 5692   3.505   3.213  15.828  0.0594 -0.2432 -0.2121
  381TMC3    C1 5693   3.473   4.566  16.150 -0.6577  0.1777  0.3137
  381TMC3    C2 5694   3.573   4.657  16.190 -0.1716  0.3970 -0.7385
  381TMC3    C3 5695   3.558   0.008  16.305 -0.6707 -0.1255  0.2697
  381TMC3    C4 5696   3.365   4.547  16.238  0.6315  0.3679 -0.3269
  381TMC3    C5 5697   3.344   4.633  16.341 -0.0016 -0.3180 -0.1070
  381TMC3    C6 5698   3.438   0.005  16.373 -0.1618  0.1719  0.3048
  381TMC3     C 5699   3.512   4.451  16.067 -0.0171  0.6293  0.3500
  381TMC3     O 5700   3.444   4.345  16.073 -0.2163 -0.3092  0.2529
  381TMC3     H 5701   3.663   4.673  16.130 -0.0712 -2.1189 -1.2397
  381TMC3    H1 5702   3.297   4.464  16.218  1.8617 -1.5518  3.4580
  381TMC3    H2 5703   3.414   0.077  16.450  1.2699 -0.9925  1.8404
  381TMC3    C7 5704   3.257   4.569  16.440 -0.2838 -0.1855 -0.4011
  381TMC3    C8 5705   3.649   0.122  16.324 -0.2966 -0.1859  0.3583
  381TMC3    O1 5706   3.236   4.448  16.434  0.5207 -0.1841 -0.3586
  381TMC3    O2 5707   3.748   0.118  16.253  0.5880 -0.3971  0.1910
  382MPD2     C 5708   2.884   2.853  17.387  0.3338 -0.0372 -0.0793
  382MPD2    C1 5709   2.855   2.813  17.515 -0.4457 -0.3247  0.9155
  382MPD2    C2 5710   2.829   2.675  17.539  0.5879  0.0845  0.5643
  382MPD2    C3 5711   2.857   2.580  17.443  0.4470  0.4415 -0.3295
  382MPD2    C4 5712   2.892   2.626  17.318  0.5964 -0.6765  0.2233
  382MPD2    C5 5713   2.901   2.754  17.294  0.4136  0.3793  0.0647
  382MPD2     H 5714   2.813   2.635  17.639  1.7655 -1.5272  0.0997
  382MPD2    H1 5715   2.909   2.564  17.231  0.8120 -2.2755  1.4196
  382MPD2    H2 5716   2.900   2.953  17.350  0.3405  0.7981  2.1431
  382MPD2    H3 5717   2.924   2.779  17.192 -2.1162 -0.9527 -0.8459
  382MPD2     N 5718   2.839   2.442  17.461  0.0470  0.5158  0.3381
  382MPD2    H5 5719   2.881   2.385  17.389  0.6395 -0.3621  1.3889
  382MPD2    N1 5720   2.853   2.916  17.617  0.6561  0.6221  0.1519
  382MPD2    H7 5721   2.852   2.884   0.017  0.8420 -1.6702 -0.6074
  383TMC3    C1 5722   2.757   2.246  17.522  0.5856  0.4389  0.5903
  383TMC3    C2 5723   2.637   2.186  17.510 -0.2472 -0.6824  0.3657
  383TMC3    C3 5724   2.643   2.049  17.508  0.2055 -0.2819 -0.4275
  383TMC3    C4 5725   2.880   2.187  17.524 -0.3570 -0.0915 -0.9055
  383TMC3    C5 5726   2.875   2.049  17.510  0.2930 -0.1984  0.2038
  383TMC3    C6 5727   2.756   1.974  17.499  0.9261  0.0321  0.3843
  383TMC3     C 5728   2.749   2.388  17.549  0.0965  0.1351  0.0774
  383TMC3     O 5729   2.657   2.432  17.616  0.0721 -0.2958  0.4711
  383TMC3     H 5730   2.543   2.232  17.536 -0.5466 -0.5157 -1.0390
  383TMC3    H1 5731   2.968   2.251  17.536 -1.7935  1.4945  1.3812
  383TMC3    H2 5732   2.751   1.868  17.478  1.7927 -0.2281  1.4882
  383TMC3    C7 5733   3.002   1.980  17.469 -0.7322  0.5256 -0.3195
  383TMC3    C8 5734   2.522   1.988  17.465 -0.3259 -0.8991  0.8728
  383TMC3    O1 5735   3.109   2.039  17.486  0.0605  0.5806 -0.1599
  383TMC3    O2 5736   2.431   2.061  17.426 -0.5678  0.3927  0.5697
  384MPD2     C 5737   4.238   3.161  11.881  0.3959  0.3735  0.1464
  384MPD2    C1 5738   4.318   3.169  11.990 -0.3716 -0.1994  0.2844
  384MPD2    C2 5739   4.442   3.113  11.990  0.3561  0.1021  0.8720
  384MPD2    C3 5740   4.492   3.037  11.887 -0.1679 -0.7298  0.6252
  384MPD2    C4 5741   4.401   3.003  11.787  0.1103 -0.1788 -0.5247
  384MPD2    C5 5742   4.288   3.077  11.782 -0.2341  0.0531 -0.0510
  384MPD2     H 5743   4.509   3.128  12.074  0.0328  0.1953  1.1121
  384MPD2    H1 5744   4.420   2.942  11.700 -1.3104  0.4753 -1.2873
  384MPD2    H2 5745   4.142   3.211  11.876  1.2227  1.9047 -0.5508
  384MPD2    H3 5746   4.235   3.054  11.690 -1.0214 -0.5143  0.5351
  384MPD2     N 5747   4.628   2.995  11.901 -0.7837  0.0036  0.1773
  384MPD2    H5 5748   4.681   3.025  11.982 -0.2862 -1.9332  0.5591
  384MPD2    N1 5749   4.284   3.238  12.115  0.3293 -0.0628  0.1395
  384MPD2    H7 5750   4.349   3.235  12.193 -0.7388  1.4175  1.0898
  385TMC3    C1 5751   0.088   2.847  11.892 -0.5409 -0.1510  0.5203
  385TMC3    C2 5752   0.068   2.712  11.889 -0.4820 -0.6698  0.2904
  385TMC3    C3 5753   0.049   2.641  12.007 -0.1227 -0.1989 -0.5438
  385TMC3    C4 5754   0.114   2.909  12.007  0.0603 -0.0973  1.0945
  385TMC3    C5 5755   0.106   2.836  12.126 -0.3212  0.0236  0.8663
  385TMC3    C6 5756   0.061   2.704  12.131 -0.3717  0.3704 -0.4666
  385TMC3     C 5757   4.689   2.902  11.825 -0.2118  0.9158 -1.2798
  385TMC3     O 5758   4.635   2.836  11.732  0.4198  0.4436 -0.1137
  385TMC3     H 5759   0.051   2.663  11.794 -1.0170  0.4398 -0.1929
  385TMC3    H1 5760   0.133   3.016  12.017  0.4452  0.2186 -3.0753
  385TMC3    H2 5761   0.047   2.651  12.224 -1.8115  1.7620  0.1048
  385TMC3    C7 5762   0.044   2.922  12.228  0.6997 -0.1770 -0.2959
  385TMC3    C8 5763   4.672   2.540  12.006 -0.2952  0.2737 -0.0593
  385TMC3    O1 5764   4.722   3.028  12.187 -0.0437 -0.0970 -0.2091
  385TMC3    O2 5765   4.663   2.460  12.099 -0.1527  0.3713  0.5077
  386TMC3    C1 5766   4.082   1.039  11.693 -0.2012 -0.2475  0.4241
  386TMC3    C2 5767   4.073   1.040  11.558  0.2424 -0.0870 -0.1480
  386TMC3    C3 5768   3.948   1.053  11.505 -0.4734 -0.0343  0.2912
  386TMC3    C4 5769   3.969   1.051  11.771  0.4112 -0.2423 -1.0920
  386TMC3    C5 5770   3.852   1.069  11.713 -0.3487  0.6843 -0.6557
  386TMC3    C6 5771   3.834   1.063  11.579  0.2922  0.7572  0.8394
  386TMC3     C 5772   4.213   0.998  11.746  0.2106  0.2565 -0.6018
  386TMC3     O 5773   4.306   1.010  11.661 -0.6889 -0.4920  0.2714
  386TMC3     H 5774   4.161   1.025  11.496 -0.9405 -2.9525 -1.1354
  386TMC3    H1 5775   3.991   1.074  11.874 -3.6865 -0.5345 -0.1768
  386TMC3    H2 5776   3.738   1.073  11.529 -0.4007 -0.3212  1.9465
  386TMC3    C7 5777   3.757   1.151  11.788  0.0870  0.3012  0.1385
  386TMC3    C8 5778   3.928   1.025  11.360 -0.1789  0.6384 -0.2819
  386TMC3    O1 5779   3.756   1.129  11.906 -0.0022 -0.2132  0.4491
  386TMC3    O2 5780   3.823   1.050  11.303 -0.7215 -0.0237 -0.7762
  387MPD2     C 5781   1.732   0.641   9.275 -0.5286  0.5900  0.1946
  387MPD2    C1 5782   1.797   0.604   9.390 -0.2983 -0.0114  0.2900
  387MPD2    C2 5783   1.822   0.475   9.416 -0.4744  0.2653  0.2267
  387MPD2    C3 5784   1.777   0.371   9.335  1.1141  0.2134 -0.3798
  387MPD2    C4 5785   1.712   0.404   9.217 -0.3590  0.0347 -0.6053
  387MPD2    C5 5786   1.705   0.543   9.183 -0.3220  0.3975  0.5287
  387MPD2     H 5787   1.887   0.448   9.499 -1.6511  1.9586  1.6741
  387MPD2    H1 5788   1.679   0.328   9.147  1.3304 -3.2564  2.2039
  387MPD2    H2 5789   1.714   0.746   9.257  1.6121  1.1579  1.2854
  387MPD2    H3 5790   1.648   0.568   9.094  1.5831  0.6494 -0.6152
  387MPD2     N 5791   1.816   0.245   9.382 -0.0089 -0.3718  0.1116
  387MPD2    H5 5792   1.852   0.241   9.477 -2.7016  1.6943  1.2440
  387MPD2    N1 5793   1.840   0.688   9.496 -0.0494 -0.4502 -0.4293
  387MPD2    H7 5794   1.881   0.631   9.569 -0.3049 -0.9751 -0.6986
  388TMC3    C1 5795   1.902   0.871   9.627  0.7894 -0.3780  0.2079
  388TMC3    C2 5796   1.835   0.973   9.696 -0.7763  0.0221  0.2346
  388TMC3    C3 5797   1.896   1.005   9.816 -0.0598 -0.1468 -0.3142
  388TMC3    C4 5798   1.999   0.787   9.676  0.2430  0.2247  0.7566
  388TMC3    C5 5799   2.041   0.832   9.798  0.2769  0.1620  0.4373
  388TMC3    C6 5800   1.995   0.932   9.872 -0.3440  0.2815 -0.3956
  388TMC3     C 5801   1.843   0.825   9.499  0.4033  0.3282 -0.3828
  388TMC3     O 5802   1.797   0.907   9.425 -0.5160 -0.5259  0.4765
  388TMC3     H 5803   1.764   1.037   9.646 -1.5329 -0.0195  1.2454
  388TMC3    H1 5804   2.052   0.709   9.623  0.1870 -0.3177  1.5076
  388TMC3    H2 5805   2.033   0.949   9.972 -2.5451  2.9023 -0.0052
  388TMC3    C7 5806   2.135   0.742   9.862 -0.1166  0.3691  0.2158
  388TMC3    C8 5807   1.867   1.136   9.870  0.0640  0.3303 -0.0077
  388TMC3    O1 5808   2.193   0.783   9.964 -0.0414  0.3208  0.0240
  388TMC3    O2 5809   1.961   1.186   9.934  0.7034 -0.6917 -0.1459
  389MPD2     C 5810   1.888   3.513  10.613  0.4383 -0.2826 -0.8803
  389MPD2    C1 5811   1.765   3.470  10.583  0.0337 -0.8018 -0.3142
  389MPD2    C2 5812   1.664   3.469  10.678  0.1029 -0.1567  0.0855
  389MPD2    C3 5813   1.687   3.515  10.803  0.5838  0.2525 -0.6295
  389MPD2    C4 5814   1.813   3.552  10.842  0.5050  0.2100 -0.5846
  389MPD2    C5 5815   1.910   3.551  10.746 -0.6517 -0.4579 -0.0933
  389MPD2     H 5816   1.566   3.434  10.647  0.1322 -0.7890  0.6993
  389MPD2    H1 5817   1.831   3.579  10.945 -1.2643  1.3164 -0.5662
  389MPD2    H2 5818   1.977   3.519  10.550 -0.8692  1.3590 -2.5581
  389MPD2    H3 5819   2.013   3.573  10.770 -0.5508 -1.7987  0.7256
  389MPD2     N 5820   1.587   3.537  10.893  0.1043 -0.3717  0.3210
  389MPD2    H5 5821   1.606   3.603  10.968 -1.2446  0.7769 -0.3457
  389MPD2    N1 5822   1.750   3.439  10.444  0.5381  0.0583  0.1070
  389MPD2    H7 5823   1.831   3.449  10.384  0.6874  2.8737  0.7518
  390TMC3    C1 5824   1.358   3.554  10.966  0.2653  0.4760 -0.3204
  390TMC3    C2 5825   1.249   3.469  11.001  0.3034 -0.6436 -0.1738
  390TMC3    C3 5826   1.162   3.507  11.097  0.5888  0.1252 -0.0163
  390TMC3    C4 5827   1.370   3.672  11.020  0.5276  0.1243 -0.8325
  390TMC3    C5 5828   1.277   3.705  11.116  0.7604 -0.5669  0.3123
  390TMC3    C6 5829   1.176   3.625  11.164  0.0917 -0.1758  0.4244
  390TMC3     C 5830   1.457   3.491  10.879  0.0375 -0.5647  1.2109
  390TMC3     O 5831   1.418   3.399  10.809 -0.5043  0.1250 -0.6726
  390TMC3     H 5832   1.224   3.379  10.947 -2.4905  0.7155 -1.1379
  390TMC3    H1 5833   1.452   3.733  10.985 -1.0427  2.3679 -0.5810
  390TMC3    H2 5834   1.110   3.656  11.243 -0.8712 -0.2356 -0.3494
  390TMC3    C7 5835   1.298   3.833  11.174  0.2978 -0.2802  0.8683
  390TMC3    C8 5836   1.085   3.406  11.161  0.1014 -0.0826  0.2928
  390TMC3    O1 5837   1.348   3.922  11.105  0.2305 -0.4106 -0.2129
  390TMC3    O2 5838   1.032   3.318  11.097 -0.0324 -0.2405 -0.2054
  391MPD2     C 5839   0.379   0.622  11.283 -0.0652 -0.3170 -0.8021
  391MPD2    C1 5840   0.489   0.688  11.239 -0.0071  0.5412  0.4235
  391MPD2    C2 5841   0.494   0.717  11.111 -0.2638  0.3425  0.0168
  391MPD2    C3 5842   0.399   0.679  11.020 -0.4204  0.2948 -0.7237
  391MPD2    C4 5843   0.289   0.611  11.065  0.3522 -1.1415  0.2683
  391MPD2    C5 5844   0.287   0.582  11.200 -0.2255  0.2089  0.9377
  391MPD2     H 5845   0.573   0.786  11.082 -0.8219  1.0470  0.1752
  391MPD2    H1 5846   0.212   0.584  10.994 -1.4217 -0.5698  1.9889
  391MPD2    H2 5847   0.367   0.602  11.388  0.0942 -0.7646 -0.8739
  391MPD2    H3 5848   0.201   0.530  11.242  1.4115 -2.2606  1.2293
  391MPD2     N 5849   0.420   0.724  10.888  0.5022 -0.4394  0.6527
  391MPD2    H5 5850   0.507   0.771  10.869  0.7362 -0.0117  2.7485
  391MPD2    N1 5851   0.584   0.733  11.336  0.3168 -0.2568 -0.6985
  391MPD2    H7 5852   0.566   0.708  11.433 -0.2121 -0.2014 -0.7792
  392TMC3    C1 5853   0.389   0.743  10.658  0.0476  0.6833  0.0074
  392TMC3    C2 5854   0.312   0.746  10.545  0.0898 -0.0342 -0.3201
  392TMC3    C3 5855   0.378   0.743  10.422  0.3508  0.1713  0.6793
  392TMC3    C4 5856   0.523   0.760  10.655 -0.2898  0.3453  0.0296
  392TMC3    C5 5857   0.586   0.756  10.535 -0.2446 -0.2075  0.5022
  392TMC3    C6 5858   0.515   0.736  10.412  0.1164 -0.1610 -0.2407
  392TMC3     C 5859   0.332   0.697  10.780 -0.6725 -0.1162 -0.0271
  392TMC3     O 5860   0.217   0.662  10.777 -0.4156  0.0445  0.0294
  392TMC3     H 5861   0.205   0.726  10.548  0.1006  0.0499  0.4647
  392TMC3    H1 5862   0.584   0.798  10.737 -0.5969 -0.1983  0.5073
  392TMC3    H2 5863   0.566   0.724  10.318  1.7555  0.6470  0.5460
  392TMC3    C7 5864   0.708   0.833  10.526  0.0672  0.0489 -0.5271
  392TMC3    C8 5865   0.310   0.677  10.309 -0.0677 -0.2410 -0.7797
  392TMC3    O1 5866   0.716   0.926  10.606  0.1470  0.1653  0.0356
  392TMC3    O2 5867   0.372   0.604  10.236 -0.3972  0.8684 -0.3553
  393TMC3    C1 5868   4.512   3.575  10.663  0.3401  0.4914 -0.2967
  393TMC3    C2 5869   4.397   3.556  10.742 -0.9503  0.9350 -0.2251
  393TMC3    C3 5870   4.402   3.546  10.874  0.4787  0.0014 -0.5881
  393TMC3    C4 5871   4.637   3.590  10.720 -0.4048  0.2721  0.4186
  393TMC3    C5 5872   4.637   3.580  10.857 -0.2221  0.2601 -0.6725
  393TMC3    C6 5873   4.527   3.555  10.936 -0.2031  0.0776 -0.1920
  393TMC3     C 5874   4.511   3.609  10.524  0.3907  0.0453  0.1420
  393TMC3     O 5875   4.601   3.682  10.481  0.0560  0.1164  0.1700
  393TMC3     H 5876   4.299   3.552  10.697 -0.9642  0.6848 -0.1690
  393TMC3    H1 5877   0.003   3.617  10.666 -1.9535  0.8876 -1.8358
  393TMC3    H2 5878   4.535   3.544  11.044  0.8940  0.1308 -0.2657
  393TMC3    C7 5879   0.046   3.583  10.923 -0.4772  0.1685  0.3783
  393TMC3    C8 5880   4.273   3.512  10.940  0.7238  0.5893  0.6494
  393TMC3    O1 5881   0.048   3.623  11.040 -0.3842  0.0388  0.0936
  393TMC3    O2 5882   4.187   3.465  10.872 -0.4130  0.1107 -0.0953
  394TMC3    C1 5883   1.635   3.417  10.248 -0.1557 -0.3165 -0.5744
  394TMC3    C2 5884   1.544   3.347  10.175 -0.2472 -0.7330 -0.1957
  394TMC3    C3 5885   1.513   3.399  10.056  0.5803  0.3047  0.5624
  394TMC3    C4 5886   1.675   3.542  10.208  0.5399 -0.2089 -0.0036
  394TMC3    C5 5887   1.653   3.590  10.083  0.1596 -0.7650  0.3128
  394TMC3    C6 5888   1.567   3.514  10.001 -0.3247  0.0693  0.1491
  394TMC3     C 5889   1.644   3.382  10.388 -0.7233  0.2060 -0.2430
  394TMC3     O 5890   1.557   3.314  10.443  0.3537 -0.5425  0.0347
  394TMC3     H 5891   1.513   3.249  10.210 -0.7132  0.3830  2.4524
  394TMC3    H1 5892   1.724   3.611  10.276 -0.0097  1.2561 -1.0768
  394TMC3    H2 5893   1.549   3.546   9.899  0.0201  0.0483  0.0828
  394TMC3    C7 5894   1.710   3.721  10.047  0.2849  0.4701  0.9601
  394TMC3    C8 5895   1.416   3.333   9.974  0.1244 -0.1045 -0.0668
  394TMC3    O1 5896   1.659   3.795   9.961 -0.7360  0.5255  0.3045
  394TMC3    O2 5897   1.367   3.387   9.871 -0.1930 -0.4279  0.2491
  395TMC3    C1 5898   0.371   1.354  14.026 -0.2092 -0.1496  0.4015
  395TMC3    C2 5899   0.242   1.315  14.029  0.4255 -0.3616  0.5793
  395TMC3    C3 5900   0.147   1.383  14.105 -0.4082  0.2912 -0.1861
  395TMC3    C4 5901   0.416   1.462  14.097 -0.5537 -0.3508  0.2358
  395TMC3    C5 5902   0.321   1.531  14.171  0.0189  0.1221  0.8396
  395TMC3    C6 5903   0.191   1.492  14.181 -0.6895  0.7178 -0.0830
  395TMC3     C 5904   0.437   1.252  14.085  0.1000  0.4128  0.2742
  395TMC3     O 5905   0.497   1.280  14.186  0.0442  0.0783 -0.2596
  395TMC3     H 5906   0.212   1.239  13.958 -1.4957  1.1387 -0.2207
  395TMC3    H1 5907   0.522   1.481  14.104 -0.6906  0.1869  0.8776
  395TMC3    H2 5908   0.123   1.546  14.246 -2.0750 -1.3444  0.1874
  395TMC3    C7 5909   0.362   1.611  14.287 -0.3916  1.5315  0.3414
  395TMC3    C8 5910   0.057   1.295  14.179  0.3878 -0.5231  0.7615
  395TMC3    O1 5911   0.292   1.707  14.326  0.7356  0.4056 -0.6338
  395TMC3    O2 5912   0.002   1.358  14.271  0.1899 -0.0100 -0.2861
  396MPD2     C 5913   0.965   2.138  17.662 -0.0063  0.0402 -0.0137
  396MPD2    C1 5914   1.086   2.166  17.604  0.1751 -0.6467 -0.9324
  396MPD2    C2 5915   1.086   2.225  17.479  0.1964  0.1017 -0.1700
  396MPD2    C3 5916   0.968   2.245  17.411  0.0903 -0.6988  0.4116
  396MPD2    C4 5917   0.848   2.211  17.472  0.1865 -0.0146  0.1115
  396MPD2    C5 5918   0.845   2.152  17.599  0.4820 -0.4225 -0.2835
  396MPD2     H 5919   1.177   2.258  17.432  0.1546 -1.5106 -1.3775
  396MPD2    H1 5920   0.752   2.222  17.422  1.0257 -0.8126 -1.7078
  396MPD2    H2 5921   0.972   2.088   0.062  0.0493 -0.3862 -0.2403
  396MPD2    H3 5922   0.745   2.127  17.632  0.6988  0.6753  1.1940
  396MPD2     N 5923   0.971   2.302  17.286  0.0533 -0.1087  0.3297
  396MPD2    H5 5924   1.065   2.324  17.256  0.8414 -0.9187  2.1645
  396MPD2    N1 5925   1.203   2.148  17.689 -0.1472 -0.3287 -0.4879
  396MPD2    H7 5926   1.196   2.087   0.073  3.2712  1.0909  0.8701
  397TMC3    C1 5927   1.413   2.046  17.684 -0.6925  0.3107  0.3190
  397TMC3    C2 5928   1.447   1.986  17.562  0.1417 -0.7415 -0.0341
  397TMC3    C3 5929   1.395   1.868  17.517 -0.9185 -0.3062 -0.1554
  397TMC3    C4 5930   1.350   1.963   0.074 -0.2642 -0.4045 -0.0383
  397TMC3    C5 5931   1.302   1.841   0.036  0.0671  0.7446 -0.5911
  397TMC3    C6 5932   1.328   1.789  17.611  0.1441 -0.2311  0.2472
  397TMC3     C 5933   1.333   2.168  17.655  0.6431  0.3465  0.7099
  397TMC3     O 5934   1.377   2.248  17.574 -0.2242  0.0911  0.3703
  397TMC3     H 5935   1.482   2.047  17.479  0.3959  1.1444  1.4636
  397TMC3    H1 5936   1.323   2.006   0.170  0.9952  0.1187  0.0723
  397TMC3    H2 5937   1.264   1.710  17.574 -0.1219 -0.4065  1.0766
  397TMC3    C7 5938   1.182   1.796   0.113  0.0443 -0.5557 -0.0356
  397TMC3    C8 5939   1.325   1.890  17.396 -0.0487 -0.3657  0.4741
  397TMC3    O1 5940   1.113   1.891   0.152 -0.1605  0.1408  0.4558
  397TMC3    O2 5941   1.392   1.937  17.305 -0.1569 -0.4591  0.1313
  398MPD2     C 5942   3.794   2.853   0.356 -0.3798 -0.2872 -0.4005
  398MPD2    C1 5943   3.874   2.753   0.391 -0.2850  0.2605 -0.0259
  398MPD2    C2 5944   3.992   2.780   0.453 -0.0768 -0.2071  0.1443
  398MPD2    C3 5945   4.035   2.914   0.470  0.9670  0.3361 -0.4727
  398MPD2    C4 5946   3.947   3.015   0.443  0.5557 -0.1065 -0.2625
  398MPD2    C5 5947   3.821   2.982   0.388 -0.0043 -0.3234 -0.2126
  398MPD2     H 5948   4.063   2.701   0.476  1.5038  0.6203 -1.9036
  398MPD2    H1 5949   3.967   3.120   0.460 -0.4106 -0.1583  1.2494
  398MPD2    H2 5950   3.699   2.829   0.310 -0.8775  0.2583  0.3422
  398MPD2    H3 5951   3.755   3.060   0.354 -0.7136 -0.2483  1.3209
  398MPD2     N 5952   4.161   2.942   0.524  0.5892  0.3242 -0.2001
  398MPD2    H5 5953   4.214   2.863   0.560  0.1399  0.1566  0.0917
  398MPD2    N1 5954   3.850   2.617   0.356  0.2589 -0.7409  0.5001
  398MPD2    H7 5955   3.915   2.547   0.391  2.2044  0.7419 -0.2033
  399TMC3    C1 5956   3.751   2.419   0.277 -0.2464 -0.1055  0.5175
  399TMC3    C2 5957   3.853   2.346   0.319  0.1783  0.1647 -0.2452
  399TMC3    C3 5958   3.829   2.216   0.346 -0.0694 -0.0872  0.2208
  399TMC3    C4 5959   3.634   2.368   0.232  0.0504 -0.3760  0.3953
  399TMC3    C5 5960   3.619   2.234   0.250 -0.6645  0.3877 -0.1041
  399TMC3    C6 5961   3.708   2.156   0.316  0.3259  0.6338  0.1596
  399TMC3     C 5962   3.748   2.568   0.285  0.6279  0.4166 -0.5102
  399TMC3     O 5963   3.669   2.634   0.215  0.1725  0.2580 -0.1655
  399TMC3     H 5964   3.950   2.393   0.330  0.1394  0.0551  0.5892
  399TMC3    H1 5965   3.553   2.432   0.199  1.5024  1.3709  0.1995
  399TMC3    H2 5966   3.688   2.051   0.333  0.0709  0.4303 -1.4577
  399TMC3    C7 5967   3.485   2.178   0.234  0.8235  0.4517  0.1624
  399TMC3    C8 5968   3.933   2.135   0.411 -0.3871  0.6718 -0.1355
  399TMC3    O1 5969   3.386   2.253   0.239  0.6820 -0.2900  0.5433
  399TMC3    O2 5970   4.028   2.197   0.446  0.0342 -0.3869 -0.4177
  400TMC3    C1 5971   2.315   1.348  17.165  0.6144 -0.3557  0.7580
  400TMC3    C2 5972   2.206   1.386  17.083  0.3375 -0.5567 -0.4045
  400TMC3    C3 5973   2.224   1.494  17.009  0.5577  0.2444 -0.1249
  400TMC3    C4 5974   2.431   1.417  17.165 -0.6823 -1.1056  0.3400
  400TMC3    C5 5975   2.439   1.533  17.099 -0.4605 -0.8326  0.0884
  400TMC3    C6 5976   2.336   1.568  17.013  0.0404 -0.4084 -0.6100
  400TMC3     C 5977   2.316   1.220  17.236  0.3638  0.6348 -0.1061
  400TMC3     O 5978   2.412   1.198  17.307 -0.2880 -0.2623  0.1131
  400TMC3     H 5979   2.114   1.329  17.081  0.8817 -1.5007  1.2088
  400TMC3    H1 5980   2.515   1.388  17.228  1.3024  0.4794 -1.5445
  400TMC3    H2 5981   2.355   1.643  16.937  2.4944 -2.1122 -1.6761
  400TMC3    C7 5982   2.556   1.614  17.106  0.1115 -0.5466 -0.3106
  400TMC3    C8 5983   2.116   1.545  16.916  0.0595 -0.4201  0.0483
  400TMC3    O1 5984   2.663   1.561  17.138  0.0386  0.2478  0.0780
  400TMC3    O2 5985   2.126   1.659  16.874 -0.0124  0.4185  0.0132
  401MPD2     C 5986   0.664   0.190   0.589 -0.2701 -0.6695  0.7442
  401MPD2    C1 5987   0.775   0.122   0.626 -0.3468 -0.5724 -0.0472
  401MPD2    C2 5988   0.785   4.712   0.607 -0.5743 -0.5347  0.3189
  401MPD2    C3 5989   0.679   4.636   0.557  0.1239  0.1609 -0.4534
  401MPD2    C4 5990   0.565   4.708   0.517 -0.4518  0.2016  0.2476
  401MPD2    C5 5991   0.557   0.118   0.535 -0.5247  0.4192 -0.6059
  401MPD2     H 5992   0.879   4.670   0.641 -0.7588 -1.7005 -0.6259
  401MPD2    H1 5993   0.474   4.664   0.477  0.2884  1.1061 -2.4098
  401MPD2    H2 5994   0.658   0.296   0.611  0.1962 -0.7349  1.1847
  401MPD2    H3 5995   0.461   0.163   0.514 -0.4449  0.9545  0.2078
  401MPD2     N 5996   0.671   4.496   0.545  0.5189 -0.5234 -0.3322
  401MPD2    H5 5997   0.585   4.443   0.534  0.9856 -1.3130 -0.2071
  401MPD2    N1 5998   0.881   0.178   0.695 -0.0020 -0.0282  0.2600
  401MPD2    H7 5999   0.966   0.122   0.690 -0.8351 -1.0270 -2.7963
  402TMC3    C1 6000   0.757   4.283   0.585  0.1997 -0.5454 -0.0330
  402TMC3    C2 6001   0.673   4.250   0.697  0.1683  0.4908  0.4718
  402TMC3    C3 6002   0.706   4.134   0.773  0.6779 -0.5388 -0.1951
  402TMC3    C4 6003   0.852   4.193   0.539  0.5222 -0.5096  0.4649
  402TMC3    C5 6004   0.875   4.075   0.612  0.2320  0.2475  1.0920
  402TMC3    C6 6005   0.798   4.051   0.724  0.3838  1.0141  0.0720
  402TMC3     C 6006   0.787   4.426   0.569  0.5442 -0.2893 -1.0114
  402TMC3     O 6007   0.905   4.459   0.584  0.3728 -0.1433  0.0378
  402TMC3     H 6008   0.617   4.323   0.754 -1.1345 -1.6666  1.9511
  402TMC3    H1 6009   0.920   4.221   0.459 -0.2768 -1.5424 -0.5648
  402TMC3    H2 6010   0.819   3.972   0.795 -1.3713  2.3755  2.0908
  402TMC3    C7 6011   1.010   4.047   0.634 -0.0787 -0.0540 -0.3681
  402TMC3    C8 6012   0.734   4.166   0.916  0.7652  0.3975  0.1304
  402TMC3    O1 6013   1.080   4.066   0.538 -0.2590  0.3125  0.5798
  402TMC3    O2 6014   0.836   4.127   0.969 -0.0425 -0.1932 -0.0199
  403MPD2     C 6015   3.642   3.415  13.482  0.2736  0.2901  0.0563
  403MPD2    C1 6016   3.667   3.304  13.559 -0.5374 -0.6559 -0.6588
  403MPD2    C2 6017   3.784   3.295  13.635  0.5071 -0.4624  0.2881
  403MPD2    C3 6018   3.855   3.409  13.651 -0.2364 -0.1746 -0.2786
  403MPD2    C4 6019   3.827   3.523  13.582  0.0002 -0.1904 -0.4881
  403MPD2    C5 6020   3.718   3.528  13.504  1.2020 -0.5090 -0.1132
  403MPD2     H 6021   3.809   3.212  13.700 -1.9639 -0.4244  1.2939
  403MPD2    H1 6022   3.882   3.615  13.597  1.1005 -0.9559  0.1633
  403MPD2    H2 6023   3.566   3.420  13.405 -0.0144  0.7120  0.3680
  403MPD2    H3 6024   3.694   3.613  13.442 -2.4757 -0.2704  1.6531
  403MPD2     N 6025   3.970   3.403  13.744  0.3504 -0.1977 -0.8025
  403MPD2    H5 6026   3.975   3.324  13.807 -2.6756 -1.0741 -1.6718
  403MPD2    N1 6027   3.585   3.189  13.525 -0.2212  0.3355  1.0472
  403MPD2    H7 6028   3.514   3.208  13.455  0.6273  0.1764  0.1597
  404TMC3    C1 6029   3.548   2.962  13.474  0.7778  0.2686 -0.3162
  404TMC3    C2 6030   3.552   2.832  13.517  0.3193  0.0612 -0.1971
  404TMC3    C3 6031   3.517   2.735  13.418  0.1343  0.6025  0.5784
  404TMC3    C4 6032   3.518   2.992  13.342  0.1145 -0.3084 -0.0875
  404TMC3    C5 6033   3.517   2.894  13.252 -0.2193 -0.4171 -0.3603
  404TMC3    C6 6034   3.517   2.761  13.288  0.1981  0.8205 -1.0396
  404TMC3     C 6035   3.605   3.057  13.569  0.0849  0.5101  0.7454
  404TMC3     O 6036   3.668   3.017  13.663 -0.2476  0.5010  0.0857
  404TMC3     H 6037   3.570   2.813  13.622  0.2372 -0.2527 -0.2404
  404TMC3    H1 6038   3.518   3.089  13.294  3.1837 -0.0226  0.4894
  404TMC3    H2 6039   3.529   2.680  13.217  1.7741  1.0310 -1.0195
  404TMC3    C7 6040   3.572   2.914  13.120  1.1324 -0.3073  1.5983
  404TMC3    C8 6041   3.488   2.597  13.452 -0.0021 -0.4678 -0.3271
  404TMC3    O1 6042   3.634   3.017  13.110 -0.2141 -0.1594  0.0878
  404TMC3    O2 6043   3.493   2.513  13.365 -0.4798 -0.4472  0.8522
  405MPD2     C 6044   4.007   3.684  14.888 -0.2171 -0.1000 -0.2006
  405MPD2    C1 6045   3.956   3.605  14.786 -0.0275  0.3330  0.5330
  405MPD2    C2 6046   3.856   3.664  14.710  0.3255  0.1531  0.2681
  405MPD2    C3 6047   3.802   3.786  14.741 -0.2142 -0.0863  0.1751
  405MPD2    C4 6048   3.856   3.861  14.837 -0.1466 -0.8462  0.6781
  405MPD2    C5 6049   3.959   3.805  14.915  0.1889  0.1316  0.4530
  405MPD2     H 6050   3.805   3.612  14.629  2.4266 -1.9789  0.3347
  405MPD2    H1 6051   3.811   3.953  14.871  0.9549 -0.8522  2.1352
  405MPD2    H2 6052   4.086   3.645  14.952 -0.1870  0.0790 -0.1290
  405MPD2    H3 6053   3.982   3.845  15.013 -2.8966  0.5407  0.9986
  405MPD2     N 6054   3.687   3.818  14.674  0.0595 -0.0719  0.6455
  405MPD2    H5 6055   3.669   3.764  14.590 -0.0007 -0.8704  1.1706
  405MPD2    N1 6056   3.998   3.467  14.781  0.3554 -0.2362  0.6874
  405MPD2    H7 6057   4.082   3.438  14.830 -1.1526 -1.0198  2.8433
  406TMC3    C1 6058   3.335   3.973  14.458 -0.6216 -0.3772 -0.1489
  406TMC3    C2 6059   3.307   3.851  14.395  0.8618  0.0903 -0.6420
  406TMC3    C3 6060   3.374   3.744  14.449  0.0068  0.2408 -0.4680
  406TMC3    C4 6061   3.410   3.995  14.566  0.6124 -0.0309 -0.0356
  406TMC3    C5 6062   3.472   3.887  14.620  0.1752 -0.4143  0.4740
  406TMC3    C6 6063   3.462   3.765  14.553  0.4965  0.2812  0.7774
  406TMC3     C 6064   3.271   4.086  14.402 -0.0289 -0.0436  0.0618
  406TMC3     O 6065   3.257   4.186  14.470  0.0162  0.1766  0.2398
  406TMC3     H 6066   3.237   3.832  14.314  1.6725 -1.8339 -0.8860
  406TMC3    H1 6067   3.427   4.093  14.610  3.8191  0.1407 -1.6288
  406TMC3    H2 6068   3.513   3.676  14.588  2.5415  1.1987  0.0915
  406TMC3    C7 6069   3.589   3.914  14.703 -0.2247  0.2716  0.2948
  406TMC3    C8 6070   3.346   3.608  14.403 -0.6257 -0.0776  0.3569
  406TMC3    O1 6071   3.572   3.995  14.794  0.0079  0.1960 -0.6345
  406TMC3    O2 6072   3.244   3.578  14.348  0.2732  0.6576  0.0308
  407MPD2     C 6073   1.231   0.251   9.100  0.1305  0.3114 -0.1150
  407MPD2    C1 6074   1.362   0.238   9.154  0.5184 -0.2157 -0.4111
  407MPD2    C2 6075   1.377   0.248   9.291  0.1001 -0.4742 -0.0004
  407MPD2    C3 6076   1.272   0.262   9.371 -0.3028  0.4128 -0.2860
  407MPD2    C4 6077   1.141   0.267   9.325  0.2097 -0.7953 -0.0484
  407MPD2    C5 6078   1.124   0.272   9.182 -0.3969 -0.0531  0.1670
  407MPD2     H 6079   1.474   0.251   9.341  1.5336  1.4062 -2.9020
  407MPD2    H1 6080   1.059   0.272   9.397 -0.2080  0.7031 -0.6379
  407MPD2    H2 6081   1.214   0.254   8.993  1.7764 -0.2738 -0.4054
  407MPD2    H3 6082   1.025   0.286   9.138 -0.4392 -0.5991  0.0850
  407MPD2     N 6083   1.279   0.274   9.511 -0.4550  0.0686 -0.3029
  407MPD2    H5 6084   1.189   0.299   9.550  0.3155  1.2165  0.7417
  407MPD2    N1 6085   1.471   0.216   9.066 -0.0382 -0.1241  0.2935
  407MPD2    H7 6086   1.566   0.229   9.099 -0.9481 -0.6956  3.1471
  408TMC3    C1 6087   1.592   0.160   8.870 -0.4523  0.5279  0.4223
  408TMC3    C2 6088   1.653   0.041   8.838  0.2403  0.1478 -0.3922
  408TMC3    C3 6089   1.786   0.041   8.852  0.1054 -0.3189  0.0868
  408TMC3    C4 6090   1.662   0.275   8.865 -0.2421  0.2087  0.6548
  408TMC3    C5 6091   1.798   0.270   8.855 -0.4314 -0.1168  0.4853
  408TMC3    C6 6092   1.861   0.154   8.861  1.0660 -0.5242  0.2275
  408TMC3     C 6093   1.464   0.158   8.937 -0.6208  0.5574  0.1491
  408TMC3     O 6094   1.371   0.104   8.877 -0.0541  0.0767  0.2674
  408TMC3     H 6095   1.588   4.682   8.816 -0.8611  1.0052 -0.3480
  408TMC3    H1 6096   1.613   0.371   8.878  0.1752  0.5880 -0.5229
  408TMC3    H2 6097   1.970   0.155   8.859  1.0560 -0.1036  0.0323
  408TMC3    C7 6098   1.877   0.379   8.899  0.6731 -0.6183  0.1138
  408TMC3    C8 6099   1.841   4.645   8.906 -0.0219  0.6480 -0.3202
  408TMC3    O1 6100   1.978   0.359   8.970  0.3246 -0.3724 -0.2305
  408TMC3    O2 6101   1.782   4.537   8.891  0.5209 -0.1302 -0.3253
  409MPD2     C 6102   1.220   1.468  16.965 -0.1333 -0.2527  0.6434
  409MPD2    C1 6103   1.348   1.414  16.988  0.6318 -0.3887 -0.3396
  409MPD2    C2 6104   1.461   1.492  16.968  0.0299 -0.1073  0.4537
  409MPD2    C3 6105   1.441   1.630  16.950  0.2972  0.0161  1.0322
  409MPD2    C4 6106   1.315   1.685  16.942 -0.2551 -0.1518 -0.1004
  409MPD2    C5 6107   1.208   1.602  16.937 -0.3371  0.4480 -0.7446
  409MPD2     H 6108   1.555   1.440  16.980  0.0481 -0.6475 -2.0945
  409MPD2    H1 6109   1.298   1.791  16.929 -0.7298 -0.2796 -0.5286
  409MPD2    H2 6110   1.130   1.413  16.987  0.4765 -1.0984  1.0276
  409MPD2    H3 6111   1.108   1.642  16.926 -0.4263  0.6171  0.6490
  409MPD2     N 6112   1.557   1.713  16.957  0.2327  0.0582 -0.2758
  409MPD2    H5 6113   1.542   1.813  16.949  0.9114  0.0977 -1.0389
  409MPD2    N1 6114   1.368   1.284  17.037  0.5181 -0.4075  0.1933
  409MPD2    H7 6115   1.463   1.252  17.056  0.2812  0.4393  2.8244
  410TMC3    C1 6116   1.767   1.796  17.018  0.3457  0.3872 -0.4218
  410TMC3    C2 6117   1.874   1.779  17.097 -0.2566 -1.1014 -0.4374
  410TMC3    C3 6118   1.983   1.856  17.077 -0.3179 -0.3959  0.1901
  410TMC3    C4 6119   1.764   1.896  16.922 -0.1451  0.3729 -0.4586
  410TMC3    C5 6120   1.866   1.981  16.912 -0.1822  0.2049  0.4081
  410TMC3    C6 6121   1.977   1.958  16.987  0.4783 -0.2228 -0.6971
  410TMC3     C 6122   1.680   1.678  17.001  0.1108  0.2013  0.1076
  410TMC3     O 6123   1.720   1.567  17.026 -0.4681  0.0424 -0.0497
  410TMC3     H 6124   1.862   1.708  17.179  1.1365 -0.6669  0.1413
  410TMC3    H1 6125   1.684   1.908  16.849 -1.0175  1.2376  0.6483
  410TMC3    H2 6126   2.056   2.029  16.966  0.6323 -0.0797  0.3950
  410TMC3    C7 6127   1.896   2.014  16.778  0.3718 -0.3657  0.6448
  410TMC3    C8 6128   2.103   1.853  17.156 -0.0071  0.3411  0.6477
  410TMC3    O1 6129   1.919   1.916  16.704 -0.0504 -0.0186  0.3799
  410TMC3    O2 6130   2.186   1.939  17.134  0.2156 -0.6722  0.1874
  411MPD2     C 6131   1.487   1.718  14.527  0.0906 -0.5053 -0.2896
  411MPD2    C1 6132   1.368   1.772  14.480  0.6688  0.4583 -0.2734
  411MPD2    C2 6133   1.274   1.679  14.429  0.2119  0.3762 -1.4758
  411MPD2    C3 6134   1.302   1.545  14.419 -1.0854 -0.3980  0.0238
  411MPD2    C4 6135   1.411   1.493  14.487  0.0010  0.5995 -0.8092
  411MPD2    C5 6136   1.501   1.579  14.546  0.6174  0.0727 -0.1623
  411MPD2     H 6137   1.181   1.716  14.388 -0.1589  0.4661 -0.5486
  411MPD2    H1 6138   1.438   1.389  14.473  1.9980  1.1706 -1.1387
  411MPD2    H2 6139   1.571   1.781  14.553 -0.2353 -0.2945  0.2328
  411MPD2    H3 6140   1.599   1.537  14.565  0.0008 -0.3279  2.1766
  411MPD2     N 6141   1.223   1.451  14.338  0.2250 -0.5451 -0.5879
  411MPD2    H5 6142   1.262   1.358  14.326  2.3112  0.4850 -1.6043
  411MPD2    N1 6143   1.359   1.915  14.463 -0.7030 -0.3450  0.0844
  411MPD2    H7 6144   1.433   1.970  14.505 -0.8962 -1.1628  1.5126
  412TMC3    C1 6145   1.079   1.382  14.182 -0.5505 -0.4385  0.1604
  412TMC3    C2 6146   0.958   1.325  14.168  0.3935 -0.2885  0.1079
  412TMC3    C3 6147   0.922   1.290  14.040  0.7595  0.3063 -0.1091
  412TMC3    C4 6148   1.166   1.409  14.080 -0.6844 -0.3010  0.3662
  412TMC3    C5 6149   1.127   1.380  13.954  0.2495  0.5340  0.6231
  412TMC3    C6 6150   1.007   1.317  13.932  0.3137 -0.8634 -0.6436
  412TMC3     C 6151   1.102   1.482  14.282  0.4500 -0.0200 -0.5150
  412TMC3     O 6152   1.034   1.584  14.283  0.1514 -0.7064  0.5552
  412TMC3     H 6153   0.899   1.304  14.257  2.0735 -0.1801  1.2330
  412TMC3    H1 6154   1.238   1.488  14.097 -1.3770 -0.0938  2.3096
  412TMC3    H2 6155   0.973   1.311  13.829  1.0143  1.3237 -1.0092
  412TMC3    C7 6156   1.136   1.492  13.865  0.1110  0.5223  0.8649
  412TMC3    C8 6157   0.797   1.354  14.020  0.1375  0.1492  0.8373
  412TMC3    O1 6158   1.170   1.598  13.909  0.4053  0.0509 -0.9987
  412TMC3    O2 6159   0.768   1.443  14.092  0.2091 -0.3242  0.2003
  413MPD2     C 6160   3.157   0.072  15.577 -0.9347  0.1275  0.0862
  413MPD2    C1 6161   3.115   0.033  15.453 -0.5765 -0.1228  1.5843
  413MPD2    C2 6162   3.214   4.713  15.366 -0.0594  0.1030 -0.3579
  413MPD2    C3 6163   3.347   4.705  15.403 -0.5607  0.2964 -0.6839
  413MPD2    C4 6164   3.389   0.016  15.529 -0.1503 -0.4113  0.3007
  413MPD2    C5 6165   3.287   0.057  15.615 -0.1136 -0.6026 -0.0467
  413MPD2     H 6166   3.187   4.690  15.263  0.7160  0.1084 -0.5594
  413MPD2    H1 6167   3.490   0.014  15.569  0.7737 -1.1909 -2.0593
  413MPD2    H2 6168   3.079   0.094  15.648 -0.9897  2.2345 -0.6332
  413MPD2    H3 6169   3.312   0.080  15.718 -0.3720 -0.9501  0.0933
  413MPD2     N 6170   3.431   4.637  15.310  0.4352  0.1261 -0.4148
  413MPD2    H5 6171   3.395   4.605  15.220 -1.2218 -2.9349  1.3394
  413MPD2    N1 6172   2.977   0.040  15.424  0.3903 -0.2460  0.2601
  413MPD2    H7 6173   2.917   0.052  15.505 -1.2067 -1.1173 -0.7865
  414TMC3    C1 6174   3.611   4.504  15.239  0.1973  0.0496 -0.2195
  414TMC3    C2 6175   3.677   4.393  15.276  0.1309 -0.0649 -0.3487
  414TMC3    C3 6176   3.694   4.294  15.190  0.6554  0.0826 -0.6065
  414TMC3    C4 6177   3.564   4.520  15.111 -0.4756  0.3949  0.3754
  414TMC3    C5 6178   3.586   4.421  15.021 -0.0307 -0.0226 -0.5752
  414TMC3    C6 6179   3.639   4.301  15.061  1.0665  0.9045  0.1975
  414TMC3     C 6180   3.560   4.596  15.336  0.1513 -0.3920 -0.0235
  414TMC3     O 6181   3.629   4.596  15.441  0.2859  0.3571 -0.5581
  414TMC3     H 6182   3.691   4.381  15.383  2.3904 -0.2249 -0.6626
  414TMC3    H1 6183   3.543   4.621  15.075 -1.0867 -0.3891 -1.4742
  414TMC3    H2 6184   3.662   4.224  14.988  0.9208  0.1436  0.9509
  414TMC3    C7 6185   3.525   4.443  14.887 -0.1030 -0.2466 -0.1624
  414TMC3    C8 6186   3.761   4.172  15.233 -0.6124  0.0674  0.2455
  414TMC3    O1 6187   3.414   4.496  14.889  0.6342  0.0942  0.3782
  414TMC3    O2 6188   3.729   4.067  15.176 -0.0499 -0.2589 -0.1513
  415TMC3    C1 6189   3.486   2.074   9.491  0.0522 -0.4012  0.2083
  415TMC3    C2 6190   3.569   2.080   9.380 -0.0457  0.1729 -0.1668
  415TMC3    C3 6191   3.532   2.014   9.269  0.3410 -0.2500 -0.0764
  415TMC3    C4 6192   3.369   1.997   9.480  0.0764 -0.7845 -0.2260
  415TMC3    C5 6193   3.339   1.933   9.363 -0.0948 -0.1949  0.5223
  415TMC3    C6 6194   3.420   1.939   9.259  0.4601 -0.3874  0.2161
  415TMC3     C 6195   3.529   2.088   9.624 -0.2523 -0.2667 -0.4768
  415TMC3     O 6196   3.438   2.080   9.708 -0.3467  0.4511 -0.2242
  415TMC3     H 6197   3.624   2.173   9.383 -2.4450  1.5794  0.4835
  415TMC3    H1 6198   3.298   1.998   9.562 -0.6949 -0.3517 -0.9100
  415TMC3    H2 6199   3.403   1.881   9.169 -3.2527  0.5664  0.2787
  415TMC3    C7 6200   3.241   1.822   9.376 -0.1943  0.0691  0.4741
  415TMC3    C8 6201   3.587   2.045   9.144 -0.2593  0.3310  0.3412
  415TMC3    O1 6202   3.205   1.776   9.266 -0.0990 -0.3353 -0.3667
  415TMC3    O2 6203   3.514   2.021   9.045  0.3626 -0.5655 -0.0785
  416MPD2     C 6204   0.881   1.948  11.252  0.0906  0.2226 -0.2712
  416MPD2    C1 6205   0.747   1.913  11.259 -0.2191  0.2346  1.0649
  416MPD2    C2 6206   0.690   1.809  11.189 -0.1929 -0.3495  0.1506
  416MPD2    C3 6207   0.760   1.728  11.112 -0.4021 -0.9758 -0.8063
  416MPD2    C4 6208   0.893   1.762  11.099  0.5354  0.0483  0.7981
  416MPD2    C5 6209   0.949   1.866  11.169  0.2917  0.0074  0.9129
  416MPD2     H 6210   0.588   1.775  11.201 -0.4200  0.9939  1.9985
  416MPD2    H1 6211   0.957   1.695  11.042  0.2682 -0.4737  1.1168
  416MPD2    H2 6212   0.912   2.033  11.312 -1.0900 -0.5156  1.3763
  416MPD2    H3 6213   1.056   1.879  11.172  0.0246  2.1712  1.1882
  416MPD2     N 6214   0.707   1.634  11.019  1.0660  0.4368  0.3781
  416MPD2    H5 6215   0.778   1.582  10.968 -0.1122 -0.2373 -0.5969
  416MPD2    N1 6216   0.662   1.984  11.341  0.0343 -0.3546  0.4028
  416MPD2    H7 6217   0.700   2.056  11.402  3.2213 -0.3702 -1.5824
  417TMC3    C1 6218   0.472   2.082  11.434 -0.3846 -0.2160 -0.0603
  417TMC3    C2 6219   0.472   2.050  11.570  0.5991  0.1428 -0.1268
  417TMC3    C3 6220   0.422   2.149  11.646 -0.4092  0.3440 -0.0046
  417TMC3    C4 6221   0.432   2.201  11.381 -0.2708  0.4126  0.0199
  417TMC3    C5 6222   0.391   2.302  11.469 -0.0230 -0.0419 -0.3920
  417TMC3    C6 6223   0.376   2.270  11.599  0.4979 -0.2410 -0.4741
  417TMC3     C 6224   0.519   1.980  11.346 -0.8722 -0.2754 -0.3761
  417TMC3     O 6225   0.446   1.883  11.330  0.3132 -0.2623  0.9648
  417TMC3     H 6226   0.510   1.961  11.619 -0.9397  0.9443  2.5816
  417TMC3    H1 6227   0.455   2.221  11.277 -0.0063  2.0655  0.3985
  417TMC3    H2 6228   0.346   2.345  11.671  0.7504 -1.4350  0.8739
  417TMC3    C7 6229   0.290   2.388  11.417  0.1292  0.2909 -0.3750
  417TMC3    C8 6230   0.382   2.117  11.783 -0.7039 -0.5504  0.0692
  417TMC3    O1 6231   0.305   2.438  11.310 -0.0269  0.6007 -0.2041
  417TMC3    O2 6232   0.271   2.163  11.813  0.2950  0.2432  0.5712
  418TMC3    C1 6233   4.575   2.990   0.514  0.1621 -0.0489 -0.0779
  418TMC3    C2 6234   4.469   3.077   0.502  0.5729 -0.3786  0.0491
  418TMC3    C3 6235   4.362   3.048   0.578 -0.0377  0.2623  0.1885
  418TMC3    C4 6236   4.589   2.904   0.620 -0.2114 -0.4160 -0.7246
  418TMC3    C5 6237   4.484   2.900   0.709  0.6106 -0.6428  0.1028
  418TMC3    C6 6238   4.368   2.968   0.695 -0.4272 -0.1475 -0.5117
  418TMC3     C 6239   4.667   2.980   0.405 -0.0356 -0.1745  0.7548
  418TMC3     O 6240   4.649   3.055   0.313  0.4573  0.0713 -0.1006
  418TMC3     H 6241   4.453   3.139   0.415  1.2054 -2.6589 -1.6937
  418TMC3    H1 6242   4.677   2.846   0.647  0.4241  0.2220 -1.4237
  418TMC3    H2 6243   4.277   2.944   0.748  0.3092 -2.4700 -0.3146
  418TMC3    C7 6244   4.497   2.804   0.817  0.0826 -0.1533  0.5838
  418TMC3    C8 6245   4.230   3.058   0.514  0.1301  0.5694  0.8668
  418TMC3    O1 6246   4.565   2.707   0.792  0.2916 -0.6550  0.1355
  418TMC3    O2 6247   4.202   3.153   0.446 -0.2350  0.3041  0.6300
  419MPD2     C 6248   2.682   1.570  12.138 -0.0081  0.3795  0.3206
  419MPD2    C1 6249   2.637   1.700  12.151  0.3251  0.4604  0.1807
  419MPD2    C2 6250   2.630   1.764  12.276  0.0448  0.5479 -0.6765
  419MPD2    C3 6251   2.659   1.692  12.392 -0.0589  0.5811 -0.4625
  419MPD2    C4 6252   2.693   1.560  12.380  0.3644  0.5507 -0.1180
  419MPD2    C5 6253   2.706   1.497  12.258 -0.1839  0.4329 -0.1049
  419MPD2     H 6254   2.597   1.866  12.294 -0.9905  0.1874 -0.5303
  419MPD2    H1 6255   2.737   1.504  12.462 -3.6528 -3.6666 -0.8445
  419MPD2    H2 6256   2.688   1.517  12.044  1.0428  1.6573 -0.3334
  419MPD2    H3 6257   2.752   1.400  12.247 -0.5475  0.4757 -2.0387
  419MPD2     N 6258   2.653   1.759  12.515 -0.4621  0.4117  0.1066
  419MPD2    H5 6259   2.645   1.859  12.506  0.1511  0.5063  0.5665
  419MPD2    N1 6260   2.607   1.781  12.037 -0.0536  0.3590  0.3527
  419MPD2    H7 6261   2.576   1.875  12.059  2.4279  1.4713 -0.8954
  420TMC3    C1 6262   2.655   1.786  12.741 -0.0132 -0.3998  0.5460
  420TMC3    C2 6263   2.525   1.845  12.734 -0.6383  0.0352 -0.2522
  420TMC3    C3 6264   2.467   1.884  12.846 -0.0775 -0.4300  0.6987
  420TMC3    C4 6265   2.720   1.758  12.858  0.0683  0.1508 -0.1515
  420TMC3    C5 6266   2.652   1.803  12.972 -0.3858  0.7044 -0.2712
  420TMC3    C6 6267   2.527   1.861  12.968  0.0280  0.9221 -0.5881
  420TMC3     C 6268   2.683   1.704  12.635 -0.4429  0.0478 -0.1673
  420TMC3     O 6269   2.748   1.604  12.662 -0.3169  0.0871 -0.3966
  420TMC3     H 6270   2.476   1.869  12.640 -0.0471  0.4570 -0.4498
  420TMC3    H1 6271   2.818   1.712  12.852  0.1857  0.4338 -0.3803
  420TMC3    H2 6272   2.492   1.890  13.066  1.8233  1.7854 -0.1989
  420TMC3    C7 6273   2.715   1.758  13.096  0.2188 -0.0109 -0.0834
  420TMC3    C8 6274   2.355   1.972  12.826  0.2386 -0.0326 -0.1840
  420TMC3    O1 6275   2.650   1.732  13.200 -0.5381  0.2252  0.6479
  420TMC3    O2 6276   2.317   2.007  12.714  0.0463 -0.9434 -0.2564
  421TMC3    C1 6277   4.132   3.477  13.894 -0.1486  0.6060  0.6780
  421TMC3    C2 6278   4.172   3.580  13.974 -0.3955 -0.2052 -0.9742
  421TMC3    C3 6279   4.289   3.554  14.042 -0.2950 -0.4334 -0.6515
  421TMC3    C4 6280   4.202   3.361  13.878 -0.2796  0.4317 -0.1109
  421TMC3    C5 6281   4.319   3.343  13.941 -0.1496  0.1892 -0.5411
  421TMC3    C6 6282   4.361   3.439  14.029 -0.2189 -0.2828  0.3928
  421TMC3     C 6283   4.041   3.512  13.787  0.2481 -0.3803  0.5265
  421TMC3     O 6284   4.070   3.612  13.729  0.0717  0.3964  0.2480
  421TMC3     H 6285   4.112   3.670  13.974 -0.2508 -0.1087 -0.8376
  421TMC3    H1 6286   4.170   3.283  13.809  1.1151  0.0422 -0.3374
  421TMC3    H2 6287   4.438   3.420  14.104 -0.9445 -1.3869  0.8665
  421TMC3    C7 6288   4.352   3.212  13.994 -0.2960 -0.3162  0.3983
  421TMC3    C8 6289   4.316   3.652  14.144  0.5116 -0.0834  0.0715
  421TMC3    O1 6290   4.456   3.206  14.059  0.1218  0.6979  0.0794
  421TMC3    O2 6291   4.217   3.703  14.194  0.1726 -1.0168  0.1142
  422TMC3    C1 6292   1.516   4.615  12.650 -0.0923  0.0768 -0.1063
  422TMC3    C2 6293   1.499   4.673  12.766  0.5502  0.2947  0.3415
  422TMC3    C3 6294   1.386   4.641  12.850  0.1531 -1.0532  1.0424
  422TMC3    C4 6295   1.435   4.516  12.608  0.1839  0.5183  0.0993
  422TMC3    C5 6296   1.324   4.487  12.684  0.2664 -0.8217  0.1639
  422TMC3    C6 6297   1.300   4.541  12.807  0.8874 -0.2743  0.3611
  422TMC3     C 6298   1.635   4.656  12.576 -0.0981  0.3504 -0.0147
  422TMC3     O 6299   1.674   0.046  12.585  0.2212 -0.3106  0.2851
  422TMC3     H 6300   1.586   0.003  12.802  0.1722  0.6175  0.7727
  422TMC3    H1 6301   1.451   4.480  12.507 -2.2413  0.5172 -0.2837
  422TMC3    H2 6302   1.210   4.521  12.864  1.2472 -1.3263  0.5605
  422TMC3    C7 6303   1.240   4.383  12.642 -0.3239 -0.5783  0.2693
  422TMC3    C8 6304   1.397   4.712  12.978  0.0307  0.1286 -0.0203
  422TMC3    O1 6305   1.290   4.315  12.555 -0.3561 -0.3428  0.3760
  422TMC3    O2 6306   1.458   0.092  12.986  0.1174 -0.1349 -0.0946
  423MPD2     C 6307   2.765   0.807   0.597  0.6526  0.3714 -0.3819
  423MPD2    C1 6308   2.844   0.698   0.621  0.3705  0.1495 -0.8423
  423MPD2    C2 6309   2.937   0.660   0.531 -0.8560  0.0752  0.5294
  423MPD2    C3 6310   2.934   0.726   0.407 -0.0977 -0.4064  0.5249
  423MPD2    C4 6311   2.855   0.832   0.377 -0.1082  0.0663 -0.4184
  423MPD2    C5 6312   2.766   0.870   0.476  0.7853 -0.3959 -0.0414
  423MPD2     H 6313   2.997   0.572   0.552 -1.1575 -0.4487 -0.7643
  423MPD2    H1 6314   2.845   0.876   0.278 -1.5355 -0.2534 -0.4171
  423MPD2    H2 6315   2.693   0.836   0.672  0.5221 -0.3188 -0.2351
  423MPD2    H3 6316   2.701   0.955   0.458  1.2780 -0.4986 -2.3780
  423MPD2     N 6317   3.025   0.689   0.296 -0.0563  0.1955 -0.0404
  423MPD2    H5 6318   3.018   0.740   0.209 -0.0009  0.2911  0.0108
  423MPD2    N1 6319   2.825   0.640   0.748 -0.4093  1.2670 -0.5477
  423MPD2    H7 6320   2.740   0.672   0.794 -1.2377  0.1138 -1.2795
  424TMC3    C1 6321   2.860   0.504   0.938  0.0204 -0.3198 -0.0268
  424TMC3    C2 6322   2.944   0.418   1.006 -0.7665 -0.1209 -0.8532
  424TMC3    C3 6323   2.905   0.370   1.129 -0.1866 -0.1255 -0.2485
  424TMC3    C4 6324   2.734   0.535   0.987 -0.5139 -0.2468  0.4692
  424TMC3    C5 6325   2.699   0.477   1.106 -0.0681  0.4254  0.5279
  424TMC3    C6 6326   2.780   0.403   1.182 -0.3717  0.0570 -0.5190
  424TMC3     C 6327   2.899   0.541   0.804 -0.6318 -0.2097 -0.7363
  424TMC3     O 6328   3.002   0.489   0.763 -0.0510  0.6206  0.0830
  424TMC3     H 6329   3.047   0.408   0.973 -0.9989 -2.1744 -0.9280
  424TMC3    H1 6330   2.672   0.610   0.940  1.0076  0.8270  0.1662
  424TMC3    H2 6331   2.754   0.344   1.269  2.0571 -1.1615 -0.6138
  424TMC3    C7 6332   2.562   0.494   1.148 -0.1978  0.1459 -0.3878
  424TMC3    C8 6333   3.002   0.280   1.194  0.5674 -0.6142  0.0071
  424TMC3    O1 6334   2.488   0.547   1.061  0.1491 -0.3146  0.1281
  424TMC3    O2 6335   3.090   0.237   1.123 -0.2803 -0.6866 -0.1003
  425MPD2     C 6336   2.387   0.311  17.302  0.3262  0.2392 -0.7523
  425MPD2    C1 6337   2.311   0.206  17.263 -0.0018 -0.6701  0.7838
  425MPD2    C2 6338   2.171   0.223  17.281 -0.1563  0.9067  0.2734
  425MPD2    C3 6339   2.115   0.328  17.344  0.3147  0.8346 -0.8585
  425MPD2    C4 6340   2.193   0.435  17.376  0.0674 -0.1628  0.1408
  425MPD2    C5 6341   2.327   0.426  17.345  0.3327  0.5421  0.3778
  425MPD2     H 6342   2.104   0.139  17.266 -0.3094  0.7900  1.5592
  425MPD2    H1 6343   2.165   0.530  17.419  0.6312 -0.0385  0.2379
  425MPD2    H2 6344   2.495   0.314  17.300  0.3704 -0.4690  0.6327
  425MPD2    H3 6345   2.388   0.512  17.372 -0.4520  0.7531  1.4986
  425MPD2     N 6346   1.974   0.316  17.355 -0.3552 -0.2974  0.5691
  425MPD2    H5 6347   1.932   0.230  17.320  4.5399 -2.3957 -0.2167
  425MPD2    N1 6348   2.378   0.093  17.205  0.5562  0.2708 -0.1431
  425MPD2    H7 6349   2.479   0.092  17.210  0.4194  1.3596  2.9961
  426TMC3    C1 6350   2.364   4.594  17.134  0.6005 -0.0263  0.6273
  426TMC3    C2 6351   2.309   4.511  17.039  0.0807  0.0683  0.0135
  426TMC3    C3 6352   2.336   4.378  17.041  0.4106  0.3035  0.5765
  426TMC3    C4 6353   2.443   4.535  17.237  0.3775  0.2781 -0.1572
  426TMC3    C5 6354   2.474   4.400  17.228 -0.2323 -1.0024  0.7932
  426TMC3    C6 6355   2.430   4.323  17.126  0.4364  0.0932  0.0038
  426TMC3     C 6356   2.300   4.721  17.145 -0.1963 -0.3410 -0.1792
  426TMC3     O 6357   2.184   4.720  17.113  0.1722  0.0016  0.4903
  426TMC3     H 6358   2.247   4.553  16.961 -0.2171  0.9883  0.7492
  426TMC3    H1 6359   2.478   4.596  17.320  0.3601  1.0514 -0.7179
  426TMC3    H2 6360   2.452   4.217  17.133 -0.7716 -0.0935  0.8923
  426TMC3    C7 6361   2.570   4.349  17.328 -0.1131  0.5124 -0.4498
  426TMC3    C8 6362   2.302   4.294  16.924  0.7497 -0.0427  0.0363
  426TMC3    O1 6363   2.648   4.273  17.272 -0.6758  0.0200 -0.1160
  426TMC3    O2 6364   2.388   4.214  16.885 -0.0359 -0.5660 -0.1028
  427MPD2     C 6365   0.425   2.101  14.610 -0.0544  0.0265 -0.4196
  427MPD2    C1 6366   0.404   2.029  14.730 -0.4104  0.2290 -0.5753
  427MPD2    C2 6367   0.277   1.999  14.771 -0.6637 -0.5855  0.2783
  427MPD2    C3 6368   0.167   2.040  14.697  0.0290  0.6907 -0.4814
  427MPD2    C4 6369   0.184   2.096  14.575 -1.1703  0.1452  0.3639
  427MPD2    C5 6370   0.307   2.130  14.539 -0.2904  0.0754 -0.0412
  427MPD2     H 6371   0.263   1.937  14.859  0.1410 -2.5316 -0.9481
  427MPD2    H1 6372   0.095   2.125  14.520 -1.4407 -1.8039 -0.2314
  427MPD2    H2 6373   0.516   2.139  14.566  0.7217 -0.5734  0.6692
  427MPD2    H3 6374   0.321   2.180  14.444 -0.6327  0.2939  0.0236
  427MPD2     N 6375   0.033   2.013  14.732  0.1073 -0.0581  0.0539
  427MPD2    H5 6376   4.685   2.023  14.661  0.5327 -3.6172 -0.9167
  427MPD2    N1 6377   0.511   1.968  14.808  0.1930 -0.3538  0.2603
  427MPD2    H7 6378   0.485   1.903  14.882 -0.1541 -0.5443 -0.0270
  428TMC3    C1 6379   0.722   1.886  14.864 -0.1913 -0.2715  0.3306
  428TMC3    C2 6380   0.661   1.765  14.899  0.2672  0.7172 -1.0238
  428TMC3    C3 6381   0.746   1.687  14.985  0.1021  0.2279 -0.2149
  428TMC3    C4 6382   0.850   1.917  14.884 -0.0964 -0.0511  0.6959
  428TMC3    C5 6383   0.914   1.851  14.978  0.0361  1.0302 -0.5781
  428TMC3    C6 6384   0.866   1.734  15.031  0.1407  0.5741  1.2857
  428TMC3     C 6385   0.644   1.992  14.794 -0.0107  0.0533  0.2745
  428TMC3     O 6386   0.698   2.073  14.722  0.2086 -0.0459  0.2270
  428TMC3     H 6387   0.566   1.724  14.868  0.2206 -0.1883  0.3155
  428TMC3    H1 6388   0.883   2.015  14.850  1.1255  0.0196  2.0612
  428TMC3    H2 6389   0.928   1.673  15.096 -0.7788 -1.1885  0.5096
  428TMC3    C7 6390   1.055   1.870  15.010  0.4260  0.1220  1.2990
  428TMC3    C8 6391   0.674   1.596  15.073  0.3551 -0.3849  0.1893
  428TMC3    O1 6392   1.090   1.845  15.125  0.5172  0.2448 -0.4234
  428TMC3    O2 6393   0.690   1.623  15.193  0.5857  0.4549 -0.0183
  429MPD2     C 6394   2.244   2.183   0.184 -0.5688  0.0431  0.4603
  429MPD2    C1 6395   2.206   2.115   0.072 -0.5860  0.4723  0.2689
  429MPD2    C2 6396   2.224   2.181  17.648 -0.1214  1.3045  0.0508
  429MPD2    C3 6397   2.274   2.308  17.634 -0.5333  0.0130  0.9467
  429MPD2    C4 6398   2.299   2.380   0.054  0.0394 -0.4082 -0.3546
  429MPD2    C5 6399   2.284   2.312   0.173 -0.2547  0.2357  0.2477
  429MPD2     H 6400   2.230   2.125  17.555  0.7584 -1.4025  1.7309
  429MPD2    H1 6401   2.338   2.481   0.056 -0.8135 -0.0921  0.4239
  429MPD2    H2 6402   2.247   2.134   0.281  1.4126 -0.5693  0.1019
  429MPD2    H3 6403   2.301   2.355   0.271 -0.5582  0.4202  0.2210
  429MPD2     N 6404   2.304   2.361  17.510  0.4350 -0.0444  0.1340
  429MPD2    H5 6405   2.311   2.292  17.436  1.9302  1.1869 -0.9036
  429MPD2    N1 6406   2.178   1.972   0.065  0.0169 -0.7084  0.4100
  429MPD2    H7 6407   2.148   1.941  17.670 -1.9327  1.4391  0.3052
  430TMC3    C1 6408   2.344   2.515  17.338 -0.1333  0.1659 -0.2300
  430TMC3    C2 6409   2.262   2.599  17.269  0.1928  0.5382  0.1745
  430TMC3    C3 6410   2.212   2.552  17.151  0.4563 -0.3570 -0.1354
  430TMC3    C4 6411   2.415   2.418  17.279  0.3821  0.0643 -0.0706
  430TMC3    C5 6412   2.377   2.381  17.155  0.1316 -0.2442  0.3948
  430TMC3    C6 6413   2.271   2.440  17.095 -0.1621 -1.3716  0.6087
  430TMC3     C 6414   2.328   2.495  17.479 -0.0233  0.1309  0.5825
  430TMC3     O 6415   2.283   2.594  17.535 -0.4440 -0.2495 -0.3780
  430TMC3     H 6416   2.194   2.661  17.326  0.2839  1.4835 -0.7451
  430TMC3    H1 6417   2.499   2.368  17.327 -0.2752 -1.9851 -1.0616
  430TMC3    H2 6418   2.247   2.410  16.993 -0.3792 -2.3077  0.9393
  430TMC3    C7 6419   2.428   2.260  17.088 -0.3038 -0.0191  0.0243
  430TMC3    C8 6420   2.129   2.631  17.066  0.0206 -0.0029 -0.4875
  430TMC3    O1 6421   2.351   2.203  17.009 -0.1323 -0.2210 -0.0841
  430TMC3    O2 6422   2.073   2.570  16.971 -0.3709  0.7689  0.4800
  431MPD2     C 6423   2.628   2.501  12.284  0.2905 -0.3199  0.2666
  431MPD2    C1 6424   2.732   2.467  12.203  0.0020  0.5307 -0.5709
  431MPD2    C2 6425   2.706   2.393  12.084  0.2229  0.5884 -0.5839
  431MPD2    C3 6426   2.580   2.341  12.062 -0.3045 -0.4190 -1.1111
  431MPD2    C4 6427   2.476   2.368  12.146 -0.4494 -0.0134 -0.0836
  431MPD2    C5 6428   2.504   2.449  12.257  0.1422 -0.2007 -0.2819
  431MPD2     H 6429   2.796   2.382  12.024  0.1923 -0.9913 -0.3494
  431MPD2    H1 6430   2.371   2.350  12.126 -0.6363  0.2877  0.6088
  431MPD2    H2 6431   2.646   2.557  12.374 -0.8105 -1.0956  0.9693
  431MPD2    H3 6432   2.417   2.486  12.310 -0.2739  0.9795 -1.8057
  431MPD2     N 6433   2.561   2.251  11.957 -0.1004 -0.9468  0.4556
  431MPD2    H5 6434   2.473   2.201  11.963  0.0939 -1.4930 -1.2708
  431MPD2    N1 6435   2.863   2.507  12.224  0.0233 -0.7921 -0.1607
  431MPD2    H7 6436   2.938   2.493  12.158 -0.7102 -1.3849 -0.8573
  432TMC3    C1 6437   2.588   2.104  11.789  0.1118 -0.2693  0.2900
  432TMC3    C2 6438   2.651   2.086  11.668 -0.0254  0.3542 -0.2372
  432TMC3    C3 6439   2.668   1.960  11.611  0.6175  0.5250 -0.0062
  432TMC3    C4 6440   2.566   1.995  11.867  0.8792 -0.9317  0.1887
  432TMC3    C5 6441   2.604   1.872  11.819 -0.0879  0.0167 -0.3560
  432TMC3    C6 6442   2.652   1.854  11.692  0.2879 -0.0340 -0.0674
  432TMC3     C 6443   2.650   2.214  11.859 -0.1065  0.1580  0.4842
  432TMC3     O 6444   2.766   2.243  11.845 -0.0077  0.5611  0.3864
  432TMC3     H 6445   2.691   2.177  11.626  2.3411 -0.9753 -0.8836
  432TMC3    H1 6446   2.536   2.009  11.970 -2.4733 -0.2605 -0.8817
  432TMC3    H2 6447   2.649   1.760  11.639 -2.6477 -0.4984  0.9196
  432TMC3    C7 6448   2.608   1.752  11.902 -0.0203  0.1997  0.4939
  432TMC3    C8 6449   2.782   1.947  11.525  0.2096 -0.1334  0.3362
  432TMC3    O1 6450   2.651   1.654  11.843 -0.3502 -0.1457  0.4668
  432TMC3    O2 6451   2.775   1.984  11.409 -0.5192 -0.1962 -0.0864
  433MPD2     C 6452   1.084   0.759  10.759 -0.7616 -0.1889 -0.1660
  433MPD2    C1 6453   1.220   0.723  10.739 -0.4949 -0.7028  0.1475
  433MPD2    C2 6454   1.319   0.815  10.764 -0.3723 -0.4466 -0.0232
  433MPD2    C3 6455   1.288   0.933  10.828 -0.4320 -0.8933  0.2971
  433MPD2    C4 6456   1.156   0.974  10.836  0.2913 -0.0143  0.0470
  433MPD2    C5 6457   1.059   0.890  10.796  0.7649 -0.1273  0.3965
  433MPD2     H 6458   1.424   0.790  10.757  0.3327  2.1337  1.2977
  433MPD2    H1 6459   1.111   1.067  10.867  1.2595  1.1691 -2.1346
  433MPD2    H2 6460   1.003   0.695  10.728  0.1890 -1.9077  0.9252
  433MPD2    H3 6461   0.961   0.937  10.790  0.6226 -0.4587  0.0671
  433MPD2     N 6462   1.398   1.012  10.863  0.6695  0.0884  0.3008
  433MPD2    H5 6463   1.491   0.979  10.838  1.1218  1.7695 -0.2168
  433MPD2    N1 6464   1.252   0.586  10.700 -0.5047 -0.5625  0.0167
  433MPD2    H7 6465   1.177   0.523  10.723  1.2462 -3.6625 -2.7421
  434TMC3    C1 6466   1.356   0.410  10.616 -0.2886 -0.1814  0.4529
  434TMC3    C2 6467   1.351   0.327  10.726  0.4822  0.5178 -0.1905
  434TMC3    C3 6468   1.403   0.202  10.714  0.7732 -0.2792  0.6366
  434TMC3    C4 6469   1.398   0.362  10.497 -0.1573 -0.0209  0.2537
  434TMC3    C5 6470   1.438   0.230  10.485 -0.2893 -0.2451  0.1276
  434TMC3    C6 6471   1.436   0.144  10.592 -0.6012  0.0251  0.5205
  434TMC3     C 6472   1.371   0.546  10.638  0.3757 -0.2061  0.6440
  434TMC3     O 6473   1.471   0.605  10.599  0.3509 -0.2794 -0.9481
  434TMC3     H 6474   1.317   0.358  10.824  2.6412  0.8487  0.4515
  434TMC3    H1 6475   1.418   0.433  10.417  4.2928 -3.2232 -1.4725
  434TMC3    H2 6476   1.475   0.045  10.571 -0.0269  0.1408  1.0433
  434TMC3    C7 6477   1.448   0.180  10.353 -0.0800  0.2423  0.4150
  434TMC3    C8 6478   1.508   0.177  10.820 -0.3583  0.5755  0.2603
  434TMC3    O1 6479   1.433   0.261  10.261 -0.2734  0.0794 -0.2143
  434TMC3    O2 6480   1.526   0.271  10.895  0.2063  0.3819 -0.0084
  435MPD2     C 6481   3.642   0.993  15.455 -0.0007  0.3630  0.9432
  435MPD2    C1 6482   3.574   0.928  15.554  0.2223 -0.1892 -0.4165
  435MPD2    C2 6483   3.644   0.841  15.641 -0.2692 -1.2396 -0.0082
  435MPD2    C3 6484   3.785   0.832  15.626 -0.4658 -0.1449 -0.9532
  435MPD2    C4 6485   3.849   0.894  15.529 -0.1225  0.0175 -0.3656
  435MPD2    C5 6486   3.779   0.965  15.434 -0.8460 -0.5123 -0.4366
  435MPD2     H 6487   3.594   0.783  15.718  1.3421 -2.6594 -0.0442
  435MPD2    H1 6488   3.954   0.876  15.509 -0.1643  1.6296 -1.9617
  435MPD2    H2 6489   3.606   1.073  15.391  1.1055  1.9657  2.3252
  435MPD2    H3 6490   3.819   1.013  15.346 -0.6911  0.3594  0.1152
  435MPD2     N 6491   3.849   0.759  15.728 -0.1718 -0.1838  0.0470
  435MPD2    H5 6492   3.788   0.720  15.800 -0.8021  1.2500  0.2895
  435MPD2    N1 6493   3.440   0.957  15.586 -0.3414 -0.5995  0.3196
  435MPD2    H7 6494   3.400   0.917  15.670 -0.1537 -0.7018  0.3590
  436TMC3    C1 6495   3.109   1.038  15.784  0.1748 -0.6763  0.1666
  436TMC3    C2 6496   3.229   1.023  15.723 -0.3300  0.1219  0.0592
  436TMC3    C3 6497   3.234   1.059  15.590  0.1668  0.0790  0.1540
  436TMC3    C4 6498   2.991   1.051  15.713  0.5611  0.0640  0.3547
  436TMC3    C5 6499   3.004   1.070  15.579 -0.3984 -0.0286 -0.0243
  436TMC3    C6 6500   3.128   1.084  15.520  0.2048 -0.1646 -0.3171
  436TMC3     C 6501   3.094   1.001  15.927 -0.2764  0.6347  0.3109
  436TMC3     O 6502   3.155   0.904  15.965 -0.3499  0.2232 -0.0924
  436TMC3     H 6503   3.319   1.005  15.782 -0.6282  1.8153  1.0435
  436TMC3    H1 6504   2.894   1.025  15.753  0.8028 -1.9472 -0.3614
  436TMC3    H2 6505   3.122   1.091  15.412  1.8232 -1.9779 -0.5100
  436TMC3    C7 6506   2.886   1.074  15.491  0.3836  0.5270  0.1543
  436TMC3    C8 6507   3.354   1.022  15.509  0.8342 -0.4447  0.2912
  436TMC3    O1 6508   2.895   1.125  15.381 -0.0433  0.2084 -0.2848
  436TMC3    O2 6509   3.364   1.038  15.387  0.1837  0.4465 -0.1957
  437TMC3    C1 6510   2.266   2.990  12.231  0.3560 -0.2119  1.0069
  437TMC3    C2 6511   2.225   3.109  12.185 -0.0367 -0.1174  0.0626
  437TMC3    C3 6512   2.290   3.165  12.081  0.1465 -0.6795 -0.1695
  437TMC3    C4 6513   2.380   2.937  12.179 -0.2611  0.4721  1.0824
  437TMC3    C5 6514   2.447   2.998  12.079  0.4300 -0.4672  0.3840
  437TMC3    C6 6515   2.397   3.112  12.027  0.6544 -0.0386 -0.5020
  437TMC3     C 6516   2.198   2.939  12.350 -0.1938 -0.8011  0.3199
  437TMC3     O 6517   2.084   2.982  12.367  0.0859  0.6758 -0.3052
  437TMC3     H 6518   2.135   3.154  12.224  1.1292  2.0745  0.1839
  437TMC3    H1 6519   2.414   2.841  12.215 -0.7694 -0.5332 -1.1151
  437TMC3    H2 6520   2.461   3.172  11.963 -0.6175  0.0555 -1.6760
  437TMC3    C7 6521   2.582   2.957  12.043 -0.1935  0.4412  0.0263
  437TMC3    C8 6522   2.238   3.295  12.034 -0.6259  0.6231  0.7678
  437TMC3    O1 6523   2.622   2.984  11.926  0.3342 -0.1710 -0.4809
  437TMC3    O2 6524   2.156   3.357  12.103 -0.2864 -0.1737  0.0595
  438MPD2     C 6525   0.023   3.762  16.809 -0.0928  0.6070 -0.6298
  438MPD2    C1 6526   0.090   3.661  16.878  0.0367  0.3214  0.7079
  438MPD2    C2 6527   0.132   3.679  17.008  0.1500  0.3417  0.0432
  438MPD2    C3 6528   0.104   3.796  17.075 -0.3831 -0.9864  0.1143
  438MPD2    C4 6529   0.041   3.901  17.004 -0.3981 -0.1908 -0.0662
  438MPD2    C5 6530   0.001   3.876  16.872 -0.6474 -0.2869 -0.4546
  438MPD2     H 6531   0.177   3.594  17.058 -1.3569 -0.2332  0.3990
  438MPD2    H1 6532   0.016   3.990  17.060 -2.8751 -0.3203 -0.9769
  438MPD2    H2 6533   4.712   3.752  16.706 -0.9564 -0.2047 -0.2577
  438MPD2    H3 6534   4.680   3.961  16.822  1.3773  1.4399  0.6049
  438MPD2     N 6535   0.139   3.820  17.213 -0.2152  0.0756 -0.1900
  438MPD2    H5 6536   0.100   3.907  17.247 -0.3423  0.3737 -1.1229
  438MPD2    N1 6537   0.121   3.534  16.818 -0.0539  0.2004 -0.0154
  438MPD2    H7 6538   0.159   3.462  16.878 -0.9865  0.5581  0.9987
  439TMC3    C1 6539   0.140   3.365  16.652  1.0676  0.2047  0.1393
  439TMC3    C2 6540   0.094   3.298  16.545  0.0149  0.3429 -0.7461
  439TMC3    C3 6541   0.170   3.203  16.486 -0.7366 -0.1528 -0.6519
  439TMC3    C4 6542   0.249   3.314  16.719  0.0209  0.3069  0.2423
  439TMC3    C5 6543   0.329   3.221  16.657  0.2799  0.2192  0.1991
  439TMC3    C6 6544   0.294   3.157  16.544 -0.4174  0.5100 -0.7551
  439TMC3     C 6545   0.096   3.492  16.692 -0.4994 -0.4299  0.2122
  439TMC3     O 6546   0.052   3.560  16.599 -0.3721 -0.4763  0.0275
  439TMC3     H 6547   4.719   3.324  16.508 -0.4131  0.2045  0.3073
  439TMC3    H1 6548   0.286   3.369  16.805  1.9939 -1.7381  0.6937
  439TMC3    H2 6549   0.365   3.094  16.492  0.6024 -0.4193  1.7761
  439TMC3    C7 6550   0.463   3.218  16.704 -0.0677  0.2461 -0.4050
  439TMC3    C8 6551   0.126   3.089  16.407  0.4154  0.1701  0.0288
  439TMC3    O1 6552   0.486   3.262  16.813  0.4703  0.1213 -0.0121
  439TMC3    O2 6553   0.181   2.982  16.431  0.5738  0.7484  0.0234
  440MPD2     C 6554   3.352   3.548  14.799  0.1245 -0.2367 -0.5333
  440MPD2    C1 6555   3.401   3.637  14.893  0.6006 -0.0153  0.7663
  440MPD2    C2 6556   3.517   3.605  14.962 -0.1446 -0.5718 -0.0164
  440MPD2    C3 6557   3.583   3.476  14.947  0.0942  0.2406  0.1865
  440MPD2    C4 6558   3.530   3.392  14.852 -0.2240  0.3319  0.1831
  440MPD2    C5 6559   3.422   3.434  14.775  0.2961  1.2171  0.3415
  440MPD2     H 6560   3.555   3.681  15.029 -3.2070  2.2111 -1.4448
  440MPD2    H1 6561   3.581   3.299  14.830 -0.4733  0.4448 -0.8632
  440MPD2    H2 6562   3.268   3.564  14.732 -0.1301  0.5663 -0.0304
  440MPD2    H3 6563   3.387   3.373  14.693 -1.2711 -0.3728  2.2034
  440MPD2     N 6564   3.685   3.432  15.037 -0.2327 -0.8066  0.0150
  440MPD2    H5 6565   3.722   3.338  15.028  0.7376 -0.1893 -2.4542
  440MPD2    N1 6566   3.338   3.759  14.922 -0.5371 -0.4536 -0.5939
  440MPD2    H7 6567   3.381   3.821  14.990 -1.4900 -1.6954  1.1345
  441TMC3    C1 6568   3.865   3.449  15.191  0.7427  0.8903 -0.1665
  441TMC3    C2 6569   3.971   3.528  15.207  0.5380 -0.0548  0.3949
  441TMC3    C3 6570   4.034   3.522  15.327 -0.1734 -0.2948 -0.1204
  441TMC3    C4 6571   3.816   3.361  15.281  0.2377  0.4007 -0.0160
  441TMC3    C5 6572   3.898   3.348  15.391 -0.5643  0.4400  0.7357
  441TMC3    C6 6573   4.007   3.429  15.422  0.0626  0.0673 -0.0111
  441TMC3     C 6574   3.762   3.516  15.114 -0.4415  0.1768  0.3642
  441TMC3     O 6575   3.759   3.636  15.121  1.1044  0.2902 -0.0283
  441TMC3     H 6576   3.973   3.602  15.128  1.9911 -1.1062 -0.5691
  441TMC3    H1 6577   3.718   3.315  15.278  0.6652 -0.4385 -1.1386
  441TMC3    H2 6578   4.065   3.422  15.513 -1.3687 -2.4314  0.7244
  441TMC3    C7 6579   3.844   3.257  15.492 -0.0241 -0.5462 -0.1065
  441TMC3    C8 6580   4.094   3.647  15.374  0.7387  0.8950  0.0326
  441TMC3    O1 6581   3.726   3.217  15.481  0.3732 -0.4629 -0.2073
  441TMC3    O2 6582   4.162   3.641  15.474 -0.5600  0.2223 -0.1278
  442MPD2     C 6583   1.904   4.618  16.773  0.5552 -0.4166 -0.5367
  442MPD2    C1 6584   1.786   4.632  16.701 -0.7714 -0.5171  0.0272
  442MPD2    C2 6585   1.781   4.581  16.570 -0.4567  0.3094 -0.3069
  442MPD2    C3 6586   1.905   4.535  16.510  0.1919 -0.7021  0.2491
  442MPD2    C4 6587   2.023   4.526  16.586  0.0530 -0.5088  0.0431
  442MPD2    C5 6588   2.016   4.562  16.718 -0.0926 -0.1846 -0.1091
  442MPD2     H 6589   1.682   4.576  16.526 -0.6918 -0.9193  0.3391
  442MPD2    H1 6590   2.118   4.493  16.546  1.0694  0.7761  1.4064
  442MPD2    H2 6591   1.917   4.666  16.870  1.7545 -0.9992 -0.4118
  442MPD2    H3 6592   2.103   4.549  16.780  0.0311  1.9308  0.1686
  442MPD2     N 6593   1.910   4.456  16.388  0.0519 -0.2937 -0.4420
  442MPD2    H5 6594   1.992   4.398  16.372 -0.1536 -0.0739 -2.2958
  442MPD2    N1 6595   1.668   4.685  16.756 -0.2976 -0.3633 -0.0481
  442MPD2    H7 6596   1.586   4.682  16.696  0.2586  3.4538 -1.0120
  443TMC3    C1 6597   1.510   0.033  16.908 -0.4002 -0.4624 -0.3220
  443TMC3    C2 6598   1.435   0.058  16.794 -0.1947  0.4718 -0.1618
  443TMC3    C3 6599   1.299   0.026  16.797 -0.8651 -0.1916 -0.3679
  443TMC3    C4 6600   1.456   4.705  17.017 -0.3110  0.9010 -0.6317
  443TMC3    C5 6601   1.327   4.662  17.012  0.0981  0.1518 -0.0172
  443TMC3    C6 6602   1.248   4.680  16.901 -0.5204 -0.2560 -1.1078
  443TMC3     C 6603   1.647   0.011  16.882 -1.0214  0.5016 -0.4442
  443TMC3     O 6604   1.708   4.713  16.987  1.3053 -0.2744 -0.8169
  443TMC3     H 6605   1.481   0.114  16.713 -2.8259 -0.5508 -2.3485
  443TMC3    H1 6606   1.517   4.683  17.104  2.0337 -2.0710 -3.0088
  443TMC3    H2 6607   1.148   4.638  16.897 -0.9186  0.6065 -0.1480
  443TMC3    C7 6608   1.297   4.549  17.098 -1.0982 -0.1023 -0.1977
  443TMC3    C8 6609   1.253   4.696  16.674 -0.5934 -0.6629 -0.3543
  443TMC3    O1 6610   1.209   4.481  17.047  0.5287  0.4044  0.0488
  443TMC3    O2 6611   1.214   4.581  16.664 -0.4843  0.1489  0.4302
  444MPD2     C 6612   2.192   3.870  16.885  0.0943 -0.3918  0.7951
  444MPD2    C1 6613   2.082   3.808  16.825 -0.5162 -1.3632  0.1118
  444MPD2    C2 6614   2.088   3.684  16.760  0.0636  0.0777  0.4658
  444MPD2    C3 6615   2.203   3.611  16.767 -0.6045 -0.4530 -0.5802
  444MPD2    C4 6616   2.308   3.667  16.833 -0.0106  0.3873  0.6499
  444MPD2    C5 6617   2.306   3.790  16.885  0.0970 -0.8598 -0.2267
  444MPD2     H 6618   1.992   3.644  16.727  0.0750  1.3794 -1.1229
  444MPD2    H1 6619   2.397   3.606  16.848  0.3287  0.5474 -0.7318
  444MPD2    H2 6620   2.190   3.974  16.915  1.0644  0.2292 -1.2381
  444MPD2    H3 6621   2.393   3.839  16.928 -1.1641  1.6625 -0.5868
  444MPD2     N 6622   2.195   3.478  16.718  0.2196 -0.3764 -0.2477
  444MPD2    H5 6623   2.105   3.451  16.681  0.9255 -1.8017 -0.8936
  444MPD2    N1 6624   1.950   3.866  16.840 -0.0386 -0.1052 -0.1975
  444MPD2    H7 6625   1.876   3.829  16.782  0.2047  0.7366 -1.0576
  445TMC3    C1 6626   2.239   3.243  16.690 -0.3607  0.4422  0.6155
  445TMC3    C2 6627   2.160   3.247  16.577  0.1240 -0.0182 -0.8675
  445TMC3    C3 6628   2.157   3.138  16.489 -0.1498 -0.5830  0.3325
  445TMC3    C4 6629   2.317   3.136  16.712  0.6939 -0.9710 -0.2325
  445TMC3    C5 6630   2.328   3.036  16.617  0.8381 -0.3755  0.4653
  445TMC3    C6 6631   2.240   3.028  16.510  0.1561 -0.4655  1.0559
  445TMC3     C 6632   2.283   3.377  16.746 -1.5214 -0.3041  0.8459
  445TMC3     O 6633   2.394   3.382  16.787 -0.4496 -0.4563 -0.4324
  445TMC3     H 6634   2.112   3.339  16.548  0.5160 -0.4186 -2.8025
  445TMC3    H1 6635   2.380   3.139  16.800  0.5629 -0.7365 -0.1460
  445TMC3    H2 6636   2.249   2.949  16.436 -4.1172  0.1127 -0.0940
  445TMC3    C7 6637   2.465   2.992  16.592 -0.3778  0.4705  0.3579
  445TMC3    C8 6638   2.055   3.139  16.391  0.4992  0.2791  0.1670
  445TMC3    O1 6639   2.482   2.916  16.494 -0.3152 -0.3696 -0.9514
  445TMC3    O2 6640   2.008   3.249  16.364  0.0440  0.1443  0.1062
  446MPD2     C 6641   1.382   0.738  11.174  0.1840  0.2832  0.4540
  446MPD2    C1 6642   1.349   0.615  11.116 -0.5136 -0.0396 -0.0752
  446MPD2    C2 6643   1.448   0.550  11.048  0.2818  0.3292 -0.2461
  446MPD2    C3 6644   1.576   0.592  11.045 -0.5166  0.6062  0.4214
  446MPD2    C4 6645   1.614   0.711  11.112  0.4038 -0.9864 -0.9002
  446MPD2    C5 6646   1.515   0.781  11.169  0.2233  0.4452  0.0093
  446MPD2     H 6647   1.423   0.451  11.012  1.3668  0.1384 -0.4731
  446MPD2    H1 6648   1.715   0.741  11.136 -0.2399 -0.4975  1.1892
  446MPD2    H2 6649   1.305   0.784  11.234 -1.3886 -0.3124 -1.1086
  446MPD2    H3 6650   1.534   0.878  11.214 -1.6205 -0.2552  2.2953
  446MPD2     N 6651   1.667   0.505  10.980  1.2004 -0.4141 -0.3112
  446MPD2    H5 6652   1.623   0.431  10.928 -2.0175  1.4363 -0.2230
  446MPD2    N1 6653   1.213   0.567  11.121 -0.1516 -0.7788 -0.3208
  446MPD2    H7 6654   1.146   0.642  11.136  0.7896  0.0877 -0.4099
  447TMC3    C1 6655   1.881   0.415  10.903  0.6458  0.5213 -0.2233
  447TMC3    C2 6656   1.817   0.353  10.800 -0.3961 -0.7795 -0.1190
  447TMC3    C3 6657   1.894   0.283  10.717  0.2886  0.1841 -0.0962
  447TMC3    C4 6658   2.007   0.379  10.935 -0.1034 -0.7783 -0.7725
  447TMC3    C5 6659   2.076   0.298  10.854 -0.0550  0.2195 -0.7484
  447TMC3    C6 6660   2.025   0.245  10.738  0.1834  0.4237  0.0946
  447TMC3     C 6661   1.807   0.496  11.008  0.5524 -0.6420  0.3992
  447TMC3     O 6662   1.870   0.553  11.096  0.3331  0.0098 -0.1975
  447TMC3     H 6663   1.714   0.374  10.772  0.7890  2.2692 -2.1043
  447TMC3    H1 6664   2.037   0.411  11.034  0.4507 -0.7189 -0.9647
  447TMC3    H2 6665   2.082   0.187  10.667  1.9997 -1.6218  3.2349
  447TMC3    C7 6666   2.190   0.234  10.911  0.3636  0.1118  0.6067
  447TMC3    C8 6667   1.840   0.286  10.580  0.8454 -0.1592 -1.2975
  447TMC3    O1 6668   2.216   0.122  10.864  0.2061  0.1256 -0.2250
  447TMC3    O2 6669   1.737   0.234  10.555 -0.0363  0.1432 -0.3266
  448TMC3    C1 6670   0.275   0.272  16.790  0.0449  0.4376 -0.0374
  448TMC3    C2 6671   0.262   0.181  16.687  0.2738  0.8494 -0.5285
  448TMC3    C3 6672   0.370   0.112  16.647  0.5662  0.6912 -0.4492
  448TMC3    C4 6673   0.395   0.289  16.856 -0.0178  0.0107  0.0464
  448TMC3    C5 6674   0.504   0.224  16.805 -0.4460 -0.5706 -0.0322
  448TMC3    C6 6675   0.495   0.139  16.695 -0.6089  0.9125 -0.5539
  448TMC3     C 6676   0.163   0.351  16.839 -0.2602 -0.4142  0.1935
  448TMC3     O 6677   0.056   0.299  16.812 -0.3243  0.3358 -0.3324
  448TMC3     H 6678   0.160   0.165  16.653  0.8025 -0.8646 -1.3262
  448TMC3    H1 6679   0.408   0.350  16.945  3.0289  0.1973 -0.5279
  448TMC3    H2 6680   0.585   0.088  16.663 -0.5101  0.9484 -0.3310
  448TMC3    C7 6681   0.626   0.189  16.884 -0.4596 -0.4025 -0.9342
  448TMC3    C8 6682   0.341   4.709  16.589  0.0092  0.4830  0.1197
  448TMC3    O1 6683   0.732   0.192  16.828 -0.4726  0.0545  0.0259
  448TMC3    O2 6684   0.423   4.618  16.624 -1.0121  0.3544  0.0214
  449MPD2     C 6685   1.241   3.004  14.041  0.1737 -0.2196  0.1903
  449MPD2    C1 6686   1.126   3.045  13.980  0.2797  0.0049  0.2689
  449MPD2    C2 6687   1.002   3.045  14.043  0.0217  0.4289  0.4407
  449MPD2    C3 6688   0.990   2.999  14.176  0.1118  0.6513 -0.1695
  449MPD2    C4 6689   1.105   2.969  14.245  0.5849  0.4830  0.0411
  449MPD2    C5 6690   1.226   2.976  14.176 -0.3383  0.2850  0.6174
  449MPD2     H 6691   0.911   3.059  13.986 -0.0125  0.3641  0.4785
  449MPD2    H1 6692   1.112   2.946  14.351 -1.7701 -0.3708  0.0146
  449MPD2    H2 6693   1.338   3.006  13.993 -0.0314  0.6475 -0.1890
  449MPD2    H3 6694   1.318   2.961  14.232  0.6598  1.4895 -0.7049
  449MPD2     N 6695   0.860   2.996  14.228  0.6900 -0.5758 -0.2230
  449MPD2    H5 6696   0.788   3.019  14.161 -0.7761  0.3932  1.6720
  449MPD2    N1 6697   1.114   3.084  13.846  0.0564 -0.4475  0.8211
  449MPD2    H7 6698   1.021   3.113  13.816 -0.3203  1.2932  3.7470
  450TMC3    C1 6699   1.174   3.133  13.632  0.4735 -0.3604 -0.0361
  450TMC3    C2 6700   1.190   3.041  13.530  0.0641  0.3443  1.0205
  450TMC3    C3 6701   1.097   3.026  13.430  0.2109 -0.4119  0.2253
  450TMC3    C4 6702   1.063   3.208  13.637 -0.0361  0.3129 -0.4983
  450TMC3    C5 6703   0.959   3.177  13.554  0.0401 -0.3284 -0.4469
  450TMC3    C6 6704   0.977   3.090  13.443  0.4985  0.4213 -0.5345
  450TMC3     C 6705   1.221   3.085  13.761 -0.0192 -0.4425 -0.0432
  450TMC3     O 6706   1.341   3.054  13.773 -0.1702 -0.7834  0.1424
  450TMC3     H 6707   1.286   2.991  13.533 -0.0611  0.0623  0.4052
  450TMC3    H1 6708   1.055   3.295  13.701  0.4699 -1.2308  1.6859
  450TMC3    H2 6709   0.897   3.069  13.373 -0.5819  1.7248  0.3259
  450TMC3    C7 6710   0.839   3.156  13.635 -0.2329  0.8011 -0.1358
  450TMC3    C8 6711   1.116   2.935  13.325  0.1256  0.2795  0.0853
  450TMC3    O1 6712   0.871   3.157  13.754 -0.4821  0.6081 -0.4183
  450TMC3    O2 6713   1.013   2.886  13.284 -0.0180  0.2284  0.4489
  451MPD2     C 6714   2.223   1.307   1.562 -0.1794  0.5245  0.0100
  451MPD2    C1 6715   2.287   1.395   1.483  0.4897 -0.4088  0.1142
  451MPD2    C2 6716   2.394   1.365   1.404 -0.9222  0.0644 -0.4256
  451MPD2    C3 6717   2.451   1.242   1.411  0.0627  0.2089 -0.6236
  451MPD2    C4 6718   2.382   1.145   1.483  0.1184  0.0034 -0.1608
  451MPD2    C5 6719   2.266   1.177   1.553  0.4445  0.2724 -0.4413
  451MPD2     H 6720   2.435   1.437   1.335 -2.9277  1.4214 -0.2261
  451MPD2    H1 6721   2.408   1.039   1.480  1.6496  0.2988  2.1902
  451MPD2    H2 6722   2.132   1.336   1.613 -0.4008  0.3884 -0.3043
  451MPD2    H3 6723   2.215   1.097   1.605  0.0754 -0.1545 -1.4729
  451MPD2     N 6724   2.565   1.210   1.324  0.4516 -0.1300  0.4108
  451MPD2    H5 6725   2.601   1.117   1.338  1.9701 -0.0704 -3.1324
  451MPD2    N1 6726   2.233   1.524   1.478 -0.9317 -0.0883 -0.0979
  451MPD2    H7 6727   2.152   1.543   1.536 -1.7686 -1.7773 -0.7095
  452TMC3    C1 6728   2.760   1.237   1.203 -0.2176  0.0205  0.3243
  452TMC3    C2 6729   2.826   1.153   1.285  0.5837 -0.2288  0.1611
  452TMC3    C3 6730   2.960   1.139   1.269  0.1198 -0.1181 -0.2090
  452TMC3    C4 6731   2.827   1.309   1.103  0.9816 -0.0997  0.2364
  452TMC3    C5 6732   2.965   1.293   1.097  0.2124  0.0446 -0.3309
  452TMC3    C6 6733   3.030   1.224   1.191 -0.8369 -0.0447  0.6060
  452TMC3     C 6734   2.630   1.295   1.237  0.0376  0.0855  0.0294
  452TMC3     O 6735   2.607   1.405   1.191 -0.4416 -0.9711  0.9010
  452TMC3     H 6736   2.773   1.089   1.354 -1.9084  1.3239 -0.3052
  452TMC3    H1 6737   2.768   1.374   1.040  0.8587  0.2264  0.6929
  452TMC3    H2 6738   3.137   1.237   1.187 -0.9647  0.1450 -2.1087
  452TMC3    C7 6739   3.040   1.406   1.039 -0.0644  0.0329  0.6734
  452TMC3    C8 6740   3.033   1.065   1.364  0.2095 -0.5445 -0.9703
  452TMC3    O1 6741   3.139   1.450   1.098  0.4140  0.3011  0.2834
  452TMC3    O2 6742   2.970   1.031   1.461 -0.2255  0.7788  0.4030
  453TMC3    C1 6743   3.553   4.601  11.596 -0.2371 -0.0061 -0.4693
  453TMC3    C2 6744   3.478   4.486  11.596  0.1302 -0.3069 -0.3216
  453TMC3    C3 6745   3.507   4.385  11.502  0.6974 -1.3811  0.2451
  453TMC3    C4 6746   3.636   4.632  11.494  1.1632 -0.5152  0.1067
  453TMC3    C5 6747   3.653   4.540  11.391  0.3127  0.1494 -0.6665
  453TMC3    C6 6748   3.597   4.415  11.397 -0.1639  0.2172 -0.1681
  453TMC3     C 6749   3.574   4.659  11.728 -0.2925 -0.2256  0.2824
  453TMC3     O 6750   3.480   4.656  11.808  0.5025  0.3437 -0.8082
  453TMC3     H 6751   3.404   4.468  11.673 -0.9717 -0.0520 -1.3325
  453TMC3    H1 6752   3.679   0.006  11.476 -1.3141  0.8002  1.1786
  453TMC3    H2 6753   3.635   4.331  11.341  1.4055  0.2646  0.8325
  453TMC3    C7 6754   3.765   4.543  11.305 -0.1191  0.2325  0.6131
  453TMC3    C8 6755   3.490   4.243  11.525 -0.2186 -0.2927  0.7038
  453TMC3    O1 6756   3.828   4.447  11.275  0.1142 -0.0178  0.5331
  453TMC3    O2 6757   3.535   4.161  11.447  0.2868  0.0889  0.1757
  454MPD2     C 6758   2.798   3.389  16.467  0.6717  0.2973  0.4908
  454MPD2    C1 6759   2.763   3.505  16.412 -0.3471 -0.3695 -0.5485
  454MPD2    C2 6760   2.713   3.611  16.484  0.3253  0.4519  0.7744
  454MPD2    C3 6761   2.683   3.581  16.620 -0.6477 -0.4171 -0.4122
  454MPD2    C4 6762   2.708   3.459  16.674  0.7086 -0.2647 -0.0748
  454MPD2    C5 6763   2.773   3.369  16.597  0.4793 -0.1807  0.0752
  454MPD2     H 6764   2.690   3.702  16.430 -1.2896  0.5695  1.6612
  454MPD2    H1 6765   2.678   3.439  16.776  2.5230 -2.2213  0.0887
  454MPD2    H2 6766   2.854   3.313  16.413  0.2870  0.1463  0.3022
  454MPD2    H3 6767   2.802   3.279  16.649 -0.8758 -0.9029 -0.4077
  454MPD2     N 6768   2.617   3.670  16.711 -0.1856  0.0297  0.4589
  454MPD2    H5 6769   2.630   3.650  16.809  0.8886 -1.9507 -0.0937
  454MPD2    N1 6770   2.767   3.533  16.279 -0.3199  0.0240 -0.2872
  454MPD2    H7 6771   2.761   3.631  16.253  0.5489  0.6378  1.8865
  455TMC3    C1 6772   2.502   3.829  16.557 -0.0537 -0.2187 -0.4619
  455TMC3    C2 6773   2.491   3.950  16.502  0.6182 -0.1001  0.2143
  455TMC3    C3 6774   2.394   3.965  16.402 -0.0197  0.3554 -0.3679
  455TMC3    C4 6775   2.421   3.722  16.527 -0.0400  0.3692  0.2706
  455TMC3    C5 6776   2.328   3.736  16.430  0.3960  0.4715 -0.3623
  455TMC3    C6 6777   2.309   3.858  16.371  0.7101  0.1624  0.1670
  455TMC3     C 6778   2.587   3.802  16.673  0.5003  0.0687  0.1309
  455TMC3     O 6779   2.593   3.899  16.747 -0.0441 -0.1368 -0.0199
  455TMC3     H 6780   2.549   4.036  16.536 -1.6804  1.6825 -0.3345
  455TMC3    H1 6781   2.421   3.633  16.590  2.0530  0.7736  0.8495
  455TMC3    H2 6782   2.230   3.867  16.298  2.1249 -0.4969 -1.4445
  455TMC3    C7 6783   2.284   3.615  16.365 -0.4633  0.0532 -0.0310
  455TMC3    C8 6784   2.322   4.086  16.432  0.5788 -0.4689 -0.6173
  455TMC3    O1 6785   2.205   3.619  16.276  0.7293 -0.2712 -0.5415
  455TMC3    O2 6786   2.386   4.190  16.454 -0.1602  0.0483 -0.5351
  456MPD2     C 6787   0.405   3.326  16.091  0.7023 -0.3467  0.1490
  456MPD2    C1 6788   0.519   3.378  16.160 -0.7881  0.4658  0.0532
  456MPD2    C2 6789   0.500   3.473  16.264  0.3110 -1.1844 -1.2421
  456MPD2    C3 6790   0.374   3.515  16.297  0.2619  0.4507 -0.1444
  456MPD2    C4 6791   0.270   3.456  16.234  0.2509 -0.5770  0.1049
  456MPD2    C5 6792   0.279   3.375  16.125  0.3545 -0.0818 -0.4487
  456MPD2     H 6793   0.591   3.506  16.313 -1.5089  2.1913 -0.1533
  456MPD2    H1 6794   0.171   3.487  16.267 -0.4831 -1.5607 -1.1579
  456MPD2    H2 6795   0.410   3.242  16.023 -0.0025 -0.5614  0.3638
  456MPD2    H3 6796   0.192   3.347  16.067  0.3702  1.2214 -1.1019
  456MPD2     N 6797   0.368   3.616  16.389  0.0128 -0.3194 -0.6474
  456MPD2    H5 6798   0.449   3.631  16.449  0.3994 -2.2250 -0.7037
  456MPD2    N1 6799   0.652   3.333  16.117 -0.2064 -0.4562 -0.3642
  456MPD2    H7 6800   0.654   3.261  16.047 -1.2969 -0.8437  0.0078
  457TMC3    C1 6801   0.294   3.809  16.494  0.9168 -0.1202 -1.0058
  457TMC3    C2 6802   0.261   3.939  16.485  0.1119 -0.3737 -0.4530
  457TMC3    C3 6803   0.269   4.014  16.599 -0.3568 -0.4681 -0.8920
  457TMC3    C4 6804   0.347   3.760  16.610 -0.6163 -0.3607 -0.0562
  457TMC3    C5 6805   0.368   3.847  16.713 -0.9187 -0.0572 -0.1330
  457TMC3    C6 6806   0.309   3.971  16.717 -0.3151  0.4551  0.0316
  457TMC3     C 6807   0.266   3.713  16.390  0.2645  0.1601  0.2946
  457TMC3     O 6808   0.174   3.731  16.309 -0.2256 -0.1546  0.1378
  457TMC3     H 6809   0.220   3.968  16.389 -0.9644 -0.9153 -0.1440
  457TMC3    H1 6810   0.371   3.655  16.626  1.0485  0.1543  0.7751
  457TMC3    H2 6811   0.307   4.035  16.805 -1.2268 -1.7468  1.6318
  457TMC3    C7 6812   0.444   3.806  16.833 -0.3866  0.0559  0.1501
  457TMC3    C8 6813   0.259   4.161  16.595  0.1204 -1.0374 -0.0544
  457TMC3    O1 6814   0.438   3.690  16.869  0.3842  0.0578 -0.2561
  457TMC3    O2 6815   0.295   4.231  16.690  0.0290 -0.3713  0.1580
  458MPD2     C 6816   3.060   2.912  12.155 -0.5702 -0.0220 -0.2943
  458MPD2    C1 6817   2.994   2.920  12.280  0.4378  0.4654  0.0658
  458MPD2    C2 6818   2.856   2.900  12.269 -0.1952 -0.4014 -0.3249
  458MPD2    C3 6819   2.792   2.889  12.149  0.5669  0.4815  0.6629
  458MPD2    C4 6820   2.862   2.895  12.029  0.1768 -0.3314  0.1509
  458MPD2    C5 6821   2.996   2.890  12.035 -0.1664  0.1199  0.4082
  458MPD2     H 6822   2.799   2.890  12.361  0.7838 -0.6700  0.2659
  458MPD2    H1 6823   2.817   2.887  11.931  0.1852 -1.3337  0.2349
  458MPD2    H2 6824   3.167   2.931  12.159 -0.6206  0.1662  0.2487
  458MPD2    H3 6825   3.051   2.893  11.941 -0.4723 -2.3534  0.1472
  458MPD2     N 6826   2.651   2.900  12.148 -0.2801  0.0341 -0.6579
  458MPD2    H5 6827   2.596   2.890  12.232 -2.8661  0.2742 -2.3094
  458MPD2    N1 6828   3.066   2.936  12.400 -0.5745 -0.1662  0.0423
  458MPD2    H7 6829   3.166   2.940  12.385 -0.8362 -3.3354 -2.4726
  459TMC3    C1 6830   3.112   2.969  12.629  1.1981  0.3352 -0.1951
  459TMC3    C2 6831   3.218   3.056  12.608  1.0425  0.3745 -0.8590
  459TMC3    C3 6832   3.304   3.077  12.717 -0.9289 -0.2061 -0.3275
  459TMC3    C4 6833   3.077   2.924  12.758 -0.3543 -0.0708 -0.2566
  459TMC3    C5 6834   3.159   2.961  12.861 -0.5575  0.3358  0.8544
  459TMC3    C6 6835   3.275   3.033  12.843 -0.4655 -0.3002 -0.4897
  459TMC3     C 6836   3.015   2.949  12.526  0.6467 -0.4321  0.4150
  459TMC3     O 6837   2.906   2.919  12.567 -0.5362  0.2193 -0.2381
  459TMC3     H 6838   3.250   3.091  12.510  2.0116 -0.6753 -0.9181
  459TMC3    H1 6839   3.001   2.848  12.771  1.1031 -1.7067 -1.1610
  459TMC3    H2 6840   3.342   3.033  12.928  2.5402 -0.7806 -2.8995
  459TMC3    C7 6841   3.155   2.886  12.985 -0.3433 -0.2499 -0.6754
  459TMC3    C8 6842   3.435   3.145  12.690 -0.3277  0.5649  0.3302
  459TMC3    O1 6843   3.125   2.766  12.973  0.0191  0.7329 -0.1860
  459TMC3    O2 6844   3.462   3.162  12.573 -0.4649 -0.2365  0.2776
  460MPD2     C 6845   2.031   0.356  10.276  0.7271  0.2416  0.6956
  460MPD2    C1 6846   1.916   0.333  10.353 -0.5522  0.6129 -0.1149
  460MPD2    C2 6847   1.798   0.329  10.287 -0.1363 -0.6377 -0.5171
  460MPD2    C3 6848   1.787   0.342  10.154 -0.0341 -0.8186  0.7836
  460MPD2    C4 6849   1.901   0.359  10.078  0.6058  0.4095 -0.7833
  460MPD2    C5 6850   2.021   0.365  10.140 -0.2761  0.0459 -0.1894
  460MPD2     H 6851   1.700   0.313  10.331  0.2081 -0.0236  0.4597
  460MPD2    H1 6852   1.904   0.383   9.972  2.4819 -0.1923 -0.8682
  460MPD2    H2 6853   2.130   0.352  10.320  1.4740  1.6020 -0.8982
  460MPD2    H3 6854   2.117   0.385  10.094  1.4168 -1.1367  2.7854
  460MPD2     N 6855   1.662   0.321  10.097 -0.6127  0.0864  0.0163
  460MPD2    H5 6856   1.583   0.314  10.161 -0.3095 -4.0330 -0.1001
  460MPD2    N1 6857   1.938   0.323  10.490  0.8678  0.3607  0.8632
  460MPD2    H7 6858   2.025   0.360  10.526  1.5757  1.6423 -2.1108
  461TMC3    C1 6859   1.498   0.289   9.930  0.4533  0.5737  0.8677
  461TMC3    C2 6860   1.478   0.225   9.812  0.0110 -0.2512  0.0229
  461TMC3    C3 6861   1.376   0.260   9.730  0.3985  0.7533  0.1792
  461TMC3    C4 6862   1.417   0.388   9.979 -0.1807  0.0669  0.2532
  461TMC3    C5 6863   1.308   0.420   9.891 -0.6599 -0.9105  0.1970
  461TMC3    C6 6864   1.287   0.359   9.767 -0.6082 -0.1610  0.5884
  461TMC3     C 6865   1.638   0.298   9.958 -0.3125  0.1437 -0.3831
  461TMC3     O 6866   1.708   0.305   9.862  0.8623 -0.4834 -0.2763
  461TMC3     H 6867   1.560   0.166   9.773  1.3724  1.3713  0.4423
  461TMC3    H1 6868   1.444   0.444  10.068  0.8910 -0.1160  0.0414
  461TMC3    H2 6869   1.199   0.392   9.713 -0.5637  0.1099  0.6807
  461TMC3    C7 6870   1.224   0.538   9.916 -0.6348 -0.2557 -0.2425
  461TMC3    C8 6871   1.388   0.237   9.587 -0.4497 -0.6322 -0.2433
  461TMC3    O1 6872   1.126   0.550   9.845 -0.2413 -0.0706  0.2211
  461TMC3    O2 6873   1.479   0.164   9.554  0.0194  0.1416  0.1663
  462TMC3    C1 6874   2.332   1.829   0.613 -0.3275 -0.4025 -0.8580
  462TMC3    C2 6875   2.391   1.718   0.663 -0.3636 -0.0437  0.1031
  462TMC3    C3 6876   2.337   1.597   0.635  0.1747 -0.4677 -0.0850
  462TMC3    C4 6877   2.227   1.807   0.528 -0.0276 -0.3784  0.4793
  462TMC3    C5 6878   2.158   1.682   0.525 -0.5435  0.3367 -0.5108
  462TMC3    C6 6879   2.224   1.571   0.564 -0.4499 -0.4759 -0.1718
  462TMC3     C 6880   2.399   1.953   0.618 -0.2872  0.3482 -0.4203
  462TMC3     O 6881   2.466   1.971   0.718 -0.0504  0.7789  0.1542
  462TMC3     H 6882   2.483   1.731   0.720  0.8176  0.3752 -1.8948
  462TMC3    H1 6883   2.183   1.896   0.484  0.1495 -1.9642 -2.8653
  462TMC3    H2 6884   2.165   1.484   0.591 -1.9009  0.8616  0.9730
  462TMC3    C7 6885   2.042   1.655   0.457  0.1180 -0.4814  0.6424
  462TMC3    C8 6886   2.412   1.481   0.672 -0.0022 -0.3050  0.0698
  462TMC3    O1 6887   2.006   1.539   0.438 -0.3353  0.0707  0.2204
  462TMC3    O2 6888   2.459   1.489   0.784  0.4565 -0.5879  0.5796
  463MPD2     C 6889   3.079   0.361   2.128 -0.2779 -0.6506  0.2792
  463MPD2    C1 6890   2.984   0.348   2.030 -0.2428 -0.4415  0.2278
  463MPD2    C2 6891   3.002   0.392   1.905 -0.0940 -0.4980 -0.1530
  463MPD2    C3 6892   3.128   0.439   1.873 -0.2819 -0.7768 -0.0088
  463MPD2    C4 6893   3.227   0.441   1.966 -0.4446 -0.1619 -0.0212
  463MPD2    C5 6894   3.199   0.405   2.096  0.5567  0.3150  0.2514
  463MPD2     H 6895   2.920   0.402   1.836 -0.2005 -0.4846 -0.0232
  463MPD2    H1 6896   3.326   0.475   1.939  0.1651 -0.3286  1.9477
  463MPD2    H2 6897   3.071   0.328   2.231 -0.9421  1.3508  0.8523
  463MPD2    H3 6898   3.265   0.408   2.182 -0.3165 -2.0443  1.0050
  463MPD2     N 6899   3.151   0.504   1.751 -0.2396  0.2413 -0.7628
  463MPD2    H5 6900   3.244   0.543   1.737 -0.2503  0.6071  0.1714
  463MPD2    N1 6901   2.869   0.270   2.051 -0.4198  0.2018  0.0408
  463MPD2    H7 6902   2.804   0.251   1.976  0.9626  0.7621 -1.2844
  464TMC3    C1 6903   2.723   0.110   2.145 -0.3004 -0.4751 -0.5028
  464TMC3    C2 6904   2.642   0.121   2.041  0.0334  0.5649 -0.0921
  464TMC3    C3 6905   2.568   0.013   2.006 -0.1621  0.6375 -0.0079
  464TMC3    C4 6906   2.732   0.001   2.223 -0.5479  0.3514  0.2856
  464TMC3    C5 6907   2.657   4.615   2.187 -0.2574  0.8447 -0.0381
  464TMC3    C6 6908   2.576   4.622   2.076  0.0477  0.8515  0.1657
  464TMC3     C 6909   2.832   0.206   2.169  0.5837 -0.4002  0.1077
  464TMC3     O 6910   2.894   0.191   2.273 -0.1153 -0.3692  0.3351
  464TMC3     H 6911   2.633   0.201   1.968  1.0176  0.2581 -0.5474
  464TMC3    H1 6912   2.798   4.707   2.307 -0.3485 -4.6328 -0.9376
  464TMC3    H2 6913   2.536   4.527   2.044 -0.4945  1.1311  0.0137
  464TMC3    C7 6914   2.677   4.487   2.255 -0.4710 -0.4817  0.2981
  464TMC3    C8 6915   2.486   0.017   1.889  0.2918  0.4306 -0.0844
  464TMC3    O1 6916   2.781   4.476   2.318 -0.1934  0.4506  0.3565
  464TMC3    O2 6917   2.510   0.111   1.810  0.2062 -0.7536 -0.5190
  465MPD2     C 6918   4.624   4.260  16.901  0.6147  0.5420 -0.6244
  465MPD2    C1 6919   4.536   4.200  16.989  0.2672  0.5347  0.7836
  465MPD2    C2 6920   4.451   4.105  16.943 -0.1046 -0.0340 -0.5262
  465MPD2    C3 6921   4.450   4.064  16.814 -0.1658  0.2366 -0.4305
  465MPD2    C4 6922   4.535   4.119  16.722  0.4706 -0.3234  0.2886
  465MPD2    C5 6923   4.619   4.220  16.763  0.0766  0.4953 -0.0076
  465MPD2     H 6924   4.388   4.066  17.021  1.0811 -1.5528 -0.3194
  465MPD2    H1 6925   4.537   4.087  16.618  1.2680  1.2119 -0.1706
  465MPD2    H2 6926   4.693   4.339  16.927  0.2729  1.0534 -1.2585
  465MPD2    H3 6927   4.696   4.261  16.699 -1.2786  1.2059 -1.1978
  465MPD2     N 6928   4.352   3.968  16.784  0.0381  0.0450 -0.0090
  465MPD2    H5 6929   4.281   3.950  16.854 -1.9372  1.1901 -1.6936
  465MPD2    N1 6930   4.531   4.231  17.132 -0.4428 -0.8882 -0.3324
  465MPD2    H7 6931   4.468   4.175  17.188 -2.3900  0.7356 -0.8794
  466TMC3    C1 6932   4.017   3.765  16.777  0.8489 -0.4917  0.1754
  466TMC3    C2 6933   3.935   3.808  16.678 -0.0253 -0.5595  1.1456
  466TMC3    C3 6934   3.993   3.867  16.565 -0.3203  0.5048 -0.2031
  466TMC3    C4 6935   4.153   3.786  16.768  0.1686  0.3265  0.0078
  466TMC3    C5 6936   4.207   3.835  16.651  0.2127  0.4125 -0.5953
  466TMC3    C6 6937   4.125   3.884  16.554 -0.4394 -0.0547  0.5729
  466TMC3     C 6938   3.966   3.734  16.905 -0.1158  0.1254 -0.0570
  466TMC3     O 6939   4.037   3.748  17.002 -0.5891  0.0517 -0.1455
  466TMC3     H 6940   3.827   3.805  16.682 -0.1696  2.4362 -0.5121
  466TMC3    H1 6941   4.213   3.730  16.840  0.3357  0.3050 -0.1487
  466TMC3    H2 6942   4.165   3.924  16.462 -2.2133  0.6399  0.1165
  466TMC3    C7 6943   4.328   3.917  16.661  0.2397 -0.0339  0.3128
  466TMC3    C8 6944   3.904   3.955  16.487 -0.0175  0.1446 -0.5219
  466TMC3    O1 6945   4.375   3.948  16.549  0.4573  0.6008  0.0827
  466TMC3    O2 6946   3.939   3.984  16.376  0.0114 -0.0840 -0.2746
  467TMC3    C1 6947   4.620   2.703  13.816  0.2328 -0.3822  0.7487
  467TMC3    C2 6948   4.633   2.839  13.787 -0.3356  0.0823 -0.1080
  467TMC3    C3 6949   4.518   2.900  13.731  0.6306 -0.2751  0.0630
  467TMC3    C4 6950   4.500   2.648  13.785 -0.5579  0.0807  0.0867
  467TMC3    C5 6951   4.388   2.718  13.757  0.2409 -0.5706  0.1861
  467TMC3    C6 6952   4.396   2.848  13.730  0.0192  0.5690  0.3399
  467TMC3     C 6953   0.011   2.635  13.764  0.3835 -0.3240 -0.4903
  467TMC3     O 6954   4.715   2.536  13.691 -0.1879 -0.2301 -0.1204
  467TMC3     H 6955   0.001   2.893  13.806  0.0486 -0.7659  0.4777
  467TMC3    H1 6956   4.494   2.540  13.797 -1.4824  0.3162  1.7591
  467TMC3    H2 6957   4.306   2.899  13.699 -1.2819 -0.4651  2.4114
  467TMC3    C7 6958   4.263   2.651  13.744  0.5157  0.1397  0.5545
  467TMC3    C8 6959   4.554   2.979  13.615 -0.2020 -0.1998  0.4533
  467TMC3    O1 6960   4.188   2.694  13.655 -0.3421  0.2077 -0.2245
  467TMC3    O2 6961   4.659   3.041  13.624 -0.2923  0.5444  0.3014
  468MPD2     C 6962   3.397   0.414  10.430  0.7336 -0.7276  0.2228
  468MPD2    C1 6963   3.448   0.438  10.556 -0.2437  0.0141 -0.0963
  468MPD2    C2 6964   3.453   0.333  10.655  0.2798  0.3473  0.1173
  468MPD2    C3 6965   3.421   0.202  10.620  0.2137 -0.7539  0.1074
  468MPD2    C4 6966   3.374   0.177  10.493 -0.1938 -0.1032  0.7120
  468MPD2    C5 6967   3.351   0.281  10.401  0.2570  0.1451 -0.0456
  468MPD2     H 6968   3.484   0.362  10.755  0.7666  0.6634 -0.1248
  468MPD2    H1 6969   3.339   0.078  10.466 -1.3013  0.7546 -1.0155
  468MPD2    H2 6970   3.377   0.489  10.355  1.3148  0.2715  1.0610
  468MPD2    H3 6971   3.298   0.257  10.310  0.6691  0.4513 -0.3643
  468MPD2     N 6972   3.423   0.091  10.708  0.1408 -0.2257 -0.0808
  468MPD2    H5 6973   3.397   0.000  10.671  0.7626 -0.6527  0.5400
  468MPD2    N1 6974   3.484   0.563  10.589  0.3617  0.2038 -0.3716
  468MPD2    H7 6975   3.535   0.577  10.676  1.9215  2.5393 -1.6672
  469TMC3    C1 6976   3.536   0.791  10.560  0.1993  0.0766  0.4186
  469TMC3    C2 6977   3.653   0.767  10.617 -0.5457 -0.1353 -0.4176
  469TMC3    C3 6978   3.718   0.875  10.682  1.0176 -0.3563 -0.2304
  469TMC3    C4 6979   3.472   0.914  10.565  0.5957 -0.5051  0.3959
  469TMC3    C5 6980   3.540   1.016  10.626 -0.1977 -0.0556  0.0345
  469TMC3    C6 6981   3.663   1.002  10.681  0.0059 -0.9213  0.8090
  469TMC3     C 6982   3.460   0.678  10.514 -0.0433 -0.1109  0.0754
  469TMC3     O 6983   3.353   0.698  10.450 -0.3276 -0.2564  0.1480
  469TMC3     H 6984   3.708   0.673  10.616 -1.3662 -0.6259  1.3099
  469TMC3    H1 6985   3.377   0.928  10.515  0.7572  0.5576  0.3908
  469TMC3    H2 6986   3.706   1.086  10.736 -2.6458  0.5062  0.6933
  469TMC3    C7 6987   3.458   1.119  10.696 -0.7167  0.9342 -0.6366
  469TMC3    C8 6988   3.842   0.847  10.740 -0.8992  0.2835 -0.4930
  469TMC3    O1 6989   3.506   1.230  10.711  0.5963  0.0220  0.2734
  469TMC3    O2 6990   3.915   0.771  10.681 -0.2457 -0.2478  0.4665
  470TMC3    C1 6991   1.074   0.957   0.687 -0.2889  0.6206 -0.4447
  470TMC3    C2 6992   1.105   1.087   0.701 -0.0344  0.1113 -0.3930
  470TMC3    C3 6993   1.114   1.142   0.820 -0.3014 -0.0342 -0.8927
  470TMC3    C4 6994   1.043   0.879   0.797 -0.3909  0.2675  0.4501
  470TMC3    C5 6995   1.057   0.937   0.923  0.4473  0.5186 -0.2450
  470TMC3    C6 6996   1.090   1.071   0.935  0.0819  0.0988 -0.3445
  470TMC3     C 6997   1.074   0.897   0.552 -0.1626  0.0108 -0.1223
  470TMC3     O 6998   1.115   0.964   0.453  0.4991 -0.0404 -0.1014
  470TMC3     H 6999   1.142   1.134   0.610 -0.2019 -0.5397 -0.8059
  470TMC3    H1 7000   1.029   0.772   0.790 -1.1459  0.3058  1.3838
  470TMC3    H2 7001   1.099   1.119   1.032  1.5474  2.1836 -1.5075
  470TMC3    C7 7002   1.040   0.856   1.037 -0.7974 -0.7239 -0.2533
  470TMC3    C8 7003   1.143   1.285   0.831  0.4643  0.2668  0.2373
  470TMC3    O1 7004   1.084   0.892   1.146 -0.0655 -0.3176 -0.4022
  470TMC3    O2 7005   1.148   1.335   0.942  0.3607  0.5765 -0.1877
  471MPD2     C 7006   1.980   3.078  16.884  0.5192  0.2104  0.2033
  471MPD2    C1 7007   1.930   2.951  16.860 -0.1433 -0.3573  0.4857
  471MPD2    C2 7008   1.977   2.847  16.937  0.2199 -0.6052 -0.8366
  471MPD2    C3 7009   2.078   2.867  17.035  0.2878 -0.4706 -0.3445
  471MPD2    C4 7010   2.132   2.993  17.060  0.5116 -0.7045  0.3520
  471MPD2    C5 7011   2.081   3.094  16.979  0.3261 -0.2954  0.0177
  471MPD2     H 7012   1.955   2.746  16.906  0.2190 -0.5373 -1.0600
  471MPD2    H1 7013   2.213   3.025  17.125  0.2244  0.4683  0.1297
  471MPD2    H2 7014   1.953   3.164  16.824 -0.6049 -0.8510 -0.8143
  471MPD2    H3 7015   2.107   3.198  17.000 -0.6124 -0.4364  1.9358
  471MPD2     N 7016   2.135   2.762  17.106 -0.4094  0.2998  0.0116
  471MPD2    H5 7017   2.199   2.787  17.181 -0.7411  0.1971  0.3298
  471MPD2    N1 7018   1.831   2.928  16.759 -0.3423  0.7628 -0.9008
  471MPD2    H7 7019   1.804   2.830  16.750  0.7899  0.4384 -0.8030
  472TMC3    C1 7020   1.724   2.949  16.558 -0.2529  0.6411 -0.3796
  472TMC3    C2 7021   1.630   3.015  16.481  0.2105  0.0873  0.1866
  472TMC3    C3 7022   1.575   2.943  16.378  0.2873 -0.0864 -0.3543
  472TMC3    C4 7023   1.759   2.819  16.525 -0.1681  0.1740 -0.2354
  472TMC3    C5 7024   1.695   2.754  16.430  0.6282 -0.0189 -0.3034
  472TMC3    C6 7025   1.607   2.815  16.349 -0.2451 -0.5817  0.3198
  472TMC3     C 7026   1.791   3.017  16.663 -0.6430 -0.2706  0.3502
  472TMC3     O 7027   1.808   3.135  16.641 -0.2402 -0.2994 -0.0450
  472TMC3     H 7028   1.606   3.120  16.499 -0.6747  0.0083 -0.5639
  472TMC3    H1 7029   1.838   2.764  16.576 -0.2923  0.8280  0.6716
  472TMC3    H2 7030   1.568   2.772  16.257 -0.7792 -0.4995  0.5098
  472TMC3    C7 7031   1.715   2.608  16.407 -0.3871 -0.1591  0.3522
  472TMC3    C8 7032   1.432   2.946  16.357 -0.5492  0.4539  0.5456
  472TMC3    O1 7033   1.701   2.577  16.288  0.3837 -0.2616  0.3140
  472TMC3    O2 7034   1.376   3.056  16.365  0.2976 -0.5930  0.2347
  473MPD2     C 7035   1.584   4.263  13.866  0.2020 -0.2713  0.0051
  473MPD2    C1 7036   1.470   4.348  13.864 -0.6147  0.4820 -0.5250
  473MPD2    C2 7037   1.466   4.451  13.947 -0.0549 -0.7762 -0.1081
  473MPD2    C3 7038   1.568   4.476  14.034  0.9027  0.4632  0.3525
  473MPD2    C4 7039   1.679   4.399  14.027 -0.2091 -0.0498  0.3785
  473MPD2    C5 7040   1.688   4.294  13.944 -0.1735 -0.1410  0.1465
  473MPD2     H 7041   1.380   4.516  13.933 -0.7206 -1.8809 -1.1551
  473MPD2    H1 7042   1.763   4.425  14.090  1.0573  0.4453 -1.4908
  473MPD2    H2 7043   1.578   4.165  13.821 -1.9536  0.2127 -0.7585
  473MPD2    H3 7044   1.773   4.227  13.945 -1.2727 -1.5417 -0.2943
  473MPD2     N 7045   1.572   4.594  14.108 -0.3721  0.2711 -0.2251
  473MPD2    H5 7046   1.663   4.620  14.147 -1.0403  1.3599  0.6138
  473MPD2    N1 7047   1.350   4.318  13.800 -0.7660  1.0078 -0.5490
  473MPD2    H7 7048   1.262   4.361  13.829 -1.4415 -2.0909  2.0178
  474TMC3    C1 7049   1.496   0.092  14.174  0.1006 -0.3725  0.0064
  474TMC3    C2 7050   1.404   0.192  14.177  0.1490  0.1853 -0.3286
  474TMC3    C3 7051   1.444   0.326  14.206 -0.5153 -0.0342  0.5786
  474TMC3    C4 7052   1.622   0.106  14.223  0.1546 -0.0583  0.6053
  474TMC3    C5 7053   1.662   0.239  14.249  0.3496  0.2090  0.0668
  474TMC3    C6 7054   1.574   0.345  14.250 -0.6322  0.7528 -0.4046
  474TMC3     C 7055   1.464   4.680  14.124  0.3831 -0.0203 -0.1113
  474TMC3     O 7056   1.342   4.660  14.117  0.3537  0.6234 -0.8156
  474TMC3     H 7057   1.301   0.180  14.146  0.5582 -1.4869 -1.0309
  474TMC3    H1 7058   1.699   0.031  14.235  1.0058  0.7368  0.1024
  474TMC3    H2 7059   1.612   0.447  14.247 -0.3904  0.6515 -0.7686
  474TMC3    C7 7060   1.802   0.257  14.280  0.4485 -0.0377  0.3774
  474TMC3    C8 7061   1.353   0.437  14.211 -0.0594  1.1826  0.8021
  474TMC3    O1 7062   1.880   0.188  14.217 -0.7089  0.8580  0.1426
  474TMC3    O2 7063   1.238   0.402  14.230  0.3779  0.1828 -0.0136
  475MPD2     C 7064   0.555   3.452  10.915  0.0614 -0.7275 -0.3045
  475MPD2    C1 7065   0.494   3.413  10.796  0.5708  0.8769  0.3474
  475MPD2    C2 7066   0.360   3.436  10.778 -1.0424 -0.3168  0.0225
  475MPD2    C3 7067   0.277   3.498  10.868  0.5787 -0.5707  0.2339
  475MPD2    C4 7068   0.340   3.542  10.985 -0.7792  0.7522 -0.1925
  475MPD2    C5 7069   0.475   3.526  11.010  1.2498 -0.4457 -0.1975
  475MPD2     H 7070   0.314   3.407  10.684  1.3203 -2.0880 -0.5967
  475MPD2    H1 7071   0.289   3.598  11.062 -0.1184 -1.7591  2.0458
  475MPD2    H2 7072   0.661   3.434  10.929  0.7640  0.8339 -3.8156
  475MPD2    H3 7073   0.523   3.567  11.098 -0.5010  0.9484  0.1081
  475MPD2     N 7074   0.138   3.519  10.849 -0.0123 -0.3099  0.0477
  475MPD2    H5 7075   0.111   3.461  10.770 -0.3739 -0.5620  0.3602
  475MPD2    N1 7076   0.576   3.342  10.704  0.1986 -0.0162 -0.2773
  475MPD2    H7 7077   0.670   3.320  10.736 -0.8136 -0.2871  2.4952
  476TMC3    C1 7078   0.644   3.231  10.508  0.3384  0.0742  0.0946
  476TMC3    C2 7079   0.615   3.182  10.383  0.3112  0.1372 -0.1121
  476TMC3    C3 7080   0.716   3.171  10.284  0.7238  0.0196 -0.6678
  476TMC3    C4 7081   0.773   3.229  10.549 -0.1914  0.1775  0.4106
  476TMC3    C5 7082   0.869   3.203  10.460 -0.6381  0.9644 -0.1059
  476TMC3    C6 7083   0.842   3.173  10.329  0.3827 -0.0741  0.3585
  476TMC3     C 7084   0.538   3.291  10.582 -0.5080  0.1566 -0.3178
  476TMC3     O 7085   0.429   3.296  10.524  0.8161  0.3731 -0.3375
  476TMC3     H 7086   0.511   3.183  10.351 -0.4008 -0.6007  2.1550
  476TMC3    H1 7087   0.800   3.210  10.652  1.2345  0.1873  0.0403
  476TMC3    H2 7088   0.921   3.177  10.255 -0.2599 -2.6945 -0.4543
  476TMC3    C7 7089   0.999   3.256  10.479  0.3293  0.4834 -0.0006
  476TMC3    C8 7090   0.682   3.155  10.143 -0.4929  0.4226  0.5402
  476TMC3    O1 7091   1.086   3.232  10.398  0.9881  0.1619  0.2859
  476TMC3    O2 7092   0.762   3.201  10.061  0.1151  0.5769  0.2247
  477MPD2     C 7093   2.439   0.292  11.920 -0.0653  0.3069 -0.4429
  477MPD2    C1 7094   2.346   0.204  11.869  0.3537  0.2325  0.1346
  477MPD2    C2 7095   2.322   0.088  11.945 -0.2755 -0.0982  0.1288
  477MPD2    C3 7096   2.373   0.076  12.074  0.8317 -0.6487 -0.5426
  477MPD2    C4 7097   2.464   0.169  12.121  0.2565  0.1608 -0.4502
  477MPD2    C5 7098   2.500   0.277  12.040 -0.0738  0.0768 -0.2966
  477MPD2     H 7099   2.256   0.014  11.901  0.2226 -0.4079 -0.1064
  477MPD2    H1 7100   2.513   0.152  12.216 -2.9385  0.7759  1.3117
  477MPD2    H2 7101   2.465   0.379  11.861 -1.5171  1.2619  0.3280
  477MPD2    H3 7102   2.579   0.344  12.073  1.6674 -1.7857 -0.6308
  477MPD2     N 7103   2.334   4.685  12.145 -0.4107  0.4768  0.2381
  477MPD2    H5 7104   2.290   4.608  12.095  0.7988  1.5888 -2.5610
  477MPD2    N1 7105   2.284   0.235  11.750  0.2809 -0.1374  0.0517
  477MPD2    H7 7106   2.299   0.323  11.702 -1.5602 -0.2798 -0.8068
  478TMC3    C1 7107   2.129   0.218  11.572 -0.1114 -0.7535  0.8178
  478TMC3    C2 7108   2.115   0.360  11.568  0.2476 -0.5721  0.2701
  478TMC3    C3 7109   2.077   0.410  11.446  0.5412 -0.1891  0.6287
  478TMC3    C4 7110   2.102   0.138  11.465 -0.4510 -0.6878 -0.4559
  478TMC3    C5 7111   2.031   0.195  11.361 -0.1980  0.3001 -0.1897
  478TMC3    C6 7112   2.022   0.332  11.348 -0.0284 -0.5386 -0.3540
  478TMC3     C 7113   2.191   0.160  11.684  0.9445  0.6279 -0.5184
  478TMC3     O 7114   2.184   0.040  11.697 -0.3269 -0.0361  0.3711
  478TMC3     H 7115   2.141   0.420  11.654  0.6208 -1.0040  0.4589
  478TMC3    H1 7116   2.128   0.034  11.474 -1.4084 -0.6300  2.7731
  478TMC3    H2 7117   1.999   0.377  11.252  0.9018 -0.5500 -0.5804
  478TMC3    C7 7118   2.018   0.102  11.246  0.2271 -0.1485 -0.2052
  478TMC3    C8 7119   2.117   0.550  11.428 -0.7353 -0.7524 -0.2844
  478TMC3    O1 7120   2.096   0.006  11.246 -0.3269 -0.3689 -0.0779
  478TMC3    O2 7121   2.203   0.578  11.511 -0.9124  0.2167 -0.1465
  479MPD2     C 7122   1.306   2.025  14.800  0.0641 -0.1561 -0.3634
  479MPD2    C1 7123   1.252   1.969  14.915 -0.7428  0.1323  0.0258
  479MPD2    C2 7124   1.333   1.963  15.025  0.1468  0.2834 -0.0287
  479MPD2    C3 7125   1.448   2.035  15.034  0.1628 -0.6726  0.6617
  479MPD2    C4 7126   1.501   2.081  14.919  0.0539 -0.1858 -0.4287
  479MPD2    C5 7127   1.434   2.078  14.800  0.6944  0.3211 -0.0333
  479MPD2     H 7128   1.304   1.900  15.108 -1.9383  1.3076  0.0084
  479MPD2    H1 7129   1.598   2.129  14.931  0.4291 -1.5231  1.8396
  479MPD2    H2 7130   1.250   2.013  14.708 -1.3389  0.0689  0.4565
  479MPD2    H3 7131   1.487   2.122  14.716 -0.6019 -0.3185 -1.1921
  479MPD2     N 7132   1.533   2.045  15.147 -0.3794 -0.6209 -0.0581
  479MPD2    H5 7133   1.632   2.061  15.126 -0.3826  0.3498  0.6666
  479MPD2    N1 7134   1.123   1.919  14.903 -0.0710 -0.0478  0.2388
  479MPD2    H7 7135   1.088   1.902  14.809 -2.7302  1.1826  1.0085
  480TMC3    C1 7136   1.230   1.939  15.484  0.2051 -0.6447  0.0740
  480TMC3    C2 7137   1.125   2.031  15.444  0.5463  0.8623  0.1895
  480TMC3    C3 7138   1.151   2.112  15.331 -0.0753  0.0717  0.5167
  480TMC3    C4 7139   1.350   1.941  15.427 -0.4662  0.0443  0.3696
  480TMC3    C5 7140   1.370   2.032  15.323 -0.3336 -0.0748 -0.5072
  480TMC3    C6 7141   1.280   2.119  15.282  0.7677 -0.4076 -0.2898
  480TMC3     C 7142   1.211   1.841  15.590 -0.3839  0.5940  0.7058
  480TMC3     O 7143   1.273   1.736  15.586  0.4999  0.2468 -0.0493
  480TMC3     H 7144   1.029   2.031  15.494 -0.7472  1.5722 -2.2992
  480TMC3    H1 7145   1.433   1.882  15.465 -1.1285 -0.9491  0.2571
  480TMC3    H2 7146   1.306   2.177  15.194 -2.8791  1.6718 -0.0104
  480TMC3    C7 7147   1.508   2.034  15.279 -0.0652 -0.5895 -1.0060
  480TMC3    C8 7148   1.044   2.178  15.258  0.2968 -0.6576 -0.0786
  480TMC3    O1 7149   1.582   2.069  15.368 -0.2816 -0.0525  0.2877
  480TMC3    O2 7150   0.938   2.192  15.318 -0.3888  0.4660  0.2321
  481MPD2     C 7151   3.119   1.645  14.268  0.9165 -0.1773  0.5059
  481MPD2    C1 7152   3.040   1.532  14.255  0.0250 -0.3097 -0.5743
  481MPD2    C2 7153   2.952   1.501  14.359 -0.3694  0.0861 -0.1518
  481MPD2    C3 7154   2.937   1.594  14.464 -0.8855  0.2946 -0.8429
  481MPD2    C4 7155   3.012   1.706  14.477 -0.1389 -0.7827  0.0810
  481MPD2    C5 7156   3.110   1.726  14.379 -0.0296 -0.1754  1.0901
  481MPD2     H 7157   2.881   1.423  14.335  0.7026 -1.5423  2.0170
  481MPD2    H1 7158   2.988   1.779  14.554  2.3727  1.5896 -1.3835
  481MPD2    H2 7159   3.195   1.680  14.199  1.0071 -2.9347 -0.7962
  481MPD2    H3 7160   3.171   1.816  14.386 -1.7967  1.0547  0.6504
  481MPD2     N 7161   2.839   1.587  14.566  0.0934  0.4298 -0.0738
  481MPD2    H5 7162   2.835   1.666  14.629 -3.3223  1.2398 -1.3452
  481MPD2    N1 7163   3.036   1.477  14.119 -0.1068 -0.5386 -0.5452
  481MPD2    H7 7164   3.083   1.529  14.045 -0.3237  2.2657  1.2716
  482TMC3    C1 7165   2.944   1.348  13.937  0.3523 -1.2197  0.6226
  482TMC3    C2 7166   2.870   1.245  13.894  0.9496 -0.1806 -0.0886
  482TMC3    C3 7167   2.831   1.231  13.770 -0.5861  0.1242  0.4597
  482TMC3    C4 7168   2.979   1.441  13.852 -0.7494 -0.7777 -0.7861
  482TMC3    C5 7169   2.948   1.421  13.718  0.5420  0.2772  0.3829
  482TMC3    C6 7170   2.868   1.321  13.676  0.2718  0.0930 -0.8876
  482TMC3     C 7171   2.952   1.377  14.080  0.4422  0.4267  0.3739
  482TMC3     O 7172   2.889   1.295  14.144 -0.3442 -0.1093  0.1785
  482TMC3     H 7173   2.838   1.163  13.958 -1.2284  1.0919  0.4520
  482TMC3    H1 7174   3.037   1.526  13.887  0.6606 -0.9128 -2.7591
  482TMC3    H2 7175   2.837   1.292  13.576  0.4469  2.1381 -1.5323
  482TMC3    C7 7176   3.017   1.510  13.623 -0.4449  0.2425 -0.4942
  482TMC3    C8 7177   2.718   1.153  13.736 -0.1501  0.9032 -1.0935
  482TMC3    O1 7178   3.102   1.587  13.664 -0.1795 -0.2766  0.1655
  482TMC3    O2 7179   2.722   1.073  13.649 -0.6777  0.0377  0.4472
  483TMC3    C1 7180   1.029   0.320   0.818  0.0950 -1.2413 -0.3617
  483TMC3    C2 7181   1.084   0.436   0.786 -0.2374 -0.5112  0.0908
  483TMC3    C3 7182   1.202   0.468   0.838 -0.1048 -0.2174  0.4030
  483TMC3    C4 7183   1.089   0.225   0.899 -0.6859 -0.2049  0.3169
  483TMC3    C5 7184   1.218   0.260   0.947 -0.5980 -0.5189  0.2668
  483TMC3    C6 7185   1.268   0.389   0.922 -0.3080  0.6928 -0.3511
  483TMC3     C 7186   0.896   0.300   0.757  0.1481  0.2843 -0.1578
  483TMC3     O 7187   0.825   0.398   0.761 -0.3105  0.0892 -0.3394
  483TMC3     H 7188   1.044   0.491   0.702  0.4696  0.7204  0.5647
  483TMC3    H1 7189   1.034   0.137   0.931 -1.7097 -0.1265 -1.2039
  483TMC3    H2 7190   1.367   0.427   0.945  0.1009 -2.1137  2.5441
  483TMC3    C7 7191   1.319   0.161   0.980 -0.0968  0.0426 -0.0114
  483TMC3    C8 7192   1.287   0.562   0.769  0.0168 -0.0964 -0.5956
  483TMC3    O1 7193   1.419   0.199   1.041 -0.6943  0.6013 -0.1358
  483TMC3    O2 7194   1.264   0.580   0.650  0.7666  0.7672  0.1170
  484MPD2     C 7195   3.645   3.328  12.941 -0.9557 -0.2529  0.4365
  484MPD2    C1 7196   3.610   3.267  12.822 -0.1445 -0.2234  0.5917
  484MPD2    C2 7197   3.708   3.251  12.725 -0.7191  0.0606 -0.5202
  484MPD2    C3 7198   3.837   3.292  12.753 -0.0612 -0.3286  0.2026
  484MPD2    C4 7199   3.871   3.354  12.869  0.3732 -0.2072  0.1680
  484MPD2    C5 7200   3.776   3.361  12.963 -0.1077  0.4885  0.4301
  484MPD2     H 7201   3.684   3.201  12.632 -0.4258 -0.7465 -0.1536
  484MPD2    H1 7202   3.974   3.382  12.890  0.0794  1.7364 -0.9782
  484MPD2    H2 7203   3.578   3.339  13.025 -0.1973  1.9835  0.7521
  484MPD2    H3 7204   3.793   3.419  13.053 -0.6269  0.5688  0.4786
  484MPD2     N 7205   3.943   3.275  12.662 -0.1393 -0.1544 -0.1579
  484MPD2    H5 7206   4.028   3.328  12.682  2.2207 -4.6263  1.5877
  484MPD2    N1 7207   3.470   3.213  12.800 -0.6097  0.3657  0.5606
  484MPD2    H7 7208   3.408   3.218  12.880 -0.7915  1.5949  0.3367
  485TMC3    C1 7209   4.059   3.234  12.462 -0.1854 -0.1380 -0.0407
  485TMC3    C2 7210   4.177   3.243  12.526 -0.3602  0.1554  0.1640
  485TMC3    C3 7211   4.286   3.300  12.461 -0.0943 -0.1308  0.1190
  485TMC3    C4 7212   4.044   3.287  12.340 -0.0645 -0.1518 -0.4191
  485TMC3    C5 7213   4.148   3.348  12.275 -0.2401  0.2779 -0.3047
  485TMC3    C6 7214   4.272   3.354  12.336  1.0248  0.4298  0.8679
  485TMC3     C 7215   3.943   3.214  12.539  0.5133  0.0381  0.3031
  485TMC3     O 7216   3.845   3.161  12.488 -0.3506  0.3758  0.3462
  485TMC3     H 7217   4.198   3.198  12.622 -1.1959 -0.2221  0.1672
  485TMC3    H1 7218   3.954   3.268  12.282 -0.2394  1.5068 -0.6766
  485TMC3    H2 7219   4.355   3.402  12.287  0.7768 -0.2297 -0.2262
  485TMC3    C7 7220   4.163   3.307  12.134 -0.2262 -0.9000  0.0087
  485TMC3    C8 7221   4.401   3.223  12.455 -0.0559  0.8905  0.7965
  485TMC3    O1 7222   4.066   3.307  12.058  0.2194  0.4364 -0.4005
  485TMC3    O2 7223   4.434   3.210  12.340  0.7839  0.6459 -0.7907
  486MPD2     C 7224   0.385   2.198  12.465 -0.1631 -0.6607 -0.5217
  486MPD2    C1 7225   0.521   2.234  12.451 -0.1878  0.4293  0.6918
  486MPD2    C2 7226   0.552   2.366  12.407  0.5119 -0.7546 -0.0337
  486MPD2    C3 7227   0.453   2.460  12.393  0.2034 -0.3523 -0.4066
  486MPD2    C4 7228   0.319   2.424  12.415  0.8362  0.0593  0.3838
  486MPD2    C5 7229   0.289   2.297  12.442  0.7627  0.6814 -0.3841
  486MPD2     H 7230   0.652   2.400  12.383  0.4176 -0.7304 -0.4060
  486MPD2    H1 7231   0.233   2.490  12.406  0.2793 -0.6380  0.5517
  486MPD2    H2 7232   0.354   2.098  12.494 -1.0155 -0.3443 -0.3691
  486MPD2    H3 7233   0.184   2.273  12.455  0.6166  1.6424  0.2087
  486MPD2     N 7234   0.489   2.588  12.348 -0.0343 -0.2797  0.3017
  486MPD2    H5 7235   0.589   2.602  12.333 -0.3821  0.6749 -1.1644
  486MPD2    N1 7236   0.618   2.144  12.491  0.4282  0.4562 -0.3769
  486MPD2    H7 7237   0.590   2.052  12.525 -2.5456  1.6566  0.4188
  487TMC3    C1 7238   0.804   2.064  12.589 -0.3388  0.4908  0.3856
  487TMC3    C2 7239   0.787   1.930  12.557  0.6122  0.0824 -0.3175
  487TMC3    C3 7240   0.867   1.846  12.617 -0.0097 -0.6884  0.0675
  487TMC3    C4 7241   0.882   2.109  12.694  0.1293 -0.1487 -0.1324
  487TMC3    C5 7242   0.939   2.011  12.767 -0.2511 -0.1292 -0.3950
  487TMC3    C6 7243   0.940   1.885  12.724  0.2067  0.4249 -0.9567
  487TMC3     C 7244   0.750   2.171  12.523 -0.7050 -0.5192 -0.6664
  487TMC3     O 7245   0.804   2.278  12.520  0.0604 -0.4805  0.3818
  487TMC3     H 7246   0.726   1.881  12.483 -1.6534 -1.3868  2.5086
  487TMC3    H1 7247   0.879   2.211  12.729 -1.8246 -0.2366 -0.0617
  487TMC3    H2 7248   1.015   1.821  12.770  0.1266  1.0575  0.0628
  487TMC3    C7 7249   0.893   2.016  12.901 -0.2662 -0.5277 -0.2769
  487TMC3    C8 7250   0.810   1.717  12.639  0.2758  0.0795  0.0331
  487TMC3    O1 7251   0.840   2.115  12.946  0.3043 -0.1303 -0.1002
  487TMC3    O2 7252   0.693   1.707  12.609 -0.3256  0.7804  0.3506
  488MPD2     C 7253   0.971   3.702  16.382  0.2558  0.3296  0.4719
  488MPD2    C1 7254   1.028   3.820  16.417 -0.5550  0.0658 -0.4046
  488MPD2    C2 7255   1.039   3.851  16.549 -0.2925  0.1412  0.1337
  488MPD2    C3 7256   0.998   3.763  16.649 -0.2609  0.1131  0.7789
  488MPD2    C4 7257   0.951   3.642  16.611  0.7742  1.3058 -0.0667
  488MPD2    C5 7258   0.940   3.612  16.480  0.3755 -0.5631  0.3320
  488MPD2     H 7259   1.083   3.941  16.590  0.3201 -1.5431  3.2107
  488MPD2    H1 7260   0.918   3.567  16.682 -0.2440 -0.7201 -2.6647
  488MPD2    H2 7261   0.950   3.679  16.278  2.3598  3.2761 -0.6089
  488MPD2    H3 7262   0.900   3.515  16.454  2.3165 -2.1848  3.4468
  488MPD2     N 7263   1.031   3.786  16.790 -0.6027  0.0907  0.4594
  488MPD2    H5 7264   1.081   3.870  16.817 -0.6842  0.3841 -0.3094
  488MPD2    N1 7265   1.069   3.917  16.328 -0.0875 -0.4865  0.4472
  488MPD2    H7 7266   1.101   4.000  16.377  1.2702 -0.2297 -0.8554
  489TMC3    C1 7267   1.087   3.740  17.013  0.0897 -0.3113  0.0451
  489TMC3    C2 7268   1.113   3.867  17.044 -1.0864  0.1352 -0.0631
  489TMC3    C3 7269   1.175   3.891  17.167 -0.0566  0.7679  0.2403
  489TMC3    C4 7270   1.115   3.634  17.104 -0.0258 -0.7221  0.4413
  489TMC3    C5 7271   1.169   3.666  17.224  0.1979  0.1954  0.2265
  489TMC3    C6 7272   1.200   3.796  17.262  0.2108  0.3688  0.4251
  489TMC3     C 7273   1.025   3.689  16.891  0.4056 -0.7144  0.5549
  489TMC3     O 7274   1.003   3.570  16.886  0.6139  0.0695 -0.2137
  489TMC3     H 7275   1.083   3.954  16.988 -0.1800 -1.7024 -3.4047
  489TMC3    H1 7276   1.141   3.537  17.063 -1.0499 -1.4975  1.6260
  489TMC3    H2 7277   1.239   3.821  17.361  2.8650  0.5932 -0.6640
  489TMC3    C7 7278   1.184   3.571  17.329 -0.7207 -0.1693 -0.0962
  489TMC3    C8 7279   1.209   4.031  17.186  0.1688 -0.4160  0.2447
  489TMC3    O1 7280   1.241   3.607  17.427  0.0816  0.2621  0.4079
  489TMC3    O2 7281   1.230   4.094  17.080 -0.1888  0.5451 -0.0096
  490MPD2     C 7282   1.962   3.604  17.197  0.1203 -0.4595  0.6975
  490MPD2    C1 7283   1.925   3.530  17.307  0.6732 -0.1552  0.4021
  490MPD2    C2 7284   1.927   3.586  17.435  0.2329  0.1687 -0.9179
  490MPD2    C3 7285   1.969   3.716  17.458 -0.3645  0.6902 -1.4050
  490MPD2    C4 7286   1.998   3.792  17.349  0.6511  0.1802  0.0525
  490MPD2    C5 7287   2.001   3.737  17.224  0.6244 -0.4271  0.3188
  490MPD2     H 7288   1.897   3.522  17.517  0.6870  1.4261  0.2438
  490MPD2    H1 7289   2.039   3.892  17.358  1.4608  0.2292 -3.8836
  490MPD2    H2 7290   1.978   3.567  17.097  0.4148 -2.4680  1.4843
  490MPD2    H3 7291   2.042   3.797  17.143  0.7681 -1.0048 -0.0331
  490MPD2     N 7292   1.997   3.764  17.588  0.0766  0.6443 -0.8540
  490MPD2    H5 7293   2.026   3.861  17.597  0.9382  0.4432 -1.5244
  490MPD2    N1 7294   1.896   3.394  17.293  0.4621 -0.6017  0.1467
  490MPD2    H7 7295   1.877   3.339  17.376  1.1657  0.8864  1.2976
  491TMC3    C1 7296   1.825   3.196  17.198  0.0428  0.2229 -0.3080
  491TMC3    C2 7297   1.891   3.122  17.293 -0.1075 -0.1349  0.3034
  491TMC3    C3 7298   1.861   2.990  17.298 -0.5556 -0.2296  0.7197
  491TMC3    C4 7299   1.737   3.146  17.107  0.5898  0.2329  0.3030
  491TMC3    C5 7300   1.705   3.013  17.130  0.4367  0.5580 -0.0777
  491TMC3    C6 7301   1.776   2.930  17.215 -0.4486  0.1154  0.0382
  491TMC3     C 7302   1.876   3.329  17.174 -0.2868 -0.3799 -0.4175
  491TMC3     O 7303   1.866   3.376  17.063 -0.1626 -0.1340  0.2094
  491TMC3     H 7304   1.973   3.167  17.347 -0.6058 -0.6476  1.4866
  491TMC3    H1 7305   1.675   3.206  17.041  2.0858  0.1618 -1.1432
  491TMC3    H2 7306   1.750   2.825  17.222  0.8667 -0.1104  1.5927
  491TMC3    C7 7307   1.590   2.948  17.070 -0.8243  0.2396  0.1146
  491TMC3    C8 7308   1.910   2.916  17.411 -0.3444 -1.0026 -0.4527
  491TMC3    O1 7309   1.534   2.854  17.122  0.1737  0.4659 -0.3155
  491TMC3    O2 7310   1.846   2.813  17.433 -0.2061 -0.2290  0.2413
  492MPD2     C 7311   2.270   2.900  11.275  0.0840  0.6804 -0.4294
  492MPD2    C1 7312   2.154   2.909  11.201 -0.0234 -0.0635 -0.4004
  492MPD2    C2 7313   2.037   2.901  11.267  0.3867  0.5481 -0.1253
  492MPD2    C3 7314   2.036   2.888  11.405  0.2041  0.2022  0.4735
  492MPD2    C4 7315   2.153   2.886  11.472 -0.3339  0.2430  0.3404
  492MPD2    C5 7316   2.269   2.895  11.409  0.3613  0.9177  0.2329
  492MPD2     H 7317   1.947   2.918  11.207 -0.3029  0.4319  0.8838
  492MPD2    H1 7318   2.155   2.858  11.577  1.4135 -0.8412  0.0239
  492MPD2    H2 7319   2.362   2.900  11.218 -0.2202  1.5535 -0.9240
  492MPD2    H3 7320   2.362   2.880  11.462  1.5493 -0.6635 -2.2714
  492MPD2     N 7321   1.917   2.858  11.469 -0.2183 -0.5192 -0.4586
  492MPD2    H5 7322   1.920   2.836  11.568  0.3761  1.7895  0.0284
  492MPD2    N1 7323   2.168   2.920  11.062 -0.2617 -0.3300  0.7038
  492MPD2    H7 7324   2.249   2.963  11.018 -0.1613 -0.5958  0.6331
  493TMC3    C1 7325   2.093   2.899  10.838  0.1284 -0.5218 -1.0250
  493TMC3    C2 7326   2.148   3.021  10.810 -0.3000 -0.0579  0.2286
  493TMC3    C3 7327   2.090   3.098  10.710  0.1410 -0.0449  0.1829
  493TMC3    C4 7328   1.989   2.854  10.767 -0.1326 -0.4243  0.2019
  493TMC3    C5 7329   1.931   2.932  10.668  0.2512 -0.2027 -0.5090
  493TMC3    C6 7330   1.975   3.061  10.640  0.5462 -0.6740  0.8322
  493TMC3     C 7331   2.079   2.859  10.973  0.6714 -0.4186 -0.3300
  493TMC3     O 7332   1.984   2.789  11.001  0.0555 -0.4355  0.1769
  493TMC3     H 7333   2.229   3.064  10.867  0.8412 -1.5347 -0.2674
  493TMC3    H1 7334   1.953   2.752  10.777 -0.3345 -0.4961 -1.3371
  493TMC3    H2 7335   1.917   3.112  10.565  1.8158 -0.3751  0.0562
  493TMC3    C7 7336   1.789   2.934  10.687 -0.5007 -0.1363  0.0220
  493TMC3    C8 7337   2.142   3.234  10.709 -0.4347  0.0110  0.3396
  493TMC3    O1 7338   1.727   2.980  10.593  0.0736 -0.2322 -0.2859
  493TMC3    O2 7339   2.163   3.291  10.816  0.5608 -0.3015 -0.3599
  494TMC3    C1 7340   2.899   0.130   0.602  0.0690  0.5511  1.0110
  494TMC3    C2 7341   2.965   0.004   0.598 -0.9016 -0.2098  0.1673
  494TMC3    C3 7342   3.010   4.690   0.477 -0.4992 -0.4002 -0.8621
  494TMC3    C4 7343   2.855   0.192   0.490 -0.4656  0.1542  0.5992
  494TMC3    C5 7344   2.903   0.150   0.374  0.5335 -0.4675 -0.6273
  494TMC3    C6 7345   2.984   0.042   0.366 -0.4017 -0.2134 -0.0659
  494TMC3     C 7346   2.830   0.172   0.723 -0.3311 -0.0410  0.5313
  494TMC3     O 7347   2.738   0.252   0.718 -0.4216  0.1756 -0.3885
  494TMC3     H 7348   3.011   4.680   0.684 -0.7088  2.7005  1.6730
  494TMC3    H1 7349   2.801   0.286   0.488 -1.2582 -0.2994  0.9806
  494TMC3    H2 7350   3.036   0.020   0.274  1.3166 -0.2655  0.9244
  494TMC3    C7 7351   2.876   0.217   0.246  0.2867 -0.1782  0.3309
  494TMC3    C8 7352   3.128   4.612   0.476  0.4270 -0.5138  0.1299
  494TMC3    O1 7353   2.918   0.156   0.147  0.0700 -0.7617 -0.1055
  494TMC3    O2 7354   3.133   4.512   0.546  0.1855  0.8504  0.1636
  495TMC3    C1 7355   1.291   2.121  14.358  0.7342 -0.0137  0.0556
  495TMC3    C2 7356   1.206   2.160  14.259  0.1957 -0.3686 -0.1292
  495TMC3    C3 7357   1.103   2.254  14.283  0.8764 -0.8381  0.0505
  495TMC3    C4 7358   1.286   2.185  14.481 -0.7133 -0.1492 -0.0401
  495TMC3    C5 7359   1.183   2.273  14.508 -0.0565  0.6682  0.6904
  495TMC3    C6 7360   1.090   2.310  14.408 -0.5737 -0.8609 -0.1927
  495TMC3     C 7361   1.270   1.977  14.380  0.2309  0.0206  0.0479
  495TMC3     O 7362   1.163   1.940  14.328  0.3187 -0.2237  0.6543
  495TMC3     H 7363   1.216   2.103  14.168 -3.1759 -0.8020 -0.2314
  495TMC3    H1 7364   1.333   2.139  14.567  0.1863  0.2771 -0.2979
  495TMC3    H2 7365   1.029   2.398  14.425  1.9973  1.0597 -0.8807
  495TMC3    C7 7366   1.168   2.322  14.644 -0.7081 -0.1970  0.1787
  495TMC3    C8 7367   1.000   2.286  14.188  0.8613 -0.5842  0.1518
  495TMC3    O1 7368   1.273   2.318  14.707  0.4366  0.2237 -0.8840
  495TMC3    O2 7369   0.887   2.281  14.235 -0.0678  0.3101 -0.3648
  496MPD2     C 7370   3.549   2.168  15.419  0.5806 -0.4788 -0.8708
  496MPD2    C1 7371   3.479   2.048  15.408 -0.4333  0.5825 -0.1014
  496MPD2    C2 7372   3.354   2.050  15.480 -0.2692 -0.0057 -0.7546
  496MPD2    C3 7373   3.316   2.158  15.562 -0.7903  0.0825 -0.3092
  496MPD2    C4 7374   3.397   2.269  15.578  0.6670  0.3600 -0.2595
  496MPD2    C5 7375   3.506   2.281  15.494 -0.7960 -0.1639  0.0874
  496MPD2     H 7376   3.285   1.968  15.462  0.7247 -1.4128  1.8994
  496MPD2    H1 7377   3.375   2.356  15.639  1.4958 -1.1071  2.1182
  496MPD2    H2 7378   3.643   2.178  15.366  0.9703 -3.5870 -0.8157
  496MPD2    H3 7379   3.577   2.362  15.502 -2.1226  1.1043 -0.8012
  496MPD2     N 7380   3.198   2.156  15.644  0.1876 -0.2401 -0.3109
  496MPD2    H5 7381   3.171   2.246  15.683  0.8309 -0.5469  0.8433
  496MPD2    N1 7382   3.528   1.935  15.339 -0.5354 -0.5946 -0.1105
  496MPD2    H7 7383   3.621   1.949  15.301 -0.6524  2.1547  0.6102
  497TMC3    C1 7384   2.987   2.077  15.728  0.2662  0.0234  0.0059
  497TMC3    C2 7385   2.882   1.996  15.700 -0.0053 -0.1039 -0.0093
  497TMC3    C3 7386   2.779   2.000  15.788 -0.1321  0.4683  0.4251
  497TMC3    C4 7387   3.002   2.151  15.841 -0.0172 -0.3909  0.5287
  497TMC3    C5 7388   2.904   2.143  15.935  0.1801 -0.9967 -0.0517
  497TMC3    C6 7389   2.786   2.070  15.907 -0.0518  0.2945 -0.2138
  497TMC3     C 7390   3.104   2.054  15.650 -0.0865 -0.6206 -0.9709
  497TMC3     O 7391   3.111   1.943  15.596 -0.0282 -0.1341 -0.4374
  497TMC3     H 7392   2.881   1.933  15.611 -3.8485  1.0298 -0.7684
  497TMC3    H1 7393   3.090   2.214  15.846  0.9526 -1.6089 -1.2873
  497TMC3    H2 7394   2.712   2.055  15.985  1.0786 -0.3455  0.7637
  497TMC3    C7 7395   2.887   2.229  16.058 -0.0078 -0.7340 -0.2241
  497TMC3    C8 7396   2.668   1.912  15.764 -0.3835  0.2883  0.1096
  497TMC3    O1 7397   2.774   2.243  16.103  0.6858  0.1404 -0.8096
  497TMC3    O2 7398   2.617   1.871  15.867  0.5737  0.0113 -0.1477
  498MPD2     C 7399   3.998   2.134   8.842  0.0848  0.2015 -0.4092
  498MPD2    C1 7400   4.029   2.166   8.973 -0.1908 -0.8018  0.1517
  498MPD2    C2 7401   3.934   2.139   9.069  0.3285  0.4803 -0.2303
  498MPD2    C3 7402   3.806   2.094   9.046 -0.3568 -0.2068  0.2630
  498MPD2    C4 7403   3.778   2.064   8.912 -0.2750  0.0321  0.2147
  498MPD2    C5 7404   3.873   2.079   8.816 -0.4987 -1.0866 -0.8266
  498MPD2     H 7405   3.965   2.166   9.169 -1.0461  1.4932 -0.0701
  498MPD2    H1 7406   3.676   2.035   8.885  0.0160  0.5049 -1.3858
  498MPD2    H2 7407   4.070   2.157   8.765  0.2251  0.6411 -0.1452
  498MPD2    H3 7408   3.859   2.062   8.710 -0.1267  1.2940 -1.2649
  498MPD2     N 7409   3.717   2.087   9.153 -0.2141  0.5377 -0.0718
  498MPD2    H5 7410   3.753   2.113   9.245 -0.1130 -0.2742  0.1243
  498MPD2    N1 7411   4.148   2.227   9.022 -0.2040  0.4078  0.0812
  498MPD2    H7 7412   4.144   2.259   9.118 -2.4082 -1.9214  0.7515
  499TMC3    C1 7413   4.363   2.309   9.010  0.1279  0.6034  0.5286
  499TMC3    C2 7414   4.488   2.276   8.973  0.7287 -0.4756 -0.1380
  499TMC3    C3 7415   4.591   2.338   9.044 -0.5636  0.1156  1.1312
  499TMC3    C4 7416   4.340   2.392   9.121 -0.7416 -0.7151  0.2809
  499TMC3    C5 7417   4.445   2.444   9.195  0.5081  0.1973  0.3924
  499TMC3    C6 7418   4.568   2.415   9.155  0.2149  0.6673 -0.2962
  499TMC3     C 7419   4.255   2.238   8.943 -1.1527 -0.0368 -0.0368
  499TMC3     O 7420   4.281   2.197   8.831 -0.2051 -0.0917 -0.2413
  499TMC3     H 7421   4.496   2.212   8.886  0.4209  0.2225 -0.6828
  499TMC3    H1 7422   4.236   2.407   9.150 -0.6025  0.2528  0.2651
  499TMC3    H2 7423   4.654   2.462   9.201  2.3172 -0.6567 -2.9647
  499TMC3    C7 7424   4.414   2.536   9.304 -0.0075  0.2244 -0.0241
  499TMC3    C8 7425   0.002   2.319   9.002  0.5760  0.4144  0.9730
  499TMC3    O1 7426   4.494   2.630   9.322 -0.2591 -0.2289  0.0280
  499TMC3    O2 7427   0.086   2.399   9.045 -0.0528  0.0361 -0.1569
  500MPD2     C 7428   1.297   3.606  10.246  0.4311  0.9735  0.4361
  500MPD2    C1 7429   1.289   3.737  10.195  0.5593  0.1537  0.0797
  500MPD2    C2 7430   1.178   3.779  10.121  0.6309 -0.5480 -0.4942
  500MPD2    C3 7431   1.091   3.686  10.064 -0.1038  0.0098 -0.0572
  500MPD2    C4 7432   1.102   3.555  10.112  0.2183  0.2535  0.5896
  500MPD2    C5 7433   1.196   3.521  10.206  0.4490  0.0963  0.1110
  500MPD2     H 7434   1.170   3.877  10.075  0.2928 -0.2817  0.1285
  500MPD2    H1 7435   1.035   3.475  10.081 -0.8950  1.1409  0.7171
  500MPD2    H2 7436   1.372   3.564  10.312  0.4850  3.0821  1.6835
  500MPD2    H3 7437   1.204   3.422  10.250  0.6502 -0.4593 -1.1926
  500MPD2     N 7438   0.980   3.726   9.976 -0.4569 -0.0122  0.1431
  500MPD2    H5 7439   0.921   3.649   9.944  1.2326 -1.3299  0.2275
  500MPD2    N1 7440   1.389   3.832  10.227  0.8298 -0.2192 -0.2001
  500MPD2    H7 7441   1.378   3.922  10.183  1.5692  1.3150  2.7321
  501TMC3    C1 7442   1.579   3.925  10.333 -1.2072  0.0189  0.1492
  501TMC3    C2 7443   1.546   4.052  10.294 -0.0623 -0.0733 -0.2807
  501TMC3    C3 7444   1.623   4.147  10.351 -0.1104  0.1896 -0.3400
  501TMC3    C4 7445   1.685   3.898  10.411 -0.3906 -0.6689 -0.1720
  501TMC3    C5 7446   1.755   3.998  10.470 -0.2169 -0.4788  0.7446
  501TMC3    C6 7447   1.732   4.130  10.437 -0.0930 -0.7314  0.4930
  501TMC3     C 7448   1.494   3.813  10.310 -0.1931  0.3831 -0.4848
  501TMC3     O 7449   1.522   3.709  10.371 -0.3683 -0.3922 -0.1520
  501TMC3     H 7450   1.462   4.084  10.233 -2.0874  0.6412  2.8980
  501TMC3    H1 7451   1.716   3.800  10.445  1.0162 -0.6337 -1.3408
  501TMC3    H2 7452   1.784   4.209  10.491 -2.2734  0.7018  0.4777
  501TMC3    C7 7453   1.866   3.967  10.551 -0.4521  0.1952 -0.6268
  501TMC3    C8 7454   1.591   4.290  10.330 -0.6937 -0.4617  0.2068
  501TMC3    O1 7455   1.835   3.884  10.637 -0.3016  0.2162 -0.0397
  501TMC3    O2 7456   1.631   4.359  10.423 -0.4594  0.2874  0.1414
  502TMC3    C1 7457   0.768   3.002  15.258 -0.6639  0.3808  0.5064
  502TMC3    C2 7458   0.729   3.135  15.244 -0.9249 -0.0497  0.1379
  502TMC3    C3 7459   0.593   3.159  15.232 -1.0424  0.2830  0.2173
  502TMC3    C4 7460   0.672   2.899  15.247 -0.1650 -0.3951 -0.1380
  502TMC3    C5 7461   0.544   2.929  15.236  0.0529 -0.3596 -0.6821
  502TMC3    C6 7462   0.503   3.057  15.234  0.1868  0.4755  0.2969
  502TMC3     C 7463   0.860   2.966  15.362  0.1420 -0.6470  0.0358
  502TMC3     O 7464   0.947   3.046  15.399  0.3642  0.2350 -0.3672
  502TMC3     H 7465   0.811   3.205  15.244 -1.0354  0.0996 -3.1790
  502TMC3    H1 7466   0.701   2.796  15.232 -0.1752 -0.2606 -1.0490
  502TMC3    H2 7467   0.407   3.090  15.196 -0.7509  0.4880  2.6778
  502TMC3    C7 7468   0.451   2.817  15.248 -0.3111  0.5791  0.8123
  502TMC3    C8 7469   0.559   3.298  15.213 -0.6214  0.3027  0.4283
  502TMC3    O1 7470   0.504   2.720  15.303 -0.0444  0.1355 -0.2499
  502TMC3    O2 7471   0.632   3.370  15.147  0.1236  0.2133  0.0359
  503MPD2     C 7472   3.008   3.786  16.889  0.1168  0.0686 -0.3066
  503MPD2    C1 7473   3.010   3.829  17.023  0.3072  0.7050 -0.0673
  503MPD2    C2 7474   3.057   3.742  17.119 -0.1496  0.8579 -0.2789
  503MPD2    C3 7475   3.069   3.608  17.086 -0.1150  0.6333  0.1176
  503MPD2    C4 7476   3.041   3.566  16.959  0.9018 -0.3972  0.0402
  503MPD2    C5 7477   3.014   3.653  16.858 -0.5419 -0.0218 -0.1895
  503MPD2     H 7478   3.062   3.764  17.225  0.1063  1.1987 -0.3623
  503MPD2    H1 7479   3.048   3.460  16.936 -1.2968 -0.5091 -0.1137
  503MPD2    H2 7480   2.988   3.851  16.804  2.3547 -3.0803 -3.2471
  503MPD2    H3 7481   2.984   3.611  16.762 -0.8504 -2.8365  1.1497
  503MPD2     N 7482   3.136   3.525  17.178 -0.0707  0.0807 -0.1845
  503MPD2    H5 7483   3.188   3.569  17.253  1.3280 -0.6525 -0.7357
  503MPD2    N1 7484   2.979   3.963  17.062  0.1401 -0.5700  0.3582
  503MPD2    H7 7485   2.977   3.987  17.161  1.1676  0.3311  0.1622
  504TMC3    C1 7486   3.212   3.328  17.283  0.9707 -0.0236  0.9308
  504TMC3    C2 7487   3.177   3.208  17.332  0.2162  0.1945  0.0199
  504TMC3    C3 7488   3.271   3.138  17.405  0.3931  0.1350 -0.1898
  504TMC3    C4 7489   3.332   3.387  17.293 -0.4637  0.5327 -0.5193
  504TMC3    C5 7490   3.423   3.312  17.367  0.4052  0.6341  0.0097
  504TMC3    C6 7491   3.397   3.188  17.422  0.4848 -0.8641  0.4471
  504TMC3     C 7492   3.113   3.393  17.197 -0.0897  0.3840  0.5775
  504TMC3     O 7493   3.025   3.326  17.144 -0.6582  0.3207  0.0078
  504TMC3     H 7494   3.079   3.165  17.313  0.1996 -0.7863  2.3127
  504TMC3    H1 7495   3.349   3.491  17.266  0.2206  0.7920  0.9118
  504TMC3    H2 7496   3.479   3.138  17.473  0.8924 -0.1830  0.4605
  504TMC3    C7 7497   3.557   3.315  17.308  0.0025 -0.1296 -0.5663
  504TMC3    C8 7498   3.234   3.002  17.441  0.0867 -0.0531  0.1711
  504TMC3    O1 7499   3.549   3.316  17.186 -0.4932 -0.0162  0.3670
  504TMC3    O2 7500   3.199   2.931  17.349  0.2679 -0.0741 -0.0665
  505MPD2     C 7501   2.875   1.985  10.205 -0.6321  0.3024  0.3486
  505MPD2    C1 7502   2.938   1.877  10.264  0.0221  0.3990 -0.2238
  505MPD2    C2 7503   3.057   1.904  10.329 -0.8509 -0.0874 -0.5025
  505MPD2    C3 7504   3.100   2.036  10.356  0.0104 -0.2811  0.1531
  505MPD2    C4 7505   3.036   2.141  10.303 -0.3322  0.1957 -0.0862
  505MPD2    C5 7506   2.922   2.116  10.229 -0.8197  0.2152 -0.0604
  505MPD2     H 7507   3.124   1.825  10.361 -0.1189  1.4507  1.7240
  505MPD2    H1 7508   3.081   2.240  10.299  0.6169 -0.2029  0.9179
  505MPD2    H2 7509   2.784   1.985  10.146 -1.4540 -1.7970  1.6185
  505MPD2    H3 7510   2.870   2.196  10.177  0.2469  0.9894  0.0546
  505MPD2     N 7511   3.222   2.065  10.423 -0.2950  0.1485  0.0337
  505MPD2    H5 7512   3.255   2.160  10.438  0.8067 -0.3869  1.0662
  505MPD2    N1 7513   2.895   1.753  10.230  0.1197  0.5710 -0.7042
  505MPD2    H7 7514   2.833   1.745  10.150 -2.8560 -1.6008  1.8204
  506TMC3    C1 7515   2.900   1.512  10.233  0.4361  0.4447 -0.0551
  506TMC3    C2 7516   2.914   1.503  10.092 -0.5436  0.7463 -0.1180
  506TMC3    C3 7517   2.962   1.388  10.030  0.7327 -0.0006 -0.0700
  506TMC3    C4 7518   2.936   1.398  10.302  0.4681 -0.8704 -0.4807
  506TMC3    C5 7519   2.978   1.281  10.238  0.3143 -0.0004 -0.1830
  506TMC3    C6 7520   2.993   1.274  10.100  1.3055 -0.7095  0.0314
  506TMC3     C 7521   2.934   1.639  10.299 -0.0521  0.4922 -0.2570
  506TMC3     O 7522   2.979   1.625  10.411  0.0931  0.1183  0.0897
  506TMC3     H 7523   2.876   1.590  10.039 -0.8459  0.8966  0.3425
  506TMC3    H1 7524   2.931   1.402  10.410 -3.4244  1.9890 -0.7520
  506TMC3    H2 7525   3.039   1.191  10.048  1.6076  0.6048 -1.7869
  506TMC3    C7 7526   3.103   1.247  10.294  0.1607  0.4353 -0.0563
  506TMC3    C8 7527   2.978   1.382   9.890  0.3997 -0.0582  0.1980
  506TMC3    O1 7528   3.144   1.132  10.274 -0.4326  0.0122  0.2208
  506TMC3    O2 7529   2.939   1.279   9.835  0.2598 -0.5085 -0.0252
  507TMC3    C1 7530   3.887   3.072  14.853  0.6582 -0.4133  0.5237
  507TMC3    C2 7531   3.859   2.993  14.740 -0.4344  0.0180  0.2643
  507TMC3    C3 7532   3.892   3.047  14.614  0.4165  0.2000 -0.2537
  507TMC3    C4 7533   3.955   3.196  14.843 -0.3623 -0.1802 -0.2418
  507TMC3    C5 7534   3.988   3.240  14.719  0.3463  0.0950 -0.1649
  507TMC3    C6 7535   3.958   3.165  14.608  0.5687 -0.8691  0.1919
  507TMC3     C 7536   3.777   3.095  14.937 -0.6322 -0.0586  0.7958
  507TMC3     O 7537   3.794   3.169  15.035  0.4946 -0.0163 -0.1639
  507TMC3     H 7538   3.811   2.897  14.746  1.5598 -1.0464 -0.6177
  507TMC3    H1 7539   3.957   3.262  14.929 -0.8159  0.5032 -0.7636
  507TMC3    H2 7540   4.003   3.197  14.515  0.7926 -0.6028  0.3919
  507TMC3    C7 7541   3.948   3.377  14.688  0.7372 -0.1852  0.7639
  507TMC3    C8 7542   3.775   3.037  14.527 -0.3633 -0.4681  1.1231
  507TMC3    O1 7543   3.889   3.396  14.586  0.1783  0.3591 -0.4687
  507TMC3    O2 7544   3.702   2.942  14.543  0.2476 -0.4167 -0.2213
  508MPD2     C 7545   0.176   0.563  15.841  0.1245 -0.2620 -0.7944
  508MPD2    C1 7546   0.119   0.680  15.885 -0.2846 -0.4990  0.8081
  508MPD2    C2 7547   0.059   0.762  15.784 -0.3716 -0.0050 -0.4741
  508MPD2    C3 7548   0.059   0.732  15.649 -0.2594  0.0984  0.1509
  508MPD2    C4 7549   0.114   0.615  15.611  0.2951  0.5846 -0.0780
  508MPD2    C5 7550   0.182   0.542  15.705  0.2548 -0.9406  1.0857
  508MPD2     H 7551   0.007   0.848  15.824 -1.8743  0.2710 -3.0574
  508MPD2    H1 7552   0.121   0.585  15.507  0.8386  1.0198 -0.1683
  508MPD2    H2 7553   0.223   0.485  15.899 -1.2533  0.0287  0.7043
  508MPD2    H3 7554   0.210   0.442  15.673 -1.0665 -1.0374  0.2277
  508MPD2     N 7555   4.721   0.826  15.565  0.3774  0.8788 -0.0736
  508MPD2    H5 7556   4.689   0.909  15.614 -0.9309 -1.4361  3.0222
  508MPD2    N1 7557   0.150   0.718  16.022 -0.1080  0.0762  0.5158
  508MPD2    H7 7558   0.216   0.660  16.073 -2.0864 -0.9779  1.8710
  509TMC3    C1 7559   4.561   1.147  15.389  0.3897  0.6911  0.0981
  509TMC3    C2 7560   4.570   1.172  15.251 -0.0416  0.2036  0.0003
  509TMC3    C3 7561   4.636   1.076  15.176 -0.3308 -0.1621  0.0790
  509TMC3    C4 7562   4.591   1.027  15.450 -0.2661  0.4913  0.3373
  509TMC3    C5 7563   4.652   0.938  15.369  0.4048 -0.2626  0.0432
  509TMC3    C6 7564   4.677   0.956  15.235 -0.5304  0.2275  0.0723
  509TMC3     C 7565   4.549   1.265  15.474 -0.0551 -0.1677  0.0395
  509TMC3     O 7566   4.599   1.267  15.586 -0.7211  0.0889 -0.0209
  509TMC3     H 7567   4.546   1.263  15.196  0.9623 -0.0980 -0.9347
  509TMC3    H1 7568   4.564   1.020  15.555  0.5161 -1.5505  0.3948
  509TMC3    H2 7569   0.009   0.881  15.179 -0.6736  0.9057 -0.9740
  509TMC3    C7 7570   4.711   0.815  15.425  0.6404  1.0306 -0.2742
  509TMC3    C8 7571   0.004   1.138  15.080 -0.0211 -0.8095 -0.4718
  509TMC3    O1 7572   0.002   0.720  15.351  0.0321  0.0906 -0.1832
  509TMC3    O2 7573   0.038   1.074  14.977 -0.1225  0.1796  0.3686
  510MPD2     C 7574   2.936   2.631  14.798  0.6827 -0.5128 -0.0637
  510MPD2    C1 7575   2.963   2.503  14.823  0.3758 -0.1533 -0.0024
  510MPD2    C2 7576   3.049   2.431  14.749 -0.4232  0.7042 -0.3355
  510MPD2    C3 7577   3.110   2.490  14.645 -0.3069 -0.3382 -0.1249
  510MPD2    C4 7578   3.075   2.619  14.611 -0.2023  0.0485  0.2929
  510MPD2    C5 7579   2.986   2.687  14.690  0.3306 -0.3086 -0.5969
  510MPD2     H 7580   3.062   2.324  14.760 -0.1034  0.7030 -0.7060
  510MPD2    H1 7581   3.120   2.678  14.532  1.3452 -0.4510  0.8135
  510MPD2    H2 7582   2.855   2.680  14.852  0.2080  0.7398 -1.9075
  510MPD2    H3 7583   2.967   2.792  14.676  2.0140  0.3179  1.7103
  510MPD2     N 7584   3.208   2.425  14.560 -0.2311  0.4144 -0.3197
  510MPD2    H5 7585   3.223   2.331  14.593 -0.3340  0.1983 -0.8773
  510MPD2    N1 7586   2.879   2.457  14.927  0.3664  0.1175 -0.1279
  510MPD2    H7 7587   2.806   2.523  14.954 -0.6519 -0.5492 -1.2254
  511TMC3    C1 7588   2.747   2.300  15.039  0.2657  0.3250 -0.2265
  511TMC3    C2 7589   2.641   2.383  15.064  0.3726  0.5699 -0.1980
  511TMC3    C3 7590   2.516   2.335  15.088 -0.1447 -0.1282 -0.8006
  511TMC3    C4 7591   2.718   2.166  15.018 -0.5104 -0.5600 -0.0524
  511TMC3    C5 7592   2.588   2.123  15.029  0.2812  0.1398 -0.2900
  511TMC3    C6 7593   2.482   2.204  15.070  0.4987 -0.0610 -0.4171
  511TMC3     C 7594   2.874   2.334  14.974 -0.0011  0.2751 -0.4644
  511TMC3     O 7595   2.958   2.242  14.966  0.0345  0.1748  0.5931
  511TMC3     H 7596   2.657   2.490  15.054  1.6875  0.2396 -1.5831
  511TMC3    H1 7597   2.792   2.088  15.000 -0.3790  0.0912 -2.3612
  511TMC3    H2 7598   2.378   2.178  15.051  0.1580  0.5864  0.6190
  511TMC3    C7 7599   2.560   2.026  14.924 -0.0573 -0.4217  0.8083
  511TMC3    C8 7600   2.446   2.424  15.182 -0.9218 -0.9507 -0.5436
  511TMC3    O1 7601   2.625   2.030  14.822  0.4149  0.5105  0.2937
  511TMC3    O2 7602   2.493   2.531  15.214  0.5920 -0.9022 -1.0380
  512TMC3    C1 7603   1.467   1.766  13.268 -0.2759 -0.2790 -0.0428
  512TMC3    C2 7604   1.543   1.771  13.385  0.6090  0.0594 -0.3504
  512TMC3    C3 7605   1.546   1.652  13.458 -0.1413  0.7883 -0.2193
  512TMC3    C4 7606   1.424   1.650  13.214  0.2184  0.3071  0.2563
  512TMC3    C5 7607   1.449   1.530  13.277  0.2431  0.0060  0.1092
  512TMC3    C6 7608   1.506   1.528  13.402  0.8851 -0.8426  0.8969
  512TMC3     C 7609   1.404   1.884  13.212 -0.1195 -0.3667 -0.0793
  512TMC3     O 7610   1.378   1.874  13.093  0.3037 -0.1203 -0.6731
  512TMC3     H 7611   1.601   1.861  13.404  0.5549  0.3315 -1.4893
  512TMC3    H1 7612   1.365   1.650  13.123 -2.3982  2.7492  1.9522
  512TMC3    H2 7613   1.510   1.444  13.470  1.2936 -0.6158  1.1510
  512TMC3    C7 7614   1.355   1.420  13.242  0.2555  0.9475  0.0757
  512TMC3    C8 7615   1.639   1.631  13.569  0.0585  0.7584 -0.3591
  512TMC3    O1 7616   1.267   1.453  13.167  0.2670  0.0660 -0.0273
  512TMC3    O2 7617   1.700   1.526  13.594  0.0655 -0.0639  0.6213
  513MPD2     C 7618   3.762   1.802  12.566  0.6132 -0.1904  0.4796
  513MPD2    C1 7619   3.717   1.888  12.659 -0.0646  0.0011 -0.4165
  513MPD2    C2 7620   3.715   1.850  12.791 -0.4294  0.4821  0.3995
  513MPD2    C3 7621   3.800   1.751  12.829  0.3349  0.3283  0.5187
  513MPD2    C4 7622   3.854   1.668  12.736 -0.5182  0.1997 -0.5037
  513MPD2    C5 7623   3.831   1.685  12.603  0.1804  0.2153  0.6633
  513MPD2     H 7624   3.664   1.903  12.871 -0.7230  0.4541  0.2333
  513MPD2    H1 7625   3.924   1.589  12.759 -1.3057 -0.0897  0.9027
  513MPD2    H2 7626   3.750   1.830  12.462  0.4123 -0.8944  0.3161
  513MPD2    H3 7627   3.887   1.623  12.535  0.3180  1.1487 -0.0743
  513MPD2     N 7628   3.843   1.750  12.959 -0.5499  0.3193 -1.1674
  513MPD2    H5 7629   3.797   1.823  13.012 -0.2203 -1.3717  1.4247
  513MPD2    N1 7630   3.659   2.012  12.623 -0.4103  0.2569 -0.0626
  513MPD2    H7 7631   3.661   2.040  12.525  2.0542  0.9748  0.1797
  514TMC3    C1 7632   3.592   2.242  12.668 -0.1832  0.9027 -0.3961
  514TMC3    C2 7633   3.618   2.267  12.536  0.0777 -0.2267  0.3539
  514TMC3    C3 7634   3.656   2.394  12.497  0.1322  0.0571 -0.4133
  514TMC3    C4 7635   3.611   2.343  12.763  0.0187 -0.5271  0.1166
  514TMC3    C5 7636   3.658   2.468  12.727  0.0970  0.4997  0.1536
  514TMC3    C6 7637   3.677   2.499  12.593  1.0562  0.2799 -0.2450
  514TMC3     C 7638   3.639   2.115  12.716  0.0343 -0.0814 -0.5253
  514TMC3     O 7639   3.670   2.115  12.835  0.2496  1.3902  0.0311
  514TMC3     H 7640   3.601   2.191  12.461  3.1958 -0.6132  0.0472
  514TMC3    H1 7641   3.583   2.315  12.863  1.5239 -1.5285  0.2548
  514TMC3    H2 7642   3.721   2.593  12.562  0.2328  1.4739  2.2645
  514TMC3    C7 7643   3.767   2.512  12.805  0.1923  0.7689  0.2309
  514TMC3    C8 7644   3.676   2.436  12.356 -0.6433 -0.4444 -0.2351
  514TMC3    O1 7645   3.858   2.571  12.745 -0.1404 -0.5609  0.4358
  514TMC3    O2 7646   3.675   2.557  12.332  0.2356  0.2032  0.7210
  515MPD2     C 7647   1.270   3.794  14.847 -0.3788  0.8173 -0.3981
  515MPD2    C1 7648   1.367   3.717  14.785  0.0650 -0.0959  0.6135
  515MPD2    C2 7649   1.493   3.769  14.781  0.7327 -0.7929  0.0945
  515MPD2    C3 7650   1.527   3.894  14.846  0.3848  0.5787  0.8864
  515MPD2    C4 7651   1.429   3.957  14.912 -0.1951 -0.2143 -0.2461
  515MPD2    C5 7652   1.302   3.908  14.914  0.2576  0.2492  0.7623
  515MPD2     H 7653   1.576   3.722  14.729 -0.2952 -1.1595 -1.2182
  515MPD2    H1 7654   1.445   4.045  14.974  2.2725  0.2499 -1.5483
  515MPD2    H2 7655   1.165   3.769  14.843  0.1493 -1.3681 -0.7589
  515MPD2    H3 7656   1.231   3.958  14.979  0.6808  0.6151  0.9432
  515MPD2     N 7657   1.659   3.952  14.862 -0.0501  0.5455  0.4397
  515MPD2    H5 7658   1.664   4.046  14.899 -0.3567  1.0713 -0.8598
  515MPD2    N1 7659   1.338   3.597  14.714  0.2644  0.4321 -0.1597
  515MPD2    H7 7660   1.408   3.558  14.652 -0.6486 -0.5694 -0.5528
  516TMC3    C1 7661   1.236   3.385  14.684  0.2763 -0.0892  0.4895
  516TMC3    C2 7662   1.235   3.379  14.546 -0.0723  0.2094  0.0415
  516TMC3    C3 7663   1.185   3.265  14.491  0.0148  0.4567  0.0780
  516TMC3    C4 7664   1.189   3.284  14.766 -0.3566 -0.4077 -0.9041
  516TMC3    C5 7665   1.131   3.178  14.706 -0.1472 -0.6861  0.0751
  516TMC3    C6 7666   1.128   3.166  14.569  0.0580 -0.2878  0.2098
  516TMC3     C 7667   1.237   3.512  14.751  0.0260  0.1172  0.6913
  516TMC3     O 7668   1.162   3.529  14.843 -0.1618  0.3865  0.2248
  516TMC3     H 7669   1.263   3.461  14.481 -1.7895  2.5333  2.2497
  516TMC3    H1 7670   1.186   3.293  14.874 -3.5027  0.0727 -1.0380
  516TMC3    H2 7671   1.092   3.075  14.523 -0.4145 -0.6114  1.2094
  516TMC3    C7 7672   1.100   3.062  14.791  0.0127  0.1845  0.2921
  516TMC3    C8 7673   1.111   3.289  14.368  0.5824 -0.3297 -0.5775
  516TMC3    O1 7674   1.160   3.054  14.895  0.0830  0.3618 -0.4183
  516TMC3    O2 7675   0.994   3.258  14.375  0.6791 -0.2921 -0.5015
  517MPD2     C 7676   1.251   0.747  17.366 -0.3984 -0.6724 -0.1030
  517MPD2    C1 7677   1.353   0.737  17.452  0.2680  0.7338 -0.0699
  517MPD2    C2 7678   1.384   0.835  17.542  0.0200  0.1174 -0.7221
  517MPD2    C3 7679   1.303   0.947  17.554 -0.7336  0.7384  0.2593
  517MPD2    C4 7680   1.197   0.960  17.463 -0.8755  0.4647 -0.1716
  517MPD2    C5 7681   1.172   0.861  17.371 -0.2617  0.0149  0.9875
  517MPD2     H 7682   1.467   0.816  17.608 -2.9215 -1.7183  2.4657
  517MPD2    H1 7683   1.136   1.050  17.465  0.9146  1.6947 -1.7983
  517MPD2    H2 7684   1.219   0.664  17.304 -0.8527 -0.9118  0.4603
  517MPD2    H3 7685   1.094   0.862  17.296  1.2779 -0.0662 -0.6317
  517MPD2     N 7686   1.333   1.052  17.646  0.4947  0.9532  0.3400
  517MPD2    H5 7687   1.268   1.130  17.646 -0.7583 -0.0978 -1.0281
  517MPD2    N1 7688   1.444   0.622  17.454  0.7013 -0.2799 -0.3491
  517MPD2    H7 7689   1.521   0.625  17.520  0.6390 -0.2659 -0.2773
  518TMC3    C1 7690   1.537   0.405  17.392 -0.2658 -0.4736  0.2151
  518TMC3    C2 7691   1.518   0.268  17.415  0.4251  0.1840  0.3606
  518TMC3    C3 7692   1.621   0.188  17.452 -0.5620  1.9746  0.7873
  518TMC3    C4 7693   1.665   0.453  17.402 -0.8786  0.3258 -0.5529
  518TMC3    C5 7694   1.770   0.365  17.427 -0.3142 -0.8488  0.1837
  518TMC3    C6 7695   1.750   0.234  17.457  0.1015 -0.4919  0.3446
  518TMC3     C 7696   1.418   0.494  17.403  0.0860 -0.2219 -0.8480
  518TMC3     O 7697   1.307   0.452  17.371 -0.7578  0.0505  0.2358
  518TMC3     H 7698   1.420   0.221  17.408 -0.2766  1.7367 -0.2707
  518TMC3    H1 7699   1.685   0.558  17.385 -1.1189  0.2594 -1.2111
  518TMC3    H2 7700   1.829   0.161  17.470  0.7331  0.2717  0.7786
  518TMC3    C7 7701   1.900   0.412  17.415 -0.1320 -0.0671  0.1518
  518TMC3    C8 7702   1.616   0.052  17.415 -0.8092  0.6521 -0.4245
  518TMC3    O1 7703   1.927   0.528  17.456  0.7088  0.0086 -0.7835
  518TMC3    O2 7704   1.529   0.018  17.334  0.6257 -0.2567  0.3696
  519MPD2     C 7705   2.423   3.580  14.195 -0.6698 -0.0687  0.2222
  519MPD2    C1 7706   2.448   3.601  14.061  0.2811  0.0780 -0.2016
  519MPD2    C2 7707   2.545   3.527  13.995  0.3915 -0.4805 -0.6217
  519MPD2    C3 7708   2.636   3.450  14.062  0.6809  0.0631 -0.2017
  519MPD2    C4 7709   2.612   3.424  14.192  0.6818  0.0795 -0.5528
  519MPD2    C5 7710   2.511   3.491  14.261  0.2134  0.4815 -0.0910
  519MPD2     H 7711   2.544   3.534  13.887  1.9496  0.8439 -0.5571
  519MPD2    H1 7712   2.663   3.342  14.242  1.1177  0.7192  0.0601
  519MPD2    H2 7713   2.351   3.628  14.259 -1.7625  1.1370 -1.8982
  519MPD2    H3 7714   2.478   3.462  14.360 -1.2299  1.7178 -0.2262
  519MPD2     N 7715   2.726   3.369  13.996  0.0417  0.1174 -0.0007
  519MPD2    H5 7716   2.779   3.305  14.055  0.4398 -1.8879 -2.5302
  519MPD2    N1 7717   2.357   3.682  13.991  0.1578 -0.2218 -0.4447
  519MPD2    H7 7718   2.283   3.727  14.044 -0.1961  0.0613 -1.1669
  520TMC3    C1 7719   2.818   3.250  13.825 -0.8959 -0.7033  0.2056
  520TMC3    C2 7720   2.739   3.167  13.746 -0.1539 -0.1795 -0.5755
  520TMC3    C3 7721   2.777   3.035  13.738 -0.0975  0.0602  0.0063
  520TMC3    C4 7722   2.920   3.203  13.905  0.0109  0.2422 -0.1014
  520TMC3    C5 7723   2.950   3.075  13.899  0.2362 -0.1264  0.1899
  520TMC3    C6 7724   2.878   2.990  13.815  0.5374  0.1759 -0.1363
  520TMC3     C 7725   2.750   3.376  13.862 -0.1349 -0.7896  0.2862
  520TMC3     O 7726   2.698   3.429  13.764 -0.1794  0.2625 -0.1202
  520TMC3     H 7727   2.661   3.209  13.685 -0.5755  1.1716  0.8991
  520TMC3    H1 7728   2.953   3.263  13.989  1.0294 -0.4897  0.0187
  520TMC3    H2 7729   2.899   2.884  13.816  0.5379  0.1821  0.3981
  520TMC3    C7 7730   3.083   3.034  13.943  0.6593 -0.3113  0.1739
  520TMC3    C8 7731   2.701   2.938  13.655 -0.5073  0.1348 -0.5080
  520TMC3    O1 7732   3.099   2.914  13.961  0.1149 -0.2327 -1.0421
  520TMC3    O2 7733   2.767   2.853  13.599  0.0404  0.7536  0.1240
  521MPD2     C 7734   3.688   1.581  17.534  1.0747 -0.0062 -0.9888
  521MPD2    C1 7735   3.644   1.507  17.428  0.1294  0.2915  0.2256
  521MPD2    C2 7736   3.727   1.481  17.322  0.0837  0.8022  0.1410
  521MPD2    C3 7737   3.852   1.531  17.319  0.7258 -0.3379  1.1122
  521MPD2    C4 7738   3.896   1.604  17.429 -0.4782  0.3242  0.0415
  521MPD2    C5 7739   3.817   1.623  17.537  0.9971 -0.7845  0.6671
  521MPD2     H 7740   3.696   1.423  17.236  2.1249 -0.4133  0.2259
  521MPD2    H1 7741   3.996   1.644  17.426  0.3982 -1.9419 -0.6625
  521MPD2    H2 7742   3.618   1.599  17.615  0.1896  2.6258 -2.3534
  521MPD2    H3 7743   3.850   1.687  17.618 -1.8887 -1.8458  2.6784
  521MPD2     N 7744   3.941   1.503  17.214 -0.1430 -0.5797  0.4929
  521MPD2    H5 7745   3.902   1.458  17.132  0.0259  0.1370  0.0107
  521MPD2    N1 7746   3.510   1.460  17.435 -0.0096 -0.5577 -0.4905
  521MPD2    H7 7747   3.464   1.484  17.522  1.1610 -0.6674  0.1585
  522TMC3    C1 7748   4.140   1.499  17.079  0.5999 -0.3960  0.1802
  522TMC3    C2 7749   4.267   1.470  17.082 -0.3896 -0.6031 -0.1295
  522TMC3    C3 7750   4.328   1.435  16.968 -0.1509  0.0864  1.0750
  522TMC3    C4 7751   4.072   1.517  16.965 -0.4982 -0.4262  0.0345
  522TMC3    C5 7752   4.144   1.500  16.849  0.4610  0.3972  0.0801
  522TMC3    C6 7753   4.274   1.453  16.847  0.1542 -0.0581 -1.0627
  522TMC3     C 7754   4.076   1.524  17.211 -0.7469 -0.2890 -0.1635
  522TMC3     O 7755   4.153   1.546  17.300  0.4883 -0.4087  0.7684
  522TMC3     H 7756   4.309   1.447  17.179 -1.4181 -1.1818  0.1746
  522TMC3    H1 7757   3.968   1.545  16.978  0.0459  2.1248 -1.0192
  522TMC3    H2 7758   4.328   1.441  16.753  0.1691 -1.4250 -0.8842
  522TMC3    C7 7759   4.094   1.537  16.711  0.2164  0.0009 -0.2608
  522TMC3    C8 7760   4.463   1.391  16.986 -0.3772 -0.7340 -0.4826
  522TMC3    O1 7761   4.172   1.512  16.621 -0.5092  0.1128 -0.1371
  522TMC3    O2 7762   4.520   1.430  17.085 -0.0222  0.3724  0.2603
  523MPD2     C 7763   1.305   0.830  10.130  0.0795 -0.0092  0.1624
  523MPD2    C1 7764   1.245   0.769  10.019 -0.0850 -0.1896 -0.2859
  523MPD2    C2 7765   1.149   0.832   9.942  0.4270 -0.0387  0.1678
  523MPD2    C3 7766   1.108   0.964   9.964  0.2583  0.0879  0.8072
  523MPD2    C4 7767   1.171   1.027  10.070 -1.1692  0.5860 -0.2891
  523MPD2    C5 7768   1.269   0.964  10.144 -0.0358  0.4630 -0.0190
  523MPD2     H 7769   1.114   0.775   9.856  1.3361  1.0821 -0.9458
  523MPD2    H1 7770   1.148   1.131  10.089  0.2148  1.0490 -1.1764
  523MPD2    H2 7771   1.381   0.784  10.191  0.2904 -1.3212 -1.0891
  523MPD2    H3 7772   1.321   1.027  10.216  0.1777 -1.5174  1.5618
  523MPD2     N 7773   1.010   1.037   9.897 -0.2974 -0.4359 -0.7394
  523MPD2    H5 7774   0.983   1.129   9.928  0.9427  0.5402 -2.5212
  523MPD2    N1 7775   1.287   0.629   9.996 -0.6917  0.2166 -0.0315
  523MPD2    H7 7776   1.375   0.596  10.033  0.4092  1.9027 -1.1760
  524TMC3    C1 7777   0.849   1.079   9.725  0.1100  0.4496  0.2358
  524TMC3    C2 7778   0.763   1.023   9.629 -0.1648  0.3283 -0.0257
  524TMC3    C3 7779   0.720   1.110   9.531 -0.3220  0.3758  0.0901
  524TMC3    C4 7780   0.889   1.213   9.722 -0.0017 -0.1491  0.1541
  524TMC3    C5 7781   0.843   1.290   9.620 -0.0961  0.1332  0.2284
  524TMC3    C6 7782   0.752   1.242   9.525  0.4159 -0.2788 -0.1227
  524TMC3     C 7783   0.933   0.986   9.801 -0.8812  0.0514  0.0533
  524TMC3     O 7784   0.927   0.868   9.768 -0.9470 -0.5362  0.4832
  524TMC3     H 7785   0.712   0.929   9.649 -0.2289 -0.0517 -1.9772
  524TMC3    H1 7786   0.966   1.256   9.785  2.0922 -2.4885 -0.7894
  524TMC3    H2 7787   0.717   1.307   9.446 -0.4224 -0.3407  0.2030
  524TMC3    C7 7788   0.879   1.429   9.625  0.0182 -0.3489 -0.6618
  524TMC3    C8 7789   0.651   1.041   9.420  0.5440  0.0610  0.5184
  524TMC3    O1 7790   0.975   1.457   9.695 -0.5487 -0.5460 -0.0708
  524TMC3    O2 7791   0.681   0.924   9.401  0.1899 -0.1406  0.0238
  525MPD2     C 7792   4.045   2.812  14.412 -0.4316 -0.7821 -0.2879
  525MPD2    C1 7793   4.163   2.826  14.484  0.3992 -0.3049 -0.2959
  525MPD2    C2 7794   4.248   2.932  14.458 -0.3288 -0.5114 -0.2638
  525MPD2    C3 7795   4.219   3.018  14.355 -0.6930  0.2524  0.0291
  525MPD2    C4 7796   4.106   3.005  14.286  0.5307  0.0446  0.1311
  525MPD2    C5 7797   4.017   2.901  14.313 -0.0850 -0.2960  0.0384
  525MPD2     H 7798   4.343   2.944  14.509 -0.9870  0.0238  0.8353
  525MPD2    H1 7799   4.080   3.064  14.198 -2.8432 -2.7709 -0.7655
  525MPD2    H2 7800   3.985   2.722  14.423 -2.4014  0.6128  0.3469
  525MPD2    H3 7801   3.936   2.877  14.244 -1.7830  0.6933  1.7005
  525MPD2     N 7802   4.306   3.126  14.324 -0.6492 -0.0546  0.4567
  525MPD2    H5 7803   4.253   3.191  14.266  0.2442 -1.2671 -1.7096
  525MPD2    N1 7804   4.192   2.727  14.589 -0.4699  0.3149  0.0053
  525MPD2    H7 7805   4.280   2.726  14.641  0.6355  1.0363 -1.8472
  526TMC3    C1 7806   4.153   2.538  14.714 -0.3713 -0.3947  0.1250
  526TMC3    C2 7807   4.093   2.485  14.818 -0.3143 -0.2853 -0.2453
  526TMC3    C3 7808   4.157   2.386  14.876 -0.0326 -0.9225  0.1313
  526TMC3    C4 7809   4.263   2.483  14.654 -0.4557 -0.1782  0.4163
  526TMC3    C5 7810   4.332   2.381  14.721 -0.4795 -0.2575 -0.5188
  526TMC3    C6 7811   4.277   2.341  14.842 -0.1498  0.1323  0.0859
  526TMC3     C 7812   4.100   2.643  14.633 -0.3030  0.0926  0.8843
  526TMC3     O 7813   3.978   2.658  14.637 -0.1993  0.3911  0.1366
  526TMC3     H 7814   4.003   2.522  14.865 -1.8914 -1.6968 -2.1581
  526TMC3    H1 7815   4.303   2.519  14.560 -0.9009 -0.5615  0.0809
  526TMC3    H2 7816   4.328   2.262  14.896 -0.5454  0.9645  1.6660
  526TMC3    C7 7817   4.473   2.352  14.694 -0.5507  0.0799 -0.2758
  526TMC3    C8 7818   4.138   2.389  15.018  0.1317 -0.3139 -0.7945
  526TMC3    O1 7819   4.536   2.293  14.784 -0.8374 -0.4071  0.3112
  526TMC3    O2 7820   4.239   2.366  15.076  0.1768  0.4156  0.0248
  527MPD2     C 7821   2.177   0.487   1.485  0.5472  0.5674 -0.5064
  527MPD2    C1 7822   2.289   0.426   1.540 -0.8997  0.1537 -0.6168
  527MPD2    C2 7823   2.412   0.437   1.474 -0.2311 -0.1225  0.1164
  527MPD2    C3 7824   2.415   0.486   1.343  0.2418 -0.2631 -0.1501
  527MPD2    C4 7825   2.298   0.529   1.285 -0.4823 -0.1655  0.2481
  527MPD2    C5 7826   2.182   0.542   1.359  0.6452  0.0594 -0.1964
  527MPD2     H 7827   2.505   0.392   1.505 -0.0598 -0.5962 -1.0771
  527MPD2    H1 7828   2.289   0.569   1.185 -1.8416  1.6385  1.0953
  527MPD2    H2 7829   2.084   0.499   1.540  0.3264 -0.5994 -0.6141
  527MPD2    H3 7830   2.092   0.590   1.323  0.5733 -0.3993 -0.6411
  527MPD2     N 7831   2.537   0.473   1.279  0.0830  0.8381  0.5701
  527MPD2    H5 7832   2.610   0.425   1.331  0.3372 -1.0084 -1.4924
  527MPD2    N1 7833   2.297   0.375   1.672  0.0975 -0.3086  0.0649
  527MPD2    H7 7834   2.383   0.348   1.719 -0.1645 -2.3172 -0.6142
  528TMC3    C1 7835   2.216   0.326   1.874  0.5409 -0.1139 -0.2991
  528TMC3    C2 7836   2.331   0.380   1.928 -0.1570  0.2299  0.2131
  528TMC3    C3 7837   2.367   0.352   2.056  0.0409 -0.4441  0.1463
  528TMC3    C4 7838   2.146   0.231   1.948  0.2907 -0.3399 -0.2936
  528TMC3    C5 7839   2.200   0.192   2.071  1.0096 -0.1264  0.0941
  528TMC3    C6 7840   2.309   0.252   2.121  0.3368  0.3127 -0.3121
  528TMC3     C 7841   2.178   0.363   1.744  0.1118  0.3174 -0.3909
  528TMC3     O 7842   2.061   0.359   1.714 -0.4997  0.1640 -0.0023
  528TMC3     H 7843   2.383   0.456   1.871 -1.5392  2.0893  1.4357
  528TMC3    H1 7844   2.064   0.176   1.902  0.6316 -1.6436  0.6706
  528TMC3    H2 7845   2.340   0.225   2.222 -0.0164  0.9243 -0.0383
  528TMC3    C7 7846   2.159   0.079   2.142  0.0644  0.2559  0.3065
  528TMC3    C8 7847   2.503   0.410   2.087 -0.4042  0.1626  0.1277
  528TMC3    O1 7848   2.237   0.033   2.228 -0.1867  0.3515 -0.1418
  528TMC3    O2 7849   2.569   0.453   1.994 -0.0038  0.5027  0.3507
  529MPD2     C 7850   0.418   3.667  17.640  0.7978 -0.1711  0.1925
  529MPD2    C1 7851   0.384   3.739   0.055 -0.3304 -0.0078 -0.1889
  529MPD2    C2 7852   0.402   3.872   0.059 -0.2889 -0.2248 -0.0054
  529MPD2    C3 7853   0.455   3.948  17.648  0.5258  0.0446 -0.0505
  529MPD2    C4 7854   0.488   3.869  17.535  0.0084 -0.9914  0.6289
  529MPD2    C5 7855   0.470   3.735  17.535  1.1803  0.2021 -0.0927
  529MPD2     H 7856   0.367   3.924   0.147 -1.4508 -0.1265 -0.5332
  529MPD2    H1 7857   0.538   3.922  17.455  0.4973  0.5692  1.9669
  529MPD2    H2 7858   0.404   3.560  17.631 -0.7773 -0.0113  0.7936
  529MPD2    H3 7859   0.494   3.687  17.441 -0.9416 -1.5535  0.2571
  529MPD2     N 7860   0.491   4.085  17.653  0.0610 -0.2714 -0.4044
  529MPD2    H5 7861   0.527   4.120  17.565 -0.9119 -0.9766 -1.0824
  529MPD2    N1 7862   0.336   3.667   0.170 -0.5799 -0.2540 -0.4305
  529MPD2    H7 7863   0.319   3.732   0.246 -1.2838 -1.6001  0.5673
  530TMC3    C1 7864   0.335   3.481   0.319 -0.2712  1.1413  0.1906
  530TMC3    C2 7865   0.398   3.557   0.412  0.3048 -0.2121  0.0970
  530TMC3    C3 7866   0.431   3.498   0.535  0.2377 -0.0782 -0.0707
  530TMC3    C4 7867   0.311   3.349   0.344  0.6550 -0.2388 -0.2656
  530TMC3    C5 7868   0.346   3.297   0.466 -0.8167  0.4163 -0.4026
  530TMC3    C6 7869   0.407   3.369   0.566  0.5488 -0.2920 -0.5456
  530TMC3     C 7870   0.320   3.531   0.184 -0.1367  0.2874  1.2866
  530TMC3     O 7871   0.317   3.433   0.105  0.6996 -0.1716  0.9960
  530TMC3     H 7872   0.424   3.659   0.388  1.9289 -0.1217  2.2593
  530TMC3    H1 7873   0.270   3.289   0.264 -0.7312  0.4647 -0.0812
  530TMC3    H2 7874   0.431   3.323   0.661  2.6579 -1.8070 -1.8347
  530TMC3    C7 7875   0.319   3.159   0.488 -0.0215  0.3656  0.4548
  530TMC3    C8 7876   0.490   3.587   0.629  0.2372  0.4740  0.4129
  530TMC3    O1 7877   0.309   3.091   0.380 -0.4150 -0.5376  0.3570
  530TMC3    O2 7878   0.495   3.705   0.596  0.0814  0.3010 -0.4776
  531MPD2     C 7879   4.107   2.325  13.149 -0.1418 -0.7593  0.5151
  531MPD2    C1 7880   3.990   2.252  13.151 -0.3815  0.0698 -0.2526
  531MPD2    C2 7881   3.883   2.297  13.083 -0.0252  0.1786  0.3157
  531MPD2    C3 7882   3.892   2.407  12.998  0.7441  1.2785  0.2750
  531MPD2    C4 7883   4.012   2.473  12.987 -0.0107  0.8493 -0.4756
  531MPD2    C5 7884   4.118   2.427  13.059 -0.3009 -0.5928 -0.0026
  531MPD2     H 7885   3.789   2.242  13.084  0.3915 -0.5373 -0.8588
  531MPD2    H1 7886   4.039   2.549  12.914  2.3895  0.8443  0.4369
  531MPD2    H2 7887   4.189   2.295  13.214  1.1555 -1.3941 -1.4126
  531MPD2    H3 7888   4.211   2.484  13.054  0.1558 -1.1024  2.7273
  531MPD2     N 7889   3.773   2.441  12.926  0.1583 -0.0800 -0.5877
  531MPD2    H5 7890   3.693   2.387  12.957 -2.0889  2.3883 -2.1764
  531MPD2    N1 7891   3.974   2.124  13.213  0.5926 -0.0952  0.0922
  531MPD2    H7 7892   3.887   2.072  13.204  0.0783  0.5418  1.2632
  532TMC3    C1 7893   4.035   1.918  13.275 -0.3133  0.0559  0.0153
  532TMC3    C2 7894   3.971   1.870  13.167  0.3172 -0.0017 -0.7128
  532TMC3    C3 7895   3.973   1.733  13.149 -0.2053 -0.4801  0.0325
  532TMC3    C4 7896   4.094   1.842  13.367  0.3598  0.1580  0.4513
  532TMC3    C5 7897   4.092   1.712  13.355  0.0352  0.5951  1.0373
  532TMC3    C6 7898   4.035   1.652  13.243 -1.3044 -0.1268  0.4278
  532TMC3     C 7899   4.073   2.057  13.274  0.6026 -0.4132  0.0993
  532TMC3     O 7900   4.178   2.099  13.325 -0.4283 -0.0594 -0.2182
  532TMC3     H 7901   3.935   1.932  13.085 -4.2965 -0.6081  0.8584
  532TMC3    H1 7902   4.160   1.887  13.440  0.7600  0.1166  0.1138
  532TMC3    H2 7903   4.038   1.545  13.225 -0.3348 -0.1667  0.8366
  532TMC3    C7 7904   4.200   1.637  13.420 -0.4171  0.2523 -0.2230
  532TMC3    C8 7905   3.949   1.688  13.018  0.1502  0.2583 -0.4181
  532TMC3    O1 7906   4.238   1.669  13.530  0.5151 -0.0270 -0.2442
  532TMC3    O2 7907   4.025   1.602  12.973  0.2757 -0.2170 -0.0741
  533TMC3    C1 7908   4.456   3.298  14.372 -0.4919 -0.1199  0.2051
  533TMC3    C2 7909   4.591   3.337  14.402  0.4442  0.4247 -0.2135
  533TMC3    C3 7910   4.602   3.457  14.472  0.2046  0.3567 -0.5575
  533TMC3    C4 7911   4.349   3.367  14.434  0.1199 -0.2881  1.1086
  533TMC3    C5 7912   4.376   3.466  14.527  0.7539  0.0290 -0.3134
  533TMC3    C6 7913   4.503   3.517  14.533 -0.1541 -0.4333  0.5406
  533TMC3     C 7914   4.433   3.154  14.365 -0.3609  0.3634 -0.4094
  533TMC3     O 7915   4.516   3.078  14.421 -0.2041 -0.0940  0.0320
  533TMC3     H 7916   4.684   3.292  14.368  0.4413 -0.3626  0.8133
  533TMC3    H1 7917   4.247   3.329  14.433 -0.2708  0.7759 -0.7014
  533TMC3    H2 7918   4.524   3.606  14.593 -0.9493  1.9222 -2.6908
  533TMC3    C7 7919   4.324   3.417  14.658  0.7927  0.0082 -0.4293
  533TMC3    C8 7920   0.007   3.528  14.507  0.8388 -0.7782 -0.3967
  533TMC3    O1 7921   4.280   3.302  14.664 -0.7227 -0.4526  0.1897
  533TMC3    O2 7922   0.012   3.586  14.616  0.0982  0.1764  0.3158
  534MPD2     C 7923   2.638   4.241   2.422  0.4117  0.4699  0.1171
  534MPD2    C1 7924   2.544   4.293   2.336  0.2196  0.1227  0.3294
  534MPD2    C2 7925   2.426   4.222   2.328  0.3839  0.0374  0.5858
  534MPD2    C3 7926   2.391   4.114   2.410 -0.2672  0.2105  0.2425
  534MPD2    C4 7927   2.483   4.076   2.500 -0.3550  0.3517  1.0949
  534MPD2    C5 7928   2.602   4.147   2.510  0.1198  0.6207  0.3221
  534MPD2     H 7929   2.358   4.267   2.256  0.9072 -0.0757  0.0205
  534MPD2    H1 7930   2.464   4.005   2.580 -0.4878 -1.4324 -0.5107
  534MPD2    H2 7931   2.735   4.287   2.441  1.3263 -1.2868 -0.3278
  534MPD2    H3 7932   2.673   4.118   2.587  0.3590 -0.1534 -0.1869
  534MPD2     N 7933   2.277   4.031   2.380  0.5942 -0.1312 -0.4414
  534MPD2    H5 7934   2.264   3.948   2.437 -0.9472  0.4742  0.0999
  534MPD2    N1 7935   2.564   4.405   2.254  0.2231  0.2144 -0.8291
  534MPD2    H7 7936   2.483   4.442   2.205 -0.0003  1.3176  0.3868
  535TMC3    C1 7937   2.088   3.946   2.292  0.4389  0.1812  0.4137
  535TMC3    C2 7938   1.961   3.976   2.281  0.0339  0.1690 -0.8545
  535TMC3    C3 7939   1.872   3.898   2.210  0.3647  0.0671  0.2978
  535TMC3    C4 7940   2.135   3.831   2.236 -0.1757 -0.1900  0.7531
  535TMC3    C5 7941   2.045   3.743   2.185  0.1788  1.0006  0.1930
  535TMC3    C6 7942   1.912   3.772   2.169  0.4320 -0.7486  0.1435
  535TMC3     C 7943   2.177   4.058   2.289  0.2397 -0.1889  0.0120
  535TMC3     O 7944   2.157   4.152   2.210  0.2570  0.4053 -0.3888
  535TMC3     H 7945   1.918   4.066   2.324 -0.7021  0.4185 -2.0923
  535TMC3    H1 7946   2.240   3.802   2.241 -1.0475 -3.2895  1.0068
  535TMC3    H2 7947   1.840   3.697   2.136 -1.3334  1.9288 -2.1012
  535TMC3    C7 7948   2.092   3.651   2.091 -0.0950  0.0195 -0.2874
  535TMC3    C8 7949   1.741   3.942   2.169 -0.0951  0.2414 -0.2208
  535TMC3    O1 7950   2.187   3.691   2.026  0.1030 -0.8323  0.5315
  535TMC3    O2 7951   1.693   3.872   2.079  0.2354 -0.5003 -0.6095
  536MPD2     C 7952   0.442   2.282  16.750 -0.1741  0.6393  0.2366
  536MPD2    C1 7953   0.540   2.358  16.689  0.6988  0.4031  0.4449
  536MPD2    C2 7954   0.530   2.397  16.554  0.1015  0.5151 -0.3013
  536MPD2    C3 7955   0.417   2.358  16.483  0.1023 -0.1437  0.4671
  536MPD2    C4 7956   0.321   2.278  16.542 -0.2621 -0.1125 -0.6740
  536MPD2    C5 7957   0.330   2.248  16.680  0.1629  0.1757 -0.4643
  536MPD2     H 7958   0.605   2.456  16.503 -1.0376  1.5919 -0.7148
  536MPD2    H1 7959   0.234   2.246  16.486 -0.1443 -0.2718 -0.7689
  536MPD2    H2 7960   0.442   2.242  16.851  1.1959  0.4626  0.1682
  536MPD2    H3 7961   0.260   2.188  16.737 -1.0507  3.5881  1.6464
  536MPD2     N 7962   0.395   2.395  16.353  0.0888  0.5756 -0.0644
  536MPD2    H5 7963   0.308   2.364  16.310 -1.1322 -1.8665  4.1453
  536MPD2    N1 7964   0.652   2.389  16.775 -0.3678 -0.4981  0.6807
  536MPD2    H7 7965   0.625   2.375  16.872 -2.4018 -0.3280  0.1241
  537TMC3    C1 7966   0.860   2.445  16.864 -0.4318 -0.1377  1.1669
  537TMC3    C2 7967   0.956   2.543  16.867  1.0636 -0.4170  0.3907
  537TMC3    C3 7968   1.049   2.546  16.962  0.8907  0.2432  0.0636
  537TMC3    C4 7969   0.835   2.368  16.971  1.0114 -0.3215  0.4351
  537TMC3    C5 7970   0.927   2.384  17.076 -0.2683 -0.5052  0.1760
  537TMC3    C6 7971   1.034   2.459  17.069  0.3835  0.1272 -0.3785
  537TMC3     C 7972   0.771   2.442  16.747 -0.2464  0.6562 -0.0560
  537TMC3     O 7973   0.813   2.485  16.638  0.0962  0.0760  0.4506
  537TMC3     H 7974   0.960   2.611  16.783  2.7952 -0.1181  0.7118
  537TMC3    H1 7975   0.759   2.291  16.969  0.9716 -0.2987  1.1140
  537TMC3    H2 7976   1.087   2.473  17.162 -1.6544  1.5184  0.5808
  537TMC3    C7 7977   0.871   2.327  17.199  0.3192 -0.3377 -0.5066
  537TMC3    C8 7978   1.154   2.650  16.967 -0.3288  0.6440 -0.9077
  537TMC3    O1 7979   0.753   2.293  17.200  0.1762  0.1906 -0.4392
  537TMC3    O2 7980   1.241   2.632  17.054  0.2233 -0.0369 -0.0227
  538TMC3    C1 7981   2.196   0.727  10.860  0.1622  0.2865  0.1360
  538TMC3    C2 7982   2.184   0.614  10.785 -0.2949  0.4903 -0.2845
  538TMC3    C3 7983   2.121   0.634  10.664 -0.1062  0.0649 -0.2913
  538TMC3    C4 7984   2.140   0.849  10.836 -0.1730  0.3100  0.4370
  538TMC3    C5 7985   2.063   0.858  10.724  0.0272  0.2087 -0.4468
  538TMC3    C6 7986   2.065   0.755  10.629  0.4588 -0.3162  0.1297
  538TMC3     C 7987   2.278   0.704  10.980 -0.6448 -0.0940 -0.3645
  538TMC3     O 7988   2.280   0.590  11.024 -0.3681  0.4823  0.3857
  538TMC3     H 7989   2.237   0.521  10.802  1.9499  1.7753 -0.2005
  538TMC3    H1 7990   2.136   0.917  10.921 -0.0267  1.3944 -0.4235
  538TMC3    H2 7991   2.034   0.773  10.527 -1.4573  0.9244  0.9366
  538TMC3    C7 7992   2.007   0.982  10.686 -0.7716  0.4055  0.2254
  538TMC3    C8 7993   2.178   0.552  10.560  0.0309  0.4450 -0.4925
  538TMC3    O1 7994   1.925   0.994  10.593 -0.2706 -0.6718  0.7714
  538TMC3    O2 7995   2.186   0.432  10.574 -0.3321  0.5095 -0.6643
  539MPD2     C 7996   2.218   0.822  11.339 -1.2334 -0.3707 -0.3641
  539MPD2    C1 7997   2.099   0.764  11.295 -0.4924 -0.4363  0.2792
  539MPD2    C2 7998   2.020   0.842  11.210 -0.3999  0.9901  0.0655
  539MPD2    C3 7999   2.052   0.974  11.183 -0.7549  0.0700  0.1425
  539MPD2    C4 8000   2.168   1.029  11.229  0.0481  0.3836 -0.2981
  539MPD2    C5 8001   2.250   0.948  11.298  0.4075  0.1746 -0.1786
  539MPD2     H 8002   1.926   0.797  11.180  0.7886 -0.8675 -0.8735
  539MPD2    H1 8003   2.196   1.127  11.190  1.8556 -0.5612 -1.4113
  539MPD2    H2 8004   2.288   0.774  11.406 -1.9431 -0.5141  0.2777
  539MPD2    H3 8005   2.345   0.989  11.331 -0.5757  1.5709  0.8914
  539MPD2     N 8006   1.964   1.056  11.118 -0.1777 -0.4044  0.1915
  539MPD2    H5 8007   1.982   1.155  11.132  2.3455 -0.9661  0.8502
  539MPD2    N1 8008   2.051   0.631  11.333 -0.4144 -0.0441 -0.0436
  539MPD2    H7 8009   1.960   0.603  11.298  0.2597 -2.2096 -0.0714
  540TMC3    C1 8010   1.759   1.126  11.016 -0.7765  0.1365 -0.0454
  540TMC3    C2 8011   1.640   1.077  10.964  1.1778  0.0665 -0.1006
  540TMC3    C3 8012   1.537   1.167  10.978 -0.0680  0.0441 -0.7335
  540TMC3    C4 8013   1.788   1.254  11.067 -0.8164  0.1003 -0.4027
  540TMC3    C5 8014   1.669   1.334  11.081  0.1476 -0.7785 -0.2934
  540TMC3    C6 8015   1.549   1.287  11.035  0.5667 -0.1170  0.2105
  540TMC3     C 8016   1.855   1.017  11.042 -0.1474  0.1831  0.2783
  540TMC3     O 8017   1.832   0.908  10.995 -0.4112 -0.2684 -0.7782
  540TMC3     H 8018   1.633   0.974  10.933 -2.5073  0.6266 -1.0862
  540TMC3    H1 8019   1.886   1.288  11.098 -0.3949 -2.1242  0.6442
  540TMC3    H2 8020   1.461   1.350  11.036  2.0382  1.9138  0.6096
  540TMC3    C7 8021   1.663   1.410  11.206  0.2872  0.0650 -0.0755
  540TMC3    C8 8022   1.399   1.122  10.952 -0.4460  0.3367 -0.1325
  540TMC3    O1 8023   1.767   1.470  11.235  0.1408 -0.0464  0.3526
  540TMC3    O2 8024   1.319   1.154  11.035 -0.3503  0.2106  0.6137
  541MPD2     C 8025   4.469   1.749  13.118  1.1328  0.3932  0.5173
  541MPD2    C1 8026   4.572   1.720  13.031 -0.0287 -0.2094 -0.5262
  541MPD2    C2 8027   4.579   1.764  12.901  0.3642  0.2601  0.7497
  541MPD2    C3 8028   4.495   1.867  12.861 -0.3205 -0.3690  0.1498
  541MPD2    C4 8029   4.405   1.914  12.953  0.1990 -0.9260 -0.1116
  541MPD2    C5 8030   4.387   1.851  13.074 -0.8028 -0.3146  0.0464
  541MPD2     H 8031   4.668   1.735  12.846  0.3241  2.5139 -0.4953
  541MPD2    H1 8032   4.333   1.988  12.919 -0.7067 -1.9932 -0.4929
  541MPD2    H2 8033   4.462   1.710  13.218  0.6947 -1.3192 -0.1776
  541MPD2    H3 8034   4.302   1.891  13.129  0.3093  1.2211  0.6729
  541MPD2     N 8035   4.515   1.939  12.745  0.5256  0.9802  0.2717
  541MPD2    H5 8036   4.466   2.028  12.745  0.0634  0.7338  2.4380
  541MPD2    N1 8037   4.676   1.639  13.084  0.8320  0.0931  0.3491
  541MPD2    H7 8038   4.659   1.599  13.175  0.7212 -0.0598  0.2612
  542TMC3    C1 8039   4.618   2.000  12.533  0.3761  0.1150  0.4844
  542TMC3    C2 8040   4.719   1.972  12.440 -0.1548  0.6702  0.2721
  542TMC3    C3 8041   0.015   2.071  12.343  0.5261  0.1531  0.5021
  542TMC3    C4 8042   4.546   2.111  12.542  0.5516  0.1950  0.8624
  542TMC3    C5 8043   4.571   2.201  12.445 -0.2310  0.1673  0.3278
  542TMC3    C6 8044   4.666   2.188  12.339  0.0836 -0.4803  0.1044
  542TMC3     C 8045   4.584   1.897  12.633 -0.5046  0.0574  0.7198
  542TMC3     O 8046   4.597   1.783  12.590 -0.5122 -0.6020  0.0102
  542TMC3     H 8047   0.027   1.871  12.421 -3.1741  0.2888 -2.9229
  542TMC3    H1 8048   4.463   2.126  12.610  0.7043  0.9637  0.8826
  542TMC3    H2 8049   4.694   2.273  12.277 -0.1907 -0.5279 -0.0842
  542TMC3    C7 8050   4.506   2.329  12.473  0.2005 -0.1922 -0.3238
  542TMC3    C8 8051   0.092   2.035  12.228  0.4687 -0.4907  0.2598
  542TMC3    O1 8052   4.487   2.352  12.591 -0.2555  0.3837 -0.1889
  542TMC3    O2 8053   0.054   2.091  12.124 -0.0718  0.5017 -0.1269
  543TMC3    C1 8054   0.157   3.774  17.437  0.1611 -0.1663  0.5260
  543TMC3    C2 8055   0.104   3.680  17.512 -0.4736  0.1253 -0.2950
  543TMC3    C3 8056   0.040   3.723  17.629 -0.1548  0.1290  0.1671
  543TMC3    C4 8057   0.175   3.906  17.473  0.5766  0.2587 -0.4322
  543TMC3    C5 8058   0.119   3.948  17.591 -0.4616 -0.0587 -0.3921
  543TMC3    C6 8059   0.048   3.857  17.669 -0.0620 -0.4486  0.7982
  543TMC3     C 8060   0.180   3.729  17.302 -0.1022  0.5635 -0.4486
  543TMC3     O 8061   0.208   3.611  17.289  0.0235 -0.2379 -0.1838
  543TMC3     H 8062   0.090   3.577  17.481 -0.3838 -0.0989  0.3965
  543TMC3    H1 8063   0.251   3.965  17.423 -0.1277  2.0850  0.6648
  543TMC3    H2 8064   0.012   3.890   0.069  0.5625 -1.1486  1.2720
  543TMC3    C7 8065   0.115   4.085  17.642 -0.4769 -0.1384 -0.1244
  543TMC3    C8 8066   4.694   3.614   0.012  0.3001  0.3263 -0.4497
  543TMC3    O1 8067   0.088   4.107   0.062  0.1225 -0.1144  0.0047
  543TMC3    O2 8068   4.701   3.503  17.658 -0.6443  0.0719 -0.4348
  544MPD2     C 8069   4.375   3.442   0.376  0.7650  0.3771 -0.2776
  544MPD2    C1 8070   4.393   3.396   0.249 -0.5323 -0.3614  0.1702
  544MPD2    C2 8071   4.499   3.455   0.173 -0.1373  0.0823 -0.1839
  544MPD2    C3 8072   4.570   3.571   0.222  0.2805  0.1619 -0.0870
  544MPD2    C4 8073   4.525   3.624   0.339  0.1043  0.1841  1.3197
  544MPD2    C5 8074   4.436   3.556   0.423 -0.3455 -0.4975 -0.4302
  544MPD2     H 8075   4.522   3.428   0.071  2.3185 -0.1949  0.4503
  544MPD2    H1 8076   4.563   3.720   0.373  0.7217 -0.5329  2.6476
  544MPD2    H2 8077   4.321   3.384   0.450  0.9103 -1.0923 -1.3144
  544MPD2    H3 8078   4.404   3.591   0.520 -2.0416 -1.6336 -0.5753
  544MPD2     N 8079   4.649   3.652   0.137 -0.3006  0.0225 -0.4522
  544MPD2    H5 8080   4.666   3.745   0.172 -1.0713  0.6126 -1.6386
  544MPD2    N1 8081   4.332   3.278   0.202 -0.4296 -0.5669  0.2759
  544MPD2    H7 8082   4.288   3.219   0.272  2.2152 -0.6037  1.8824
  545TMC3    C1 8083   4.305   3.084   0.058  0.1614 -0.6037  0.6035
  545TMC3    C2 8084   4.319   3.040  17.625 -0.7195  0.3452  0.1847
  545TMC3    C3 8085   4.372   2.921  17.602  1.2143  0.0288 -0.0010
  545TMC3    C4 8086   4.336   3.004   0.162  0.4829 -0.3568 -0.4749
  545TMC3    C5 8087   4.388   2.877   0.137 -0.1751  0.4815 -0.4300
  545TMC3    C6 8088   4.411   2.837   0.010  0.5810  0.6422  0.3691
  545TMC3     C 8089   4.346   3.222   0.077  0.4368 -0.3394 -0.1811
  545TMC3     O 8090   4.395   3.270  17.672  0.0806  0.1206  0.2317
  545TMC3     H 8091   4.320   3.107  17.540  2.9341  0.2172  0.1379
  545TMC3    H1 8092   4.335   3.047   0.262  2.5472  0.1442 -0.6600
  545TMC3    H2 8093   4.450   2.741  17.672  1.5560  1.5371 -1.0134
  545TMC3    C7 8094   4.408   2.784   0.247 -0.2449  0.6851  0.0897
  545TMC3    C8 8095   4.412   2.886  17.464  0.1364  0.5931  0.4642
  545TMC3    O1 8096   4.376   2.809   0.363  0.9206  0.3274  0.7088
  545TMC3    O2 8097   4.511   2.813  17.457  0.7344  0.0139 -0.3525
  546MPD2     C 8098   1.557   3.375  17.396 -0.2076  0.0117 -0.4289
  546MPD2    C1 8099   1.497   3.376  17.269  0.2078  0.6678  0.7004
  546MPD2    C2 8100   1.509   3.495  17.192 -0.2591 -0.5284 -0.0976
  546MPD2    C3 8101   1.557   3.606  17.254 -0.3890  0.6454 -0.0667
  546MPD2    C4 8102   1.604   3.605  17.387 -0.8569  0.1732 -0.0801
  546MPD2    C5 8103   1.602   3.485  17.455 -0.1247 -0.1822 -0.0616
  546MPD2     H 8104   1.456   3.511  17.099  2.5190  1.4124 -1.3259
  546MPD2    H1 8105   1.649   3.691  17.435  0.8255  0.2265 -1.7627
  546MPD2    H2 8106   1.547   3.284  17.454 -0.2743  1.3432  1.6359
  546MPD2    H3 8107   1.623   3.474  17.561 -2.8539 -2.0965  0.2892
  546MPD2     N 8108   1.583   3.729  17.185 -0.2999 -0.3067  0.4254
  546MPD2    H5 8109   1.615   3.808  17.240  2.2761  0.1709 -1.7089
  546MPD2    N1 8110   1.423   3.259  17.236  0.0275  0.2459  0.8124
  546MPD2    H7 8111   1.427   3.192  17.312  0.0504 -0.3753  0.2568
  547TMC3    C1 8112   1.237   3.160  17.123  0.4154 -0.2362  0.0903
  547TMC3    C2 8113   1.132   3.201  17.044  0.3370  0.0317  0.0411
  547TMC3    C3 8114   1.031   3.108  17.036  0.5618  0.2656 -0.1874
  547TMC3    C4 8115   1.248   3.036  17.181  0.2315 -0.5413  0.6959
  547TMC3    C5 8116   1.143   2.954  17.170  0.1861  0.3482  0.8651
  547TMC3    C6 8117   1.032   2.990  17.103 -0.5527  0.4941  0.1094
  547TMC3     C 8118   1.348   3.254  17.120 -0.0147 -0.6177  0.5887
  547TMC3     O 8119   1.346   3.328  17.021 -0.4541 -0.1041  0.5808
  547TMC3     H 8120   1.133   3.299  16.998 -0.0047  0.3620  0.7294
  547TMC3    H1 8121   1.344   3.017  17.227  0.4581 -0.5025  0.2465
  547TMC3    H2 8122   0.945   2.927  17.089  0.5894 -0.6101 -2.0982
  547TMC3    C7 8123   1.131   2.841  17.257 -0.1998  0.8033 -0.1724
  547TMC3    C8 8124   0.921   3.139  16.951  0.1047  0.4279  0.8391
  547TMC3    O1 8125   1.022   2.783  17.263 -0.0663 -0.1549 -0.5676
  547TMC3    O2 8126   0.821   3.070  16.956  0.2109  0.4351  0.4555
  548MPD2     C 8127   0.879   4.097  12.206 -0.3789  0.4600  0.7276
  548MPD2    C1 8128   0.819   3.982  12.251 -0.0027 -1.2817  0.0685
  548MPD2    C2 8129   0.904   3.869  12.254  0.1678 -0.5012  0.0542
  548MPD2    C3 8130   1.033   3.869  12.204  0.1062 -0.2850 -0.3082
  548MPD2    C4 8131   1.086   3.993  12.171  0.3532  0.3656 -0.6925
  548MPD2    C5 8132   1.009   4.102  12.164  0.5871 -0.1449 -0.4094
  548MPD2     H 8133   0.870   3.768  12.275 -2.3544  0.3782  0.2304
  548MPD2    H1 8134   1.186   4.010  12.133  1.2176 -1.9849  0.5241
  548MPD2    H2 8135   0.821   4.187  12.190 -0.4334  0.1031 -1.0835
  548MPD2    H3 8136   1.036   4.198  12.122 -0.8260  0.0196 -0.9574
  548MPD2     N 8137   1.109   3.748  12.198 -0.2201  0.0403  0.8609
  548MPD2    H5 8138   1.071   3.659  12.230 -0.5965  0.5069  1.6803
  548MPD2    N1 8139   0.686   3.985  12.302 -0.4424 -0.0028  0.0579
  548MPD2    H7 8140   0.654   4.080  12.317 -1.1768 -0.4138  1.0672
  549TMC3    C1 8141   0.476   3.908  12.360 -0.4668  0.7283 -0.9643
  549TMC3    C2 8142   0.434   4.033  12.316  0.2982 -0.9561  0.1294
  549TMC3    C3 8143   0.299   4.057  12.331  0.5548 -0.3496  0.0271
  549TMC3    C4 8144   0.397   3.818  12.415 -0.3065  0.1213 -0.1385
  549TMC3    C5 8145   0.256   3.839  12.400  0.1135 -0.1545  0.2877
  549TMC3    C6 8146   0.204   3.963  12.376  0.7866  0.2711 -0.0229
  549TMC3     C 8147   0.617   3.881  12.346 -0.1346  0.1475 -0.0086
  549TMC3     O 8148   0.648   3.761  12.347  0.2343 -0.3034  0.1528
  549TMC3     H 8149   0.497   4.105  12.265 -0.1363 -0.8302 -0.2287
  549TMC3    H1 8150   0.447   3.724  12.433 -1.4194 -0.6686 -1.1719
  549TMC3    H2 8151   0.100   3.992  12.365  1.6911  3.1156 -1.1695
  549TMC3    C7 8152   0.161   3.744  12.446 -0.2484 -0.4931  0.0052
  549TMC3    C8 8153   0.247   4.174  12.272 -0.1481  0.1308 -0.1726
  549TMC3    O1 8154   0.051   3.773  12.497  1.1213 -0.0624  0.5085
  549TMC3    O2 8155   0.130   4.171  12.239  0.0082  0.6484  0.5097
  550TMC3    C1 8156   4.458   1.605  12.288  0.1672  0.6077 -0.0625
  550TMC3    C2 8157   4.396   1.730  12.287  0.0932  0.2723  0.1584
  550TMC3    C3 8158   4.302   1.748  12.387  0.2076  0.7261  0.7625
  550TMC3    C4 8159   4.406   1.494  12.356 -0.7310 -0.5069 -0.8908
  550TMC3    C5 8160   4.284   1.501  12.422  0.4030 -0.2522  0.1759
  550TMC3    C6 8161   4.243   1.631  12.451  0.4073 -0.1973 -0.7824
  550TMC3     C 8162   4.510   1.571  12.157  0.0202 -0.5452  0.2478
  550TMC3     O 8163   4.574   1.464  12.151  0.1222  0.2223  0.1024
  550TMC3     H 8164   4.449   1.811  12.239  0.3856 -2.1699 -3.6950
  550TMC3    H1 8165   4.446   1.394  12.347  2.8734  0.8111  0.8970
  550TMC3    H2 8166   4.148   1.651  12.499  0.5912 -1.9276  0.3119
  550TMC3    C7 8167   4.171   1.445  12.352 -0.5151  0.9948  0.1877
  550TMC3    C8 8168   4.247   1.877  12.423  0.2101  0.6294 -0.4554
  550TMC3    O1 8169   4.066   1.510  12.350 -0.4807  0.4828  0.1138
  550TMC3    O2 8170   4.261   1.975  12.349 -0.1133  0.5740  0.0772
  551TMC3    C1 8171   1.985   4.391  13.193 -0.2797  0.6393 -0.4727
  551TMC3    C2 8172   2.082   4.441  13.109 -0.2614 -0.3504 -0.3462
  551TMC3    C3 8173   2.178   4.520  13.162 -0.5638 -0.2698  0.2606
  551TMC3    C4 8174   1.985   4.426  13.330  0.2162 -0.1875  0.2398
  551TMC3    C5 8175   2.088   4.510  13.370  0.1476 -0.2284 -0.7075
  551TMC3    C6 8176   2.192   4.556  13.290 -0.3665 -0.1399  0.5478
  551TMC3     C 8177   1.866   4.338  13.126 -0.0579  0.2387  0.1023
  551TMC3     O 8178   1.869   4.293  13.014 -0.1581  0.9904  0.6714
  551TMC3     H 8179   2.081   4.427  13.002 -1.1291  0.0787 -0.3936
  551TMC3    H1 8180   1.919   4.379  13.402  1.4186  0.4814  1.7997
  551TMC3    H2 8181   2.264   4.628  13.326  0.1911 -0.3792 -0.0894
  551TMC3    C7 8182   2.097   4.553  13.505  0.2461  0.1094  0.8019
  551TMC3    C8 8183   2.283   4.583  13.083 -0.1899 -0.3125 -0.6438
  551TMC3    O1 8184   2.206   4.554  13.558 -0.0823 -0.1611 -0.1843
  551TMC3    O2 8185   2.365   4.514  13.019  1.1634  0.2925  0.5785
  552MPD2     C 8186   3.683   1.933  13.375 -0.5206  0.2321  0.2257
  552MPD2    C1 8187   3.677   1.807  13.433  0.1033  0.5925  0.2688
  552MPD2    C2 8188   3.745   1.775  13.544  0.5101  0.2331  0.1455
  552MPD2    C3 8189   3.839   1.862  13.589  0.3287  0.4867 -0.4384
  552MPD2    C4 8190   3.845   1.995  13.537 -0.1936  0.0513  0.3296
  552MPD2    C5 8191   3.757   2.030  13.434 -0.1412  0.1268  0.0950
  552MPD2     H 8192   3.746   1.679  13.595 -0.3693  0.1926  0.0912
  552MPD2    H1 8193   3.906   2.074  13.580 -1.6566  1.3733  0.0042
  552MPD2    H2 8194   3.605   1.964  13.307 -2.0252 -0.9036  1.4559
  552MPD2    H3 8195   3.760   2.125  13.381 -1.6670  1.0474  1.7026
  552MPD2     N 8196   3.928   1.829  13.691 -0.0859  0.1336  0.1807
  552MPD2    H5 8197   3.996   1.903  13.703  1.1947 -0.6544 -2.0321
  552MPD2    N1 8198   3.595   1.707  13.395 -0.1445 -0.4304  0.0880
  552MPD2    H7 8199   3.591   1.633  13.464 -0.8346 -0.5262 -0.0546
  553TMC3    C1 8200   3.538   1.526  13.262  0.4322  0.6645  0.1199
  553TMC3    C2 8201   3.618   1.469  13.165 -0.5547 -0.2959 -0.4453
  553TMC3    C3 8202   3.707   1.369  13.202  0.2755  0.6420  0.7451
  553TMC3    C4 8203   3.540   1.470  13.388  0.3151 -0.1289  0.7021
  553TMC3    C5 8204   3.630   1.380  13.422  0.0506 -1.2287  0.7203
  553TMC3    C6 8205   3.718   1.325  13.335  0.6111  0.4759  0.9577
  553TMC3     C 8206   3.551   1.670  13.264  0.0336 -0.2427 -0.0001
  553TMC3     O 8207   3.560   1.725  13.156  0.4210 -0.6188 -0.1388
  553TMC3     H 8208   3.636   1.523  13.073  0.0824 -0.3415 -0.3441
  553TMC3    H1 8209   3.476   1.515  13.463 -0.4296  1.2590 -0.7568
  553TMC3    H2 8210   3.777   1.237  13.356 -3.3599 -2.6832 -1.3914
  553TMC3    C7 8211   3.617   1.324  13.555  0.0967 -0.6225  0.0463
  553TMC3    C8 8212   3.824   1.343  13.119  0.8058  0.1188  0.4687
  553TMC3    O1 8213   3.505   1.319  13.605 -0.0052  0.6323  0.2081
  553TMC3    O2 8214   3.912   1.288  13.184  0.0922 -0.0002  0.5293
  554TMC3    C1 8215   0.896   0.831  11.593  0.2312 -0.1864 -0.3908
  554TMC3    C2 8216   0.783   0.799  11.529  0.1840 -0.2449 -0.0091
  554TMC3    C3 8217   0.769   0.866  11.410 -0.8419 -0.0861 -0.3745
  554TMC3    C4 8218   0.991   0.928  11.552  0.3648  0.1301 -0.2645
  554TMC3    C5 8219   0.959   0.992  11.433 -0.1986  1.0112  0.1945
  554TMC3    C6 8220   0.855   0.956  11.354 -1.2844 -0.6095 -0.5480
  554TMC3     C 8221   0.911   0.774  11.721  0.9319  0.1341 -0.4273
  554TMC3     O 8222   0.801   0.747  11.774 -0.2118 -0.1463  0.3578
  554TMC3     H 8223   0.716   0.719  11.560  0.9433 -1.0440 -0.4127
  554TMC3    H1 8224   1.072   0.958  11.618 -0.5205  0.5908  0.6187
  554TMC3    H2 8225   0.814   1.017  11.274 -0.1636  0.4678 -0.3124
  554TMC3    C7 8226   1.035   1.113  11.399 -0.1828 -0.4572 -0.2039
  554TMC3    C8 8227   0.703   0.800  11.302  0.2637  0.2140 -0.2727
  554TMC3    O1 8228   1.118   1.147  11.483  0.5071  1.1274  0.0741
  554TMC3    O2 8229   0.756   0.812  11.192  0.2662 -0.0876 -0.0311
  555TMC3    C1 8230   0.097   4.703  14.694 -0.0794 -0.5995  0.0102
  555TMC3    C2 8231   0.094   0.069  14.795 -0.0351  0.7832 -0.3971
  555TMC3    C3 8232   0.134   0.028  14.915  0.2681 -0.1422  0.4539
  555TMC3    C4 8233   0.113   4.567  14.714 -0.5402  0.2648 -0.1457
  555TMC3    C5 8234   0.138   4.526  14.839  0.4630 -0.3320 -0.0419
  555TMC3    C6 8235   0.154   4.621  14.943 -0.6097 -0.1269  0.2934
  555TMC3     C 8236   0.073   0.027  14.562 -0.3446  0.3086 -0.1992
  555TMC3     O 8237   0.125   4.690  14.470  0.6212 -0.0010  0.2686
  555TMC3     H 8238   0.100   0.174  14.767  1.4426  1.0052  0.7640
  555TMC3    H1 8239   0.126   4.493  14.636  3.2273  1.6688 -0.8863
  555TMC3    H2 8240   0.164   4.588  15.046  2.0919  1.4480  0.5471
  555TMC3    C7 8241   0.135   4.384  14.887 -0.1453 -0.8022  0.4274
  555TMC3    C8 8242   0.136   0.122  15.026  0.0803  0.4715  0.0976
  555TMC3    O1 8243   0.137   4.364  15.009  0.1867 -0.6740 -0.3032
  555TMC3    O2 8244   0.081   0.228  14.999  0.4576  0.2270  0.3910
  556MPD2     C 8245   2.567   1.763  10.200 -0.6652 -0.6954  0.1748
  556MPD2    C1 8246   2.587   1.654  10.283 -0.0157 -0.0546  0.0959
  556MPD2    C2 8247   2.574   1.526  10.234 -0.1327  0.3762  0.1547
  556MPD2    C3 8248   2.564   1.506  10.098  0.4910 -0.2978 -0.1992
  556MPD2    C4 8249   2.562   1.611  10.016 -0.1871 -0.0614 -0.9148
  556MPD2    C5 8250   2.560   1.738  10.063 -0.3915 -0.2921 -0.4772
  556MPD2     H 8251   2.592   1.439  10.296 -1.6332  1.3256  1.9536
  556MPD2    H1 8252   2.554   1.607   9.908  0.9220  1.7555 -1.0811
  556MPD2    H2 8253   2.564   1.868  10.223  0.3012 -0.1944 -1.9370
  556MPD2    H3 8254   2.558   1.826   9.999 -2.0801  0.0447  0.0212
  556MPD2     N 8255   2.567   1.367  10.055 -0.2936 -0.5167 -0.2624
  556MPD2    H5 8256   2.563   1.297  10.128  0.4080 -0.1107  0.1655
  556MPD2    N1 8257   2.605   1.686  10.423  0.3056  0.0569  0.1250
  556MPD2    H7 8258   2.588   1.781  10.453 -1.1119 -0.4177  0.8672
  557TMC3    C1 8259   2.529   1.179   9.917 -1.2856 -0.2785 -0.4686
  557TMC3    C2 8260   2.506   1.126   9.788 -0.0771 -0.6691 -0.3122
  557TMC3    C3 8261   2.499   0.990   9.782 -0.2281  0.2791 -0.5210
  557TMC3    C4 8262   2.545   1.096  10.027  0.4699 -0.1563  0.1954
  557TMC3    C5 8263   2.514   0.960  10.018 -0.0227 -0.6021  0.3830
  557TMC3    C6 8264   2.491   0.909   9.894 -0.0199  0.2249 -0.3145
  557TMC3     C 8265   2.537   1.326   9.927  0.3462 -0.2380 -0.6475
  557TMC3     O 8266   2.542   1.389   9.821 -0.5284  0.0486 -0.0760
  557TMC3     H 8267   2.482   1.184   9.700 -0.0930 -1.3053 -0.7289
  557TMC3    H1 8268   2.562   1.132  10.128 -0.1585  2.4936 -0.6444
  557TMC3    H2 8269   2.453   0.808   9.882 -1.3796  0.2460  4.0415
  557TMC3    C7 8270   2.496   0.887  10.136 -0.5426 -0.5891  0.3563
  557TMC3    C8 8271   2.467   0.924   9.652 -0.2699 -0.1550  0.4042
  557TMC3    O1 8272   2.457   0.947  10.235 -0.0118  0.3055 -0.8858
  557TMC3    O2 8273   2.465   0.992   9.549 -0.2550  0.5012  0.3735
  558TMC3    C1 8274   0.806   3.855   9.885 -0.5997  0.6576  0.2867
  558TMC3    C2 8275   0.712   3.925   9.960 -0.1041  0.2707 -0.3387
  558TMC3    C3 8276   0.585   3.874   9.975 -0.2188  0.2553 -0.3869
  558TMC3    C4 8277   0.760   3.743   9.819 -0.4606 -0.0259 -0.2271
  558TMC3    C5 8278   0.633   3.700   9.831  0.0334 -0.1865  0.0161
  558TMC3    C6 8279   0.538   3.769   9.905  0.2052  0.1786  0.0368
  558TMC3     C 8280   0.938   3.853   9.952 -0.4400  0.1456 -0.3403
  558TMC3     O 8281   0.968   3.953  10.020  0.4547 -0.0094  0.2688
  558TMC3     H 8282   0.735   4.021  10.006 -0.8628  0.5360 -0.5196
  558TMC3    H1 8283   0.831   3.680   9.767 -1.5318 -1.3949 -0.0485
  558TMC3    H2 8284   0.438   3.728   9.918  0.6536 -0.2372  2.2322
  558TMC3    C7 8285   0.586   3.604   9.733  0.7485  0.1509 -0.4352
  558TMC3    C8 8286   0.506   3.906  10.093 -0.1469  0.0571  0.1685
  558TMC3    O1 8287   0.631   3.610   9.617 -0.2631 -0.2345 -0.2956
  558TMC3    O2 8288   0.389   3.875  10.088 -0.2797  0.5153  0.1395
  559MPD2     C 8289   0.384   0.404  10.555  0.9189 -0.1437 -0.1058
  559MPD2    C1 8290   0.332   0.375  10.680  0.3026  1.2103  0.7193
  559MPD2    C2 8291   0.416   0.379  10.787 -0.5072 -0.4324  0.0178
  559MPD2    C3 8292   0.555   0.394  10.773 -0.6407 -0.0534 -0.0378
  559MPD2    C4 8293   0.604   0.406  10.645  0.5357  0.2996  0.1266
  559MPD2    C5 8294   0.518   0.421  10.536  0.2559 -0.5054 -0.0304
  559MPD2     H 8295   0.375   0.364  10.886 -0.1200  2.7732  0.6598
  559MPD2    H1 8296   0.706   0.431  10.617  0.5225 -1.2167 -1.2327
  559MPD2    H2 8297   0.320   0.419  10.469  0.6697 -1.1848 -0.0992
  559MPD2    H3 8298   0.553   0.445  10.437 -1.0910 -0.8451 -0.5750
  559MPD2     N 8299   0.632   0.402  10.891  0.6484 -0.4937  0.3512
  559MPD2    H5 8300   0.586   0.368  10.975  1.1755  0.5952  1.0797
  559MPD2    N1 8301   0.194   0.370  10.705 -0.1862 -0.2329  1.4307
  559MPD2    H7 8302   0.127   0.396  10.634 -0.6304  1.4204  2.4489
  560TMC3    C1 8303   0.829   0.414  11.013  0.4351  0.5951  0.0359
  560TMC3    C2 8304   0.814   0.289  11.068  0.9432 -0.4069  0.4636
  560TMC3    C3 8305   0.907   0.237  11.154 -0.3775 -0.6836 -0.4494
  560TMC3    C4 8306   0.947   0.487  11.034  0.9223 -0.6298  0.3253
  560TMC3    C5 8307   1.031   0.428  11.125  0.3435  0.1025  0.4984
  560TMC3    C6 8308   1.016   0.308  11.186 -0.5039  0.4170  0.3339
  560TMC3     C 8309   0.757   0.454  10.897 -0.0752 -0.0652 -1.0394
  560TMC3     O 8310   0.809   0.533  10.816  0.4732 -0.0768  0.2047
  560TMC3     H 8311   0.721   0.238  11.045  1.4551 -0.0589 -2.4151
  560TMC3    H1 8312   0.971   0.579  10.982  0.9554 -0.8138  0.0180
  560TMC3    H2 8313   1.081   0.275  11.266 -2.0987 -2.5201  0.4179
  560TMC3    C7 8314   1.167   0.440  11.106  0.1291 -0.3478  0.3033
  560TMC3    C8 8315   0.944   0.098  11.136 -0.4462 -0.1797  0.1363
  560TMC3    O1 8316   1.225   0.332  11.111 -0.7547  0.0105  0.2498
  560TMC3    O2 8317   0.852   0.020  11.133  0.3976  0.1085  0.3822
  561TMC3    C1 8318   3.118   3.874  11.681 -0.2282 -0.2578  0.3994
  561TMC3    C2 8319   3.071   3.847  11.809 -0.0645  0.3551 -0.3131
  561TMC3    C3 8320   3.006   3.951  11.870  0.3214  0.9132  0.2946
  561TMC3    C4 8321   3.112   4.002  11.619  0.8135 -0.1497  0.0778
  561TMC3    C5 8322   3.055   4.097  11.704 -0.0370  0.0922  0.6133
  561TMC3    C6 8323   3.000   4.071  11.823 -0.2678  0.4323 -0.3624
  561TMC3     C 8324   3.205   3.769  11.617  0.2233  0.1395  0.0825
  561TMC3     O 8325   3.191   3.655  11.659 -0.4658  0.6087  0.3214
  561TMC3     H 8326   3.055   3.744  11.838  0.9817  0.3906  0.3821
  561TMC3    H1 8327   3.125   4.013  11.512  0.4871 -2.4043 -0.1949
  561TMC3    H2 8328   2.953   4.153  11.878 -0.7416  0.3192 -0.5988
  561TMC3    C7 8329   3.041   4.235  11.656 -1.1221  0.3452 -0.3880
  561TMC3    C8 8330   2.917   3.905  11.979  0.1838  0.6350  0.2185
  561TMC3    O1 8331   2.959   4.303  11.712 -0.4994 -0.3859  0.1057
  561TMC3    O2 8332   2.940   3.791  12.018 -0.2819 -0.4106 -0.1985
  562TMC3    C1 8333   4.525   0.433  15.587 -0.3411  0.4557 -0.0860
  562TMC3    C2 8334   4.411   0.506  15.552 -0.3359 -0.2052 -0.6847
  562TMC3    C3 8335   4.368   0.501  15.420 -0.2773 -0.3631  0.3610
  562TMC3    C4 8336   4.594   0.362  15.490  0.3946 -0.5127 -0.2239
  562TMC3    C5 8337   4.541   0.361  15.361 -0.2346  0.1058 -0.3794
  562TMC3    C6 8338   4.429   0.425  15.330  1.4808  0.0046 -0.3897
  562TMC3     C 8339   4.563   0.420  15.727  0.8504 -0.2850  0.7831
  562TMC3     O 8340   4.637   0.322  15.753 -0.2388  0.4531  0.5517
  562TMC3     H 8341   4.338   0.552  15.618  0.0234 -0.3709 -0.1738
  562TMC3    H1 8342   4.678   0.301  15.523  0.8100  0.6598  0.9008
  562TMC3    H2 8343   4.383   0.411  15.233 -1.6412 -1.4638  1.2977
  562TMC3    C7 8344   4.570   0.242  15.281 -0.3696 -0.4272 -0.2502
  562TMC3    C8 8345   4.229   0.521  15.397  0.0232  0.8543  0.2542
  562TMC3    O1 8346   4.546   0.240  15.158  0.4791 -0.1916  0.0537
  562TMC3    O2 8347   4.169   0.444  15.473  0.5483 -0.2992 -0.2323
  563MPD2     C 8348   1.756   1.785  15.778 -0.1373 -0.6001 -0.8340
  563MPD2    C1 8349   1.778   1.885  15.876  0.2173 -0.0261 -0.2840
  563MPD2    C2 8350   1.902   1.908  15.927 -0.3943 -0.1720  0.0799
  563MPD2    C3 8351   1.999   1.823  15.893 -0.3741  0.1753 -0.3301
  563MPD2    C4 8352   1.986   1.725  15.795 -0.1922  0.0962 -0.1228
  563MPD2    C5 8353   1.857   1.703  15.748 -0.0402 -0.5280 -0.0901
  563MPD2     H 8354   1.920   1.960  16.021 -0.1416 -0.6507  0.2987
  563MPD2    H1 8355   2.050   1.641  15.771 -0.7348  0.4659 -2.9734
  563MPD2    H2 8356   1.660   1.772  15.730 -0.6816  0.9679 -0.1824
  563MPD2    H3 8357   1.849   1.617  15.682  0.1604 -1.1434  0.6848
  563MPD2     N 8358   2.110   1.820  15.985  0.0727 -0.7074  0.5806
  563MPD2    H5 8359   2.109   1.896  16.052  1.4810  0.3085 -0.5557
  563MPD2    N1 8360   1.666   1.954  15.932 -0.1343  0.2787  0.2788
  563MPD2    H7 8361   1.575   1.931  15.893  0.8258  1.0304 -2.3978
  564TMC3    C1 8362   1.604   2.002  16.151  1.0006 -0.1190 -0.4767
  564TMC3    C2 8363   1.494   1.931  16.128 -0.2753  0.7304 -0.2817
  564TMC3    C3 8364   1.476   1.829  16.219 -0.4803  0.0163  0.1730
  564TMC3    C4 8365   1.693   1.980  16.255  0.9390  0.5908  0.4462
  564TMC3    C5 8366   1.665   1.885  16.355 -0.5013  0.1417 -0.3561
  564TMC3    C6 8367   1.554   1.808  16.330  0.4061  0.2021 -0.6365
  564TMC3     C 8368   1.669   2.053  16.030 -0.4974 -0.0649 -0.9671
  564TMC3     O 8369   1.764   2.130  16.045 -0.3669  0.2310  0.1585
  564TMC3     H 8370   1.424   1.958  16.049  0.4088  1.3836 -0.6656
  564TMC3    H1 8371   1.792   2.022  16.263  1.5728 -1.3958  3.0903
  564TMC3    H2 8372   1.526   1.730  16.400 -1.0252 -0.1856 -1.6466
  564TMC3    C7 8373   1.778   1.796  16.350  0.1265 -0.5972 -0.3478
  564TMC3    C8 8374   1.419   1.706  16.162  0.1724 -0.7424 -0.1233
  564TMC3    O1 8375   1.879   1.806  16.414  0.1931  0.1766 -0.4600
  564TMC3    O2 8376   1.399   1.616  16.244 -0.2777 -0.8554  0.7736
  565TMC3    C1 8377   2.360   3.220   9.888 -0.8745  0.6650 -0.3317
  565TMC3    C2 8378   2.366   3.191  10.024  0.3230  0.1934 -0.0684
  565TMC3    C3 8379   2.246   3.147  10.078 -1.1021  0.2984 -0.2206
  565TMC3    C4 8380   2.248   3.188   9.810  0.0158 -0.5987 -0.4111
  565TMC3    C5 8381   2.153   3.120   9.871 -0.5143 -0.4853  0.1543
  565TMC3    C6 8382   2.135   3.114  10.007  0.1398  0.1926 -0.0046
  565TMC3     C 8383   2.455   3.317   9.839 -0.4976  0.0493  0.9893
  565TMC3     O 8384   2.551   3.328   9.908  0.0264 -0.0361  0.1319
  565TMC3     H 8385   2.451   3.215  10.087 -0.0543 -0.5150  0.7114
  565TMC3    H1 8386   2.249   3.200   9.702  1.8684 -0.2092 -0.3476
  565TMC3    H2 8387   2.058   3.051  10.051  0.2489  0.1210  0.0804
  565TMC3    C7 8388   2.059   3.050   9.783 -0.1563 -0.3229  0.1911
  565TMC3    C8 8389   2.247   3.083  10.210  0.1261  0.6051  0.0321
  565TMC3    O1 8390   2.050   3.092   9.668 -0.0628 -0.6669  0.4241
  565TMC3    O2 8391   2.146   3.027  10.250  0.8417 -0.0937  0.1573
  566MPD2     C 8392   3.735   0.188  14.337  0.2267  0.6089 -0.4928
  566MPD2    C1 8393   3.807   0.110  14.253 -0.0550 -0.0013  0.1740
  566MPD2    C2 8394   3.739   0.021  14.178  0.1800  0.7871 -0.4406
  566MPD2    C3 8395   3.601   0.023  14.160  0.3413  0.4885  0.3369
  566MPD2    C4 8396   3.533   0.094  14.254 -0.1032 -0.4977  0.7819
  566MPD2    C5 8397   3.598   0.172  14.340  0.4513 -0.3216  0.5084
  566MPD2     H 8398   3.797   4.670  14.125 -0.8282 -2.1197  2.6341
  566MPD2    H1 8399   3.426   0.086  14.260 -0.1506  1.1413  1.9857
  566MPD2    H2 8400   3.789   0.247  14.409 -0.1891 -0.0369  0.3537
  566MPD2    H3 8401   3.545   0.222  14.421 -0.3733  3.0359 -2.0633
  566MPD2     N 8402   3.529   4.663  14.071  0.0993  0.0108  0.0799
  566MPD2    H5 8403   3.429   4.677  14.072 -0.0782 -1.2084 -0.1657
  566MPD2    N1 8404   3.946   0.127  14.236 -0.6978  0.8900 -0.4445
  566MPD2    H7 8405   3.988   0.090  14.151 -0.7122 -1.4329  0.5817
  567TMC3    C1 8406   4.159   0.219  14.256 -0.0242 -0.1093  0.3207
  567TMC3    C2 8407   4.156   0.248  14.125  0.1210  0.2587 -0.5246
  567TMC3    C3 8408   4.267   0.223  14.047  0.4667 -0.2779 -0.0777
  567TMC3    C4 8409   4.269   0.154  14.317  0.1631 -0.4424 -0.0445
  567TMC3    C5 8410   4.364   0.111  14.226 -0.6331  0.8999  0.3290
  567TMC3    C6 8411   4.372   0.148  14.094 -0.2528  0.3359 -0.2864
  567TMC3     C 8412   4.032   0.194  14.320 -0.0068  0.9500 -0.0675
  567TMC3     O 8413   4.032   0.217  14.442  0.4169 -0.2977  0.4572
  567TMC3     H 8414   4.072   0.298  14.078  1.0429  0.6451 -1.7845
  567TMC3    H1 8415   4.253   0.128  14.421  0.2847  2.4751  0.7062
  567TMC3    H2 8416   4.452   0.103  14.036 -1.5394  1.5314 -2.9830
  567TMC3    C7 8417   4.442   4.721  14.265 -0.0578 -0.4748  0.1853
  567TMC3    C8 8418   4.253   0.278  13.907 -0.4135  0.0944  0.5096
  567TMC3    O1 8419   4.481   4.642  14.179  0.3167  0.8558 -0.2413
  567TMC3    O2 8420   4.141   0.326  13.872 -0.1751 -0.0988 -0.0206
  568MPD2     C 8421   2.370   0.606  16.386 -0.3944  0.0811 -0.7315
  568MPD2    C1 8422   2.297   0.666  16.483 -0.3276  0.3034  0.0824
  568MPD2    C2 8423   2.189   0.745  16.449  0.3859  0.6659  0.6310
  568MPD2    C3 8424   2.153   0.775  16.319  0.5093 -0.1867  0.0160
  568MPD2    C4 8425   2.238   0.728  16.229  0.3689  0.3618  0.1329
  568MPD2    C5 8426   2.339   0.641  16.261  0.2489 -0.5150 -0.3330
  568MPD2     H 8427   2.138   0.786  16.536 -1.3140  2.4483 -1.2284
  568MPD2    H1 8428   2.224   0.750  16.123  0.4982  0.8190  0.2114
  568MPD2    H2 8429   2.451   0.535  16.393  0.4774  1.0776 -0.6330
  568MPD2    H3 8430   2.387   0.607  16.170 -0.6583 -0.5018 -0.8204
  568MPD2     N 8431   2.035   0.846  16.286 -0.4905  0.2590  0.1518
  568MPD2    H5 8432   1.970   0.863  16.362  0.0070 -0.8442  0.8239
  568MPD2    N1 8433   2.323   0.609  16.608 -0.7233  0.3483  0.1348
  568MPD2    H7 8434   2.402   0.544  16.608 -1.0749 -0.0876  1.5851
  569TMC3    C1 8435   1.926   1.025  16.159 -0.3217 -1.2434  0.2916
  569TMC3    C2 8436   1.897   1.098  16.274  0.1600 -0.2756  0.4181
  569TMC3    C3 8437   1.763   1.140  16.289  0.4611  0.0346 -0.6015
  569TMC3    C4 8438   1.846   1.028  16.049 -0.6871 -0.1359 -0.6586
  569TMC3    C5 8439   1.713   1.069  16.076  0.3733 -0.2877 -0.5571
  569TMC3    C6 8440   1.668   1.106  16.199  0.5653 -0.2919 -0.5101
  569TMC3     C 8441   2.016   0.908  16.161 -0.4887  0.7515  0.1926
  569TMC3     O 8442   2.076   0.887  16.058 -0.3543  0.2551  0.5564
  569TMC3     H 8443   1.975   1.145  16.333  1.4018 -1.1061 -0.5590
  569TMC3    H1 8444   1.869   0.983  15.953 -0.5419 -1.0979 -0.1764
  569TMC3    H2 8445   1.564   1.120  16.224  1.1676 -0.0901  1.8927
  569TMC3    C7 8446   1.662   1.144  15.969  0.2586 -0.7445  0.1250
  569TMC3    C8 8447   1.732   1.251  16.374  0.1771  0.2518  0.7477
  569TMC3    O1 8448   1.712   1.134  15.856  0.0559 -0.1252  0.1421
  569TMC3    O2 8449   1.632   1.316  16.348 -0.1798  0.0836  0.1209
  570TMC3    C1 8450   1.139   4.022  16.132  0.2273 -0.4479  1.0161
  570TMC3    C2 8451   1.207   4.012  16.013 -0.4885 -0.2062 -0.1341
  570TMC3    C3 8452   1.312   4.102  15.997  1.1346 -0.4758  0.0763
  570TMC3    C4 8453   1.157   4.135  16.210 -0.1126  0.0477 -0.3476
  570TMC3    C5 8454   1.266   4.219  16.191 -0.4472 -0.1310  0.2391
  570TMC3    C6 8455   1.346   4.198  16.085  0.4388  0.0970 -0.1568
  570TMC3     C 8456   1.066   3.910  16.186 -0.3499 -0.3497 -1.0139
  570TMC3     O 8457   1.047   3.813  16.112  0.0644 -0.2521 -0.2660
  570TMC3     H 8458   1.206   3.933  15.938 -1.9710 -0.4533  0.1426
  570TMC3    H1 8459   1.079   4.143  16.286 -0.3535  1.0608 -0.6955
  570TMC3    H2 8460   1.427   4.264  16.057  0.1452  1.4981  2.2676
  570TMC3    C7 8461   1.255   4.350  16.251 -1.1658  0.2124 -0.3486
  570TMC3    C8 8462   1.400   4.096  15.887 -0.1264  1.2210 -0.2273
  570TMC3    O1 8463   1.162   4.359  16.329 -0.1077  0.4949  0.9418
  570TMC3    O2 8464   1.512   4.129  15.915  0.0992  0.1098  0.3055
  571MPD2     C 8465   4.636   1.090  17.163  0.4869  0.0072  0.0684
  571MPD2    C1 8466   4.517   1.044  17.103 -1.0016  0.1940 -0.0301
  571MPD2    C2 8467   4.397   1.068  17.170  0.2947 -0.5244  0.1494
  571MPD2    C3 8468   4.399   1.139  17.289 -0.2530  0.0121  0.2175
  571MPD2    C4 8469   4.516   1.194  17.338  0.2966  0.2632  0.2692
  571MPD2    C5 8470   4.635   1.163  17.279 -0.4951  0.5298 -0.7317
  571MPD2     H 8471   4.301   1.038  17.129 -0.1333 -1.2780  1.7231
  571MPD2    H1 8472   4.520   1.263  17.422 -1.7014  0.5432  0.1278
  571MPD2    H2 8473   0.011   1.069  17.124  0.2031 -2.5174  0.6682
  571MPD2    H3 8474   0.002   1.192  17.331 -1.0700  0.2272  0.4517
  571MPD2     N 8475   4.279   1.162  17.367  0.3086 -0.2550 -0.2601
  571MPD2    H5 8476   4.299   1.209  17.455 -1.0726 -1.4652  0.6965
  571MPD2    N1 8477   4.524   0.965  16.988  0.1845 -0.0176 -0.2449
  571MPD2    H7 8478   4.618   0.949  16.953  0.6248  1.7408  0.1428
  572TMC3    C1 8479   4.051   1.197  17.425  0.3736  0.2460  0.1698
  572TMC3    C2 8480   3.921   1.159  17.419 -0.0124 -0.2819 -0.3036
  572TMC3    C3 8481   3.833   1.182  17.522  0.1692  0.6826 -0.7695
  572TMC3    C4 8482   4.092   1.277  17.529  0.1364 -0.3113 -0.1216
  572TMC3    C5 8483   3.999   1.306  17.632 -0.2245 -0.4884 -0.1132
  572TMC3    C6 8484   3.873   1.248  17.636 -0.4934 -0.0238 -0.1522
  572TMC3     C 8485   4.145   1.127  17.337  0.4037 -0.8993  0.0991
  572TMC3     O 8486   4.101   1.057  17.244 -0.2707 -0.0745 -0.4302
  572TMC3     H 8487   3.888   1.086  17.345 -1.4075 -0.4196  0.4455
  572TMC3    H1 8488   4.192   1.318  17.542 -0.1811  0.9652 -1.7136
  572TMC3    H2 8489   3.808   1.271   0.023  0.7774 -0.6804  1.0006
  572TMC3    C7 8490   4.032   1.418   0.023 -0.2497 -0.0634  0.3765
  572TMC3    C8 8491   3.697   1.141  17.500 -0.8054  0.1146  0.1745
  572TMC3    O1 8492   3.975   1.413   0.132  0.6167 -0.3423  0.2961
  572TMC3    O2 8493   3.667   1.131  17.381  0.0840 -0.7367 -0.0416
  573MPD2     C 8494   0.184   1.182   0.154  0.1947 -0.6687 -0.2733
  573MPD2    C1 8495   0.238   1.282   0.232  0.4377  0.2482 -0.2288
  573MPD2    C2 8496   0.201   1.407   0.195 -0.0858 -0.1631  0.6486
  573MPD2    C3 8497   0.122   1.440   0.088  0.1564  0.1253 -0.8380
  573MPD2    C4 8498   0.082   1.341   0.004 -0.6273  1.2049  0.1316
  573MPD2    C5 8499   0.105   1.209   0.046 -0.3062  0.0291  0.7446
  573MPD2     H 8500   0.254   1.487   0.247  1.0255 -1.0826  0.9394
  573MPD2    H1 8501   0.017   1.359  17.616 -0.0655 -1.0127 -0.7524
  573MPD2    H2 8502   0.214   1.082   0.184 -0.9613  0.0216  3.2215
  573MPD2    H3 8503   0.075   1.126  17.681 -0.3747  2.8043 -2.9059
  573MPD2     N 8504   0.068   1.575   0.070  0.1801  0.0086 -0.7488
  573MPD2    H5 8505   0.022   1.593  17.678 -0.5994 -1.6880 -0.6844
  573MPD2    N1 8506   0.308   1.245   0.354 -0.4497  0.1381  0.3851
  573MPD2    H7 8507   0.333   1.148   0.369 -1.0328  0.1004  1.1209
  574TMC3    C1 8508   0.032   1.798   0.117 -0.9584 -0.3213  0.6509
  574TMC3    C2 8509   0.004   1.891   0.212  0.3480  0.2644  0.0027
  574TMC3    C3 8510   4.682   2.016   0.177  0.0423  1.1621  0.0227
  574TMC3    C4 8511   0.007   1.822  17.684 -0.1274  0.0128 -0.3495
  574TMC3    C5 8512   4.676   1.943  17.653 -0.1924 -1.0399 -0.1096
  574TMC3    C6 8513   4.652   2.048   0.043  1.0072  0.5027  0.1080
  574TMC3     C 8514   0.088   1.680   0.161  0.1368 -1.0749 -0.4193
  574TMC3     O 8515   0.131   1.680   0.274  0.0326 -0.3408  0.0960
  574TMC3     H 8516   0.034   1.871   0.315 -0.6891 -0.2282  0.2122
  574TMC3    H1 8517   0.031   1.755  17.602  0.5492  2.0241 -1.7975
  574TMC3    H2 8518   4.602   2.138   0.008  1.1030  0.4484 -0.1715
  574TMC3    C7 8519   4.634   1.960  17.516  0.7653 -0.2878  0.2679
  574TMC3    C8 8520   4.659   2.111   0.275 -0.0391  1.1147  0.1373
  574TMC3    O1 8521   4.641   1.862  17.441  0.2972  0.4019  0.2695
  574TMC3    O2 8522   4.663   2.078   0.392  0.1336 -0.3642 -0.2825
  575TMC3    C1 8523   2.165   2.296  10.546 -0.1259 -0.1059  0.1201
  575TMC3    C2 8524   2.181   2.282  10.682  0.2448  0.1656  0.1158
  575TMC3    C3 8525   2.197   2.396  10.760  0.5453 -0.0574  0.6286
  575TMC3    C4 8526   2.150   2.415  10.489 -0.8576 -0.2740  0.1415
  575TMC3    C5 8527   2.145   2.533  10.578 -0.2385 -0.4825  1.2458
  575TMC3    C6 8528   2.180   2.520  10.711  0.3441  0.1768 -0.4881
  575TMC3     C 8529   2.131   2.178  10.469  0.3365  0.2169  0.1346
  575TMC3     O 8530   2.075   2.084  10.530  0.3069  0.3693 -0.2992
  575TMC3     H 8531   2.187   2.184  10.729 -0.3332  0.1137  0.0881
  575TMC3    H1 8532   2.145   2.430  10.382 -0.8791 -1.6466 -0.0499
  575TMC3    H2 8533   2.156   2.602  10.779  1.4677 -0.2294  0.3868
  575TMC3    C7 8534   2.190   2.653  10.515  0.4986  0.2351  0.3985
  575TMC3    C8 8535   2.264   2.397  10.893 -0.3332 -0.0322  0.1494
  575TMC3    O1 8536   2.201   2.651  10.390 -0.6819  0.7564  0.6216
  575TMC3    O2 8537   2.233   2.491  10.968 -0.2717  0.1822 -0.8409
  576MPD2     C 8538   1.896   4.562  12.825 -0.3814  0.6185  0.1992
  576MPD2    C1 8539   1.983   4.648  12.764  0.7230  0.9056 -0.8086
  576MPD2    C2 8540   1.991   0.061  12.793 -0.1482 -0.0779 -0.6839
  576MPD2    C3 8541   1.918   0.109  12.903 -0.1249  0.0722  0.0476
  576MPD2    C4 8542   1.830   0.026  12.968 -1.0676 -0.2867  0.5366
  576MPD2    C5 8543   1.822   4.620  12.929 -0.0187  0.5385  0.6736
  576MPD2     H 8544   2.059   0.122  12.734 -0.4325  2.5204  1.6500
  576MPD2    H1 8545   1.767   0.063  13.048 -0.2706 -0.5680  1.2833
  576MPD2    H2 8546   1.882   4.458  12.797  0.5499  0.0639  1.7985
  576MPD2    H3 8547   1.749   4.559  12.982 -0.4952 -1.1562 -1.9224
  576MPD2     N 8548   1.930   0.252  12.926 -0.4406  0.2407 -0.4066
  576MPD2    H5 8549   1.990   0.303  12.862 -1.0983  3.2459  1.3794
  576MPD2    N1 8550   2.084   4.601  12.676  0.5267 -0.3847  0.2073
  576MPD2    H7 8551   2.160   4.665  12.653  0.1746 -0.6388 -1.6634
  577TMC3    C1 8552   2.170   4.463  12.521 -0.3280  0.0198 -0.2279
  577TMC3    C2 8553   2.218   4.343  12.474 -0.3966 -0.5642  0.7579
  577TMC3    C3 8554   2.314   4.339  12.372  0.4541  0.0991 -0.1116
  577TMC3    C4 8555   2.207   4.582  12.455  0.2094 -0.3758  0.0218
  577TMC3    C5 8556   2.288   4.570  12.346  0.8755 -0.4333 -1.0133
  577TMC3    C6 8557   2.348   4.450  12.298 -0.2634 -1.1292  0.2801
  577TMC3     C 8558   2.087   4.469  12.634  0.2706  0.2596  0.2814
  577TMC3     O 8559   2.024   4.366  12.647  0.4188  0.2311  0.3165
  577TMC3     H 8560   2.190   4.257  12.534  0.1538 -1.6008 -0.4687
  577TMC3    H1 8561   2.171   4.681  12.478 -0.1908 -0.7682  1.0695
  577TMC3    H2 8562   2.416   4.440  12.214  1.0889  2.6006  0.8974
  577TMC3    C7 8563   2.326   4.693  12.283  0.1708 -0.0852  0.5895
  577TMC3    C8 8564   2.389   4.214  12.374  0.3316 -0.2985  0.2311
  577TMC3    O1 8565   2.354   0.063  12.357 -0.5342  0.1614  0.2596
  577TMC3    O2 8566   2.352   4.129  12.454 -0.2343  0.5118 -0.4360
  578MPD2     C 8567   0.510   4.293   1.179 -0.7512 -0.2592  0.4960
  578MPD2    C1 8568   0.626   4.249   1.128 -0.1560 -0.2172  0.0777
  578MPD2    C2 8569   0.738   4.238   1.209  0.5946  0.3498  0.1316
  578MPD2    C3 8570   0.728   4.248   1.342  0.0337 -0.5881  0.3323
  578MPD2    C4 8571   0.611   4.290   1.405 -0.1836  0.0898 -0.8236
  578MPD2    C5 8572   0.500   4.309   1.319 -0.2803 -0.7295  0.5626
  578MPD2     H 8573   0.837   4.218   1.168  0.9146  0.0809  1.0152
  578MPD2    H1 8574   0.596   4.293   1.513  0.2559  0.2989 -0.7681
  578MPD2    H2 8575   0.418   4.300   1.122  0.1946 -0.1193 -0.9994
  578MPD2    H3 8576   0.401   4.313   1.362 -0.4632 -1.7357  0.2247
  578MPD2     N 8577   0.841   4.203   1.421 -0.3187 -0.3185 -0.0879
  578MPD2    H5 8578   0.920   4.169   1.367 -1.0159  1.4428 -2.2288
  578MPD2    N1 8579   0.624   4.227   0.983  0.0270 -0.0940 -0.4111
  578MPD2    H7 8580   0.537   4.242   0.932  0.5998  1.2661 -0.9962
  579TMC3    C1 8581   0.980   4.146   1.597 -0.1376 -0.3574 -0.4796
  579TMC3    C2 8582   1.044   4.196   1.714  0.4973  0.2850  0.2817
  579TMC3    C3 8583   1.163   4.146   1.756  1.0957 -0.3258  0.0833
  579TMC3    C4 8584   1.033   4.035   1.529  0.8407 -0.0100  0.6562
  579TMC3    C5 8585   1.149   3.985   1.589 -0.6633 -0.4004  0.0702
  579TMC3    C6 8586   1.221   4.041   1.693  0.3451  0.0134  0.6399
  579TMC3     C 8587   0.867   4.214   1.553  0.7711 -0.5534 -0.2241
  579TMC3     O 8588   0.805   4.289   1.625  0.0406 -0.4069 -0.5210
  579TMC3     H 8589   0.993   4.271   1.774  0.1147  0.8277 -0.7174
  579TMC3    H1 8590   0.972   3.976   1.461  0.7192  1.8214 -0.8053
  579TMC3    H2 8591   1.309   3.990   1.731 -1.7806 -3.4172  0.9321
  579TMC3    C7 8592   1.212   3.867   1.534 -0.0563  0.6580 -0.4074
  579TMC3    C8 8593   1.227   4.220   1.855  0.9353  0.8324  0.2760
  579TMC3    O1 8594   1.292   3.812   1.608  0.6645  0.1264  0.6584
  579TMC3    O2 8595   1.184   4.329   1.887 -0.4031  0.3527  0.3981
  580TMC3    C1 8596   0.669   3.859  11.953 -0.1533  0.5766  0.2860
  580TMC3    C2 8597   0.751   3.963  11.924  0.1922  0.5982  0.0114
  580TMC3    C3 8598   0.881   3.949  11.885 -0.1231  0.0426 -0.1793
  580TMC3    C4 8599   0.726   3.734  11.965 -0.0405  0.8320 -0.8487
  580TMC3    C5 8600   0.864   3.719  11.941 -0.2473 -0.9378 -0.3999
  580TMC3    C6 8601   0.935   3.827  11.895  0.7371  0.2317 -0.1335
  580TMC3     C 8602   0.537   3.898  12.002 -0.4043 -0.6223  0.6525
  580TMC3     O 8603   0.513   4.015  12.004  0.1096  0.0566 -1.0360
  580TMC3     H 8604   0.709   4.061  11.902  0.0269  0.2020 -1.4245
  580TMC3    H1 8605   0.662   3.647  11.974 -1.7856  2.3815  1.6949
  580TMC3    H2 8606   1.043   3.815  11.894  0.5448 -1.3639 -0.3096
  580TMC3    C7 8607   0.945   3.597  11.961 -0.0645 -0.1373  0.8078
  580TMC3    C8 8608   0.927   4.031  11.771  0.0381  0.5019  0.0095
  580TMC3    O1 8609   1.052   3.590  11.898 -0.1494 -0.3548  0.1806
  580TMC3    O2 8610   0.877   4.139  11.762  0.4521 -0.5877 -0.1589
  581MPD2     C 8611   2.955   3.038  15.296 -0.0251 -0.6742 -1.2812
  581MPD2    C1 8612   2.911   2.942  15.212  0.2165  0.6996 -0.4304
  581MPD2    C2 8613   2.834   2.976  15.101  0.1486 -0.1046 -0.1303
  581MPD2    C3 8614   2.795   3.106  15.077  0.7293  0.3286  0.1236
  581MPD2    C4 8615   2.841   3.208  15.161  0.1453 -0.0995 -0.5862
  581MPD2    C5 8616   2.914   3.175  15.273  0.1510 -0.4082 -0.5962
  581MPD2     H 8617   2.802   2.895  15.037 -2.7221  0.9436  0.0053
  581MPD2    H1 8618   2.808   3.311  15.154 -2.4208 -0.7589  1.6279
  581MPD2    H2 8619   3.015   3.018  15.384  0.8549 -0.2912 -1.7932
  581MPD2    H3 8620   2.939   3.247  15.350 -0.6317 -1.0802  0.2920
  581MPD2     N 8621   2.710   3.134  14.965  0.3116  0.2822 -0.3796
  581MPD2    H5 8622   2.664   3.052  14.928  0.4086 -0.0552  0.2531
  581MPD2    N1 8623   2.965   2.815  15.227 -0.0606 -0.8049  0.5444
  581MPD2    H7 8624   3.033   2.818  15.303  1.2351  0.2561 -0.6523
  582TMC3    C1 8625   3.026   2.595  15.202  0.0065  0.1468  0.0375
  582TMC3    C2 8626   3.147   2.642  15.249 -0.4366 -0.0231 -0.0691
  582TMC3    C3 8627   3.211   2.571  15.351 -0.5008 -0.0653 -0.9911
  582TMC3    C4 8628   2.968   2.487  15.257 -0.4305  0.3219  0.6695
  582TMC3    C5 8629   3.027   2.429  15.366 -0.4465 -0.1481 -0.3163
  582TMC3    C6 8630   3.151   2.464  15.410  0.7099 -0.0198 -0.9401
  582TMC3     C 8631   2.924   2.695  15.171  0.3133  0.1094  0.2957
  582TMC3     O 8632   2.818   2.668  15.117  0.0579 -0.1720 -0.3699
  582TMC3     H 8633   3.194   2.730  15.207  2.6949 -0.8010  1.8491
  582TMC3    H1 8634   2.862   2.469  15.240 -0.3119  1.4222 -1.1454
  582TMC3    H2 8635   3.179   2.438  15.512 -1.8711  0.5918 -0.0726
  582TMC3    C7 8636   2.931   2.430  15.472  0.2946  0.5569 -0.4522
  582TMC3    C8 8637   3.256   2.654  15.461 -0.9260 -0.9540 -0.1978
  582TMC3    O1 8638   2.852   2.333  15.473  0.2239  0.8156  0.1103
  582TMC3    O2 8639   3.165   2.732  15.490  0.5970  0.1380  0.1589
  583MPD2     C 8640   3.234   4.499  16.736 -0.0472  0.0729 -0.4194
  583MPD2    C1 8641   3.192   4.618  16.672  0.3744  0.4561  0.3499
  583MPD2    C2 8642   3.133   4.721  16.742 -0.1664 -0.3853  0.0601
  583MPD2    C3 8643   3.107   4.698  16.876 -0.0264  0.7032  0.1241
  583MPD2    C4 8644   3.153   4.586  16.943 -0.3231 -0.1481  0.4170
  583MPD2    C5 8645   3.202   4.488  16.870 -0.0065 -0.1949 -0.3301
  583MPD2     H 8646   3.098   0.094  16.707 -2.3106 -0.3574  2.2394
  583MPD2    H1 8647   3.138   4.570  17.049 -1.4257 -1.8445  0.0060
  583MPD2    H2 8648   3.285   4.420  16.682  1.9802  2.0887 -1.4351
  583MPD2    H3 8649   3.246   4.402  16.918 -0.0827 -0.6059 -1.0069
  583MPD2     N 8650   3.044   0.081  16.944  0.7227 -0.7941 -0.1988
  583MPD2    H5 8651   3.000   0.154  16.890 -2.2796 -1.4963  1.3236
  583MPD2    N1 8652   3.230   4.655  16.540  0.6631 -0.4983 -0.0600
  583MPD2    H7 8653   3.228   0.030  16.514 -0.9779 -1.2583 -2.7150
  584TMC3    C1 8654   2.957   0.215  17.121 -0.0418 -0.1084  0.2180
  584TMC3    C2 8655   2.950   0.317  17.031 -0.7975 -0.6748  0.5044
  584TMC3    C3 8656   2.934   0.439  17.085  0.3691  0.9172  0.1551
  584TMC3    C4 8657   2.935   0.232  17.252  1.0899  0.2102 -0.3864
  584TMC3    C5 8658   2.904   0.358  17.298  0.4510  0.7372  0.0426
  584TMC3    C6 8659   2.911   0.469  17.218  0.2155  0.2267  0.0682
  584TMC3     C 8660   3.031   0.090  17.083 -0.5704 -0.5923 -0.7767
  584TMC3     O 8661   3.050   0.004  17.171 -0.4869  0.6180  0.1939
  584TMC3     H 8662   2.976   0.313  16.926 -2.5756 -0.8515  0.0764
  584TMC3    H1 8663   2.936   0.142  17.313  3.6110 -0.5891 -1.6018
  584TMC3    H2 8664   2.908   0.565  17.268  0.1073  0.0427  0.4162
  584TMC3    C7 8665   2.914   0.370  17.439  1.2696 -0.5698  0.0163
  584TMC3    C8 8666   2.923   0.543  16.981  0.0454 -0.5324  0.4757
  584TMC3    O1 8667   2.987   0.287  17.496 -0.2372 -0.4986 -0.1874
  584TMC3    O2 8668   2.924   0.509  16.862 -0.0589  0.1685  0.0005
  585MPD2     C 8669   1.883   3.399   0.818  0.7402  0.2517 -0.1407
  585MPD2    C1 8670   1.989   3.482   0.826  0.0207 -0.0374 -0.0311
  585MPD2    C2 8671   2.037   3.552   0.718 -0.6512 -0.3232 -1.1320
  585MPD2    C3 8672   1.988   3.531   0.595  0.5450  0.5518 -0.0650
  585MPD2    C4 8673   1.886   3.445   0.589 -0.4252 -0.8869 -0.7399
  585MPD2    C5 8674   1.828   3.382   0.695 -0.4132  0.0554 -0.0255
  585MPD2     H 8675   2.133   3.603   0.728 -2.2501  2.9926 -2.5699
  585MPD2    H1 8676   1.829   3.427   0.499  0.3614 -0.3597 -1.3453
  585MPD2    H2 8677   1.840   3.336   0.895  0.9632 -0.9179 -0.9713
  585MPD2    H3 8678   1.752   3.308   0.671  0.9968 -0.7164 -2.0882
  585MPD2     N 8679   2.035   3.593   0.477  0.2588  0.3412  0.1466
  585MPD2    H5 8680   2.015   3.553   0.385  1.8920 -1.2766  0.4888
  585MPD2    N1 8681   2.055   3.510   0.949  0.1782 -0.0582 -0.4165
  585MPD2    H7 8682   2.139   3.566   0.957 -0.7102  1.3804 -1.1828
  586TMC3    C1 8683   2.146   3.732   0.331 -0.5224 -0.3750  0.0811
  586TMC3    C2 8684   2.268   3.790   0.310 -0.6731  0.4990 -0.1607
  586TMC3    C3 8685   2.301   3.823   0.182 -0.1792 -0.7775 -0.2473
  586TMC3    C4 8686   2.047   3.728   0.245  0.1864 -0.0786 -0.0731
  586TMC3    C5 8687   2.082   3.755   0.116  0.0788  0.2241  0.1833
  586TMC3    C6 8688   2.207   3.805   0.086 -0.2051 -0.9812  0.1397
  586TMC3     C 8689   2.126   3.690   0.466  0.0615 -0.3832 -0.0618
  586TMC3     O 8690   2.186   3.748   0.556 -0.3708  0.1003  0.1028
  586TMC3     H 8691   2.346   3.783   0.384 -0.3368 -0.1250 -0.5753
  586TMC3    H1 8692   1.946   3.696   0.270  1.2162 -2.0845  1.6008
  586TMC3    H2 8693   2.244   3.819  17.683 -1.7767 -2.1046 -0.5998
  586TMC3    C7 8694   1.996   3.695   0.011  0.3680  0.8543  0.1290
  586TMC3    C8 8695   2.433   3.759   0.156 -0.5160  0.4484 -0.5571
  586TMC3    O1 8696   1.947   3.585   0.039 -0.3656  0.9004  0.0231
  586TMC3    O2 8697   2.444   3.657   0.222 -0.4750  0.0693  0.2030
  587TMC3    C1 8698   4.519   2.525  16.149 -0.4033  0.1893 -0.4391
  587TMC3    C2 8699   4.547   2.574  16.275  0.8403 -0.0322 -0.3808
  587TMC3    C3 8700   4.655   2.535  16.347 -0.0583  0.0564 -0.2817
  587TMC3    C4 8701   4.598   2.428  16.097 -0.3741  0.1172 -0.3713
  587TMC3    C5 8702   4.693   2.372  16.184  0.5110 -0.5497 -0.1942
  587TMC3    C6 8703   0.009   2.428  16.304  0.2500  0.1907  0.2626
  587TMC3     C 8704   4.394   2.555  16.090  0.5334 -0.4566  0.0135
  587TMC3     O 8705   4.391   2.526  15.971  0.2538 -0.7046  0.4831
  587TMC3     H 8706   4.490   2.659  16.310 -0.4011 -1.0687  0.1226
  587TMC3    H1 8707   4.569   2.382  16.003 -1.4475 -1.6024  0.8045
  587TMC3    H2 8708   0.086   2.390  16.370 -1.1008 -1.3045  1.0157
  587TMC3    C7 8709   0.071   2.288  16.128 -1.0370 -0.1634  0.3480
  587TMC3    C8 8710   4.707   2.606  16.457 -0.3649 -0.3780 -0.6068
  587TMC3    O1 8711   0.144   2.231  16.205  0.1028 -0.3828  0.5297
  587TMC3    O2 8712   0.098   2.576  16.488 -0.3696 -0.1519  1.1345
  588TMC3    C1 8713   1.903   0.033   9.379 -0.1022  0.3868  0.6862
  588TMC3    C2 8714   1.864   4.629   9.385 -0.0631  0.0962  0.0517
  588TMC3    C3 8715   1.936   4.542   9.462  0.1091  0.1107 -0.4020
  588TMC3    C4 8716   2.004   0.083   9.451 -0.5857  0.1083 -0.1194
  588TMC3    C5 8717   2.065   4.717   9.535  0.2276 -0.2138 -0.2216
  588TMC3    C6 8718   2.039   4.584   9.544  0.0845 -0.2936 -0.6044
  588TMC3     C 8719   1.808   0.126   9.319 -0.1245  0.1690  0.5629
  588TMC3     O 8720   1.760   0.109   9.204  0.1617 -0.1409 -0.1431
  588TMC3     H 8721   1.787   4.595   9.316 -0.9431 -1.6210  1.9034
  588TMC3    H1 8722   2.043   0.183   9.440 -0.0027 -0.4288 -2.8319
  588TMC3    H2 8723   2.109   4.530   9.606  1.9295 -0.3100 -2.7074
  588TMC3    C7 8724   2.144   0.047   9.640  0.0603 -0.0039  0.3902
  588TMC3    C8 8725   1.912   4.397   9.431 -0.4540 -0.5286  0.4326
  588TMC3    O1 8726   2.227   4.704   9.694  0.1237  0.1413 -0.0551
  588TMC3    O2 8727   1.834   4.391   9.336 -0.1855  0.2537  0.1249
  589TMC3    C1 8728   1.012   2.177   1.072 -0.1547  0.3655  0.2264
  589TMC3    C2 8729   1.067   2.177   1.202  0.0554  0.4817 -0.0665
  589TMC3    C3 8730   1.141   2.065   1.235  0.4815 -0.7436 -0.2556
  589TMC3    C4 8731   1.038   2.070   0.988  0.4121  0.1391 -0.1985
  589TMC3    C5 8732   1.108   1.959   1.034 -0.0404  0.0022 -0.1350
  589TMC3    C6 8733   1.164   1.955   1.158  0.0973 -0.5869  0.0513
  589TMC3     C 8734   0.984   2.296   1.002  0.3923 -0.9377 -0.1155
  589TMC3     O 8735   0.996   2.284   0.883  0.4442  0.2732 -0.5865
  589TMC3     H 8736   1.072   2.266   1.264  0.4957  0.7381 -0.4649
  589TMC3    H1 8737   0.989   2.068   0.891  0.2326  0.9569 -0.1228
  589TMC3    H2 8738   1.232   1.874   1.185  1.5404  1.1087  1.5647
  589TMC3    C7 8739   1.113   1.834   0.961  0.1974 -0.1004  0.1858
  589TMC3    C8 8740   1.202   2.067   1.368  0.9546 -0.0430 -0.7075
  589TMC3    O1 8741   1.168   1.743   1.022  0.4384 -0.0810  0.1232
  589TMC3    O2 8742   1.144   2.135   1.455 -0.3448  0.0359  0.1311
  590MPD2     C 8743   0.716   0.608  16.281 -0.4125  0.2272  0.1999
  590MPD2    C1 8744   0.665   0.735  16.280  0.6779  1.0617  0.2248
  590MPD2    C2 8745   0.756   0.839  16.252  0.1975  0.5504 -0.1678
  590MPD2    C3 8746   0.893   0.816  16.242  0.1085  0.3560  0.2514
  590MPD2    C4 8747   0.935   0.686  16.261 -0.5704  0.2662  0.0674
  590MPD2    C5 8748   0.846   0.586  16.280  0.0848  0.4042 -0.4641
  590MPD2     H 8749   0.715   0.938  16.235 -0.0363  0.3977 -0.5019
  590MPD2    H1 8750   1.038   0.656  16.275 -0.3781  1.9917  2.1362
  590MPD2    H2 8751   0.652   0.523  16.305  0.3183 -0.9359 -1.9377
  590MPD2    H3 8752   0.879   0.485  16.301  0.6836 -0.0325 -3.5225
  590MPD2     N 8753   0.980   0.915  16.193  0.4749  0.2408 -0.5305
  590MPD2    H5 8754   0.934   1.004  16.184  1.5291  0.5891 -2.4990
  590MPD2    N1 8755   0.524   0.761  16.302 -0.1128 -0.5030  0.4658
  590MPD2    H7 8756   0.456   0.686  16.292  0.3723 -0.7036 -1.3992
  591TMC3    C1 8757   1.165   1.021  16.093 -0.2049 -0.2568 -0.0650
  591TMC3    C2 8758   1.246   1.001  15.995 -0.0061 -0.2233 -0.6743
  591TMC3    C3 8759   1.280   1.110  15.919  0.2210  0.0178  0.0605
  591TMC3    C4 8760   1.119   1.145  16.121  0.7405 -0.3405  0.0368
  591TMC3    C5 8761   1.146   1.248  16.036 -0.1502 -0.2447  0.8666
  591TMC3    C6 8762   1.236   1.235  15.935 -0.4185  0.0292  0.0037
  591TMC3     C 8763   1.116   0.907  16.170 -0.5661 -0.1085 -0.8498
  591TMC3     O 8764   1.188   0.813  16.183 -0.4815  0.4684  0.7299
  591TMC3     H 8765   1.265   0.896  15.973 -0.5629 -0.7591  1.4024
  591TMC3    H1 8766   1.061   1.146  16.213 -0.3545  0.6808 -0.6765
  591TMC3    H2 8767   1.281   1.319  15.885  0.7908 -1.1675 -0.9297
  591TMC3    C7 8768   1.093   1.385  16.065  0.1610 -0.0503 -0.1238
  591TMC3    C8 8769   1.348   1.072  15.791 -0.1873 -0.0063  0.5785
  591TMC3    O1 8770   1.060   1.415  16.180  0.1518  0.4571  0.6957
  591TMC3    O2 8771   1.410   0.970  15.784 -0.3211  0.3353 -0.3539
  592MPD2     C 8772   1.172   2.879  11.381 -0.2591  0.7575 -0.0229
  592MPD2    C1 8773   1.206   2.926  11.511  0.2450 -0.0818 -0.3324
  592MPD2    C2 8774   1.155   2.866  11.621  0.5109  0.7433  0.6695
  592MPD2    C3 8775   1.069   2.759  11.604  0.1700  0.1461  0.1229
  592MPD2    C4 8776   1.025   2.723  11.479 -0.2237 -0.8222  0.4096
  592MPD2    C5 8777   1.079   2.777  11.363 -0.5714  0.0115  0.4784
  592MPD2     H 8778   1.181   2.893  11.722  0.1289  1.7719  0.4894
  592MPD2    H1 8779   0.950   2.646  11.471 -1.6007  0.6074 -0.3652
  592MPD2    H2 8780   1.218   2.929  11.297  1.5560 -1.1384 -0.1610
  592MPD2    H3 8781   1.054   2.731  11.268 -1.0064 -1.7090  1.4155
  592MPD2     N 8782   1.045   2.688  11.727  0.2571  0.1340 -0.5447
  592MPD2    H5 8783   1.090   2.730  11.808 -1.1733 -0.5254  0.5954
  592MPD2    N1 8784   1.292   3.036  11.521  0.3873  0.2608 -0.2908
  592MPD2    H7 8785   1.314   3.091  11.438  0.4999  0.8417  0.1263
  593TMC3    C1 8786   1.430   3.190  11.626 -0.3865  0.0427 -1.2159
  593TMC3    C2 8787   1.443   3.275  11.732 -0.5757 -0.0484  0.2518
  593TMC3    C3 8788   1.563   3.325  11.771  0.3472 -0.2396 -0.0422
  593TMC3    C4 8789   1.541   3.148  11.563 -0.3696 -0.3655 -0.1780
  593TMC3    C5 8790   1.666   3.193  11.603  0.0213  0.1287 -0.8013
  593TMC3    C6 8791   1.677   3.279  11.708 -0.3141  0.8230 -0.1105
  593TMC3     C 8792   1.330   3.088  11.643  0.1463  0.7536  0.8517
  593TMC3     O 8793   1.294   3.074  11.757  0.4826 -0.2365  0.5283
  593TMC3     H 8794   1.352   3.307  11.781  0.5944  2.0898  1.0431
  593TMC3    H1 8795   1.531   3.062  11.498 -0.2567 -0.3823 -0.1741
  593TMC3    H2 8796   1.770   3.327  11.736 -0.1329  0.6355 -0.3954
  593TMC3    C7 8797   1.767   3.200  11.495 -0.5917 -0.9432  0.2098
  593TMC3    C8 8798   1.576   3.447  11.840  0.1828 -0.6926 -0.0083
  593TMC3    O1 8799   1.863   3.271  11.511 -0.3868  0.6531  0.4333
  593TMC3    O2 8800   1.489   3.535  11.832  0.1126  0.2319  0.0721
  594MPD2     C 8801   4.548   1.863  13.526 -0.3144 -0.2023  0.1115
  594MPD2    C1 8802   4.521   1.872  13.664  0.1389  0.0396 -0.5101
  594MPD2    C2 8803   4.603   1.954  13.740 -0.7067  0.3158  0.5093
  594MPD2    C3 8804   4.700   2.032  13.673 -0.3287  0.6592 -0.3380
  594MPD2    C4 8805   4.723   2.019  13.533  0.5898 -0.8091  0.0309
  594MPD2    C5 8806   4.640   1.936  13.463  0.2978 -0.2981 -0.4048
  594MPD2     H 8807   4.585   1.965  13.846 -0.4168 -0.8331  0.6719
  594MPD2    H1 8808   0.061   2.084  13.472 -0.6720 -1.7595 -2.2704
  594MPD2    H2 8809   4.486   1.801  13.462  0.8489 -0.2863 -0.9412
  594MPD2    H3 8810   4.642   1.922  13.355 -1.3095  0.9870 -0.5985
  594MPD2     N 8811   0.051   2.117  13.754  0.2762  0.5993  0.1594
  594MPD2    H5 8812   0.026   2.148  13.847  0.7550 -1.5909  1.0267
  594MPD2    N1 8813   4.414   1.800  13.726 -0.3975  0.0577  0.4115
  594MPD2    H7 8814   4.354   1.741  13.670 -0.7278  0.4108  0.3951
  595TMC3    C1 8815   0.397   2.383  13.919 -0.2722 -0.2692  0.2883
  595TMC3    C2 8816   0.350   2.302  13.825  0.2843  0.9594 -0.0753
  595TMC3    C3 8817   0.222   2.270  13.828  0.5122 -0.3279  0.2940
  595TMC3    C4 8818   0.318   2.436  14.016 -0.0662 -0.2314  0.2763
  595TMC3    C5 8819   0.180   2.413  14.004  0.5439  0.5543  0.1252
  595TMC3    C6 8820   0.129   2.329  13.910 -0.2355 -0.1984  0.6399
  595TMC3     C 8821   0.538   2.385  13.944  0.4484 -0.0132  0.9887
  595TMC3     O 8822   0.570   2.402  14.059 -0.2166 -0.2230  0.0798
  595TMC3     H 8823   0.417   2.246  13.760  0.8956  3.5646 -1.6825
  595TMC3    H1 8824   0.366   2.506  14.083  0.6629 -0.7708  0.3188
  595TMC3    H2 8825   0.021   2.319  13.906 -0.1185 -1.0179 -0.4713
  595TMC3    C7 8826   0.084   2.456  14.109 -0.0392 -0.3738  0.2989
  595TMC3    C8 8827   0.175   2.179  13.727  0.4072 -0.1076  0.2711
  595TMC3    O1 8828   4.688   2.459  14.091  0.3293  0.0659 -0.3196
  595TMC3    O2 8829   0.245   2.172  13.626  0.4114  0.0418  0.3334
  596MPD2     C 8830   3.878   4.615  16.665 -0.0307  0.2367 -0.5081
  596MPD2    C1 8831   3.904   0.006  16.591  0.1855 -0.3653  0.1363
  596MPD2    C2 8832   3.938   4.712  16.458 -0.1415  0.0816 -0.6179
  596MPD2    C3 8833   3.950   4.586  16.393  0.0457  0.6678 -1.3519
  596MPD2    C4 8834   3.932   4.473  16.470 -0.1286  0.0192 -0.0673
  596MPD2    C5 8835   3.897   4.494  16.598 -0.6418 -0.0425 -0.6098
  596MPD2     H 8836   3.955   0.083  16.409  0.5219 -0.3089 -1.1351
  596MPD2    H1 8837   3.926   4.375  16.426 -0.2214 -1.3458  2.9880
  596MPD2    H2 8838   3.849   4.618  16.769  0.6426  1.0403 -0.3483
  596MPD2    H3 8839   3.883   4.403  16.655  0.4209 -1.1576 -2.1173
  596MPD2     N 8840   3.976   4.583  16.259 -0.4315 -0.5089  0.0588
  596MPD2    H5 8841   3.993   4.673  16.216 -1.4650 -0.2798  0.1286
  596MPD2    N1 8842   3.887   0.136  16.646  0.4455 -0.4575  0.2904
  596MPD2    H7 8843   3.895   0.218  16.587  0.8410  0.0860  1.1063
  597TMC3    C1 8844   3.832   0.297  16.806 -0.3190  0.8384 -0.2666
  597TMC3    C2 8845   3.923   0.387  16.766 -0.0351  0.2795 -0.2647
  597TMC3    C3 8846   3.927   0.509  16.831  0.0602  0.2406  0.6160
  597TMC3    C4 8847   3.748   0.326  16.911  0.2779 -0.2046  0.1681
  597TMC3    C5 8848   3.761   0.446  16.972 -0.2179  0.4226  0.1553
  597TMC3    C6 8849   3.847   0.544  16.930  0.3936  0.8807 -0.3096
  597TMC3     C 8850   3.860   0.160  16.780  0.1971 -0.5882  0.5072
  597TMC3     O 8851   3.819   0.089  16.872  0.7321  0.8197  0.2909
  597TMC3     H 8852   4.006   0.356  16.703 -1.7435  0.1310 -2.4303
  597TMC3    H1 8853   3.685   0.252  16.958  0.7743 -1.3314 -0.9292
  597TMC3    H2 8854   3.855   0.631  16.996  0.0995 -0.8650  2.0389
  597TMC3    C7 8855   3.637   0.484  17.048  0.0450  0.2210 -0.3320
  597TMC3    C8 8856   3.985   0.616  16.758 -0.1240 -0.0328 -0.7495
  597TMC3    O1 8857   3.581   0.396  17.111 -0.7297 -0.2396  0.0900
  597TMC3    O2 8858   3.994   0.726  16.814  0.4630 -0.2357  0.2503
  598TMC3    C1 8859   1.856   1.383  15.098 -0.5007  0.3282  0.5907
  598TMC3    C2 8860   1.731   1.348  15.046 -0.0867  1.4330 -0.2155
  598TMC3    C3 8861   1.709   1.370  14.914  0.8212 -0.4507  0.6076
  598TMC3    C4 8862   1.954   1.458  15.023  0.5635  0.3093 -0.3713
  598TMC3    C5 8863   1.924   1.473  14.896  0.6344 -0.1074  0.7903
  598TMC3    C6 8864   1.804   1.432  14.839 -0.1257 -0.4783 -0.5383
  598TMC3     C 8865   1.857   1.385  15.242  0.3334  0.0428  0.3353
  598TMC3     O 8866   1.743   1.372  15.293 -0.1798 -0.1281  0.3260
  598TMC3     H 8867   1.649   1.317  15.110 -0.0524 -1.3693 -1.5214
  598TMC3    H1 8868   2.048   1.490  15.067 -0.6658  0.9043  1.8324
  598TMC3    H2 8869   1.787   1.437  14.732 -0.0256 -0.1789 -0.5414
  598TMC3    C7 8870   2.008   1.556  14.816 -0.3385 -0.6169  0.7583
  598TMC3    C8 8871   1.604   1.300  14.838  0.3842 -0.6349 -0.3606
  598TMC3    O1 8872   1.978   1.558  14.698 -0.0631 -0.7252 -0.0194
  598TMC3    O2 8873   1.599   1.330  14.721  0.4545  0.5857  0.2997
  599MPD2     C 8874   2.530   4.027  16.039 -0.3548  0.1613 -0.6495
  599MPD2    C1 8875   2.433   3.936  16.026 -0.3075  0.2456  0.3611
  599MPD2    C2 8876   2.303   3.966  16.042 -0.8237  0.6306 -0.5209
  599MPD2    C3 8877   2.264   4.096  16.085  0.7569 -0.5476 -0.3874
  599MPD2    C4 8878   2.362   4.197  16.092  0.4774  0.2343 -0.1124
  599MPD2    C5 8879   2.491   4.155  16.064  0.5699  0.4538  0.0019
  599MPD2     H 8880   2.226   3.891  16.030  0.5347 -0.7790 -0.3053
  599MPD2    H1 8881   2.354   4.303  16.113  0.5148  0.1287  0.4225
  599MPD2    H2 8882   2.633   3.997  16.028 -0.2131  0.7493 -0.9300
  599MPD2    H3 8883   2.576   4.219  16.083  0.0104  1.4997 -1.0225
  599MPD2     N 8884   2.126   4.131  16.116  0.2602  0.0431  0.5065
  599MPD2    H5 8885   2.123   4.224  16.157 -1.9282  0.0791  0.2732
  599MPD2    N1 8886   2.484   3.805  16.020  0.0037 -0.3952  0.0221
  599MPD2    H7 8887   2.585   3.797  16.024  0.3731  3.6701 -0.8032
  600TMC3    C1 8888   1.898   4.122  16.145 -0.2994 -0.4941  0.5945
  600TMC3    C2 8889   1.791   4.040  16.175 -0.7480 -0.7503  0.0973
  600TMC3    C3 8890   1.681   4.096  16.231 -0.3296 -0.8299  0.1157
  600TMC3    C4 8891   1.903   4.257  16.190 -0.2292 -0.6189 -0.3798
  600TMC3    C5 8892   1.796   4.305  16.252 -0.2231  0.0414 -0.5344
  600TMC3    C6 8893   1.683   4.229  16.265 -0.3672  0.3921  0.0002
  600TMC3     C 8894   2.016   4.056  16.092 -0.8823  0.4000  0.2801
  600TMC3     O 8895   2.013   3.949  16.033 -0.0690  0.4102  0.1663
  600TMC3     H 8896   1.784   3.943  16.127  1.6049 -0.4957 -0.7708
  600TMC3    H1 8897   1.974   4.328  16.149  1.1381 -0.4889  2.2050
  600TMC3    H2 8898   1.602   4.260  16.330 -1.1199 -0.2837 -0.6261
  600TMC3    C7 8899   1.794   4.434  16.315 -0.0345  0.2690 -0.0311
  600TMC3    C8 8900   1.586   4.018  16.309 -1.0120  0.6646  0.1108
  600TMC3    O1 8901   1.688   4.491  16.324  0.5043  0.2864  0.3618
  600TMC3    O2 8902   1.570   4.056  16.427 -0.5729  0.0753  0.0265
  601MPD2     C 8903   4.263   1.855   0.124 -0.1486  0.1042  0.4694
  601MPD2    C1 8904   4.253   1.842  17.680 -0.2824 -0.2975 -0.3634
  601MPD2    C2 8905   4.201   1.722  17.632  0.7139  0.3051 -0.0603
  601MPD2    C3 8906   4.153   1.626   0.017 -0.0080  0.9128  0.0447
  601MPD2    C4 8907   4.151   1.641   0.155 -0.2822 -0.7089  0.3160
  601MPD2    C5 8908   4.207   1.758   0.204 -0.0496  0.2053  0.1224
  601MPD2     H 8909   4.209   1.703  17.525 -2.8392  1.1807 -0.4873
  601MPD2    H1 8910   4.135   1.573   0.237 -2.5319  0.0338  0.5126
  601MPD2    H2 8911   4.292   1.950   0.169 -0.6640  1.2492 -1.6004
  601MPD2    H3 8912   4.232   1.764   0.310  0.8357  0.7072 -0.1070
  601MPD2     N 8913   4.109   1.512  17.655 -0.4854 -0.0857  0.4805
  601MPD2    H5 8914   4.129   1.507  17.555 -1.5975  0.8714  0.2105
  601MPD2    N1 8915   4.279   1.946  17.590  0.2547 -0.0806 -0.1394
  601MPD2    H7 8916   4.258   1.931  17.492  0.7465 -0.7051 -0.1569
  602TMC3    C1 8917   4.261   2.168  17.526  0.0687 -0.1396  0.7676
  602TMC3    C2 8918   4.295   2.296  17.562  0.1121  0.2317 -0.2595
  602TMC3    C3 8919   4.230   2.399  17.499  0.5644  0.5615 -0.3608
  602TMC3    C4 8920   4.160   2.138  17.439  0.0554 -0.3472  0.2931
  602TMC3    C5 8921   4.095   2.243  17.386 -0.3842 -0.2159  0.2250
  602TMC3    C6 8922   4.130   2.376  17.412  0.6593  0.1159 -0.3796
  602TMC3     C 8923   4.302   2.072  17.625 -0.2137  0.3077  0.7154
  602TMC3     O 8924   4.364   2.111   0.024 -0.4264 -0.0536  0.2750
  602TMC3     H 8925   4.372   2.317  17.635 -0.9676  1.3105  0.5774
  602TMC3    H1 8926   4.124   2.039  17.415  2.2766 -1.0457 -0.1568
  602TMC3    H2 8927   4.088   2.453  17.348 -4.1327 -1.0575  1.3465
  602TMC3    C7 8928   3.957   2.211  17.344  0.1817  0.3385 -0.3706
  602TMC3    C8 8929   4.224   2.519  17.577 -0.5853  0.4428 -0.6223
  602TMC3    O1 8930   3.931   2.101  17.302 -0.1621  0.2057 -0.3203
  602TMC3    O2 8931   4.275   2.520  17.685 -0.3945  0.0816  0.0604
  603TMC3    C1 8932   1.494   2.497  11.013 -0.3823  0.6614  0.0072
  603TMC3    C2 8933   1.558   2.490  11.135  0.6027  0.5760  0.5974
  603TMC3    C3 8934   1.695   2.495  11.122 -0.8925  0.3785  0.1618
  603TMC3    C4 8935   1.555   2.510  10.893  0.0080 -0.1821 -0.8795
  603TMC3    C5 8936   1.693   2.520  10.893 -0.4617 -0.7888  0.6202
  603TMC3    C6 8937   1.764   2.516  11.009  0.3045  0.2199  0.1829
  603TMC3     C 8938   1.354   2.470  10.998  0.3952  0.0849 -0.1463
  603TMC3     O 8939   1.313   2.469  10.885  0.2419 -0.3030  0.1745
  603TMC3     H 8940   1.503   2.464  11.224  1.4664 -0.8377  0.7187
  603TMC3    H1 8941   1.511   2.523  10.796  0.2264  1.9250 -0.6981
  603TMC3    H2 8942   1.871   2.504  10.994  0.7097  1.5141  2.0516
  603TMC3    C7 8943   1.766   2.492  10.766  0.8132 -0.0088 -0.9469
  603TMC3    C8 8944   1.771   2.474  11.250 -0.0375 -0.2150 -0.3932
  603TMC3    O1 8945   1.869   2.426  10.770 -0.5082  0.2249  0.6651
  603TMC3    O2 8946   1.711   2.416  11.339  0.2575  0.6490  0.0113
  604MPD2     C 8947   2.874   1.023  16.393 -0.4448 -0.8543 -0.0862
  604MPD2    C1 8948   2.811   1.101  16.302 -0.3952  0.5351 -0.9815
  604MPD2    C2 8949   2.850   1.112  16.170 -0.4543  0.2201  0.6667
  604MPD2    C3 8950   2.949   1.032  16.116  0.0887 -0.1335 -0.6882
  604MPD2    C4 8951   3.006   0.946  16.204  0.2948 -0.7217 -0.5110
  604MPD2    C5 8952   2.969   0.943  16.340 -0.6967  0.8815  0.5471
  604MPD2     H 8953   2.801   1.177  16.098 -1.5447 -0.8350  0.4630
  604MPD2    H1 8954   3.092   0.887  16.176  0.7678  0.2598 -1.1070
  604MPD2    H2 8955   2.843   1.002  16.495 -1.1927 -0.1776 -0.1787
  604MPD2    H3 8956   3.018   0.869  16.402 -0.9559  0.9970  0.8877
  604MPD2     N 8957   2.982   1.057  15.984  0.2537 -0.2219 -0.2408
  604MPD2    H5 8958   2.942   1.139  15.939  0.0948 -0.1727 -0.0085
  604MPD2    N1 8959   2.711   1.179  16.353 -0.3016 -0.3185 -0.0124
  604MPD2    H7 8960   2.693   1.175  16.453  2.2177  2.0057  0.5204
  605TMC3    C1 8961   2.554   1.348  16.384 -0.4729 -0.7646  0.5413
  605TMC3    C2 8962   2.614   1.414  16.492  0.5119 -0.1151  0.0119
  605TMC3    C3 8963   2.544   1.495  16.573  0.3377  0.1186 -0.2358
  605TMC3    C4 8964   2.425   1.381  16.352  0.3011  0.6417 -0.3597
  605TMC3    C5 8965   2.356   1.462  16.437  0.2174 -0.3473 -0.1631
  605TMC3    C6 8966   2.408   1.522  16.546 -0.1981 -0.3236  0.0870
  605TMC3     C 8967   2.634   1.265  16.287 -0.1380  0.6434 -0.7146
  605TMC3     O 8968   2.586   1.262  16.173  0.2092  0.0169  0.1532
  605TMC3     H 8969   2.712   1.390  16.531  0.4552  1.5905  1.1732
  605TMC3    H1 8970   2.382   1.314  16.278  2.3707  0.8463 -1.7360
  605TMC3    H2 8971   2.357   1.582  16.620  1.0229  0.3634  0.3685
  605TMC3    C7 8972   2.215   1.503  16.414 -0.2660  0.3258  0.2215
  605TMC3    C8 8973   2.616   1.588  16.659 -0.3818 -0.5643  0.5060
  605TMC3    O1 8974   2.168   1.587  16.490 -0.7102 -0.1474  0.1142
  605TMC3    O2 8975   2.724   1.545  16.687 -0.0622  0.2773 -0.0970
  606TMC3    C1 8976   4.397   0.363   0.365 -0.1263  0.6040  0.3867
  606TMC3    C2 8977   4.523   0.312   0.393 -0.2845 -0.1537  0.6587
  606TMC3    C3 8978   4.544   0.176   0.371 -0.4873  0.7651 -0.1668
  606TMC3    C4 8979   4.295   0.288   0.314 -0.5237 -0.0933  0.3079
  606TMC3    C5 8980   4.320   0.154   0.280 -0.2121 -0.0892  0.0128
  606TMC3    C6 8981   4.444   0.104   0.308  0.4848 -0.6551 -0.5513
  606TMC3     C 8982   4.370   0.504   0.370  0.0546  0.1878  0.3168
  606TMC3     O 8983   4.471   0.571   0.358 -0.6269 -0.2433 -0.5061
  606TMC3     H 8984   4.583   0.381   0.451 -0.2672  2.0466 -1.9887
  606TMC3    H1 8985   4.203   0.336   0.284  0.3339  2.2299  1.4647
  606TMC3    H2 8986   4.467   4.722   0.296  3.7710  0.2137 -1.6474
  606TMC3    C7 8987   4.265   0.102   0.155  0.4737 -0.0623  0.3115
  606TMC3    C8 8988   4.677   0.145   0.322 -0.3148  0.5216 -0.5688
  606TMC3    O1 8989   4.223   0.186   0.075 -0.2124 -0.0745 -0.0087
  606TMC3    O2 8990   4.706   0.030   0.311  0.0743 -0.0765 -0.0998
  607MPD2     C 8991   1.230   2.337  11.577 -0.1125  0.2418 -0.5652
  607MPD2    C1 8992   1.294   2.417  11.673  0.2036  0.3014 -0.1483
  607MPD2    C2 8993   1.276   2.378  11.805 -0.2322  1.0586  0.3586
  607MPD2    C3 8994   1.202   2.268  11.837  0.4636 -0.3456 -0.4213
  607MPD2    C4 8995   1.149   2.178  11.743 -0.2832  0.0653  0.6536
  607MPD2    C5 8996   1.163   2.218  11.610  0.7235  0.2767  0.0959
  607MPD2     H 8997   1.319   2.445  11.879 -1.3831  0.7738  1.2910
  607MPD2    H1 8998   1.091   2.088  11.765  2.3891 -1.6498  0.6438
  607MPD2    H2 8999   1.235   2.367  11.473 -1.7750  0.8709 -0.4704
  607MPD2    H3 9000   1.120   2.152  11.536 -0.1291 -0.4844  1.2521
  607MPD2     N 9001   1.198   2.247  11.976  0.4123 -0.1111 -0.0450
  607MPD2    H5 9002   1.227   2.324  12.036  2.2942  0.1059 -1.2725
  607MPD2    N1 9003   1.378   2.531  11.655  0.2990  0.0859 -0.3714
  607MPD2    H7 9004   1.410   2.581  11.737 -1.7199  1.7404 -0.5887
  608TMC3    C1 9005   1.485   2.704  11.551  0.3508 -0.3079  1.1295
  608TMC3    C2 9006   1.484   2.770  11.672  0.3092 -0.2113  0.3998
  608TMC3    C3 9007   1.590   2.846  11.705  0.6189 -0.4747  0.5053
  608TMC3    C4 9008   1.583   2.721  11.455 -0.3818 -0.1369  0.4406
  608TMC3    C5 9009   1.690   2.796  11.496  0.1737  0.4156  0.3540
  608TMC3    C6 9010   1.699   2.852  11.618 -0.1474 -1.3447 -0.1059
  608TMC3     C 9011   1.408   2.590  11.531  0.0497  0.2845 -0.4511
  608TMC3     O 9012   1.387   2.546  11.418  0.5583  0.0813 -0.0189
  608TMC3     H 9013   1.400   2.776  11.740 -1.2839 -0.9760 -1.4993
  608TMC3    H1 9014   1.592   2.663  11.364 -5.3374 -0.8130  0.3623
  608TMC3    H2 9015   1.783   2.914  11.647 -2.2388  2.1401 -1.4316
  608TMC3    C7 9016   1.802   2.813  11.403  0.0417  0.1667  0.3257
  608TMC3    C8 9017   1.609   2.873  11.840  0.3517  0.4180  0.2877
  608TMC3    O1 9018   1.774   2.800  11.285  0.4327 -0.0381 -0.0252
  608TMC3    O2 9019   1.659   2.979  11.875 -0.9353  0.2052  0.2453
  609TMC3    C1 9020   4.017   0.860   9.470  0.4164 -0.2153  0.2618
  609TMC3    C2 9021   3.910   0.791   9.516  0.0684  0.2351 -0.3186
  609TMC3    C3 9022   3.904   0.651   9.509 -0.2942  0.3261 -0.2690
  609TMC3    C4 9023   4.117   0.788   9.411  0.8424  0.3974  0.3451
  609TMC3    C5 9024   4.110   0.653   9.408  0.6066  0.2275 -0.1707
  609TMC3    C6 9025   4.000   0.582   9.443 -0.4889 -0.5546 -0.2987
  609TMC3     C 9026   4.034   1.000   9.508  0.1555  0.3405 -0.0629
  609TMC3     O 9027   3.928   1.063   9.513 -0.0452 -0.2796  0.2536
  609TMC3     H 9028   3.826   0.848   9.554  0.9902 -0.3399  2.6162
  609TMC3    H1 9029   4.201   0.847   9.375  0.9545 -0.7170 -1.2252
  609TMC3    H2 9030   3.992   0.474   9.438 -0.4754 -0.5258 -0.9158
  609TMC3    C7 9031   4.239   0.586   9.381 -0.1037 -0.1867 -0.2432
  609TMC3    C8 9032   3.776   0.591   9.525  0.2955  0.2698  0.0650
  609TMC3    O1 9033   4.334   0.662   9.369  0.0393 -0.2467  0.0144
  609TMC3    O2 9034   3.687   0.674   9.511 -0.0113  0.2887  0.9358
  610TMC3    C1 9035   1.704   2.524  12.552 -0.0559  0.2317 -0.3400
  610TMC3    C2 9036   1.765   2.564  12.436 -0.2125 -0.0574 -0.6242
  610TMC3    C3 9037   1.871   2.496  12.388 -0.3067  0.6976  0.0894
  610TMC3    C4 9038   1.744   2.403  12.615 -0.4083  0.2528  0.2242
  610TMC3    C5 9039   1.865   2.356  12.570  0.0317 -0.1625 -0.4268
  610TMC3    C6 9040   1.932   2.397  12.457 -0.4820  0.0932 -0.3937
  610TMC3     C 9041   1.639   2.616  12.640  0.2331 -0.2781  0.7139
  610TMC3     O 9042   1.549   2.573  12.711  0.1570  0.2191  0.1356
  610TMC3     H 9043   1.732   2.649  12.379 -1.7348  0.0796  0.4342
  610TMC3    H1 9044   1.687   2.367  12.699 -0.8242  2.8796  1.0807
  610TMC3    H2 9045   2.031   2.365  12.428 -0.0528  2.2617 -1.3354
  610TMC3    C7 9046   1.951   2.276  12.654 -1.1504  0.3204  1.2176
  610TMC3    C8 9047   1.956   2.542  12.272  0.0214 -0.4173  0.3050
  610TMC3    O1 9048   2.034   2.215  12.593 -0.6956 -0.2303 -0.7736
  610TMC3    O2 9049   2.029   2.450  12.227  0.6595 -0.2241  0.4125
  611MPD2     C 9050   0.811   2.780   9.667  0.0525  0.0151 -0.5868
  611MPD2    C1 9051   0.848   2.725   9.790 -0.2849  0.6283 -0.1115
  611MPD2    C2 9052   0.979   2.722   9.831 -0.9483  0.1842 -0.1774
  611MPD2    C3 9053   1.076   2.768   9.745 -0.8014 -0.0794 -0.1523
  611MPD2    C4 9054   1.038   2.815   9.617 -0.2810  0.0241  0.4352
  611MPD2    C5 9055   0.910   2.829   9.583 -0.0323  0.0034 -0.4832
  611MPD2     H 9056   1.014   2.687   9.928 -0.4546 -0.0402 -0.4372
  611MPD2    H1 9057   1.111   2.848   9.544  1.0782  0.9230  2.2022
  611MPD2    H2 9058   0.708   2.797   9.637 -0.2280  1.3193  1.1130
  611MPD2    H3 9059   0.888   2.864   9.482  0.9617  0.3978 -0.5676
  611MPD2     N 9060   1.214   2.763   9.787 -0.3942  0.1759 -0.4578
  611MPD2    H5 9061   1.227   2.745   9.886 -1.1149  0.9088 -0.2291
  611MPD2    N1 9062   0.742   2.683   9.873 -0.4325 -0.6380  0.3953
  611MPD2    H7 9063   0.656   2.650   9.829 -0.6875 -1.4648  1.5128
  612TMC3    C1 9064   1.441   2.803   9.802 -0.4218  0.0016  0.2297
  612TMC3    C2 9065   1.449   2.711   9.904  0.2039  0.1885  0.2673
  612TMC3    C3 9066   1.515   2.739  10.020 -0.2058  0.1380  0.6293
  612TMC3    C4 9067   1.502   2.920   9.809  0.5186  0.2980  0.0066
  612TMC3    C5 9068   1.573   2.940   9.918 -0.2016 -0.1363  0.3798
  612TMC3    C6 9069   1.578   2.859  10.026  0.2256  0.9745  0.6168
  612TMC3     C 9070   1.324   2.804   9.718 -0.3021 -0.8786  0.5322
  612TMC3     O 9071   1.329   2.854   9.605 -0.5131 -0.1824 -0.0566
  612TMC3     H 9072   1.414   2.609   9.894 -1.0744  0.7161 -0.6584
  612TMC3    H1 9073   1.491   3.000   9.737  0.0923 -0.4708 -0.7810
  612TMC3    H2 9074   1.661   2.871  10.095  0.6564  0.9668  0.1005
  612TMC3    C7 9075   1.660   3.051   9.923  0.4221  0.1968  0.0308
  612TMC3    C8 9076   1.591   2.637  10.079 -0.2429  0.1875 -0.1407
  612TMC3    O1 9077   1.661   3.098  10.037  0.7712  0.3332  0.0678
  612TMC3    O2 9078   1.630   2.549  10.005 -0.0980  0.1946  0.6731
  613MPD2     C 9079   0.274   0.160  16.078 -0.0266 -0.3856  0.0744
  613MPD2    C1 9080   0.354   0.062  16.026 -0.2962 -0.4329  0.0420
  613MPD2    C2 9081   0.309   4.661  16.004 -0.4006 -0.2905  0.2576
  613MPD2    C3 9082   0.179   4.621  16.033 -0.6109  0.3581 -0.0647
  613MPD2    C4 9083   0.093   4.722  16.070 -0.4772  0.4328  0.6745
  613MPD2    C5 9084   0.141   0.126  16.094  0.0908 -0.5533  0.3085
  613MPD2     H 9085   0.370   4.592  15.946 -0.9004 -0.3884 -0.1516
  613MPD2    H1 9086   4.712   4.700  16.090 -0.3009 -0.0294  1.0713
  613MPD2    H2 9087   0.303   0.262  16.103  2.0334 -0.6107 -1.3779
  613MPD2    H3 9088   0.075   0.205  16.128  2.9089  0.8995  2.5028
  613MPD2     N 9089   0.139   4.492  15.997 -0.1889  0.0460 -0.1483
  613MPD2    H5 9090   0.211   4.430  15.962  1.2644  1.4268  0.3746
  613MPD2    N1 9091   0.490   0.097  16.010  0.1651 -0.1714  0.1465
  613MPD2    H7 9092   0.517   0.195  16.017 -0.5500  0.0770 -0.4907
  614TMC3    C1 9093   0.697   0.084  15.888  0.4129 -0.6521 -0.3747
  614TMC3    C2 9094   0.774   4.701  15.840 -0.3935 -0.2255 -0.3974
  614TMC3    C3 9095   0.802   4.694  15.703 -0.0009  0.4340  0.5360
  614TMC3    C4 9096   0.652   0.181  15.809 -0.1272 -0.1445  0.8523
  614TMC3    C5 9097   0.668   0.164  15.674 -0.1783 -0.8748  0.1230
  614TMC3    C6 9098   0.735   0.057  15.619  0.3762 -0.5045 -0.3982
  614TMC3     C 9099   0.585   0.015  15.951 -0.1839  0.9534  0.5424
  614TMC3     O 9100   0.596   4.621  15.935 -0.5813 -0.6386 -0.2966
  614TMC3     H 9101   0.821   4.629  15.905 -0.9870 -1.4491 -1.3196
  614TMC3    H1 9102   0.578   0.252  15.846 -0.7656 -0.0415 -0.6483
  614TMC3    H2 9103   0.734   0.032  15.513 -0.2972  1.3268 -0.8250
  614TMC3    C7 9104   0.568   0.239  15.595 -0.0633 -0.3032  0.0899
  614TMC3    C8 9105   0.816   4.557  15.657 -0.6729 -0.4877  0.7208
  614TMC3    O1 9106   0.539   0.352  15.634  0.5116  0.1518 -0.2977
  614TMC3    O2 9107   0.852   4.531  15.541  0.5620  0.2547  0.0936
  615MPD2     C 9108   0.125   1.355  16.221  0.2418  0.9327  0.3591
  615MPD2    C1 9109   4.718   1.369  16.269  0.3448  0.3217 -0.3644
  615MPD2    C2 9110   4.612   1.294  16.221  0.5890  0.5353  0.3372
  615MPD2    C3 9111   4.636   1.204  16.115 -0.4927 -0.3813 -0.0134
  615MPD2    C4 9112   0.040   1.195  16.062  0.4623  0.1119 -0.5288
  615MPD2    C5 9113   0.142   1.267  16.117 -0.4012 -0.1501  0.3998
  615MPD2     H 9114   4.515   1.302  16.269 -0.3949 -1.1615 -1.3453
  615MPD2    H1 9115   0.057   1.136  15.972  0.9406  1.4473 -1.3090
  615MPD2    H2 9116   0.209   1.405  16.268  2.4436 -1.1298 -1.3967
  615MPD2    H3 9117   0.242   1.260  16.075  0.4906 -0.0686  2.5087
  615MPD2     N 9118   4.529   1.138  16.051 -0.2797  0.3391 -0.0070
  615MPD2    H5 9119   4.568   1.080  15.977 -0.2473  0.4480 -0.0766
  615MPD2    N1 9120   4.689   1.464  16.370 -0.2784  0.0771 -0.1611
  615MPD2    H7 9121   4.591   1.476  16.394 -0.2389  1.0860 -0.4849
  616TMC3    C1 9122   0.018   1.648  16.509 -0.2237  0.2426 -0.1750
  616TMC3    C2 9123   0.122   1.715  16.568 -0.5659  0.1988  0.1251
  616TMC3    C3 9124   0.134   1.846  16.541 -0.3036  0.0241 -0.5410
  616TMC3    C4 9125   4.638   1.722  16.445 -0.0766  0.6619 -0.2391
  616TMC3    C5 9126   4.652   1.857  16.425 -0.8054 -0.1026  0.1138
  616TMC3    C6 9127   0.039   1.919  16.470 -0.4300  0.3219 -0.4494
  616TMC3     C 9128   0.061   1.521  16.455 -0.1136  0.3645 -0.3699
  616TMC3     O 9129   0.180   1.496  16.467  0.3854 -0.3603 -0.7054
  616TMC3     H 9130   0.208   1.668  16.613 -1.2766 -0.7182  0.5179
  616TMC3    H1 9131   4.545   1.672  16.420  1.0240 -1.3615 -0.3108
  616TMC3    H2 9132   0.054   2.026  16.469  1.4225  0.0473 -2.1131
  616TMC3    C7 9133   4.544   1.914  16.356 -0.7393  0.4769  0.3153
  616TMC3    C8 9134   0.270   1.902  16.549  0.4539  0.1355  0.8810
  616TMC3    O1 9135   4.486   1.846  16.270  0.8639 -0.3848  0.3094
  616TMC3    O2 9136   0.341   1.895  16.645  0.7198  0.3209  0.6423
  617MPD2     C 9137   2.010   4.106  13.438 -0.0309  0.1858 -0.4056
  617MPD2    C1 9138   2.055   4.141  13.564  0.0734  0.0729 -0.0320
  617MPD2    C2 9139   1.984   4.105  13.675  0.3442  0.0291  0.3994
  617MPD2    C3 9140   1.857   4.033  13.664 -0.0017  1.3987  0.8107
  617MPD2    C4 9141   1.808   4.012  13.536  0.8636  0.5377 -0.7049
  617MPD2    C5 9142   1.884   4.047  13.428  0.2280  0.3408 -0.0027
  617MPD2     H 9143   2.023   4.130  13.773 -2.4398  0.2848  1.4484
  617MPD2    H1 9144   1.722   3.949  13.520 -0.2523  1.6663  0.9774
  617MPD2    H2 9145   2.054   4.126  13.341  1.4652 -0.9119  0.0456
  617MPD2    H3 9146   1.835   4.038  13.331  1.5712 -0.4904 -0.6119
  617MPD2     N 9147   1.791   3.964  13.761 -0.3487 -0.6904  0.2294
  617MPD2    H5 9148   1.709   3.912  13.732  2.2695 -5.2697  0.9345
  617MPD2    N1 9149   2.187   4.196  13.578 -0.1300  0.4814 -0.7414
  617MPD2    H7 9150   2.239   4.208  13.492 -0.4730 -0.7327 -1.1170
  618TMC3    C1 9151   2.380   4.258  13.690  0.3524  0.4036  0.2348
  618TMC3    C2 9152   2.449   4.150  13.639  0.0734  0.4006 -0.0250
  618TMC3    C3 9153   2.585   4.151  13.653  0.1431  0.0217 -0.0067
  618TMC3    C4 9154   2.441   4.355  13.761  0.3039 -0.1641  0.5424
  618TMC3    C5 9155   2.579   4.352  13.767  0.4913  0.3412  0.3126
  618TMC3    C6 9156   2.652   4.250  13.713 -0.5890  0.3751  0.0843
  618TMC3     C 9157   2.241   4.242  13.695  0.9366  0.3188 -0.0513
  618TMC3     O 9158   2.187   4.275  13.799 -0.0411 -0.0174  0.0696
  618TMC3     H 9159   2.399   4.088  13.565  1.5127 -0.1686 -0.5242
  618TMC3    H1 9160   2.390   4.448  13.786  0.4897  0.5578 -1.7420
  618TMC3    H2 9161   2.757   4.241  13.737 -0.9814 -3.5463  0.3031
  618TMC3    C7 9162   2.653   4.469  13.830  0.8320  0.3857  0.4956
  618TMC3    C8 9163   2.650   4.045  13.587 -0.0677 -0.0281 -0.3089
  618TMC3    O1 9164   2.572   4.548  13.878  0.0353 -0.3459  0.0705
  618TMC3    O2 9165   2.585   3.950  13.553  0.1344 -0.0616  0.2562
  619MPD2     C 9166   4.307   0.761  13.421 -0.1163  0.2726 -0.2643
  619MPD2    C1 9167   4.244   0.837  13.328 -0.8164  0.4622 -0.2684
  619MPD2    C2 9168   4.112   0.881  13.349 -0.0547 -0.2973 -0.4837
  619MPD2    C3 9169   4.039   0.840  13.458  0.4740  0.7073 -0.5423
  619MPD2    C4 9170   4.104   0.766  13.552 -0.2144 -0.2907 -0.1480
  619MPD2    C5 9171   4.236   0.732  13.533 -0.0283  0.2488 -0.0169
  619MPD2     H 9172   4.062   0.945  13.276  0.1819 -1.6258 -1.8067
  619MPD2    H1 9173   4.061   0.746  13.650 -1.3167  1.0441 -0.3590
  619MPD2    H2 9174   4.408   0.725  13.408 -0.9015 -1.3539 -1.8553
  619MPD2    H3 9175   4.292   0.677  13.608 -0.0010 -0.4907 -0.5774
  619MPD2     N 9176   3.901   0.854  13.477  0.3040 -0.1904 -0.4145
  619MPD2    H5 9177   3.867   0.829  13.570  1.0728 -0.4700 -0.2089
  619MPD2    N1 9178   4.302   0.871  13.205  0.9572 -0.0367 -0.0629
  619MPD2    H7 9179   4.239   0.883  13.126  1.9132 -1.3154 -1.0498
  620TMC3    C1 9180   4.475   0.948  13.069 -1.0694  0.3973 -0.6008
  620TMC3    C2 9181   4.391   0.971  12.965  0.0237 -0.2432 -0.7948
  620TMC3    C3 9182   4.434   1.066  12.871 -0.5984 -0.2388  0.3502
  620TMC3    C4 9183   4.590   1.029  13.083  0.2964  0.6013  0.3599
  620TMC3    C5 9184   4.611   1.138  13.007 -0.3649  0.0893 -0.3773
  620TMC3    C6 9185   4.528   1.163  12.896  0.3402  0.5776 -0.2030
  620TMC3     C 9186   4.437   0.869  13.182 -0.3190 -0.5457  0.2295
  620TMC3     O 9187   4.519   0.858  13.271  0.0146 -0.2510  0.7313
  620TMC3     H 9188   4.304   0.910  12.946  0.0540  0.2598 -2.5269
  620TMC3    H1 9189   4.666   1.003  13.156  0.0304 -2.7164 -0.5512
  620TMC3    H2 9190   4.547   1.245  12.829  0.0432  0.6576 -0.1875
  620TMC3    C7 9191   4.610   1.256  13.085  0.4121 -0.0183  0.7951
  620TMC3    C8 9192   4.329   1.115  12.789 -0.3936 -0.2842 -0.0608
  620TMC3    O1 9193   4.573   1.357  13.022 -0.8718 -0.3752  0.1612
  620TMC3    O2 9194   4.365   1.186  12.694 -0.0564 -0.0410  0.0548
  621MPD2     C 9195   4.468   1.265  10.407  0.2045  0.0921  1.0654
  621MPD2    C1 9196   4.365   1.176  10.389 -0.2514  1.0426  0.0376
  621MPD2    C2 9197   4.253   1.233  10.323  1.0169 -1.1237  0.8589
  621MPD2    C3 9198   4.240   1.366  10.278 -0.4915 -0.8046  0.3483
  621MPD2    C4 9199   4.347   1.452  10.306  0.4474  0.4787 -0.0613
  621MPD2    C5 9200   4.454   1.395  10.369  0.3197 -0.6089  0.2076
  621MPD2     H 9201   4.169   1.169  10.301  0.4585 -0.4568  1.0526
  621MPD2    H1 9202   4.345   1.559  10.291 -1.7884  0.6589  1.5063
  621MPD2    H2 9203   4.563   1.258  10.458  0.4069 -2.6734  0.3023
  621MPD2    H3 9204   4.536   1.463  10.391 -0.5451  0.3630  0.4201
  621MPD2     N 9205   4.127   1.392  10.204  0.5187  0.2228  0.3397
  621MPD2    H5 9206   4.057   1.319  10.195  1.7473 -1.0174  0.6954
  621MPD2    N1 9207   4.370   1.034  10.406 -0.3618  0.6300  0.1736
  621MPD2    H7 9208   4.295   0.974  10.375  0.3690 -0.5353  0.6727
  622TMC3    C1 9209   4.463   0.820  10.445 -0.2109 -0.0314  0.2276
  622TMC3    C2 9210   4.331   0.773  10.451 -0.1483 -0.7360 -0.6882
  622TMC3    C3 9211   4.307   0.636  10.462 -0.2453  0.3589 -0.0917
  622TMC3    C4 9212   4.568   0.730  10.452 -0.2448 -0.5017 -0.0623
  622TMC3    C5 9213   4.538   0.598  10.463  0.3216 -0.4613 -0.0134
  622TMC3    C6 9214   4.408   0.547  10.465  0.4173  0.3586  0.6566
  622TMC3     C 9215   4.487   0.963  10.439 -0.0950  0.8955 -0.6636
  622TMC3     O 9216   4.603   1.000  10.434  0.4016 -0.2142  0.3264
  622TMC3     H 9217   4.247   0.834  10.483  1.6297  0.5140  1.5999
  622TMC3    H1 9218   4.672   0.758  10.460 -0.0717 -0.8341 -1.0423
  622TMC3    H2 9219   4.376   0.444  10.469  1.9689 -0.1666 -0.1502
  622TMC3    C7 9220   4.650   0.501  10.447  0.5685  0.0908 -0.1228
  622TMC3    C8 9221   4.167   0.590  10.462 -0.1278 -0.1211  0.2167
  622TMC3    O1 9222   0.041   0.520  10.492  0.1172 -0.3557 -0.1539
  622TMC3    O2 9223   4.141   0.479  10.508 -0.4922 -0.0209  0.1466
  623MPD2     C 9224   2.941   1.788  15.995  0.0067 -0.7342  0.7100
  623MPD2    C1 9225   2.862   1.813  16.112  0.2277 -0.5666  0.5804
  623MPD2    C2 9226   2.920   1.874  16.215 -0.3290  0.6749 -0.4007
  623MPD2    C3 9227   3.053   1.907  16.213  0.2776  0.9382 -0.0864
  623MPD2    C4 9228   3.132   1.879  16.102 -0.7905 -0.6775 -0.2652
  623MPD2    C5 9229   3.080   1.814  15.999 -0.4884 -0.1821  0.1006
  623MPD2     H 9230   2.863   1.891  16.306  0.0010 -1.5771  0.2078
  623MPD2    H1 9231   3.239   1.896  16.100 -0.9032  0.0086 -0.6259
  623MPD2    H2 9232   2.890   1.750  15.907  0.6610  0.4557 -0.1797
  623MPD2    H3 9233   3.148   1.787  15.919 -0.4275  0.8836 -0.1996
  623MPD2     N 9234   3.107   1.958  16.338 -0.1595 -0.3109  0.2038
  623MPD2    H5 9235   3.047   1.977  16.418 -3.3511 -2.5243 -1.6760
  623MPD2    N1 9236   2.726   1.776  16.108 -1.3526  0.1762  0.1494
  623MPD2    H7 9237   2.685   1.762  16.016  0.1860 -0.4379 -0.4585
  624TMC3    C1 9238   3.370   1.841  16.648 -0.2851 -0.7345  0.6016
  624TMC3    C2 9239   3.271   1.842  16.740  0.1707  0.4677 -0.5647
  624TMC3    C3 9240   3.162   1.919  16.710 -0.2220  0.5044  0.4608
  624TMC3    C4 9241   3.376   1.926  16.536  0.3515  0.4564 -0.1434
  624TMC3    C5 9242   3.265   2.004  16.509  0.0209 -0.0157 -0.6102
  624TMC3    C6 9243   3.162   2.002  16.601 -0.4111 -0.1577  0.2043
  624TMC3     C 9244   3.480   1.749  16.671  0.1866 -0.3232 -0.0385
  624TMC3     O 9245   3.513   1.717  16.786  0.6583 -1.5364 -0.5367
  624TMC3     H 9246   3.270   1.768  16.819 -0.0543 -1.3506 -2.2739
  624TMC3    H1 9247   3.468   1.929  16.479 -0.7111 -0.1842 -1.8715
  624TMC3    H2 9248   3.069   2.050  16.571 -0.4896 -0.3809  0.0860
  624TMC3    C7 9249   3.240   1.989  16.364  0.7181  0.1766  0.1415
  624TMC3    C8 9250   3.036   1.869  16.761 -0.0304  0.4022  0.6416
  624TMC3    O1 9251   3.335   1.986  16.291  0.3468 -0.3052 -0.6131
  624TMC3    O2 9252   3.024   1.751  16.794  0.2038  0.4559  0.0868
  625MPD2     C 9253   3.688   2.145   0.664 -0.5423  0.2656  0.3329
  625MPD2    C1 9254   3.738   2.261   0.715  0.7177  0.0824  0.4574
  625MPD2    C2 9255   3.855   2.247   0.791  0.3565  0.3642  0.5410
  625MPD2    C3 9256   3.919   2.125   0.812 -0.6248  0.5371 -0.5665
  625MPD2    C4 9257   3.859   2.011   0.763 -0.0560  0.2096  0.2929
  625MPD2    C5 9258   3.740   2.021   0.698  0.7968 -0.1222  0.3843
  625MPD2     H 9259   3.903   2.334   0.834  0.0685  0.6816  0.2149
  625MPD2    H1 9260   3.905   1.914   0.780  0.7845  0.3072 -1.3627
  625MPD2    H2 9261   3.594   2.144   0.609 -0.3355  1.9435 -0.0606
  625MPD2    H3 9262   3.684   1.934   0.665  2.2091 -1.5237  1.6916
  625MPD2     N 9263   4.034   2.122   0.897  1.2453 -0.5608 -0.1758
  625MPD2    H5 9264   4.068   2.212   0.929  0.0721  0.0398 -0.6335
  625MPD2    N1 9265   3.672   2.384   0.693  0.0254  0.4314 -0.5044
  625MPD2    H7 9266   3.714   2.459   0.747 -0.7092 -0.1991  0.9518
  626TMC3    C1 9267   3.525   2.541   0.595 -0.8148 -0.1135 -0.0362
  626TMC3    C2 9268   3.464   2.579   0.476 -0.0092 -0.1050  0.5558
  626TMC3    C3 9269   3.444   2.714   0.464 -0.1643  0.1804 -0.4763
  626TMC3    C4 9270   3.546   2.622   0.703 -0.1896 -0.0145  0.0966
  626TMC3    C5 9271   3.515   2.755   0.686  0.1771 -0.0172  0.4753
  626TMC3    C6 9272   3.468   2.804   0.565 -0.0630  0.2416  0.2604
  626TMC3     C 9273   3.569   2.408   0.607  0.7856 -0.3496  0.5918
  626TMC3     O 9274   3.522   2.332   0.520  0.1671 -0.2410  0.7818
  626TMC3     H 9275   3.434   2.511   0.398  0.8181  0.9688 -0.6958
  626TMC3    H1 9276   3.567   2.588   0.803  2.0800 -0.7730 -0.6301
  626TMC3    H2 9277   3.451   2.909   0.548 -2.0050 -0.2032 -0.5483
  626TMC3    C7 9278   3.463   2.834   0.791 -0.1231  0.4355  0.6108
  626TMC3    C8 9279   3.400   2.779   0.339  0.6984  0.0035 -0.8160
  626TMC3    O1 9280   3.466   2.958   0.775  0.2657  0.5014  0.1203
  626TMC3    O2 9281   3.413   2.901   0.323  0.6550  0.8338 -0.1505
  627MPD2     C 9282   2.439   2.828  14.379 -0.7469 -0.2432  0.3308
  627MPD2    C1 9283   2.388   2.835  14.507  0.2947 -0.2870 -0.1154
  627MPD2    C2 9284   2.312   2.731  14.563 -0.5431  0.0059 -1.2095
  627MPD2    C3 9285   2.277   2.618  14.483  0.6176  0.0918  0.3913
  627MPD2    C4 9286   2.329   2.614  14.354 -0.3111  0.4164  0.3975
  627MPD2    C5 9287   2.414   2.714  14.306  0.8449  0.0315 -0.3712
  627MPD2     H 9288   2.261   2.734  14.659  1.6848  0.4777 -0.0467
  627MPD2    H1 9289   2.304   2.536  14.284 -0.6091  0.2597  0.6783
  627MPD2    H2 9290   2.493   2.905  14.325 -2.7374  0.8981 -0.0235
  627MPD2    H3 9291   2.462   2.697  14.211  2.2037 -1.5285  0.5965
  627MPD2     N 9292   2.174   2.533  14.518  0.6105 -0.4472 -0.0120
  627MPD2    H5 9293   2.154   2.553  14.615  1.1674  1.8253 -0.3595
  627MPD2    N1 9294   2.409   2.954  14.585 -0.5132  0.0935 -0.2343
  627MPD2    H7 9295   2.381   2.955  14.683  0.9729  1.7994  0.1862
  628TMC3    C1 9296   2.442   3.187  14.628  0.1895  0.7624 -0.2744
  628TMC3    C2 9297   2.517   3.168  14.745 -0.9413  0.2405  0.0237
  628TMC3    C3 9298   2.577   3.276  14.806 -0.0182  0.0496 -0.4123
  628TMC3    C4 9299   2.421   3.318  14.584 -0.0016  0.0809  0.1189
  628TMC3    C5 9300   2.471   3.417  14.662 -0.4723 -0.6759  0.3281
  628TMC3    C6 9301   2.558   3.404  14.773 -0.3280  0.1047 -0.0173
  628TMC3     C 9302   2.417   3.081  14.529 -0.7118 -0.3197 -0.2176
  628TMC3     O 9303   2.391   3.115  14.418 -0.2829  0.1698 -0.6151
  628TMC3     H 9304   2.552   3.067  14.763 -0.7824  0.4886  1.0866
  628TMC3    H1 9305   2.371   3.338  14.490  0.4838 -0.0008 -0.1614
  628TMC3    H2 9306   2.569   3.488  14.841  0.7527  0.9392 -1.2200
  628TMC3    C7 9307   2.424   3.553  14.639 -0.1196 -0.6757  0.3045
  628TMC3    C8 9308   2.688   3.259  14.907 -0.1800  0.4346 -0.4878
  628TMC3    O1 9309   2.476   3.643  14.701 -0.5778 -0.2678 -0.4189
  628TMC3    O2 9310   2.742   3.362  14.941  0.0678 -0.0905  0.1626
  629MPD2     C 9311   0.642   2.114  16.249 -0.3236 -0.0956 -1.0306
  629MPD2    C1 9312   0.638   2.089  16.380  0.0556 -0.0659  0.6160
  629MPD2    C2 9313   0.529   2.041  16.447 -0.2507  0.1019  0.2778
  629MPD2    C3 9314   0.410   2.016  16.377  0.4531 -0.6917 -0.1684
  629MPD2    C4 9315   0.414   2.053  16.249  0.1515 -0.0367 -0.5531
  629MPD2    C5 9316   0.528   2.093  16.179 -0.4006 -0.0082 -0.5335
  629MPD2     H 9317   0.545   2.004  16.548 -1.2511  1.0034  0.7754
  629MPD2    H1 9318   0.326   2.033  16.189  0.0309 -1.6979  0.1608
  629MPD2    H2 9319   0.732   2.156  16.206 -0.3068 -0.0613 -0.9626
  629MPD2    H3 9320   0.530   2.102  16.071  0.7439  1.5431 -0.3861
  629MPD2     N 9321   0.293   1.955  16.426 -0.9080  0.5523  0.4213
  629MPD2    H5 9322   0.214   1.938  16.365 -0.8153  1.1522  0.1416
  629MPD2    N1 9323   0.761   2.122  16.444 -0.3877  0.1341  0.3893
  629MPD2    H7 9324   0.817   2.192  16.397 -0.6182  1.6812  2.4014
  630TMC3    C1 9325   0.925   2.117  16.609 -1.0080 -0.3694  0.4652
  630TMC3    C2 9326   0.974   2.238  16.562 -0.3787 -0.6700  0.3699
  630TMC3    C3 9327   1.082   2.282  16.637  0.2244  0.2306 -0.1289
  630TMC3    C4 9328   0.974   2.044  16.717  0.7080 -0.3428  0.4754
  630TMC3    C5 9329   1.088   2.095  16.770  0.2349  0.0160 -0.4754
  630TMC3    C6 9330   1.147   2.208  16.728  0.0666  0.6348 -0.0521
  630TMC3     C 9331   0.796   2.069  16.564 -0.0483  0.0675 -0.8328
  630TMC3     O 9332   0.754   1.966  16.618  0.1455  0.2291 -0.2953
  630TMC3     H 9333   0.923   2.296  16.487 -0.0777  2.3005  2.4903
  630TMC3    H1 9334   0.953   1.938  16.731 -0.3933 -0.1306  0.4353
  630TMC3    H2 9335   1.244   2.244  16.758  0.6689 -0.6676 -0.4607
  630TMC3    C7 9336   1.117   2.056  16.906 -0.1302  0.0962 -0.4259
  630TMC3    C8 9337   1.150   2.404  16.599 -0.1083 -0.2898  0.1083
  630TMC3    O1 9338   1.229   2.081  16.953 -0.0316 -0.1520 -0.0404
  630TMC3    O2 9339   1.273   2.414  16.614  0.2087 -0.3960  0.4396
  631MPD2     C 9340   3.578   1.262  15.687  0.0969  0.4485  1.0435
  631MPD2    C1 9341   3.687   1.291  15.612  0.4993 -0.0748  0.4513
  631MPD2    C2 9342   3.812   1.236  15.653 -0.2604  0.1355 -0.0133
  631MPD2    C3 9343   3.820   1.162  15.769  0.1569 -0.0199  0.0905
  631MPD2    C4 9344   3.707   1.135  15.834 -0.1593  0.0196 -0.1187
  631MPD2    C5 9345   3.585   1.180  15.797  0.2149  0.1595 -0.3688
  631MPD2     H 9346   3.898   1.266  15.595  0.3485  0.0804  0.8500
  631MPD2    H1 9347   3.711   1.080  15.928 -0.3733  2.3993  1.2914
  631MPD2    H2 9348   3.480   1.302  15.666 -0.2986 -1.2307 -0.2840
  631MPD2    H3 9349   3.503   1.163  15.864 -0.4596  0.6340 -1.0726
  631MPD2     N 9350   3.948   1.123  15.812 -0.0957  0.5346 -0.3629
  631MPD2    H5 9351   4.026   1.157  15.757  0.2582 -0.0171 -0.1972
  631MPD2    N1 9352   3.660   1.382  15.502  0.2876  0.3046 -0.0747
  631MPD2    H7 9353   3.567   1.381  15.461 -0.1361 -0.0041  0.9019
  632TMC3    C1 9354   3.699   1.509  15.316  0.1153  0.1085 -0.1634
  632TMC3    C2 9355   3.593   1.595  15.345 -0.1350 -0.3859  0.1917
  632TMC3    C3 9356   3.571   1.718  15.278 -0.7635 -0.3767 -0.3032
  632TMC3    C4 9357   3.786   1.546  15.212  0.2393 -0.2047 -0.0639
  632TMC3    C5 9358   3.759   1.660  15.142 -0.4407 -0.1399 -0.6884
  632TMC3    C6 9359   3.658   1.748  15.174  0.1067  0.1580 -1.1078
  632TMC3     C 9360   3.752   1.445  15.427 -0.2213 -0.3607  0.1501
  632TMC3     O 9361   3.875   1.439  15.439 -0.4327  0.3818 -0.1755
  632TMC3     H 9362   3.540   1.579  15.438 -1.9568 -1.5258 -1.0420
  632TMC3    H1 9363   3.862   1.476  15.183  0.1525 -0.5365  0.5029
  632TMC3    H2 9364   3.643   1.843  15.125  1.0729  0.1830 -1.3613
  632TMC3    C7 9365   3.840   1.680  15.017  0.4656 -0.0811 -0.6295
  632TMC3    C8 9366   3.471   1.810  15.331 -0.2902 -0.2360 -0.0631
  632TMC3    O1 9367   3.791   1.767  14.948  0.0775  0.2872 -0.3374
  632TMC3    O2 9368   3.366   1.766  15.378 -0.0350 -0.7302 -0.3606
  633MPD2     C 9369   3.608   4.672  17.503 -0.7757  0.0861  0.1104
  633MPD2    C1 9370   3.580   4.560  17.429 -0.0007 -0.1251 -0.0312
  633MPD2    C2 9371   3.602   4.442  17.486 -0.1470 -0.1128  0.8008
  633MPD2    C3 9372   3.659   4.427  17.613  0.4114 -0.4572  0.0528
  633MPD2    C4 9373   3.680   4.539  17.687 -0.0255 -0.3640  0.3219
  633MPD2    C5 9374   3.665   4.664  17.628 -1.0036 -0.1542  0.1136
  633MPD2     H 9375   3.586   4.351  17.429  0.4216 -1.2368  2.4314
  633MPD2    H1 9376   3.723   4.542   0.090 -0.5064  1.9048  0.4572
  633MPD2    H2 9377   3.591   0.052  17.475  0.1938  0.3478  0.5139
  633MPD2    H3 9378   3.669   0.032  17.685 -1.1104  0.3218 -0.6363
  633MPD2     N 9379   3.697   4.298  17.680 -0.3597 -0.0799 -0.9023
  633MPD2    H5 9380   3.745   4.295   0.072 -1.3579  2.7497 -0.2776
  633MPD2    N1 9381   3.530   4.556  17.303 -0.1973  0.3082 -0.0025
  633MPD2    H7 9382   3.511   4.463  17.269 -3.1396  1.4042 -1.3337
  634TMC3    C1 9383   3.503   4.652  17.088 -0.5694  1.0182 -0.2107
  634TMC3    C2 9384   3.555   4.542  17.026  0.6462  0.8255 -0.0817
  634TMC3    C3 9385   3.558   4.546  16.890 -0.1254 -0.0782  0.2931
  634TMC3    C4 9386   3.459   0.038  17.016  0.2687  0.5177 -0.1779
  634TMC3    C5 9387   3.473   0.034  16.879 -0.5168 -0.5464  0.2527
  634TMC3    C6 9388   3.525   4.650  16.813  0.3769 -0.1327  0.5198
  634TMC3     C 9389   3.522   4.671  17.227  0.1012  0.3399  0.2608
  634TMC3     O 9390   3.519   0.069  17.257  0.1327 -0.2956  0.0634
  634TMC3     H 9391   3.599   4.458  17.079  0.9671  0.5369 -0.7920
  634TMC3    H1 9392   3.418   0.124  17.069 -1.5371 -0.3687 -0.1659
  634TMC3    H2 9393   3.556   4.662  16.710  0.1471 -0.6656  0.3902
  634TMC3    C7 9394   3.426   0.145  16.792 -0.7344  0.3116  0.6837
  634TMC3    C8 9395   3.605   4.418  16.833 -0.7415  0.4167 -0.1428
  634TMC3    O1 9396   3.463   0.149  16.677 -0.2671  0.7261 -0.2714
  634TMC3    O2 9397   3.665   4.329  16.896  0.2226  0.6616 -0.4728
  635TMC3    C1 9398   4.480   0.854  16.793 -0.0137  0.1700  0.5099
  635TMC3    C2 9399   4.413   0.744  16.750  0.6829 -0.5258 -0.3870
  635TMC3    C3 9400   4.466   0.644  16.668 -0.5641 -0.1744 -0.7011
  635TMC3    C4 9401   4.609   0.875  16.753  0.2788  0.0877  0.5701
  635TMC3    C5 9402   4.668   0.772  16.678  0.2806 -0.2723 -0.0571
  635TMC3    C6 9403   4.598   0.665  16.630 -0.6803 -0.2337 -0.7462
  635TMC3     C 9404   4.421   0.924  16.906  0.5329  0.6828  0.4459
  635TMC3     O 9405   4.301   0.908  16.925  0.1389 -0.6851 -0.3448
  635TMC3     H 9406   4.322   0.717  16.801 -0.1780  0.7784 -1.2406
  635TMC3    H1 9407   4.668   0.957  16.793  0.1717 -0.4427  1.7925
  635TMC3    H2 9408   4.631   0.596  16.553 -3.3506 -0.5583 -1.6015
  635TMC3    C7 9409   0.088   0.765  16.680 -0.6779 -0.5367  0.0063
  635TMC3    C8 9410   4.406   0.515  16.649 -0.9401  0.1637 -0.3692
  635TMC3    O1 9411   0.152   0.860  16.722 -0.2214 -0.0936  0.0508
  635TMC3    O2 9412   4.440   0.460  16.544  0.1611  0.4754 -0.2712
  636MPD2     C 9413   4.632   4.676  15.210  0.0651  0.2305 -0.5828
  636MPD2    C1 9414   4.634   0.006  15.335  0.1159 -0.3344 -0.3016
  636MPD2    C2 9415   4.669   4.651  15.445  0.0340 -0.7809 -0.1205
  636MPD2    C3 9416   4.689   4.516  15.431 -0.0143 -0.1991 -0.0521
  636MPD2    C4 9417   4.664   4.456  15.311 -0.3478 -0.5420 -0.3573
  636MPD2    C5 9418   4.645   4.542  15.204 -0.1213 -0.2047 -0.2377
  636MPD2     H 9419   4.675   4.693  15.545  0.1891 -2.4077  0.5521
  636MPD2    H1 9420   4.662   4.349  15.296 -3.2499 -0.4529 -0.6103
  636MPD2    H2 9421   4.617   0.014  15.122 -2.1572  1.4738  0.6555
  636MPD2    H3 9422   4.639   4.505  15.102  3.0672  1.4169 -1.0015
  636MPD2     N 9423   4.696   4.440  15.545 -0.5827  0.3693  0.5090
  636MPD2    H5 9424   4.699   4.490  15.633  2.5263  1.7632 -0.3744
  636MPD2    N1 9425   4.608   0.141  15.367  0.4705 -0.1411  0.3732
  636MPD2    H7 9426   4.605   0.162  15.466  1.0237  0.8260  0.1774
  637TMC3    C1 9427   0.013   4.257  15.691 -0.2026 -0.4731 -0.1792
  637TMC3    C2 9428   4.672   4.324  15.789 -0.2870 -0.9663 -0.2719
  637TMC3    C3 9429   4.720   4.323  15.917 -0.3175  0.3450 -0.0711
  637TMC3    C4 9430   0.123   4.179  15.721 -0.0451 -0.4742  0.1447
  637TMC3    C5 9431   0.166   4.172  15.849 -0.5217  0.3987  0.4062
  637TMC3    C6 9432   0.099   4.243  15.948  0.4836  0.1022  0.0705
  637TMC3     C 9433   4.718   4.303  15.555 -0.2758 -0.1848  0.3964
  637TMC3     O 9434   0.018   4.220  15.469  0.2670 -0.6068 -0.1453
  637TMC3     H 9435   4.598   4.399  15.762  1.9524  2.0067  1.9080
  637TMC3    H1 9436   0.186   4.127  15.650  1.6744  0.9432  0.6269
  637TMC3    H2 9437   0.152   4.256  16.041  1.5960  0.9064 -0.6692
  637TMC3    C7 9438   0.306   4.195  15.863 -0.1116 -0.2551  0.0875
  637TMC3    C8 9439   0.011   4.454  15.968 -0.5414 -0.2244 -0.3049
  637TMC3    O1 9440   0.336   4.285  15.944 -0.7672 -0.1832 -0.3903
  637TMC3    O2 9441   4.628   4.516  15.982  0.4021  0.1840  0.1271
  638MPD2     C 9442   4.332   3.582  14.997  0.5204 -0.4539 -0.9165
  638MPD2    C1 9443   4.322   3.483  14.904 -0.3616 -0.1159 -0.3421
  638MPD2    C2 9444   4.291   3.354  14.952 -0.5239  0.5527  0.4577
  638MPD2    C3 9445   4.287   3.325  15.089  0.2855  0.0846  0.6172
  638MPD2    C4 9446   4.289   3.427  15.178 -0.0954 -0.6606  0.0097
  638MPD2    C5 9447   4.315   3.551  15.130  0.8314  0.4626 -0.1930
  638MPD2     H 9448   4.263   3.275  14.883 -0.2902  0.8294  0.0447
  638MPD2    H1 9449   4.290   3.418  15.286  1.4085 -0.2901  0.0280
  638MPD2    H2 9450   4.362   3.681  14.964  0.8197 -0.4358 -0.5916
  638MPD2    H3 9451   4.327   3.643  15.185  2.8241 -1.5669  2.7477
  638MPD2     N 9452   4.255   3.191  15.129  0.9075 -0.2938  0.3056
  638MPD2    H5 9453   4.243   3.117  15.061  0.0425 -1.3762  1.6391
  638MPD2    N1 9454   4.349   3.505  14.764  0.3142 -0.6040  0.1005
  638MPD2    H7 9455   4.383   3.598  14.743  0.0091 -0.3897  0.5456
  639TMC3    C1 9456   4.237   3.010  15.247  0.9666  0.3928 -0.2790
  639TMC3    C2 9457   4.118   2.950  15.202 -0.2822  0.1819  0.3379
  639TMC3    C3 9458   4.119   2.819  15.184 -0.4453 -0.3739  0.4612
  639TMC3    C4 9459   4.354   2.946  15.262  0.4036 -0.2145  0.8854
  639TMC3    C5 9460   4.348   2.809  15.230  0.3606  0.4330  1.3648
  639TMC3    C6 9461   4.233   2.748  15.201  0.1518 -0.4871  0.9239
  639TMC3     C 9462   4.250   3.147  15.253 -0.3372  0.5182 -0.3670
  639TMC3     O 9463   4.269   3.200  15.361 -0.4112  0.3190  0.2305
  639TMC3     H 9464   4.025   3.004  15.189 -1.0851 -1.0042  1.0789
  639TMC3    H1 9465   4.442   3.008  15.275  0.3862  0.0536 -0.2582
  639TMC3    H2 9466   4.238   2.641  15.181  1.2373 -0.0134 -1.2978
  639TMC3    C7 9467   4.454   2.724  15.252 -0.3506  0.3717  0.2023
  639TMC3    C8 9468   4.032   2.787  15.077  0.6878 -0.2339  1.1814
  639TMC3    O1 9469   4.426   2.609  15.290 -0.3512  0.2359 -0.4840
  639TMC3    O2 9470   4.084   2.745  14.977  0.1509  0.0877  0.3213
  640MPD2     C 9471   0.327   1.858   9.601  0.2575 -0.6304 -0.3666
  640MPD2    C1 9472   0.198   1.886   9.571  0.5996 -0.4449  0.5224
  640MPD2    C2 9473   0.141   2.003   9.623 -0.4543  0.2189 -0.7248
  640MPD2    C3 9474   0.218   2.092   9.699 -0.4718  1.2635 -0.6579
  640MPD2    C4 9475   0.349   2.054   9.724 -0.4926  0.5754 -1.0124
  640MPD2    C5 9476   0.397   1.936   9.683  0.1667  0.1421  0.1776
  640MPD2     H 9477   0.039   2.030   9.598 -0.7689 -0.1733  0.1484
  640MPD2    H1 9478   0.422   2.113   9.778  1.3594 -0.6709 -2.1344
  640MPD2    H2 9479   0.377   1.773   9.556 -0.6482 -0.9148 -0.8357
  640MPD2    H3 9480   0.498   1.904   9.704 -1.1605 -2.1425  3.0592
  640MPD2     N 9481   0.176   2.213   9.755  0.7377 -0.2253  0.3318
  640MPD2    H5 9482   0.242   2.271   9.806 -0.1424  2.0093 -1.0918
  640MPD2    N1 9483   0.135   1.781   9.490  0.4259 -0.4569  0.4830
  640MPD2    H7 9484   0.197   1.712   9.448  0.6488  1.3913 -2.2091
  641TMC3    C1 9485   4.677   1.640   9.417 -0.8919  0.4255  0.1413
  641TMC3    C2 9486   0.035   1.523   9.417 -0.4416 -0.2194  0.2309
  641TMC3    C3 9487   4.704   1.407   9.364 -0.3066 -0.9807 -0.3308
  641TMC3    C4 9488   4.549   1.641   9.363  0.2916 -0.3824 -0.2173
  641TMC3    C5 9489   4.500   1.525   9.320 -0.2377  0.0422  0.1930
  641TMC3    C6 9490   4.573   1.411   9.318 -0.4403 -0.0539  0.2217
  641TMC3     C 9491   4.723   1.761   9.481 -0.2115  0.1824 -0.0624
  641TMC3     O 9492   4.637   1.838   9.517 -0.0384  0.0020  0.0485
  641TMC3     H 9493   0.136   1.514   9.454  0.0970 -0.1903 -1.2033
  641TMC3    H1 9494   4.488   1.731   9.367 -0.3297 -0.8140  0.0551
  641TMC3    H2 9495   4.520   1.317   9.308 -1.4292  0.3181  1.9371
  641TMC3    C7 9496   4.366   1.507   9.265  0.2110 -0.6026  0.2616
  641TMC3    C8 9497   0.043   1.273   9.410  0.5187 -0.3111  0.6272
  641TMC3    O1 9498   4.341   1.393   9.230  0.2880  0.5952  0.3639
  641TMC3    O2 9499   4.714   1.173   9.362 -0.4548  0.2460  0.1588
  642TMC3    C1 9500   1.313   3.602  12.182  1.2180 -0.0493 -0.3334
  642TMC3    C2 9501   1.445   3.605  12.222  0.6096 -0.4260  0.7163
  642TMC3    C3 9502   1.505   3.489  12.241  0.3210 -0.7531 -0.4176
  642TMC3    C4 9503   1.239   3.492  12.172 -0.9097 -0.0689  0.2480
  642TMC3    C5 9504   1.303   3.371  12.197 -0.8429  0.2327 -0.2941
  642TMC3    C6 9505   1.438   3.368  12.223 -0.0025 -0.1011  0.5003
  642TMC3     C 9506   1.248   3.735  12.164  0.4661 -0.3536  0.8037
  642TMC3     O 9507   1.324   3.820  12.105 -0.0774  0.1033 -0.6049
  642TMC3     H 9508   1.491   3.702  12.235 -3.2651  1.7914 -1.7777
  642TMC3    H1 9509   1.132   3.486  12.157 -0.9831  1.4379  0.2328
  642TMC3    H2 9510   1.503   3.282  12.219  1.2297  0.9044 -0.8974
  642TMC3    C7 9511   1.222   3.249  12.221 -0.8460  0.1165  0.4439
  642TMC3    C8 9512   1.626   3.486  12.321  0.7315  0.1690  0.5103
  642TMC3    O1 9513   1.271   3.144  12.186  0.2985 -0.1316 -0.1219
  642TMC3    O2 9514   1.668   3.382  12.363 -0.0261 -0.1769  0.3805
  643TMC3    C1 9515   0.824   2.651   0.234  0.6529  0.4216  0.3440
  643TMC3    C2 9516   0.693   2.646   0.199  0.0273 -0.0715 -0.6511
  643TMC3    C3 9517   0.653   2.555   0.103 -0.6906 -0.1046  0.4459
  643TMC3    C4 9518   0.914   2.568   0.172  0.3814 -0.0140  0.1125
  643TMC3    C5 9519   0.880   2.488   0.067 -0.1474 -0.0678 -0.2663
  643TMC3    C6 9520   0.746   2.478   0.034  0.2021 -0.3934  0.3683
  643TMC3     C 9521   0.863   2.765   0.303 -0.1552 -0.0235 -0.5622
  643TMC3     O 9522   0.791   2.868   0.296 -0.2609  0.1316  0.1735
  643TMC3     H 9523   0.622   2.713   0.247 -0.2135 -0.3236 -0.6596
  643TMC3    H1 9524   1.018   2.587   0.194  0.4273  0.4997 -0.5446
  643TMC3    H2 9525   0.715   2.429  17.640  0.3070 -1.1536  0.7433
  643TMC3    C7 9526   0.959   2.522  17.643  0.2287  0.2221 -0.1452
  643TMC3    C8 9527   0.546   2.599   0.012 -0.4900 -0.2136  0.6061
  643TMC3    O1 9528   0.897   2.560  17.542 -0.4804  0.1417  0.3717
  643TMC3    O2 9529   0.498   2.531  17.623  0.1213  0.0475 -0.1736
  644MPD2     C 9530   0.368   2.679   9.339 -0.2225  0.1841  0.2051
  644MPD2    C1 9531   0.259   2.593   9.337 -0.0723 -0.1095  0.4123
  644MPD2    C2 9532   0.129   2.650   9.349 -0.4779 -0.3112 -0.1703
  644MPD2    C3 9533   0.106   2.785   9.335 -0.8744  1.2076  0.6295
  644MPD2    C4 9534   0.216   2.869   9.349 -0.4517  0.6434 -0.9294
  644MPD2    C5 9535   0.345   2.814   9.352 -0.3171 -0.5156  0.1181
  644MPD2     H 9536   0.041   2.587   9.342 -1.1207  0.7495 -1.7787
  644MPD2    H1 9537   0.218   2.978   9.352 -1.0733  0.6634 -1.2749
  644MPD2    H2 9538   0.462   2.625   9.331 -0.0075  0.7073 -0.8601
  644MPD2    H3 9539   0.430   2.881   9.360 -0.1804 -0.4751 -1.6134
  644MPD2     N 9540   4.697   2.828   9.325  0.6582  0.0035  0.2124
  644MPD2    H5 9541   4.622   2.761   9.337 -0.3893  0.4411 -3.7304
  644MPD2    N1 9542   0.284   2.451   9.337  0.5339  0.1021  0.0294
  644MPD2    H7 9543   0.377   2.424   9.309  0.1703  0.7100 -1.8057
  645TMC3    C1 9544   4.517   2.983   9.341  0.4575 -0.1511  0.0570
  645TMC3    C2 9545   4.481   3.071   9.439 -0.8260 -0.5504 -0.5148
  645TMC3    C3 9546   4.350   3.069   9.481 -0.0083 -0.0260 -0.0310
  645TMC3    C4 9547   4.425   2.901   9.275  0.1498  0.2543 -0.1764
  645TMC3    C5 9548   4.291   2.913   9.316 -0.0088  0.6717 -0.0514
  645TMC3    C6 9549   4.259   2.984   9.430  0.1181  0.4338 -0.2528
  645TMC3     C 9550   4.662   2.962   9.330 -0.5091  0.3615 -0.8722
  645TMC3     O 9551   0.003   3.067   9.319 -0.0112 -0.4032  0.0902
  645TMC3     H 9552   4.557   3.119   9.500 -0.3357 -0.6558 -1.0293
  645TMC3    H1 9553   4.459   2.834   9.196 -0.1414 -1.6566  1.3095
  645TMC3    H2 9554   4.155   2.978   9.460  1.3098 -0.2977  3.8057
  645TMC3    C7 9555   4.182   2.830   9.261 -0.0394 -0.3811 -0.0597
  645TMC3    C8 9556   4.324   3.126   9.610 -0.5029 -0.4350  0.1831
  645TMC3    O1 9557   4.081   2.807   9.326 -0.1064 -0.3681 -0.2395
  645TMC3    O2 9558   4.223   3.091   9.667 -0.0185  0.1928  0.5650
  646MPD2     C 9559   4.356   2.164  14.387  0.8965  0.3124 -0.0779
  646MPD2    C1 9560   4.260   2.140  14.487  0.2091 -0.5398 -0.3631
  646MPD2    C2 9561   4.139   2.199  14.482  0.9056 -0.3853 -0.5497
  646MPD2    C3 9562   4.100   2.293  14.388 -0.2380 -0.1661  0.1108
  646MPD2    C4 9563   4.201   2.328  14.301 -0.5788  0.2364 -0.3635
  646MPD2    C5 9564   4.329   2.272  14.302  0.1460 -0.3056  0.0088
  646MPD2     H 9565   4.069   2.166  14.557 -1.3229  1.7048 -1.6916
  646MPD2    H1 9566   4.188   2.406  14.227 -0.8014 -0.4361 -1.0429
  646MPD2    H2 9567   4.456   2.124  14.387  0.3747 -0.9874  0.6295
  646MPD2    H3 9568   4.406   2.303  14.232  2.1400  1.3422  2.9369
  646MPD2     N 9569   3.975   2.360  14.396  0.1618 -0.3918  0.0096
  646MPD2    H5 9570   3.900   2.323  14.454 -1.4420  1.7524 -0.7247
  646MPD2    N1 9571   4.322   2.053  14.586  0.5441 -0.8348  0.2551
  646MPD2    H7 9572   4.422   2.038  14.578  0.2674 -1.3225 -2.5143
  647TMC3    C1 9573   4.363   1.958  14.795  0.1103 -0.0649 -0.1899
  647TMC3    C2 9574   4.322   1.882  14.901 -0.0078 -0.8158 -0.6765
  647TMC3    C3 9575   4.396   1.880  15.014 -0.5246  0.7093 -0.0943
  647TMC3    C4 9576   4.489   2.010  14.792 -0.1291  0.5776  0.4281
  647TMC3    C5 9577   4.573   1.983  14.891 -0.2894  0.5945  0.5774
  647TMC3    C6 9578   4.526   1.914  15.005  0.2132 -0.0417 -0.0448
  647TMC3     C 9579   4.263   2.007  14.697 -0.6820  0.3848  0.5552
  647TMC3     O 9580   4.149   2.017  14.733  0.3135 -0.2956  0.0887
  647TMC3     H 9581   4.219   1.848  14.907  0.4526 -1.3770  4.1869
  647TMC3    H1 9582   4.533   2.067  14.710  1.3156 -0.7083  0.3001
  647TMC3    H2 9583   4.604   1.895  15.078  1.7790  1.1821 -1.4082
  647TMC3    C7 9584   4.719   1.989  14.860 -0.4320 -0.3044  0.7220
  647TMC3    C8 9585   4.367   1.771  15.109  0.1807 -0.1943  0.5558
  647TMC3    O1 9586   0.062   1.977  14.963 -0.4526 -0.2633  1.0835
  647TMC3    O2 9587   4.334   1.664  15.063  0.3537 -0.2334  0.2634
  648TMC3    C1 9588   4.041   4.491  16.048 -0.3774  0.7726 -0.1226
  648TMC3    C2 9589   4.098   4.388  15.973  0.0050 -0.1061 -0.3301
  648TMC3    C3 9590   4.137   4.422  15.844 -0.4980 -0.3641 -0.2124
  648TMC3    C4 9591   4.019   4.612  15.996 -0.8669  0.2597 -0.4152
  648TMC3    C5 9592   4.046   4.631  15.864  0.1036 -0.0314 -0.3009
  648TMC3    C6 9593   4.104   4.535  15.787  0.4155 -0.3675 -0.0110
  648TMC3     C 9594   4.006   4.469  16.190 -0.4880 -0.0090  0.6192
  648TMC3     O 9595   4.017   4.355  16.230  0.8670 -0.1280 -0.6158
  648TMC3     H 9596   4.130   4.297  16.023  0.3015  1.0827  1.6641
  648TMC3    H1 9597   3.948   4.677  16.044 -1.0532 -0.8829  0.8556
  648TMC3    H2 9598   4.137   4.564  15.688 -0.2808  2.6709  0.6313
  648TMC3    C7 9599   3.991   0.023  15.800 -0.2978  0.1143  0.3714
  648TMC3    C8 9600   4.250   4.354  15.780 -0.7647 -0.2062  0.8256
  648TMC3    O1 9601   3.984   0.016  15.678 -0.0781  0.3440 -0.2141
  648TMC3    O2 9602   4.268   4.359  15.662 -0.1484  0.4455  0.2751
  649TMC3    C1 9603   2.549   1.245  12.929  0.6038  0.1727 -0.6851
  649TMC3    C2 9604   2.675   1.282  12.883  0.5645 -0.7041  0.8198
  649TMC3    C3 9605   2.777   1.187  12.897 -0.2795 -0.3110 -0.5123
  649TMC3    C4 9606   2.521   1.123  12.972 -0.0398  0.3698  0.7280
  649TMC3    C5 9607   2.618   1.029  12.976  0.0551 -0.4132 -0.3789
  649TMC3    C6 9608   2.747   1.058  12.942 -1.0808  0.0211 -0.4096
  649TMC3     C 9609   2.436   1.331  12.886  0.2747 -0.1310  1.2649
  649TMC3     O 9610   2.339   1.336  12.960 -0.5337  0.3216 -0.0022
  649TMC3     H 9611   2.679   1.382  12.843 -0.4320 -1.2097 -0.5350
  649TMC3    H1 9612   2.425   1.104  13.018  0.4186  0.1291  1.5784
  649TMC3    H2 9613   2.823   0.981  12.952  0.5892  1.7188  0.0167
  649TMC3    C7 9614   2.593   0.915  13.061  0.3456 -0.2514  0.1867
  649TMC3    C8 9615   2.919   1.214  12.861 -0.2424 -0.5740 -0.4822
  649TMC3    O1 9616   2.523   0.939  13.157 -0.2384 -0.4381  0.1190
  649TMC3    O2 9617   3.001   1.137  12.902  0.6884  0.2616  0.0393
  650TMC3    C1 9618   0.463   2.811  12.281 -0.7340  0.3163 -0.0105
  650TMC3    C2 9619   0.383   2.922  12.308  0.1670  0.2485  0.4764
  650TMC3    C3 9620   0.364   3.016  12.215 -0.7265 -0.4338  0.1278
  650TMC3    C4 9621   0.522   2.799  12.156 -0.1478  0.3035 -0.1381
  650TMC3    C5 9622   0.519   2.909  12.070  0.3995  0.0303 -0.7331
  650TMC3    C6 9623   0.438   3.014  12.103  0.0172  0.6382  0.9146
  650TMC3     C 9624   0.403   2.691  12.336 -0.1848  0.2766  0.0363
  650TMC3     O 9625   0.286   2.700  12.368  0.3788 -0.5563  0.4813
  650TMC3     H 9626   0.328   2.919  12.402  1.8153  0.6655  1.4629
  650TMC3    H1 9627   0.562   2.703  12.124 -1.1413  0.4185 -1.7103
  650TMC3    H2 9628   0.421   3.089  12.026  0.5759  1.0732  1.2179
  650TMC3    C7 9629   0.637   2.944  11.999 -0.5153 -0.6569  0.3238
  650TMC3    C8 9630   0.306   3.140  12.258 -0.2634  0.3117  0.3093
  650TMC3    O1 9631   0.684   2.850  11.941 -0.0658  0.3538 -0.0442
  650TMC3    O2 9632   0.309   3.228  12.170 -0.2362 -0.3353 -0.9073
  651MPD2     C 9633   4.072   4.467  10.821  0.3330  0.1024  0.3378
  651MPD2    C1 9634   4.012   4.595  10.841  0.5209 -0.6381  0.0747
  651MPD2    C2 9635   4.091   4.714  10.843  0.6357 -0.9193 -0.3769
  651MPD2    C3 9636   4.223   4.703  10.801 -0.3746  0.3309  0.3701
  651MPD2    C4 9637   4.274   4.582  10.770  0.6605 -0.5695  0.4456
  651MPD2    C5 9638   4.201   4.470  10.784  0.4468 -0.4955  0.3711
  651MPD2     H 9639   4.043   0.085  10.867 -1.4949 -1.8522 -0.8918
  651MPD2    H1 9640   4.377   4.572  10.736 -0.3433 -0.4290 -2.6075
  651MPD2    H2 9641   4.024   4.371  10.835 -0.6289  0.2789 -1.7709
  651MPD2    H3 9642   4.245   4.375  10.758  2.3301  0.3655  0.4221
  651MPD2     N 9643   4.304   0.095  10.807  0.8452 -0.1477 -0.2133
  651MPD2    H5 9644   4.272   0.182  10.848  1.7244  0.0604  0.0247
  651MPD2    N1 9645   3.875   4.597  10.876  0.5561  0.1823 -0.2574
  651MPD2    H7 9646   3.842   4.688  10.903 -4.1974 -1.3415 -1.0284
  652TMC3    C1 9647   4.720   0.319  10.817  0.2113  0.1216 -0.5773
  652TMC3    C2 9648   4.639   0.209  10.817  0.3937  0.4012 -0.0616
  652TMC3    C3 9649   4.499   0.228  10.814 -0.7209 -0.4922 -0.0937
  652TMC3    C4 9650   4.673   0.446  10.809 -0.2017 -0.7689  0.1883
  652TMC3    C5 9651   4.533   0.458  10.802  0.1290 -0.0488 -0.0411
  652TMC3    C6 9652   4.449   0.351  10.808  0.7144  0.2429 -0.3597
  652TMC3     C 9653   0.142   0.301  10.815  0.7020 -0.7417  0.1920
  652TMC3     O 9654   0.205   0.223  10.885 -0.6284 -0.1398 -0.8511
  652TMC3     H 9655   4.687   0.112  10.814 -0.2708  0.0955 -0.9967
  652TMC3    H1 9656   0.020   0.528  10.808 -1.7365  0.5710  0.5179
  652TMC3    H2 9657   4.344   0.368  10.785  0.7628 -0.5221 -1.1616
  652TMC3    C7 9658   4.473   0.598  10.814  0.1934  0.8770  0.0814
  652TMC3    C8 9659   4.438   0.098  10.773 -0.4993  0.6705 -1.1810
  652TMC3    O1 9660   4.349   0.602  10.811 -0.5055  0.0218  0.1991
  652TMC3    O2 9661   4.510   0.011  10.727 -0.2685 -0.3738 -0.3382
  653MPD2     C 9662   3.307   4.687  17.677  0.0957 -0.0021 -0.1984
  653MPD2    C1 9663   3.231   0.042  17.598 -0.4395  0.2279  0.3289
  653MPD2    C2 9664   3.160   4.718  17.491  0.2124  0.4430 -0.4026
  653MPD2    C3 9665   3.158   4.579  17.463 -0.2408 -0.3600 -0.1157
  653MPD2    C4 9666   3.236   4.495  17.548 -0.4229 -0.3746  0.4232
  653MPD2    C5 9667   3.311   4.556  17.644 -0.0271 -0.1392 -0.0630
  653MPD2     H 9668   3.106   0.059  17.423  0.6086  1.1345 -0.0594
  653MPD2    H1 9669   3.247   4.388  17.532  0.5500 -0.0891 -0.8355
  653MPD2    H2 9670   3.370   0.002   0.059 -0.3142 -1.2928  0.7586
  653MPD2    H3 9671   3.375   4.502   0.016  1.7868  2.3620  0.2058
  653MPD2     N 9672   3.088   4.525  17.352  0.0089 -0.1120  0.5483
  653MPD2    H5 9673   3.045   4.595  17.292 -1.1369 -1.0268  0.2910
  653MPD2    N1 9674   3.223   0.183  17.616  0.3375  0.1045 -1.6425
  653MPD2    H7 9675   3.168   0.240  17.552 -0.2047  0.3714 -0.9426
  654TMC3    C1 9676   2.987   4.357  17.222 -0.0490  0.3012  0.2092
  654TMC3    C2 9677   2.912   4.449  17.161  0.2642 -0.3171 -0.3197
  654TMC3    C3 9678   2.848   4.416  17.041  0.5050  0.3666  0.2404
  654TMC3    C4 9679   3.005   4.227  17.176 -0.2586  0.6585 -0.4255
  654TMC3    C5 9680   2.936   4.194  17.060  0.0441  0.4921  0.4766
  654TMC3    C6 9681   2.863   4.290  16.992 -0.1520 -0.1880 -0.7321
  654TMC3     C 9682   3.063   4.389  17.333  0.2197 -0.4338 -0.0433
  654TMC3     O 9683   3.098   4.294  17.399  0.4034 -0.5615 -0.1115
  654TMC3     H 9684   2.899   4.547  17.206 -3.4913 -0.7553 -0.4235
  654TMC3    H1 9685   3.066   4.149  17.222  0.8240  1.5626 -0.3436
  654TMC3    H2 9686   2.795   4.256  16.915 -0.8384  0.0440 -0.2265
  654TMC3    C7 9687   2.966   4.075  16.980 -0.2128  0.9664 -0.4477
  654TMC3    C8 9688   2.754   4.518  16.994  0.4433 -0.0775  0.1535
  654TMC3    O1 9689   2.940   4.085  16.860 -0.2544 -0.5356  0.1311
  654TMC3    O2 9690   2.747   4.625  17.044  0.0769  0.3467  0.2338
  655MPD2     C 9691   4.403   0.115  15.799 -0.0066 -0.1555  0.4481
  655MPD2    C1 9692   4.317   0.180  15.725 -1.0407  0.3296 -0.3633
  655MPD2    C2 9693   4.285   0.135  15.597 -0.1880 -0.2480 -0.4675
  655MPD2    C3 9694   4.323   0.006  15.560  0.5731 -0.8389  0.5509
  655MPD2    C4 9695   4.398   4.656  15.649 -0.2417 -0.1235  0.1401
  655MPD2    C5 9696   4.444   4.713  15.762  0.2506  0.5281 -0.5592
  655MPD2     H 9697   4.223   0.199  15.534 -0.7823 -0.5189 -0.1587
  655MPD2    H1 9698   4.419   4.556  15.614  0.0737 -0.4127  1.1685
  655MPD2    H2 9699   4.436   0.153  15.895 -1.5886  1.3571  0.3886
  655MPD2    H3 9700   4.503   4.657  15.833 -0.9112 -1.7484 -1.3865
  655MPD2     N 9701   4.290   4.659  15.443 -0.5951 -0.0875 -0.0935
  655MPD2    H5 9702   4.331   4.568  15.427 -2.1137 -1.0324  1.4098
  655MPD2    N1 9703   4.262   0.303  15.773  0.3954  0.0666 -0.6164
  655MPD2    H7 9704   4.215   0.351  15.697 -2.7295 -2.6712 -0.3983
  656TMC3    C1 9705   4.176   0.462  15.913 -0.1034  0.1088 -0.4241
  656TMC3    C2 9706   4.154   0.502  16.042 -0.8854  0.0106 -0.0581
  656TMC3    C3 9707   4.047   0.579  16.067  0.4530  0.0653 -0.0000
  656TMC3    C4 9708   4.110   0.528  15.810 -0.2757 -0.3198  0.0158
  656TMC3    C5 9709   4.006   0.613  15.834  0.2506 -0.2414  0.1787
  656TMC3    C6 9710   3.977   0.643  15.966  0.2096  0.0754  0.3196
  656TMC3     C 9711   4.246   0.339  15.897 -0.3984 -0.1668 -0.4822
  656TMC3     O 9712   4.284   0.286  15.999 -0.5709  0.0757 -0.1496
  656TMC3     H 9713   4.208   0.465  16.128 -0.6527  1.7973  0.5616
  656TMC3    H1 9714   4.141   0.510  15.707  0.2949  0.2404  0.0890
  656TMC3    H2 9715   3.912   0.727  15.987  0.6355  0.1707  1.2506
  656TMC3    C7 9716   3.973   0.701  15.720 -0.0610  0.3276  0.8486
  656TMC3    C8 9717   3.967   0.506  16.161 -0.3791  0.1153 -0.3836
  656TMC3    O1 9718   4.065   0.709  15.638  0.2176  0.1518  0.0305
  656TMC3    O2 9719   3.981   0.385  16.158  0.4465 -0.0217  0.3876
  657TMC3    C1 9720   3.210   3.949  14.879 -1.0299 -0.9924 -0.3547
  657TMC3    C2 9721   3.247   3.997  15.004 -0.1612 -0.6488  0.0350
  657TMC3    C3 9722   3.223   4.130  15.032  0.4453  0.3298  0.5133
  657TMC3    C4 9723   3.154   4.030  14.786  0.3605 -0.0823 -0.0490
  657TMC3    C5 9724   3.134   4.154  14.818  1.2172  0.1408 -0.2275
  657TMC3    C6 9725   3.171   4.214  14.931  0.5014  0.4204 -0.1848
  657TMC3     C 9726   3.222   3.809  14.856  0.3859  1.1191 -0.3776
  657TMC3     O 9727   3.160   3.765  14.761  0.3942 -0.2366 -0.1460
  657TMC3     H 9728   3.287   3.928  15.077 -0.3685  0.0149  0.7723
  657TMC3    H1 9729   3.114   3.986  14.695  0.3965  0.9372 -0.5648
  657TMC3    H2 9730   3.142   4.315  14.957 -2.5017 -0.4532 -0.1042
  657TMC3    C7 9731   3.049   4.226  14.727  0.3321 -0.3561  0.4384
  657TMC3    C8 9732   3.247   4.190  15.160 -0.1615 -0.1975  0.5468
  657TMC3    O1 9733   2.966   4.162  14.661  0.7926  0.2223 -0.5504
  657TMC3    O2 9734   3.210   4.306  15.166  0.2325 -0.4631  0.2036
  658MPD2     C 9735   4.566   4.392  14.639  0.7635 -0.1362 -0.5379
  658MPD2    C1 9736   4.504   4.503  14.690  0.0372  0.2537 -0.2328
  658MPD2    C2 9737   4.466   4.602  14.609 -0.2655 -0.6382  0.4065
  658MPD2    C3 9738   4.478   4.593  14.471  0.3589 -0.1813  0.2297
  658MPD2    C4 9739   4.553   4.487  14.419 -0.2994  0.8100 -0.8254
  658MPD2    C5 9740   4.593   4.386  14.505 -0.0079 -0.1469  0.0595
  658MPD2     H 9741   4.418   4.693  14.642  1.9481  1.1282 -1.3041
  658MPD2    H1 9742   4.582   4.483  14.314  1.4605  2.6035 -0.4190
  658MPD2    H2 9743   4.600   4.302  14.688  0.5497  0.1176  0.0862
  658MPD2    H3 9744   4.652   4.305  14.463  2.1456  0.3884  1.9751
  658MPD2     N 9745   4.432   4.703  14.399  0.5399 -0.4074  0.5194
  658MPD2    H5 9746   4.395   0.065  14.439  3.4518  0.9783  0.2590
  658MPD2    N1 9747   4.478   4.502  14.831 -0.7106  0.2404  0.9315
  658MPD2    H7 9748   4.494   4.416  14.883 -1.5653 -0.5769 -0.1417
  659TMC3    C1 9749   4.349   4.561  15.012  0.2535 -0.2423  0.9059
  659TMC3    C2 9750   4.340   4.647  15.117  0.5148  0.3411  0.2181
  659TMC3    C3 9751   4.254   4.622  15.221  0.0613 -0.0296  0.1151
  659TMC3    C4 9752   4.279   4.441  15.016 -0.1074  0.3723  0.4755
  659TMC3    C5 9753   4.172   4.440  15.104 -0.3959  0.2450  0.1303
  659TMC3    C6 9754   4.163   4.520  15.211 -0.6756  0.1517 -0.1487
  659TMC3     C 9755   4.411   4.601  14.895 -0.3549  0.5685  0.1577
  659TMC3     O 9756   4.397   4.716  14.858 -0.7103 -0.3163 -0.2367
  659TMC3     H 9757   4.402   0.012  15.122 -0.0465  0.7751 -0.5324
  659TMC3    H1 9758   4.287   4.381  14.926  3.5762  0.5632  0.6701
  659TMC3    H2 9759   4.084   4.524  15.285 -1.1908 -2.2489 -0.5745
  659TMC3    C7 9760   4.045   4.396  15.051 -0.0054 -0.1169 -0.2103
  659TMC3    C8 9761   4.235   4.715  15.333 -0.0754  0.2182  0.4102
  659TMC3    O1 9762   3.955   4.466  15.097 -0.0988  0.3087 -0.4465
  659TMC3    O2 9763   4.206   0.111  15.311 -0.6366  0.2113 -0.1139
  660MPD2     C 9764   2.557   3.137  12.645 -0.3018  0.1012  0.8096
  660MPD2    C1 9765   2.423   3.168  12.615 -0.5036  0.3527  0.2531
  660MPD2    C2 9766   2.319   3.110  12.695 -0.3128  0.2703 -0.1756
  660MPD2    C3 9767   2.361   3.006  12.780 -0.2359 -0.3264  0.2008
  660MPD2    C4 9768   2.491   2.960  12.791 -0.1719 -0.1667 -0.4399
  660MPD2    C5 9769   2.586   3.043  12.733  0.1858  0.4159 -0.1902
  660MPD2     H 9770   2.215   3.126  12.671 -0.6171  0.9207  1.5194
  660MPD2    H1 9771   2.523   2.882  12.858 -0.0209  1.0397  0.8852
  660MPD2    H2 9772   2.640   3.190  12.602  1.1132 -1.2245  1.9173
  660MPD2    H3 9773   2.689   3.015  12.748  0.3271 -0.2733 -2.4004
  660MPD2     N 9774   2.271   2.935  12.860  0.3549  0.5160 -0.0381
  660MPD2    H5 9775   2.294   2.844  12.897 -1.8811  0.3656  1.0007
  660MPD2    N1 9776   2.409   3.260  12.510  0.2650 -0.4386  0.0920
  660MPD2    H7 9777   2.490   3.299  12.462 -0.9220  0.0461 -1.5092
  661TMC3    C1 9778   2.303   3.420  12.374 -0.3778 -0.4714 -0.0151
  661TMC3    C2 9779   2.415   3.441  12.308 -0.5229 -0.1776 -1.0100
  661TMC3    C3 9780   2.430   3.554  12.233 -0.6865  0.6816  0.0829
  661TMC3    C4 9781   2.205   3.516  12.370 -0.2442 -0.4266  0.0468
  661TMC3    C5 9782   2.222   3.632  12.309 -0.3780  0.2092  0.4367
  661TMC3    C6 9783   2.334   3.646  12.228  0.4976  0.7780  0.0423
  661TMC3     C 9784   2.292   3.313  12.473 -0.4498  0.4067 -0.1741
  661TMC3     O 9785   2.180   3.305  12.524  0.6481 -0.5453 -0.2767
  661TMC3     H 9786   2.495   3.369  12.292  0.7820  1.0878 -0.1623
  661TMC3    H1 9787   2.116   3.495  12.428 -0.2608  0.4392  0.3366
  661TMC3    H2 9788   2.322   3.735  12.167 -0.0133  0.6443 -0.0573
  661TMC3    C7 9789   2.100   3.695  12.274 -0.2897 -0.4566 -0.1564
  661TMC3    C8 9790   2.508   3.539  12.108 -0.3279  0.2769  0.3332
  661TMC3    O1 9791   2.101   3.816  12.277  0.0665  0.3282  0.2146
  661TMC3    O2 9792   2.561   3.432  12.082  0.4737  0.2699 -0.3516
  662MPD2     C 9793   2.927   3.747   0.035  0.5413 -0.2556 -0.4934
  662MPD2    C1 9794   2.840   3.653   0.092  0.3505 -0.4112 -0.4479
  662MPD2    C2 9795   2.714   3.690   0.126  0.1509  0.5501 -0.3132
  662MPD2    C3 9796   2.667   3.814   0.082  0.1306  0.9254  0.5303
  662MPD2    C4 9797   2.745   3.903   0.007 -0.0173  0.1582 -0.5390
  662MPD2    C5 9798   2.880   3.874   0.001  0.3141  0.4796  0.3986
  662MPD2     H 9799   2.658   3.618   0.185  0.1693  1.3449  0.6661
  662MPD2    H1 9800   2.714   3.999  17.664  1.6572  0.5760 -0.8313
  662MPD2    H2 9801   3.029   3.730   0.003  1.0684  2.2233 -0.1443
  662MPD2    H3 9802   2.942   3.943  17.643  0.1395 -0.5504 -1.0956
  662MPD2     N 9803   2.528   3.835   0.095  0.7331  0.7474 -0.3394
  662MPD2    H5 9804   2.488   3.917   0.049 -0.4078  0.4175  0.0578
  662MPD2    N1 9805   2.884   3.525   0.117  0.1963 -0.3676  0.6547
  662MPD2    H7 9806   2.836   3.479   0.195  1.1857 -1.6779  0.5058
  663TMC3    C1 9807   3.006   3.325   0.117 -0.5513 -0.5682 -0.0002
  663TMC3    C2 9808   2.926   3.296   0.217 -0.1826  0.0513  0.1010
  663TMC3    C3 9809   2.841   3.191   0.233  0.4617 -0.1345 -0.8242
  663TMC3    C4 9810   3.006   3.231   0.018  0.0274 -0.3415  0.3841
  663TMC3    C5 9811   2.917   3.124   0.033 -0.0468 -0.5561 -0.1042
  663TMC3    C6 9812   2.840   3.098   0.137  0.7166  0.2001  0.0307
  663TMC3     C 9813   2.994   3.457   0.065  0.5459  0.6794 -0.6124
  663TMC3     O 9814   3.052   3.490  17.659 -0.2311  0.0033  0.1088
  663TMC3     H 9815   2.917   3.369   0.297 -0.5669 -1.5831  1.5389
  663TMC3    H1 9816   3.065   3.244  17.625 -0.6644 -2.3964 -0.3777
  663TMC3    H2 9817   2.766   3.020   0.122 -1.5017  2.2690  0.1592
  663TMC3    C7 9818   2.892   3.052  17.603 -1.1619 -0.3829 -0.5560
  663TMC3    C8 9819   2.708   3.245   0.270  0.1267  0.2773 -0.0233
  663TMC3    O1 9820   2.910   3.125  17.502  0.0516 -0.1526 -0.3765
  663TMC3    O2 9821   2.695   3.365   0.259 -0.2585  0.3629  0.3221
  664MPD2     C 9822   0.933   1.700   0.040  1.0183 -0.2564  0.1518
  664MPD2    C1 9823   1.025   1.624   0.105 -0.0879  0.0074 -0.0311
  664MPD2    C2 9824   0.983   1.504   0.168  0.2129  0.2675  0.0848
  664MPD2    C3 9825   0.852   1.455   0.157 -0.2225  0.0661  0.5278
  664MPD2    C4 9826   0.756   1.539   0.098  0.6744 -0.0333  0.2116
  664MPD2    C5 9827   0.804   1.656   0.037  0.5258  0.1722  0.2008
  664MPD2     H 9828   1.058   1.440   0.214  1.2294 -0.1257 -2.1349
  664MPD2    H1 9829   0.649   1.524   0.096  0.4870  1.2232  0.6134
  664MPD2    H2 9830   0.961   1.791  17.685 -0.2537  0.6892  1.1334
  664MPD2    H3 9831   0.727   1.717  17.689 -1.0043 -3.1903 -1.7991
  664MPD2     N 9832   0.818   1.334   0.210 -0.4960 -0.3951  1.0441
  664MPD2    H5 9833   0.887   1.281   0.263 -2.0788 -2.2791  1.2223
  664MPD2    N1 9834   1.156   1.661   0.094  0.3138  0.6696  0.1616
  664MPD2    H7 9835   1.234   1.596   0.088 -0.9217 -0.6520 -1.2495
  665TMC3    C1 9836   0.683   1.143   0.242  0.1678 -0.4832  0.4462
  665TMC3    C2 9837   0.597   1.051   0.181  0.0045  0.4877 -0.2100
  665TMC3    C3 9838   0.573   0.925   0.228  0.5664 -0.4725 -0.0543
  665TMC3    C4 9839   0.736   1.113   0.366  0.2691 -0.0592 -0.7102
  665TMC3    C5 9840   0.712   0.986   0.414  0.7910  0.0685 -0.6796
  665TMC3    C6 9841   0.636   0.890   0.346 -0.1693 -0.0057  1.0470
  665TMC3     C 9842   0.705   1.267   0.177 -0.0457  0.4281 -0.1138
  665TMC3     O 9843   0.623   1.298   0.095  0.4985 -0.5928 -0.3483
  665TMC3     H 9844   0.540   1.075   0.092 -0.4198  2.0498  0.4916
  665TMC3    H1 9845   0.808   1.183   0.406 -0.2877 -0.1812  0.5055
  665TMC3    H2 9846   0.625   0.789   0.385  1.6336 -0.3658  0.6175
  665TMC3    C7 9847   0.722   0.965   0.562  0.1518  0.3141  0.1489
  665TMC3    C8 9848   0.430   0.908   0.235 -0.4879 -0.3967 -0.6594
  665TMC3    O1 9849   0.715   0.847   0.603  0.5539 -0.1905 -0.4642
  665TMC3    O2 9850   0.383   0.952   0.339 -0.1972 -0.4591  0.8082
  666TMC3    C1 9851   4.203   1.577  10.065  0.6164  0.2940  0.5655
  666TMC3    C2 9852   4.315   1.511  10.018 -0.2445 -0.3611  0.2812
  666TMC3    C3 9853   4.406   1.592   9.951 -0.3855  0.2713  0.1076
  666TMC3    C4 9854   4.181   1.702  10.041  0.8513  0.1503  0.2733
  666TMC3    C5 9855   4.284   1.784   9.994  0.0880  0.2252  0.1295
  666TMC3    C6 9856   4.388   1.728   9.937  0.4112 -0.2375  0.3052
  666TMC3     C 9857   4.097   1.511  10.138  0.1145 -0.0647 -0.0639
  666TMC3     O 9858   3.985   1.541  10.095  0.0137 -0.1454 -0.1776
  666TMC3     H 9859   4.346   1.412  10.047  3.0677  0.0978 -1.7205
  666TMC3    H1 9860   4.090   1.741  10.086 -0.2777 -0.4553 -1.5307
  666TMC3    H2 9861   4.448   1.790   9.871 -1.8550 -1.5127 -2.9552
  666TMC3    C7 9862   4.290   1.910  10.051 -0.0748 -0.0339  0.1218
  666TMC3    C8 9863   4.541   1.550   9.969 -0.0779  0.4319 -0.2705
  666TMC3    O1 9864   4.200   1.944  10.126 -0.0446  0.3025  0.0514
  666TMC3    O2 9865   4.561   1.435  10.015  0.1626 -0.2083 -0.1699
  667MPD2     C 9866   0.766   1.783  14.560 -0.2836  0.2649  0.3681
  667MPD2    C1 9867   0.799   1.656  14.522  0.0758  0.3627  0.5367
  667MPD2    C2 9868   0.709   1.586  14.438 -0.5735 -0.3902 -0.0505
  667MPD2    C3 9869   0.589   1.644  14.399  0.2913  0.1815 -0.1527
  667MPD2    C4 9870   0.563   1.770  14.443 -0.5305  0.3593  0.2561
  667MPD2    C5 9871   0.654   1.841  14.510  0.3602  0.1864  0.3878
  667MPD2     H 9872   0.722   1.485  14.401  0.0966 -0.2564 -0.1741
  667MPD2    H1 9873   0.474   1.825  14.414 -0.4389  0.8512  0.9037
  667MPD2    H2 9874   0.833   1.848  14.614 -2.4341  3.0306 -0.3077
  667MPD2    H3 9875   0.627   1.942  14.539 -0.5048  0.3990 -1.1445
  667MPD2     N 9876   0.487   1.573  14.324  0.6285 -0.2071 -0.1147
  667MPD2    H5 9877   0.518   1.482  14.290 -0.0939 -0.9530  1.2086
  667MPD2    N1 9878   0.914   1.587  14.565  0.1255  0.5587  0.0345
  667MPD2    H7 9879   0.909   1.485  14.558  0.8342  0.5934 -1.0095
  668TMC3    C1 9880   1.072   1.556  14.739 -0.2227 -0.7511  0.2569
  668TMC3    C2 9881   1.198   1.589  14.781  0.0301 -0.1622 -0.0926
  668TMC3    C3 9882   1.253   1.504  14.877 -0.5605  0.3691  0.7279
  668TMC3    C4 9883   0.995   1.450  14.780  0.5052 -0.3009 -0.1225
  668TMC3    C5 9884   1.047   1.384  14.885  0.1702  0.4449 -0.6002
  668TMC3    C6 9885   1.175   1.408  14.935 -0.0664  0.1559 -0.3114
  668TMC3     C 9886   1.018   1.644  14.635 -0.4690  0.6625  0.4543
  668TMC3     O 9887   1.051   1.761  14.647 -0.7882 -0.0243  0.2895
  668TMC3     H 9888   1.240   1.685  14.754  0.9205 -0.4502  0.2727
  668TMC3    H1 9889   0.890   1.447  14.752 -0.4179 -2.1192  3.4901
  668TMC3    H2 9890   1.215   1.333  15.004  0.3673  0.9365  0.2809
  668TMC3    C7 9891   0.960   1.279  14.943  0.4370  0.2281 -0.5367
  668TMC3    C8 9892   1.367   1.554  14.952  0.1660 -0.1641  0.6411
  668TMC3    O1 9893   0.894   1.218  14.859 -0.7868 -0.1126 -0.4109
  668TMC3    O2 9894   1.357   1.525  15.070  0.5970  0.2166  0.8964
  669TMC3    C1 9895   4.147   1.603  14.039 -1.0217  0.0749  0.5425
  669TMC3    C2 9896   4.034   1.630  13.970 -0.9146  0.0276 -0.5088
  669TMC3    C3 9897   4.048   1.709  13.858 -0.3215  0.0763 -0.2737
  669TMC3    C4 9898   4.276   1.641  13.999 -0.3044 -0.5751 -0.0734
  669TMC3    C5 9899   4.277   1.727  13.893 -0.6675 -0.3217 -0.0944
  669TMC3    C6 9900   4.171   1.758  13.813 -0.1689 -0.2203  0.4112
  669TMC3     C 9901   4.127   1.528  14.160 -0.2134 -0.1448  0.6554
  669TMC3     O 9902   4.014   1.512  14.194 -0.1804  0.3779 -0.1133
  669TMC3     H 9903   3.941   1.580  13.997 -0.3504 -0.9524 -0.3697
  669TMC3    H1 9904   4.361   1.632  14.065 -2.0347 -2.5031  1.8998
  669TMC3    H2 9905   4.186   1.800  13.715 -0.2230  0.2944  0.6242
  669TMC3    C7 9906   4.404   1.786  13.860  0.5325  1.0320 -0.5142
  669TMC3    C8 9907   3.932   1.720  13.775  0.4192  0.5362  0.8575
  669TMC3    O1 9908   4.478   1.816  13.953 -0.4004  0.2616  0.2175
  669TMC3    O2 9909   3.841   1.646  13.814 -0.0555  0.3077  0.5950
  670MPD2     C 9910   2.555   3.810  13.063 -0.1618 -0.0706  0.2223
  670MPD2    C1 9911   2.592   3.889  13.169 -0.4148  0.9682 -0.6274
  670MPD2    C2 9912   2.505   3.908  13.273  0.0403  0.2376 -0.0392
  670MPD2    C3 9913   2.391   3.827  13.284  0.1840  0.3159  0.9663
  670MPD2    C4 9914   2.365   3.740  13.183  0.0857 -0.0363  0.2322
  670MPD2    C5 9915   2.438   3.736  13.076 -0.6950 -0.1323  0.0511
  670MPD2     H 9916   2.521   3.988  13.343  0.7845  0.0783 -0.0321
  670MPD2    H1 9917   2.279   3.674  13.180  0.4593 -0.2755 -4.3737
  670MPD2    H2 9918   2.620   3.795  12.977 -0.4126  1.3896 -0.2320
  670MPD2    H3 9919   2.418   3.655  13.007 -0.4676  0.1298 -0.3258
  670MPD2     N 9920   2.313   3.840  13.404  0.2176 -0.1714  0.1063
  670MPD2    H5 9921   2.321   3.932  13.446  1.7046 -0.7116  1.0289
  670MPD2    N1 9922   2.709   3.971  13.162  0.3065  0.2284 -0.4747
  670MPD2    H7 9923   2.722   4.023  13.249 -0.7955  0.3355 -0.3837
  671TMC3    C1 9924   2.166   3.780  13.585  0.1959  0.0941 -0.0710
  671TMC3    C2 9925   2.258   3.831  13.669 -0.1454 -0.2347 -0.0752
  671TMC3    C3 9926   2.251   3.790  13.797 -0.0211 -0.4349 -0.4196
  671TMC3    C4 9927   2.055   3.710  13.627  0.8948 -0.5360 -0.4073
  671TMC3    C5 9928   2.037   3.701  13.761  0.1566 -0.5598  0.5047
  671TMC3    C6 9929   2.134   3.739  13.844  0.3554 -0.0233  0.1963
  671TMC3     C 9930   2.215   3.754  13.445 -0.1988  0.7700 -0.1959
  671TMC3     O 9931   2.173   3.652  13.394  0.6856 -0.4121 -0.2079
  671TMC3     H 9932   2.353   3.868  13.632  0.6594 -2.4681 -0.2441
  671TMC3    H1 9933   1.982   3.672  13.557  1.9383 -1.1290 -1.1770
  671TMC3    H2 9934   2.125   3.728  13.952 -1.6868  1.9321  0.2363
  671TMC3    C7 9935   1.950   3.595  13.799 -1.4419  0.1479  0.1066
  671TMC3    C8 9936   2.373   3.732  13.858 -0.2821  0.0070  0.2185
  671TMC3    O1 9937   1.856   3.569  13.722  0.3426 -0.2433  0.3994
  671TMC3    O2 9938   2.464   3.703  13.782  0.3351 -0.2714  0.3502
  672MPD2     C 9939   3.271   3.734   0.755 -0.2030 -0.7579  0.0916
  672MPD2    C1 9940   3.311   3.862   0.726  0.1406  0.8442  0.0162
  672MPD2    C2 9941   3.295   3.950   0.831 -0.1504 -0.5497  0.3367
  672MPD2    C3 9942   3.252   3.920   0.956  0.7787 -0.2982  0.5805
  672MPD2    C4 9943   3.215   3.788   0.976 -0.1563  0.2598  0.5023
  672MPD2    C5 9944   3.225   3.696   0.875  0.2309 -0.3520 -0.4644
  672MPD2     H 9945   3.316   4.052   0.800  1.3601 -0.1414  2.7059
  672MPD2    H1 9946   3.186   3.754   1.075  0.7561 -0.1944  0.6155
  672MPD2    H2 9947   3.295   3.657   0.683  1.7327 -0.3708  0.3258
  672MPD2    H3 9948   3.207   3.591   0.891 -0.8426 -0.4949 -2.5370
  672MPD2     N 9949   3.237   4.002   1.065  0.5684  0.3497  0.1193
  672MPD2    H5 9950   3.206   3.960   1.152 -1.7321  1.5118 -0.1574
  672MPD2    N1 9951   3.375   3.903   0.603  0.7854 -0.5087 -0.3738
  672MPD2    H7 9952   3.413   3.997   0.601 -0.2094 -0.1285 -1.4777
  673TMC3    C1 9953   3.480   3.886   0.390 -0.0898 -0.2409 -0.4074
  673TMC3    C2 9954   3.571   3.806   0.323 -0.3279  0.0958 -0.1168
  673TMC3    C3 9955   3.680   3.870   0.278 -0.9534 -0.1477 -0.9933
  673TMC3    C4 9956   3.487   4.027   0.398  0.0383  0.0720 -0.8118
  673TMC3    C5 9957   3.603   4.082   0.353 -0.3068  0.3567 -0.2602
  673TMC3    C6 9958   3.693   4.004   0.298  0.7205 -0.2432  0.9384
  673TMC3     C 9959   3.396   3.824   0.489  0.6574  0.6735 -0.0389
  673TMC3     O 9960   3.373   3.704   0.474  0.3617  0.5497 -0.3427
  673TMC3     H 9961   3.574   3.699   0.341  3.3791 -0.0765 -1.7599
  673TMC3    H1 9962   3.402   4.086   0.429 -0.3796 -0.9932  0.0597
  673TMC3    H2 9963   3.791   4.047   0.285 -0.0987  0.9244 -1.3070
  673TMC3    C7 9964   3.629   4.225   0.349  0.3731  0.3421  0.0104
  673TMC3    C8 9965   3.795   3.785   0.271  0.9735 -0.3562 -0.3503
  673TMC3    O1 9966   3.722   4.258   0.278 -0.0788  0.2736  0.4984
  673TMC3    O2 9967   3.797   3.698   0.186  0.9096 -0.6249 -0.3516
  674MPD2     C 9968   2.724   4.005   1.066  0.0358 -0.2473 -0.2074
  674MPD2    C1 9969   2.697   3.887   1.002  0.7655 -0.2127 -0.2293
  674MPD2    C2 9970   2.588   3.812   1.050 -0.3169 -0.1279  0.0898
  674MPD2    C3 9971   2.510   3.855   1.158 -0.4446 -0.6082 -0.4660
  674MPD2    C4 9972   2.534   3.972   1.216  0.5706 -0.1352 -1.2799
  674MPD2    C5 9973   2.635   4.049   1.171 -0.5384  0.8032  0.1675
  674MPD2     H 9974   2.576   3.715   1.002 -1.5698 -0.1042  0.3497
  674MPD2    H1 9975   2.471   4.015   1.293  2.0163  0.5542 -0.4848
  674MPD2    H2 9976   2.806   4.071   1.040 -1.6191  1.8518 -0.1550
  674MPD2    H3 9977   2.647   4.146   1.218  1.2999  0.5050  0.3312
  674MPD2     N 9978   2.405   3.776   1.193 -0.7159 -0.3167  0.5842
  674MPD2    H5 9979   2.382   3.694   1.136  2.0711 -0.3447 -0.5034
  674MPD2    N1 9980   2.782   3.857   0.896 -0.2604 -0.0795 -0.4851
  674MPD2    H7 9981   2.857   3.923   0.877  1.0250 -1.4275 -0.0968
  675TMC3    C1 9982   2.876   3.745   0.705  0.1251 -0.4283 -0.1975
  675TMC3    C2 9983   2.908   3.620   0.667  0.0744 -0.0176 -0.5606
  675TMC3    C3 9984   2.979   3.603   0.555  0.0218 -0.9055  0.3109
  675TMC3    C4 9985   2.902   3.860   0.637  0.2465 -0.1910 -0.8128
  675TMC3    C5 9986   2.960   3.844   0.514  0.1851 -0.8440  0.2850
  675TMC3    C6 9987   3.009   3.713   0.480 -0.1845  0.2213  0.6757
  675TMC3     C 9988   2.786   3.743   0.816 -0.2459 -0.1704  0.3222
  675TMC3     O 9989   2.730   3.641   0.848  0.4350  1.1656 -0.0523
  675TMC3     H 9990   2.909   3.543   0.743  0.3796 -0.7594 -1.3112
  675TMC3    H1 9991   2.861   3.956   0.664  3.6505  1.2698 -0.9089
  675TMC3    H2 9992   3.059   3.692   0.386 -1.7620 -0.4184 -0.0077
  675TMC3    C7 9993   3.007   3.956   0.446  0.4131  0.4635  0.1110
  675TMC3    C8 9994   3.036   3.476   0.526  0.5073  0.0343  0.4808
  675TMC3    O1 9995   2.992   4.060   0.505 -0.0018 -0.0719 -0.5621
  675TMC3    O2 9996   3.127   3.475   0.442  0.0280 -0.4613  0.0984
  676MPD2     C 9997   0.778   2.544  10.942 -0.3050 -0.4047 -0.3066
  676MPD2    C1 9998   0.674   2.516  11.027  0.5955  0.5561  0.2300
  676MPD2    C2 9999   0.607   2.400  11.012 -0.6468  0.0429  0.1020
  676MPD2    C310000   0.635   2.310  10.913  0.4603 -0.3842 -0.2087
  676MPD2    C410001   0.734   2.337  10.825 -0.1033  1.1734 -0.3801
  676MPD2    C510002   0.799   2.455  10.836  0.5500  0.1978 -0.4521
  676MPD2     H10003   0.534   2.379  11.089 -0.1296 -0.3112  0.4954
  676MPD2    H110004   0.757   2.276  10.738 -2.0297  1.1706 -0.8879
  676MPD2    H210005   0.830   2.639  10.935  1.2111 -1.1704  0.7496
  676MPD2    H310006   0.872   2.474  10.758 -0.5250  1.2374 -1.2092
  676MPD2     N10007   0.557   2.196  10.889 -0.6576  0.2060 -0.0485
  676MPD2    H510008   0.581   2.136  10.811 -0.1241 -0.8929  0.9616
  676MPD2    N110009   0.648   2.595  11.138 -0.1106  0.4286 -0.7515
  676MPD2    H710010   0.568   2.571  11.196 -0.0458  2.7659  0.2895
  677TMC3    C110011   0.704   2.710  11.322 -0.1821 -0.4213 -0.0244
  677TMC3    C210012   0.655   2.615  11.408 -0.2195  0.8764 -0.6728
  677TMC3    C310013   0.622   2.645  11.538 -0.2714  0.7882  1.1223
  677TMC3    C410014   0.726   2.835  11.358 -0.6062 -0.7341 -0.4144
  677TMC3    C510015   0.683   2.865  11.486  0.6309  0.9304 -0.7728
  677TMC3    C610016   0.644   2.779  11.583 -0.7117 -0.2105  0.7760
  677TMC3     C10017   0.735   2.690  11.188 -0.0459 -0.0412 -0.0205
  677TMC3     O10018   0.817   2.764  11.137 -0.0201 -0.0701  0.1215
  677TMC3     H10019   0.628   2.516  11.374  0.4598 -0.1477  1.7268
  677TMC3    H110020   0.751   2.919  11.293  2.1565 -0.8952  0.4159
  677TMC3    H210021   0.609   2.817  11.678  0.1659  0.2249  0.9258
  677TMC3    C710022   0.716   2.992  11.537  0.6531 -0.8480  0.1260
  677TMC3    C810023   0.603   2.537  11.631 -0.3201 -0.4562  0.3304
  677TMC3    O110024   0.634   3.045  11.612 -0.0718 -0.1868  0.3623
  677TMC3    O210025   0.634   2.424  11.598  0.6551 -0.4279  0.4891
  678MPD2     C10026   1.602   1.938   1.674  0.0125 -0.1149  0.1843
  678MPD2    C110027   1.631   1.923   1.541  0.5519  0.1580 -0.0126
  678MPD2    C210028   1.537   1.934   1.441 -0.1643  0.1918  0.0961
  678MPD2    C310029   1.409   1.974   1.477  0.1524 -0.2879 -0.2517
  678MPD2    C410030   1.387   2.000   1.609  0.6411 -0.0957  0.3702
  678MPD2    C510031   1.479   1.980   1.708 -0.1442 -0.0923  0.4648
  678MPD2     H10032   1.557   1.908   1.338 -1.2467  1.1949 -0.3693
  678MPD2    H110033   1.293   2.038   1.648  1.0011  1.7209 -0.5243
  678MPD2    H210034   1.676   1.927   1.753 -0.9452 -3.0845  0.6590
  678MPD2    H310035   1.452   1.997   1.812  1.2439 -0.1954  0.8370
  678MPD2     N10036   1.323   2.002   1.369  0.4248  0.0379  0.2332
  678MPD2    H510037   1.361   1.985   1.276 -0.1329  0.6539 -0.1087
  678MPD2    N110038   1.758   1.896   1.493 -0.7001 -0.3335 -0.2319
  678MPD2    H710039   1.770   1.899   1.392  0.0668 -1.7683 -0.1810
  679TMC3    C110040   2.185   1.753   1.406  0.0021 -0.2396 -0.9476
  679TMC3    C210041   2.067   1.752   1.472  0.6069 -0.0845 -0.3120
  679TMC3    C310042   1.983   1.854   1.475 -0.4323  0.9239  0.5752
  679TMC3    C410043   2.224   1.865   1.334  0.1380 -0.2553 -0.6910
  679TMC3    C510044   2.134   1.972   1.334 -0.1982 -0.4154 -1.0794
  679TMC3    C610045   2.022   1.974   1.409  0.8557 -0.4440  0.2419
  679TMC3     C10046   2.273   1.629   1.393 -0.2244  0.6574 -0.1744
  679TMC3     O10047   2.365   1.639   1.312  0.3126  0.1586  0.2676
  679TMC3     H10048   2.020   1.667   1.520 -2.1357  0.9698 -1.1187
  679TMC3    H110049   2.324   1.867   1.292  0.9148  1.1353  1.1894
  679TMC3    H210050   1.959   2.062   1.417  1.8184  0.1094  1.7381
  679TMC3    C710051   2.165   2.093   1.266  0.4180  0.2277  0.2890
  679TMC3    C810052   1.872   1.851   1.562  0.3250  0.2085  0.2762
  679TMC3    O110053   2.073   2.169   1.247  0.6634  0.3824  0.4554
  679TMC3    O210054   1.893   1.829   1.682 -0.4778 -0.3617  0.3410
  680MPD2     C10055   2.254   0.970  13.875 -0.2789  0.1935 -0.1953
  680MPD2    C110056   2.361   0.908  13.820 -0.0247  0.3009  0.0973
  680MPD2    C210057   2.479   0.976  13.793  0.2081  0.2524  0.2653
  680MPD2    C310058   2.490   1.112  13.829 -0.6532 -0.8646  0.2654
  680MPD2    C410059   2.383   1.172  13.896  0.5798  0.4578 -0.1003
  680MPD2    C510060   2.266   1.101  13.911  0.3591 -0.0168  0.4958
  680MPD2     H10061   2.565   0.919  13.761  0.5193  2.4879 -2.9161
  680MPD2    H110062   2.388   1.275  13.930 -1.3065  0.4137  0.3339
  680MPD2    H210063   2.162   0.915  13.891  0.6936 -1.0224  1.1815
  680MPD2    H310064   2.183   1.142  13.967 -1.1217  0.3453 -1.9272
  680MPD2     N10065   2.608   1.186  13.811  0.1399  0.3613 -0.2226
  680MPD2    H510066   2.610   1.268  13.871 -0.8495 -0.0939  0.4428
  680MPD2    N110067   2.361   0.775  13.779 -0.4242 -0.3184 -0.0591
  680MPD2    H710068   2.443   0.752  13.724  2.3807  1.8041  3.2421
  681TMC3    C110069   2.324   0.557  13.772  0.1849  0.0619 -0.2793
  681TMC3    C210070   2.328   0.454  13.861 -0.2336 -0.2890  0.1112
  681TMC3    C310071   2.421   0.355  13.845 -0.1742 -0.1482 -0.1455
  681TMC3    C410072   2.405   0.563  13.663  0.6177 -1.2160  0.0724
  681TMC3    C510073   2.498   0.458  13.644 -0.7493  0.4376  0.1568
  681TMC3    C610074   2.506   0.355  13.732 -0.8422 -0.1363  0.2938
  681TMC3     C10075   2.270   0.679  13.816 -0.2092  0.8807 -0.3274
  681TMC3     O10076   2.183   0.684  13.903  0.6435 -0.1483 -0.1717
  681TMC3     H10077   2.260   0.454  13.946 -2.0891 -0.8426 -1.3826
  681TMC3    H110078   2.399   0.635  13.583  0.5871  0.9069  1.9918
  681TMC3    H210079   2.551   0.262  13.698  0.4892  0.5935  0.0718
  681TMC3    C710080   2.567   0.434  13.518 -0.0335  0.5145 -0.0508
  681TMC3    C810081   2.431   0.250  13.943 -0.9185 -0.3098 -0.6297
  681TMC3    O110082   2.603   0.319  13.489 -0.0312  0.0045 -0.4645
  681TMC3    O210083   2.485   0.147  13.911 -0.4874  0.0335  0.2738
  682MPD2     C10084   4.129   3.018  10.829  0.4112 -0.0988  0.2630
  682MPD2    C110085   4.079   2.896  10.880 -0.0536  0.1204 -0.1718
  682MPD2    C210086   4.020   2.890  11.006 -0.2507  0.2758  0.1768
  682MPD2    C310087   4.031   2.997  11.089 -0.0668 -0.1561  0.0611
  682MPD2    C410088   4.081   3.118  11.046  0.4832  0.2749 -0.3609
  682MPD2    C510089   4.123   3.123  10.915  0.0654  0.0657  0.2304
  682MPD2     H10090   3.976   2.797  11.040  2.5042 -0.9117  0.4936
  682MPD2    H110091   4.091   3.202  11.113  1.7653  0.2217 -0.4821
  682MPD2    H210092   4.187   3.044  10.742 -1.4421  2.4577 -0.2181
  682MPD2    H310093   4.167   3.217  10.884  0.3756  0.0126  0.5078
  682MPD2     N10094   3.996   2.975  11.222  0.4633  0.4563  0.1384
  682MPD2    H510095   3.944   2.889  11.242 -0.1406  0.9936  0.8831
  682MPD2    N110096   4.083   2.777  10.814 -0.0307 -0.0777  0.1733
  682MPD2    H710097   4.050   2.700  10.872  0.9246 -0.8594 -0.3074
  683TMC3    C110098   4.032   2.826  11.608  0.2939  1.2756 -0.1578
  683TMC3    C210099   3.923   2.756  11.587 -0.0138  0.4327  0.3514
  683TMC3    C310100   3.833   2.803  11.490  0.8665 -0.7583  0.4332
  683TMC3    C410101   4.059   2.935  11.537  0.3504 -0.2974  0.3050
  683TMC3    C510102   3.974   2.974  11.439 -0.5545 -0.4759 -0.1785
  683TMC3    C610103   3.858   2.916  11.419 -0.0559 -0.7228  1.4062
  683TMC3     C10104   4.148   2.753  11.654  0.1750 -0.0177  0.9303
  683TMC3     O10105   4.256   2.787  11.609 -0.4178 -0.6647  0.3393
  683TMC3     H10106   3.895   2.673  11.650  3.0566 -0.0431  1.0918
  683TMC3    H110107   4.157   2.981  11.544  0.9854 -1.6059  0.1350
  683TMC3    H210108   3.781   2.951  11.351  0.9531 -0.2990  0.4695
  683TMC3    C710109   4.031   3.046  11.331 -0.4424 -0.0565  1.0043
  683TMC3    C810110   3.733   2.712  11.433 -0.4972  0.1490  0.7630
  683TMC3    O110111   4.107   3.145  11.340  0.0306 -0.1145  0.2611
  683TMC3    O210112   3.665   2.755  11.344  0.2802  0.0780  0.1431
  684MPD2     C10113   2.254   2.198  16.589 -0.1109 -0.1607 -0.4726
  684MPD2    C110114   2.335   2.194  16.481  0.0276  0.9465  0.0815
  684MPD2    C210115   2.415   2.306  16.460  0.0421 -0.4529 -0.0504
  684MPD2    C310116   2.438   2.408  16.551  0.2488  0.6130 -0.2263
  684MPD2    C410117   2.362   2.400  16.662 -0.2705 -0.3138  0.7838
  684MPD2    C510118   2.260   2.310  16.676  0.0904 -0.6818 -0.1483
  684MPD2     H10119   2.480   2.304  16.372 -0.2795  0.6230 -0.3082
  684MPD2    H110120   2.366   2.480  16.736  0.4317  0.4816 -0.1174
  684MPD2    H210121   2.170   2.133  16.613 -0.9974  1.5692  1.1007
  684MPD2    H310122   2.209   2.309  16.771  0.6595 -0.1790  0.1635
  684MPD2     N10123   2.538   2.501  16.531  1.0252  0.1724  0.6987
  684MPD2    H510124   2.576   2.515  16.438 -0.9878 -0.0541 -0.1634
  684MPD2    N110125   2.334   2.087  16.392 -0.3537  0.8236  0.3697
  684MPD2    H710126   2.405   2.088  16.319 -0.8596  1.6457 -0.1131
  685TMC3    C110127   2.311   1.876  16.307 -0.2882 -0.2447 -0.0011
  685TMC3    C210128   2.226   1.820  16.211 -0.4210 -0.9119  0.2634
  685TMC3    C310129   2.290   1.771  16.106  0.5380 -0.4033  0.4047
  685TMC3    C410130   2.452   1.869  16.300  0.6081 -0.0053 -0.1935
  685TMC3    C510131   2.507   1.805  16.200 -0.1863 -0.0881  0.0553
  685TMC3    C610132   2.428   1.750  16.099  0.5502 -0.2953  0.0559
  685TMC3     C10133   2.251   1.981  16.398  0.7017  0.0736  0.1192
  685TMC3     O10134   2.154   1.962  16.464  0.5036 -0.2217  0.0414
  685TMC3     H10135   2.119   1.820  16.226 -0.5657 -1.1902 -0.8111
  685TMC3    H110136   2.513   1.922  16.373 -1.8713  1.5708  0.7335
  685TMC3    H210137   2.457   1.707  16.004  1.6470  1.5275 -0.4235
  685TMC3    C710138   2.646   1.770  16.222 -0.1678 -1.0423  0.1920
  685TMC3    C810139   2.216   1.736  15.989 -0.4315 -0.1308 -0.1160
  685TMC3    O110140   2.673   1.765  16.343  0.0752  0.0847 -0.3493
  685TMC3    O210141   2.244   1.651  15.909  0.6608  0.2157  0.4651
  686MPD2     C10142   4.103   1.225  15.378 -0.0363  0.2110 -0.0198
  686MPD2    C110143   4.163   1.248  15.501  0.0737 -0.1210  0.4360
  686MPD2    C210144   4.256   1.147  15.543  0.3099  0.1026 -0.2524
  686MPD2    C310145   4.260   1.021  15.481 -0.0838 -0.1061 -0.4295
  686MPD2    C410146   4.202   1.003  15.360 -0.3863 -0.3688 -0.8316
  686MPD2    C510147   4.129   1.110  15.306  0.7272  0.3949 -0.3886
  686MPD2     H10148   4.322   1.167  15.627 -1.6296  1.1505  1.0367
  686MPD2    H110149   4.217   0.912  15.304  1.1110 -0.7576  0.2021
  686MPD2    H210150   4.037   1.296  15.329 -1.1801 -1.5530 -1.0359
  686MPD2    H310151   4.087   1.096  15.207 -1.2138  0.1548  0.4647
  686MPD2     N10152   4.327   0.904  15.535  0.4235  0.2574 -0.1253
  686MPD2    H510153   4.337   0.822  15.478  0.6600 -0.5045  1.0128
  686MPD2    N110154   4.131   1.366  15.567  0.2145 -0.3331  0.3638
  686MPD2    H710155   4.067   1.428  15.518  2.6341  2.8178  1.2190
  687TMC3    C110156   4.288   0.972  15.774 -0.1339 -0.0679 -0.2506
  687TMC3    C210157   4.155   0.970  15.784 -0.0301  0.8371 -0.7259
  687TMC3    C310158   4.107   0.991  15.910  0.4600 -0.3607  0.4817
  687TMC3    C410159   4.383   1.006  15.873 -0.4294  0.9925 -0.2315
  687TMC3    C510160   4.326   1.046  15.989  0.1229  0.3275 -0.9647
  687TMC3    C610161   4.191   1.037  16.013 -0.6952 -0.1623  0.0213
  687TMC3     C10162   4.354   0.882  15.670 -0.3002 -1.2682 -0.3124
  687TMC3     O10163   4.421   0.791  15.721 -0.6965 -0.4461 -0.2494
  687TMC3     H10164   4.086   0.949  15.704 -0.3372 -1.7974  0.2123
  687TMC3    H110165   4.485   0.969  15.869 -1.5852 -2.4291  1.8042
  687TMC3    H210166   4.139   1.086  16.094 -1.1360 -1.7836  0.7325
  687TMC3    C710167   4.396   1.121  16.083  0.6520  0.4816 -0.0918
  687TMC3    C810168   3.978   1.044  15.916 -1.3480 -0.0937  0.1876
  687TMC3    O110169   4.330   1.160  16.187 -0.0735 -0.3974 -0.5443
  687TMC3    O210170   3.913   1.002  16.010 -0.1092 -0.0766  0.6688
  688MPD2     C10171   3.292   0.806  17.255  0.1692  0.7551 -0.2600
  688MPD2    C110172   3.345   0.683  17.301 -0.1092  0.4925 -0.2721
  688MPD2    C210173   3.442   0.622  17.229  0.2997  0.0653  0.1190
  688MPD2    C310174   3.500   0.675  17.111 -0.5352 -0.1362  0.8998
  688MPD2    C410175   3.443   0.790  17.070 -0.2051  0.5169  0.9082
  688MPD2    C510176   3.352   0.860  17.142  0.2942  0.0176  0.3807
  688MPD2     H10177   3.460   0.520  17.261 -1.3374  0.0746  1.0504
  688MPD2    H110178   3.479   0.834  16.978 -0.7502  2.1994  1.5048
  688MPD2    H210179   3.221   0.862  17.314 -0.9291  0.7833 -1.5862
  688MPD2    H310180   3.333   0.963  17.113  1.9117 -0.5070 -2.5475
  688MPD2     N10181   3.601   0.612  17.035  0.1759 -0.0470 -0.7017
  688MPD2    H510182   3.653   0.669  16.968  0.3543  0.2652 -0.2965
  688MPD2    N110183   3.307   0.627  17.428  0.2611 -0.1571 -0.1283
  688MPD2    H710184   3.375   0.559  17.462  0.9972  0.9987  0.7110
  689TMC3    C110185   3.198   0.582  17.631 -1.1067 -0.3637  0.0987
  689TMC3    C210186   3.149   0.628   0.058  0.0566  0.2995  0.4301
  689TMC3    C310187   3.155   0.547   0.168  0.0081  0.2587 -0.2945
  689TMC3    C410188   3.237   0.456  17.607  0.7900  0.3933  0.8707
  689TMC3    C510189   3.244   0.385   0.030 -0.5425  0.4749  0.2894
  689TMC3    C610190   3.204   0.428   0.149  0.4279  0.9346 -0.0554
  689TMC3     C10191   3.202   0.659  17.515 -0.5369  0.3419  0.2129
  689TMC3     O10192   3.122   0.748  17.500  0.4240  0.0556 -0.1668
  689TMC3     H10193   3.124   0.733   0.061 -2.1758 -0.2410  0.2691
  689TMC3    H110194   3.270   0.415  17.513 -1.4183 -0.8365  0.6252
  689TMC3    H210195   3.203   0.359   0.232 -1.6132  1.1290  0.0748
  689TMC3    C710196   3.285   0.246   0.027 -0.7576 -0.7723 -0.1826
  689TMC3    C810197   3.090   0.567   0.293 -0.0430  0.9176 -0.3535
  689TMC3    O110198   3.342   0.207   0.127  0.1745 -1.0175 -0.1188
  689TMC3    O210199   3.113   0.494   0.386  0.6545 -0.1264  0.4627
  690MPD2     C10200   0.692   1.939  15.725 -0.5460  0.1329  0.1962
  690MPD2    C110201   0.685   1.976  15.591 -0.3418  0.5104  0.4144
  690MPD2    C210202   0.755   2.084  15.551 -0.7450  0.2299 -0.3052
  690MPD2    C310203   0.837   2.156  15.636 -0.4394 -0.6335 -0.7987
  690MPD2    C410204   0.851   2.115  15.762 -0.5542 -0.6719  0.5352
  690MPD2    C510205   0.773   2.010  15.807 -0.0459 -0.6219 -0.1290
  690MPD2     H10206   0.743   2.118  15.449  2.5727  0.2835 -0.6650
  690MPD2    H110207   0.911   2.170  15.833 -1.3190 -0.0717  0.7087
  690MPD2    H210208   0.640   1.851  15.762 -1.8858  1.2596  0.9924
  690MPD2    H310209   0.777   1.970  15.908 -1.1873 -0.7414 -0.1237
  690MPD2     N10210   0.912   2.268  15.583  0.5750 -0.3748  0.0614
  690MPD2    H510211   0.906   2.273  15.482 -1.0402 -0.1916  0.1729
  690MPD2    N110212   0.586   1.928  15.504  0.5393 -0.2247  0.5757
  690MPD2    H710213   0.581   1.972  15.412  0.9693 -1.2166  0.0844
  691TMC3    C110214   0.384   1.832  15.446 -0.7846 -1.1958  0.6220
  691TMC3    C210215   0.264   1.874  15.506 -0.4148 -0.4724 -0.2292
  691TMC3    C310216   0.165   1.930  15.417  0.6623  0.4528  0.8054
  691TMC3    C410217   0.409   1.847  15.313  0.4957  0.1054  0.4082
  691TMC3    C510218   0.305   1.895  15.236 -0.7916 -0.7241  0.2800
  691TMC3    C610219   0.181   1.939  15.287  1.5745  0.0736  0.1180
  691TMC3     C10220   0.494   1.836  15.538 -0.5974 -0.1011 -0.0298
  691TMC3     O10221   0.474   1.779  15.647  0.3380 -0.0814 -0.6278
  691TMC3     H10222   0.250   1.879  15.613  0.4484  0.7001 -0.1701
  691TMC3    H110223   0.501   1.817  15.264  0.4511  1.9346 -0.7722
  691TMC3    H210224   0.102   1.973  15.222 -1.6743  1.4767  4.8453
  691TMC3    C710225   0.300   1.817  15.111 -0.0541 -0.6739 -0.3006
  691TMC3    C810226   0.062   2.006  15.470  0.0693 -0.7395 -0.6040
  691TMC3    O110227   0.396   1.831  15.032  0.2449  0.1291  0.6255
  691TMC3    O210228   0.008   2.103  15.410  0.8776  0.6244  0.4186
  692TMC3    C110229   2.489   3.575  16.016  0.2424  0.2710  0.6939
  692TMC3    C210230   2.610   3.599  16.080 -0.9268 -0.4514  0.0814
  692TMC3    C310231   2.710   3.505  16.055 -0.0899 -0.1160 -0.0985
  692TMC3    C410232   2.467   3.491  15.912  0.4589 -0.3335 -0.8503
  692TMC3    C510233   2.568   3.403  15.896  0.2334 -0.2508  0.0392
  692TMC3    C610234   2.684   3.406  15.966 -0.1631 -0.6621  0.2928
  692TMC3     C10235   2.405   3.693  16.011  0.7574 -0.4225 -1.0966
  692TMC3     O10236   2.293   3.690  15.963 -0.1830 -0.6892 -0.4694
  692TMC3     H10237   2.591   3.636  16.180 -1.5123  0.5421 -0.3966
  692TMC3    H110238   2.370   3.469  15.869  0.4336 -4.3299  1.3188
  692TMC3    H210239   2.773   3.358  15.928 -0.7030  1.0015 -3.0580
  692TMC3    C710240   2.537   3.263  15.853  0.2687 -0.4205 -0.1155
  692TMC3    C810241   2.776   3.444  16.178  0.2947  0.6405  0.1622
  692TMC3    O110242   2.434   3.253  15.783  0.6601 -0.5045  0.0011
  692TMC3    O210243   2.791   3.323  16.173  0.3140  0.0686  0.3799
  693MPD2     C10244   1.895   1.466  10.772 -0.2398  0.4853  0.3505
  693MPD2    C110245   1.817   1.364  10.733 -0.1716 -0.4617 -0.0280
  693MPD2    C210246   1.870   1.235  10.734 -0.3753  0.4642 -0.0825
  693MPD2    C310247   2.002   1.214  10.759 -0.4553 -0.1719 -0.0849
  693MPD2    C410248   2.081   1.322  10.784 -0.7154 -0.2587 -0.0633
  693MPD2    C510249   2.028   1.452  10.793  0.0274  0.4468 -0.3951
  693MPD2     H10250   1.809   1.146  10.722 -0.2439  0.5491 -1.3506
  693MPD2    H110251   2.189   1.312  10.789 -0.5289  1.1528 -1.1949
  693MPD2    H210252   1.855   1.566  10.764  0.4470  0.6007 -1.6937
  693MPD2    H310253   2.078   1.544  10.819  0.8699  0.0934 -0.7483
  693MPD2     N10254   2.059   1.085  10.756 -0.7244 -0.1457 -1.4393
  693MPD2    H510255   2.143   1.066  10.809 -2.2256 -0.8589  0.6958
  693MPD2    N110256   1.682   1.392  10.706 -0.2015  0.7028 -0.2122
  693MPD2    H710257   1.650   1.484  10.736  0.2115  1.5039 -2.2208
  694TMC3    C110258   1.456   1.346  10.644  0.2740 -0.3304  0.3741
  694TMC3    C210259   1.372   1.246  10.589  0.0572 -0.3155 -0.0881
  694TMC3    C310260   1.234   1.264  10.608 -0.0242  0.5906 -0.2073
  694TMC3    C410261   1.413   1.455  10.702 -0.2729 -0.3497 -0.2471
  694TMC3    C510262   1.278   1.464  10.724  1.0187  0.0570 -0.4032
  694TMC3    C610263   1.185   1.362  10.688  0.0570 -0.2032 -0.5823
  694TMC3     C10264   1.596   1.303  10.656 -0.3235 -0.0140  0.5530
  694TMC3     O10265   1.628   1.204  10.592 -0.4512 -0.1019 -0.2671
  694TMC3     H10266   1.414   1.152  10.557 -0.7382 -0.7852  0.2473
  694TMC3    H110267   1.480   1.531  10.741 -2.2143 -0.4464  3.2342
  694TMC3    H210268   1.078   1.375  10.696 -0.1315 -2.2149  0.1339
  694TMC3    C710269   1.262   1.513  10.864 -0.2023 -0.1802 -1.1426
  694TMC3    C810270   1.143   1.171  10.550  0.1688  0.3038  0.1206
  694TMC3    O110271   1.328   1.603  10.921 -0.5945 -0.0501 -0.6485
  694TMC3    O210272   1.026   1.195  10.567 -0.2386  0.3803 -0.1847
  695MPD2     C10273   2.497   2.855  13.452  0.6096  0.0774 -0.1429
  695MPD2    C110274   2.467   2.909  13.568 -0.7935  0.2173  0.0439
  695MPD2    C210275   2.329   2.917  13.593 -0.4942  0.2504  0.5807
  695MPD2    C310276   2.225   2.868  13.514 -0.3332  1.0914  0.5392
  695MPD2    C410277   2.266   2.821  13.390 -0.3871  0.5782 -0.7003
  695MPD2    C510278   2.401   2.808  13.361 -0.3353 -0.2949 -0.0881
  695MPD2     H10279   2.308   2.969  13.686 -1.3483  1.5192 -0.3124
  695MPD2    H110280   2.197   2.790  13.312 -0.7951  0.1329 -0.1656
  695MPD2    H210281   2.599   2.857  13.414 -0.4109 -2.1408 -3.0343
  695MPD2    H310282   2.427   2.756  13.270  0.7769  0.9920 -0.4965
  695MPD2     N10283   2.095   2.870  13.561 -0.0812  0.1889  0.2547
  695MPD2    H510284   2.077   2.896  13.657 -1.8858 -0.6814  0.1641
  695MPD2    N110285   2.563   2.964  13.657  0.1249 -0.0333  0.0304
  695MPD2    H710286   2.531   3.026  13.732  0.7220  1.6884 -1.1305
  696TMC3    C110287   1.864   2.869  13.567 -0.1496  0.6281 -0.2515
  696TMC3    C210288   1.877   2.867  13.703  0.2567 -0.1126  0.6232
  696TMC3    C310289   1.765   2.907  13.771  0.3451 -0.2235  0.3578
  696TMC3    C410290   1.745   2.902  13.504 -0.3974 -0.9218  0.8595
  696TMC3    C510291   1.643   2.944  13.576 -0.1036 -0.0972 -0.5205
  696TMC3    C610292   1.653   2.944  13.711  0.3595 -0.7795 -0.0098
  696TMC3     C10293   1.985   2.856  13.482 -0.5940  0.5097  0.0576
  696TMC3     O10294   1.969   2.866  13.362 -0.3604  0.5325  0.0147
  696TMC3     H10295   1.961   2.863  13.771  0.6556  4.9990  0.4276
  696TMC3    H110296   1.747   2.911  13.396 -2.1839 -1.6583  0.7666
  696TMC3    H210297   1.560   2.964  13.764  0.3736 -0.3333 -0.1515
  696TMC3    C710298   1.549   3.046  13.521  0.3136  1.0624 -0.0305
  696TMC3    C810299   1.805   2.963  13.900  0.3160  0.6369  0.4654
  696TMC3    O110300   1.496   3.025  13.413 -0.0416 -0.6629  0.5446
  696TMC3    O210301   1.824   2.890  13.996 -0.2544  0.2231  0.5852
  697MPD2     C10302   2.051   0.275  15.713  0.1743  0.3506  0.1178
  697MPD2    C110303   2.053   0.224  15.586  0.1834  0.2784  0.2440
  697MPD2    C210304   2.063   0.310  15.473 -0.5398 -0.9507 -0.4055
  697MPD2    C310305   2.080   0.444  15.491 -0.1892 -0.1563  0.3141
  697MPD2    C410306   2.107   0.491  15.615  0.1270 -0.3422 -0.4588
  697MPD2    C510307   2.090   0.407  15.726 -0.2906 -0.5757  0.4636
  697MPD2     H10308   2.049   0.260  15.378 -0.0207  0.1439 -1.0567
  697MPD2    H110309   2.129   0.597  15.629  2.6737 -0.5876 -2.6752
  697MPD2    H210310   2.029   0.227  15.807  0.9085 -0.6554 -0.2256
  697MPD2    H310311   2.116   0.443  15.825  0.4563  0.9529 -0.2874
  697MPD2     N10312   2.085   0.526  15.374 -0.2851 -0.7762  0.2871
  697MPD2    H510313   2.075   0.480  15.284  0.1251  0.4180 -0.3762
  697MPD2    N110314   2.033   0.081  15.562  0.2271  0.5723 -0.5468
  697MPD2    H710315   2.013   0.058  15.466 -0.5128  2.0174 -0.7462
  698TMC3    C110316   2.094   0.701  15.226  0.2342  0.0683  0.4652
  698TMC3    C210317   2.021   0.816  15.204  0.2818 -0.7367  0.0850
  698TMC3    C310318   1.989   0.851  15.077  0.2720 -0.2591 -0.5573
  698TMC3    C410319   2.113   0.609  15.127 -0.5518 -0.3180 -0.8754
  698TMC3    C510320   2.051   0.639  15.003 -0.8473  0.1013 -0.0722
  698TMC3    C610321   1.992   0.763  14.974 -0.7144  0.6013  0.8225
  698TMC3     C10322   2.098   0.661  15.365 -0.0146  0.0750 -0.5436
  698TMC3     O10323   2.101   0.748  15.451  0.1770 -0.0998  0.2206
  698TMC3     H10324   1.998   0.884  15.285  1.5708  1.2195 -1.1886
  698TMC3    H110325   2.166   0.517  15.150 -2.0115 -1.0119 -0.3359
  698TMC3    H210326   1.978   0.795  14.871  1.0070  0.8893  0.6857
  698TMC3    C710327   2.073   0.527  14.906  0.3451  0.5931  0.6306
  698TMC3    C810328   2.042   0.981  15.035 -0.2802  0.5525 -0.3119
  698TMC3    O110329   2.130   0.432  14.953  0.4999 -0.5862 -0.1742
  698TMC3    O210330   2.144   1.018  15.093 -0.6990  0.2502 -0.4199
  699TMC3    C110331   2.062   2.902  12.977 -0.2436  0.3777 -0.2655
  699TMC3    C210332   2.116   2.790  13.031 -0.0066  0.2090  0.4753
  699TMC3    C310333   2.030   2.692  13.073  0.7890 -0.0947 -0.3951
  699TMC3    C410334   1.927   2.926  12.956 -0.2439 -0.2324  0.0533
  699TMC3    C510335   1.845   2.823  12.993 -0.2178 -0.3330  0.5935
  699TMC3    C610336   1.892   2.702  13.046  0.2381  0.2606  0.4466
  699TMC3     C10337   2.149   2.988  12.895 -0.6542  1.2824  0.3411
  699TMC3     O10338   2.101   3.100  12.863  0.1196 -0.1894  0.0489
  699TMC3     H10339   2.223   2.786  13.047  0.3296  3.0690 -1.0400
  699TMC3    H110340   1.891   3.004  12.890  2.7713  0.2631 -1.0216
  699TMC3    H210341   1.834   2.618  13.082 -1.7036  1.4274  0.0143
  699TMC3    C710342   1.709   2.865  13.026  0.1157  0.3163 -0.0144
  699TMC3    C810343   2.070   2.587  13.162  0.3122  0.1778 -0.3208
  699TMC3    O110344   1.680   2.979  13.063 -0.1022  0.3870 -0.0329
  699TMC3    O210345   1.976   2.517  13.202 -0.2263 -0.1922  0.6495
  700TMC3    C110346   1.299   1.101  17.162  0.3147 -1.0632 -0.5934
  700TMC3    C210347   1.361   0.983  17.119 -0.0417  0.5366 -0.4253
  700TMC3    C310348   1.464   0.948  17.195  0.6526  0.3948  0.4770
  700TMC3    C410349   1.347   1.176  17.265  0.7980  0.7966 -0.5911
  700TMC3    C510350   1.458   1.135  17.334  0.1175 -0.6517 -0.5641
  700TMC3    C610351   1.520   1.027  17.294 -0.8971 -0.4951  0.8864
  700TMC3     C10352   1.272   1.192  17.052  0.0938  0.4647 -0.0298
  700TMC3     O10353   1.154   1.190  17.008 -0.2007  0.0726 -0.4079
  700TMC3     H10354   1.307   0.920  17.049 -0.1621  1.8112 -1.4744
  700TMC3    H110355   1.288   1.254  17.311 -0.0367  0.7936 -1.6467
  700TMC3    H210356   1.599   0.991  17.360  0.3292 -1.4611 -1.1132
  700TMC3    C710357   1.545   1.228  17.399 -0.6016  0.1817 -0.0042
  700TMC3    C810358   1.554   0.841  17.159 -0.3384  0.6386  0.8966
  700TMC3    O110359   1.630   1.195  17.482  0.3392  0.6073  0.0637
  700TMC3    O210360   1.671   0.853  17.193 -0.4442 -0.3452 -0.3446
  701TMC3    C110361   1.238   4.353  15.512 -0.1072  0.1290 -0.0415
  701TMC3    C210362   1.229   4.301  15.388 -0.3006  0.5125 -0.4351
  701TMC3    C310363   1.323   4.344  15.299 -0.5177 -0.0475 -0.2384
  701TMC3    C410364   1.348   4.430  15.557  0.0390 -0.4692 -0.6182
  701TMC3    C510365   1.437   4.458  15.464 -0.4612  1.3324  0.1464
  701TMC3    C610366   1.426   4.424  15.334 -0.1608 -0.1277 -0.0181
  701TMC3     C10367   1.130   4.318  15.604 -0.6599  0.0776  0.1009
  701TMC3     O10368   1.055   4.233  15.568  0.7526  0.1171  0.2383
  701TMC3     H10369   1.149   4.235  15.355  1.3532 -2.5950  1.8242
  701TMC3    H110370   1.355   4.471  15.657 -0.7840 -1.4373 -0.1675
  701TMC3    H210371   1.504   4.440  15.261 -0.2952  0.6148  0.0077
  701TMC3    C710372   1.499   4.582  15.468  0.0821  0.0120 -0.0961
  701TMC3    C810373   1.296   4.324  15.154  0.4192  0.0858  0.7768
  701TMC3    O110374   1.486   4.649  15.364  0.0583  0.0150 -0.0405
  701TMC3    O210375   1.392   4.330  15.078  0.1946  0.2289  0.2485
  702MPD2     C10376   0.255   1.968  10.289  0.9669  0.2919  0.4926
  702MPD2    C110377   0.254   2.066  10.385 -0.6173  0.2174  0.2656
  702MPD2    C210378   0.274   2.199  10.339  0.3161  0.4245 -0.7018
  702MPD2    C310379   0.305   2.225  10.202  0.2199 -0.5611  0.2009
  702MPD2    C410380   0.320   2.122  10.112 -0.5526  0.3167  0.2037
  702MPD2    C510381   0.283   1.995  10.157 -0.3459 -0.3137  0.7594
  702MPD2     H10382   0.259   2.280  10.409  1.1424  0.4041 -0.5051
  702MPD2    H110383   0.337   2.131  10.005 -0.1509  0.2395  0.2588
  702MPD2    H210384   0.249   1.864  10.319 -1.3012  0.5052  0.7774
  702MPD2    H310385   0.277   1.901  10.102  1.8005  0.9175 -1.5672
  702MPD2     N10386   0.321   2.364  10.163  1.0614 -0.2082  0.1659
  702MPD2    H510387   0.302   2.424  10.242 -2.2934 -0.5188 -0.4003
  702MPD2    N110388   0.253   2.043  10.521 -0.0410 -0.3311  0.5595
  702MPD2    H710389   0.269   2.129  10.574 -0.7772  0.2282 -0.1307
  703TMC3    C110390   0.409   2.548  10.065 -0.0477  0.2069 -0.6781
  703TMC3    C210391   0.363   2.593  10.184 -0.1574 -0.0522  0.0393
  703TMC3    C310392   0.452   2.682  10.238 -0.9042  0.9085 -0.8184
  703TMC3    C410393   0.529   2.572  10.010 -0.7600  0.6245  0.4327
  703TMC3    C510394   0.614   2.652  10.077  0.5316 -0.3033 -0.4016
  703TMC3    C610395   0.581   2.699  10.202 -0.0482 -0.0217 -0.0994
  703TMC3     C10396   0.373   2.411  10.049  0.4977 -0.0803 -0.5808
  703TMC3     O10397   0.393   2.355   9.942 -0.5515  0.1222  0.3102
  703TMC3     H10398   0.257   2.590  10.204 -0.1061 -0.3138  0.2681
  703TMC3    H110399   0.567   2.511   9.928  3.2946 -0.2790  2.9877
  703TMC3    H210400   0.658   2.750  10.259 -0.1453 -0.1969  0.1907
  703TMC3    C710401   0.739   2.693  10.018 -0.1546  0.3709 -0.0115
  703TMC3    C810402   0.415   2.788  10.341  0.1348 -0.8546 -0.2627
  703TMC3    O110403   0.829   2.722  10.095 -0.7940 -0.5132  0.1581
  703TMC3    O210404   0.481   2.893  10.329 -0.5908 -0.0637  0.0647
  704TMC3    C110405   3.067   0.504  12.716 -0.5074  0.7071  0.3351
  704TMC3    C210406   3.187   0.550  12.667  0.0487  0.2148  0.3258
  704TMC3    C310407   3.287   0.462  12.630 -0.2089 -0.2369  0.8078
  704TMC3    C410408   3.055   0.370  12.760  0.5889  0.2530  0.0228
  704TMC3    C510409   3.157   0.287  12.726  0.2090 -0.0074  0.0127
  704TMC3    C610410   3.270   0.328  12.665 -0.3725 -0.0128  0.0875
  704TMC3     C10411   2.949   0.546  12.652  0.0837 -0.2753 -0.1083
  704TMC3     O10412   2.840   0.524  12.705 -0.2752 -0.0285 -0.1565
  704TMC3     H10413   3.200   0.654  12.641 -1.1712  0.2171 -0.2720
  704TMC3    H110414   2.957   0.332  12.788  0.8672 -0.8669 -0.5043
  704TMC3    H210415   3.347   0.260  12.630 -1.0662 -0.0030 -1.4366
  704TMC3    C710416   3.124   0.142  12.713 -0.3589 -0.1775 -0.6452
  704TMC3    C810417   3.350   0.485  12.499 -0.0562 -0.0472  0.1103
  704TMC3    O110418   3.176   0.090  12.617  0.2097 -0.2888  0.0318
  704TMC3    O210419   3.276   0.514  12.409 -0.0867 -0.0719 -0.1554
  705MPD2     C10420   2.969   3.025  16.694  0.1837 -0.3948 -0.0473
  705MPD2    C110421   2.898   3.044  16.571  0.0440 -0.6596 -0.4156
  705MPD2    C210422   2.761   3.012  16.567  0.0826 -0.4147  0.0088
  705MPD2    C310423   2.697   2.996  16.685 -0.0697  0.3971 -0.7573
  705MPD2    C410424   2.763   3.003  16.805  0.3379  0.2007  0.5925
  705MPD2    C510425   2.901   3.006  16.809 -0.4225 -0.3509 -0.2860
  705MPD2     H10426   2.704   3.011  16.475 -1.6968  0.2967  1.1136
  705MPD2    H110427   2.711   2.984  16.898 -1.0317 -3.0069 -0.8179
  705MPD2    H210428   3.075   3.046  16.702 -0.0424  0.7164  0.0162
  705MPD2    H310429   2.952   3.022  16.904 -0.0100  2.1486 -0.9442
  705MPD2     N10430   2.555   3.009  16.696 -0.1129  0.4788 -0.2012
  705MPD2    H510431   2.510   3.027  16.786  1.5547 -1.2067  0.9613
  705MPD2    N110432   2.963   3.081  16.450  1.1243 -0.5727  0.3654
  705MPD2    H710433   2.903   3.099  16.369 -1.6557  0.0149  2.5353
  706TMC3    C110434   3.231   3.027  16.085  0.3564  0.6861  0.2728
  706TMC3    C210435   3.171   3.133  16.016  0.0899  0.8044 -0.4547
  706TMC3    C310436   3.090   3.215  16.084 -0.5546 -0.0859  0.0152
  706TMC3    C410437   3.219   3.021  16.224 -0.3716 -0.4164 -0.6002
  706TMC3    C510438   3.130   3.101  16.288 -0.3113 -0.1307  0.2175
  706TMC3    C610439   3.058   3.189  16.213  0.4272  0.1329 -0.1812
  706TMC3     C10440   3.349   2.956  16.033  0.1817  0.1442  0.0461
  706TMC3     O10441   3.444   2.949  16.108  0.4214  0.1872  0.0294
  706TMC3     H10442   3.206   3.150  15.915  0.9859  3.6034  0.3097
  706TMC3    H110443   3.275   2.944  16.276  1.9443  1.6281 -0.0460
  706TMC3    H210444   2.990   3.257  16.263 -0.6118 -0.9986 -0.0540
  706TMC3    C710445   3.098   3.084  16.423  0.2437  0.3339  0.1340
  706TMC3    C810446   3.096   3.351  16.038  1.0111 -0.0246 -0.1550
  706TMC3    O110447   3.196   3.059  16.495 -0.3419 -0.0668 -0.2514
  706TMC3    O210448   3.107   3.379  15.920 -0.3002 -0.3182 -0.3535
  707TMC3    C110449   4.660   1.577   1.347 -0.2820  0.4083  0.7478
  707TMC3    C210450   4.567   1.479   1.313  0.6320  0.6143 -0.8384
  707TMC3    C310451   4.454   1.484   1.389 -0.6412 -0.0000 -0.0064
  707TMC3    C410452   4.638   1.666   1.449  0.1128 -0.0750 -0.3076
  707TMC3    C510453   4.522   1.654   1.522 -0.0626 -0.0207  0.2911
  707TMC3    C610454   4.429   1.565   1.492  0.3834  0.0566  0.4831
  707TMC3     C10455   0.058   1.571   1.270 -0.1935  0.5184 -0.2545
  707TMC3     O10456   0.091   1.458   1.238  0.4178  0.4152 -0.2872
  707TMC3     H10457   4.598   1.408   1.237 -0.1627  1.1922 -1.7025
  707TMC3    H110458   4.715   1.736   1.479 -0.4572 -0.2464  1.5650
  707TMC3    H210459   4.332   1.564   1.540 -0.2055  0.7308 -0.6968
  707TMC3    C710460   4.503   1.752   1.627 -0.2909  0.6165  0.1903
  707TMC3    C810461   4.330   1.409   1.348 -0.1240  0.8418  0.2990
  707TMC3    O110462   4.601   1.806   1.673 -0.2992 -0.3518  0.9284
  707TMC3    O210463   4.238   1.399   1.423  0.3830 -0.3132 -0.6385
  708MPD2     C10464   1.043   1.766  13.455 -0.2433  0.0670 -0.1997
  708MPD2    C110465   1.000   1.787  13.581 -0.2815  0.8681  0.6554
  708MPD2    C210466   1.041   1.693  13.675 -0.3024  0.6377 -0.0775
  708MPD2    C310467   1.105   1.578  13.637  0.2851  0.5458  0.5431
  708MPD2    C410468   1.142   1.550  13.508  0.2514  0.0244 -0.3372
  708MPD2    C510469   1.113   1.652  13.419 -0.0745 -0.4050 -0.5466
  708MPD2     H10470   1.009   1.706  13.778  0.6272 -1.6310  0.5205
  708MPD2    H110471   1.195   1.458  13.484  1.1428  0.6970 -0.9611
  708MPD2    H210472   1.016   1.844  13.385 -1.8569  0.3170  0.6915
  708MPD2    H310473   1.140   1.651  13.314  0.5738  1.3029 -0.3992
  708MPD2     N10474   1.118   1.472  13.730 -0.6974 -0.8558  0.2531
  708MPD2    H510475   1.129   1.376  13.699 -2.3342 -1.2892  0.9950
  708MPD2    N110476   0.918   1.899  13.611 -0.5149 -0.0402  0.5557
  708MPD2    H710477   0.879   1.947  13.531  2.2101  0.4689 -0.4620
  709TMC3    C110478   0.752   2.011  13.741  0.6097  0.3181  1.5068
  709TMC3    C210479   0.705   2.041  13.618  0.5491 -0.1156  0.0155
  709TMC3    C310480   0.578   2.003  13.587  0.4589  0.6753  0.5353
  709TMC3    C410481   0.675   1.972  13.840 -0.4494  0.3985 -0.6262
  709TMC3    C510482   0.556   1.926  13.814  0.1465  0.0145  0.2735
  709TMC3    C610483   0.501   1.950  13.692 -0.4179  0.0164 -0.0204
  709TMC3     C10484   0.882   1.935  13.740  0.7708 -0.3159  0.2525
  709TMC3     O10485   0.927   1.895  13.848 -0.2007  0.4516  0.0495
  709TMC3     H10486   0.777   2.088  13.552 -0.9347 -0.1715 -1.6468
  709TMC3    H110487   0.723   1.937  13.931 -1.0572  0.8842 -0.1124
  709TMC3    H210488   0.403   1.912  13.668 -1.5196  1.6427  1.9641
  709TMC3    C710489   0.548   1.787  13.857 -0.7803  0.5396 -0.2828
  709TMC3    C810490   0.583   1.915  13.474 -0.3302 -0.5219 -0.4443
  709TMC3    O110491   0.581   1.755  13.973 -0.1015  0.2144 -0.3753
  709TMC3    O210492   0.506   1.823  13.487  0.3479  0.3629  0.6994
  710TMC3    C110493   1.973   2.737   0.702 -0.3820 -1.1070  0.3070
  710TMC3    C210494   2.068   2.777   0.616  0.1557 -0.1323  0.5107
  710TMC3    C310495   2.198   2.761   0.645  0.4597 -0.1945 -0.2739
  710TMC3    C410496   2.009   2.683   0.824  0.5111  0.2805  0.1745
  710TMC3    C510497   2.141   2.653   0.845  0.7650  0.8759 -0.1375
  710TMC3    C610498   2.240   2.699   0.761  0.3732  0.4127 -0.0057
  710TMC3     C10499   1.849   2.806   0.696 -0.1985 -0.4394  0.6403
  710TMC3     O10500   1.803   2.826   0.585 -0.1132  0.1439 -0.1856
  710TMC3     H10501   2.044   2.823   0.521 -0.6273 -0.1399  0.7079
  710TMC3    H110502   1.929   2.653   0.891 -0.2498  2.6467  0.3272
  710TMC3    H210503   2.343   2.710   0.792  0.0767  1.3046  0.6463
  710TMC3    C710504   2.175   2.538   0.931 -0.7440  0.3076  0.1725
  710TMC3    C810505   2.295   2.854   0.589  0.3159 -0.0137 -0.0192
  710TMC3    O110506   2.078   2.496   0.996  0.0366  0.0759  0.1629
  710TMC3    O210507   2.407   2.807   0.582 -0.2320 -0.5071  0.9908
  711TMC3    C110508   1.895   3.946  14.889 -0.6096 -0.6232  0.2684
  711TMC3    C210509   1.887   4.013  15.011  0.1088 -0.1960  0.2789
  711TMC3    C310510   2.008   4.037  15.078  0.0756 -0.3257  0.4413
  711TMC3    C410511   2.007   3.891  14.842  0.2346 -0.1883 -0.0710
  711TMC3    C510512   2.122   3.905  14.920 -0.3687  0.2561  0.1810
  711TMC3    C610513   2.124   3.986  15.028  0.4382  0.6287  0.2528
  711TMC3     C10514   1.777   3.889  14.828 -0.6438 -0.1221 -0.2612
  711TMC3     O10515   1.783   3.779  14.775  0.2116  0.5126 -0.0117
  711TMC3     H10516   1.791   4.042  15.051 -0.0991 -0.8355  0.2436
  711TMC3    H110517   1.999   3.831  14.752 -0.7453 -2.5774  1.6234
  711TMC3    H210518   2.220   3.999  15.078 -0.7729  3.2556  1.8847
  711TMC3    C710519   2.198   3.788  14.952  0.1006  0.3964  0.1250
  711TMC3    C810520   1.998   4.038  15.226  0.4609 -0.2322  0.1816
  711TMC3    O110521   2.263   3.792  15.054  0.3418 -0.0781 -0.5843
  711TMC3    O210522   1.884   4.036  15.276  0.2098 -0.4778  0.0375
  712MPD2     C10523   3.512   0.290  13.948 -0.1219 -0.0523 -0.4852
  712MPD2    C110524   3.403   0.366  13.911 -0.1832 -0.2387 -0.0418
  712MPD2    C210525   3.422   0.473  13.823 -0.1352  0.1367  0.2995
  712MPD2    C310526   3.543   0.536  13.817  0.2874  0.1295  0.2499
  712MPD2    C410527   3.651   0.461  13.861 -0.5588 -0.3690 -0.1560
  712MPD2    C510528   3.634   0.337  13.920 -0.9958  0.1130 -0.2336
  712MPD2     H10529   3.335   0.527  13.787 -0.3940  1.0995  2.3377
  712MPD2    H110530   3.751   0.502  13.854 -1.5246  1.9128 -0.6462
  712MPD2    H210531   3.505   0.195  13.998 -2.6102  1.4312  1.9696
  712MPD2    H310532   3.727   0.284  13.938 -1.9807 -2.1081 -1.5739
  712MPD2     N10533   3.565   0.657  13.743  0.1674 -0.7359 -0.3428
  712MPD2    H510534   3.664   0.678  13.737  0.2612 -1.4260 -1.2944
  712MPD2    N110535   3.267   0.327  13.928 -0.6149  0.3659  0.9480
  712MPD2    H710536   3.196   0.376  13.875 -0.5091  0.6213  1.0407
  713TMC3    C110537   3.506   0.835  13.593  0.1032  0.1114  0.3906
  713TMC3    C210538   3.631   0.824  13.539 -0.9890 -1.2832  0.2720
  713TMC3    C310539   3.673   0.909  13.439  0.1194  0.0893 -0.3637
  713TMC3    C410540   3.417   0.935  13.550 -0.1775 -0.7777 -0.1242
  713TMC3    C510541   3.464   1.024  13.453 -0.3449  0.3280  0.5883
  713TMC3    C610542   3.595   1.020  13.405  0.3548  0.4899  0.1835
  713TMC3     C10543   3.465   0.741  13.695  0.9125 -0.3243 -0.1709
  713TMC3     O10544   3.348   0.751  13.730 -0.6357  0.2606  0.7896
  713TMC3     H10545   3.697   0.743  13.568 -0.1012 -0.4865  0.4841
  713TMC3    H110546   3.318   0.936  13.594  1.2673  1.7931  3.0725
  713TMC3    H210547   3.621   1.083  13.321 -0.6110 -1.4580 -1.5919
  713TMC3    C710548   3.374   1.110  13.380 -0.1447 -0.2540 -0.0164
  713TMC3    C810549   3.808   0.902  13.383  0.6065 -0.4437  0.3232
  713TMC3    O110550   3.432   1.171  13.287  0.4215  0.3986  0.4036
  713TMC3    O210551   3.825   0.953  13.272 -0.2150  0.0206 -0.4530
  714MPD2     C10552   0.637   3.761   1.085  0.2357 -0.2098 -0.3713
  714MPD2    C110553   0.691   3.632   1.078 -0.3033  0.0652 -0.8763
  714MPD2    C210554   0.649   3.557   0.967  0.0451 -0.8902  0.3896
  714MPD2    C310555   0.576   3.619   0.864  0.0731  0.6150 -0.0080
  714MPD2    C410556   0.528   3.752   0.871  0.4509  0.1874 -0.0233
  714MPD2    C510557   0.573   3.823   0.982  0.3782  0.1362  0.3342
  714MPD2     H10558   0.681   3.455   0.947 -0.4249 -0.9891  0.1432
  714MPD2    H110559   0.462   3.793   0.796  0.1966  3.2239  1.9037
  714MPD2    H210560   0.668   3.822   1.170  0.2279  0.4759 -0.8572
  714MPD2    H310561   0.533   3.923   1.000 -1.5285 -0.1790 -2.2239
  714MPD2     N10562   0.532   3.539   0.753  0.4183  0.0536  0.1177
  714MPD2    H510563   0.543   3.439   0.769 -1.5980  0.0013  1.1298
  714MPD2    N110564   0.782   3.585   1.182 -0.4374  1.2482 -0.4408
  714MPD2    H710565   0.799   3.646   1.261  0.8192 -0.5626  0.6806
  715TMC3    C110566   0.926   3.430   1.299 -0.5269 -0.1884 -0.1496
  715TMC3    C210567   1.009   3.319   1.282 -0.8230  0.0204  0.0947
  715TMC3    C310568   1.086   3.287   1.384 -0.0358  0.0316 -0.0622
  715TMC3    C410569   0.913   3.499   1.415  0.1024  0.1782  0.0798
  715TMC3    C510570   0.999   3.469   1.517 -1.0008 -0.4842  0.0587
  715TMC3    C610571   1.090   3.362   1.502  0.4122  0.2306  0.0238
  715TMC3     C10572   0.847   3.463   1.178 -0.2544  0.2005  0.2751
  715TMC3     O10573   0.845   3.380   1.085 -0.5954  0.2392 -0.5461
  715TMC3     H10574   1.019   3.269   1.186 -1.3969 -0.4643  0.2851
  715TMC3    H110575   0.835   3.574   1.410 -0.8126 -0.8436 -0.9900
  715TMC3    H210576   1.166   3.337   1.575 -0.8015  0.1160  1.2585
  715TMC3    C710577   1.026   3.569   1.626 -0.1756  0.1965  0.2858
  715TMC3    C810578   1.159   3.164   1.358 -0.2482 -0.6099 -0.8440
  715TMC3    O110579   1.133   3.558   1.682 -0.2521 -0.5651 -0.1896
  715TMC3    O210580   1.103   3.087   1.284  0.0909 -0.5725 -0.3991
  716MPD2     C10581   0.327   1.205   9.635 -0.0211  0.3420  0.3272
  716MPD2    C110582   0.234   1.172   9.536 -0.0252 -0.7399 -0.3047
  716MPD2    C210583   0.226   1.043   9.491 -0.2316  0.5203  0.0668
  716MPD2    C310584   0.317   0.957   9.542 -0.2557 -0.0366  0.0212
  716MPD2    C410585   0.403   0.989   9.648  0.8048  0.0600  0.1241
  716MPD2    C510586   0.393   1.112   9.702 -0.0298  0.2370  0.2513
  716MPD2     H10587   0.155   1.016   9.414 -0.4927  0.1925  0.4175
  716MPD2    H110588   0.462   0.910   9.694  0.3160 -0.8043 -0.7376
  716MPD2    H210589   0.333   1.306   9.674  1.8128  0.1550  0.5452
  716MPD2    H310590   0.437   1.125   9.800  0.4670 -0.1479  0.0779
  716MPD2     N10591   0.306   0.823   9.494 -0.2385  0.1942 -0.2729
  716MPD2    H510592   0.240   0.823   9.416  0.2151 -1.8160 -0.6636
  716MPD2    N110593   0.151   1.278   9.491  0.2919 -0.4889  0.1587
  716MPD2    H710594   0.161   1.362   9.547 -0.0422 -1.0947  1.1214
  717TMC3    C110595   0.341   0.593   9.463  0.4678  0.9036  0.0732
  717TMC3    C210596   0.217   0.584   9.392  0.4883  0.0944 -0.0052
  717TMC3    C310597   0.176   0.466   9.343 -0.0074 -0.7224 -0.1680
  717TMC3    C410598   0.408   0.479   9.490  0.7375 -0.0196 -0.0755
  717TMC3    C510599   0.367   0.359   9.427 -0.2442 -0.1014  0.6226
  717TMC3    C610600   0.255   0.354   9.348 -0.1069 -0.7015  0.0124
  717TMC3     C10601   0.362   0.711   9.543 -0.3664 -0.8096  0.2428
  717TMC3     O10602   0.428   0.689   9.648  0.4627 -0.7431 -0.9382
  717TMC3     H10603   0.146   0.665   9.403  1.1131  0.4803  1.1465
  717TMC3    H110604   0.500   0.484   9.548  1.7894 -0.1420 -1.7537
  717TMC3    H210605   0.211   0.265   9.305 -0.7984 -0.1110 -0.4977
  717TMC3    C710606   0.445   0.232   9.429 -0.8380 -0.2648 -0.6448
  717TMC3    C810607   0.028   0.465   9.307  0.3967 -0.8896  0.1413
  717TMC3    O110608   0.420   0.142   9.348 -0.7171 -0.7894  0.5314
  717TMC3    O210609   4.692   0.567   9.285  0.1365  0.3275  0.2257
  718MPD2     C10610   0.331   0.196  12.724  0.6988 -0.6715 -0.3539
  718MPD2    C110611   0.242   0.222  12.625  0.1712  0.1036  0.1500
  718MPD2    C210612   0.108   0.236  12.656  0.0422 -0.4399  0.3545
  718MPD2    C310613   0.064   0.198  12.782 -0.8640  0.0347 -0.3864
  718MPD2    C410614   0.151   0.161  12.881 -0.4814 -0.4699 -0.5772
  718MPD2    C510615   0.282   0.168  12.850 -0.1897  0.0898 -0.0938
  718MPD2     H10616   0.040   0.274  12.580 -0.9898 -2.6761  0.1687
  718MPD2    H110617   0.124   0.119  12.977  0.8932  1.3086  0.5695
  718MPD2    H210618   0.435   0.172  12.708  1.3367  1.3202  0.8881
  718MPD2    H310619   0.342   0.125  12.929 -0.1365 -0.4464 -0.4272
  718MPD2     N10620   4.649   0.206  12.810 -0.0788  0.3016 -0.3435
  718MPD2    H510621   4.592   0.232  12.730 -1.3494 -2.1687 -0.2602
  718MPD2    N110622   0.272   0.230  12.492  0.2369 -0.9281  0.0547
  718MPD2    H710623   0.200   0.260  12.428 -0.5208 -3.7760 -0.4426
  719TMC3    C110624   0.385   0.298  12.305  0.3757  0.7228 -0.6586
  719TMC3    C210625   0.259   0.309  12.254  0.4195 -0.1329  0.4075
  719TMC3    C310626   0.210   0.421  12.194 -0.6117  0.7381  0.3834
  719TMC3    C410627   0.467   0.404  12.287 -0.2715 -0.5117  0.9291
  719TMC3    C510628   0.423   0.519  12.233  0.2747 -0.1966 -0.6696
  719TMC3    C610629   0.293   0.525  12.174  0.4321  0.3973  0.0909
  719TMC3     C10630   0.394   0.234  12.435  0.2824  0.1930  0.6687
  719TMC3     O10631   0.505   0.226  12.481  0.0473  0.2327  0.0530
  719TMC3     H10632   0.201   0.218  12.251 -0.1373  0.1668  2.0243
  719TMC3    H110633   0.564   0.388  12.332 -0.7667 -0.2802  2.0578
  719TMC3    H210634   0.256   0.614  12.126  0.6066  1.3284  1.6660
  719TMC3    C710635   0.515   0.628  12.218 -0.1130  0.7678 -0.2730
  719TMC3    C810636   0.086   0.455  12.266  0.0264 -0.1552  0.5604
  719TMC3    O110637   0.497   0.691  12.114  0.0377  0.1699 -0.1565
  719TMC3    O210638   0.056   0.365  12.346 -0.5588 -0.0606  0.5351
  720MPD2     C10639   3.217   2.085  14.143 -0.5043  0.8270  0.1939
  720MPD2    C110640   3.284   2.055  14.024 -0.2847  0.4663  0.2380
  720MPD2    C210641   3.392   1.969  14.033  0.2779 -0.4138  0.6592
  720MPD2    C310642   3.453   1.949  14.154  0.2005  0.6432 -0.3849
  720MPD2    C410643   3.382   1.975  14.267  0.6316 -0.0564 -0.0441
  720MPD2    C510644   3.257   2.029  14.259 -0.2013  0.1329 -0.6548
  720MPD2     H10645   3.443   1.950  13.939  0.1084 -0.1956  0.5242
  720MPD2    H110646   3.419   1.950  14.366  0.4060  1.9762  0.5559
  720MPD2    H210647   3.121   2.135  14.139  0.9521  3.6093 -0.4960
  720MPD2    H310648   3.196   2.034  14.349 -0.1674  0.9393 -0.6750
  720MPD2     N10649   3.585   1.902  14.149 -0.0154 -0.0136 -0.1072
  720MPD2    H510650   3.632   1.875  14.063  1.0082 -0.8340  0.7091
  720MPD2    N110651   3.244   2.104  13.896  0.1573  0.4500 -0.1653
  720MPD2    H710652   3.296   2.063  13.819  0.0319  0.2311 -0.1314
  721TMC3    C110653   3.808   1.878  14.228 -0.1920  0.5419 -0.3468
  721TMC3    C210654   3.890   1.823  14.331 -0.8383  0.4474 -0.1027
  721TMC3    C310655   4.021   1.844  14.321  0.5419  0.3617  0.2684
  721TMC3    C410656   3.854   1.950  14.128 -0.7029  0.2933  0.4427
  721TMC3    C510657   3.997   1.961  14.123 -0.0278  0.3913  0.3766
  721TMC3    C610658   4.080   1.921  14.223 -0.3265 -0.0121 -0.1590
  721TMC3     C10659   3.665   1.887  14.263  0.6095 -0.2532 -0.2279
  721TMC3     O10660   3.639   1.905  14.383  0.3134 -0.0093  0.5592
  721TMC3     H10661   3.843   1.763  14.408  0.7854  0.5140  0.9349
  721TMC3    H110662   3.782   2.007  14.071 -0.9164 -0.1201  0.2999
  721TMC3    H210663   4.185   1.947  14.234 -0.3980  0.1267  0.2113
  721TMC3    C710664   4.052   2.079  14.056 -0.2202  0.3281 -0.5773
  721TMC3    C810665   4.117   1.793  14.418  0.0873 -0.0209  0.3562
  721TMC3    O110666   4.170   2.086  14.056 -0.2865  0.4654 -0.2293
  721TMC3    O210667   4.239   1.774  14.393 -0.4553 -0.0545 -0.7922
  722MPD2     C10668   2.225   0.620  13.409  0.3838  0.9946 -0.0592
  722MPD2    C110669   2.170   0.727  13.474  0.3224 -0.2390  0.3827
  722MPD2    C210670   2.042   0.704  13.532 -0.5415  0.2667 -0.3636
  722MPD2    C310671   1.975   0.582  13.523 -0.5477  0.1577 -0.1435
  722MPD2    C410672   2.036   0.475  13.459  0.6586  0.2670 -0.1420
  722MPD2    C510673   2.162   0.497  13.409  0.1795 -0.0044 -0.1850
  722MPD2     H10674   1.988   0.794  13.559  2.3094  1.4190  1.6124
  722MPD2    H110675   1.995   0.376  13.441  2.5219 -0.4190 -0.5509
  722MPD2    H210676   2.320   0.631  13.358  1.4961 -1.7533  1.4296
  722MPD2    H310677   2.197   0.425  13.336 -2.5160 -1.6284  0.1443
  722MPD2     N10678   1.847   0.576  13.571 -0.0533 -0.9625 -0.7905
  722MPD2    H510679   1.814   0.655  13.626  1.3257 -1.2673  0.4519
  722MPD2    N110680   2.230   0.849  13.489 -0.2056 -0.5283 -0.1798
  722MPD2    H710681   2.176   0.930  13.521 -1.5600 -1.2402 -0.6588
  723TMC3    C110682   1.620   0.524  13.578  0.4951 -0.3205  0.3781
  723TMC3    C210683   1.534   0.421  13.580 -0.2859 -0.0389 -0.1656
  723TMC3    C310684   1.401   0.462  13.570 -0.1371  0.2191 -0.2671
  723TMC3    C410685   1.587   0.651  13.550  0.6408 -0.1217 -0.2266
  723TMC3    C510686   1.461   0.688  13.541  0.0304 -0.1402  0.1609
  723TMC3    C610687   1.361   0.589  13.559 -0.7458  0.2409 -0.2464
  723TMC3     C10688   1.755   0.478  13.545  0.4937  0.1224  0.0360
  723TMC3     O10689   1.761   0.372  13.488  0.4459  0.2465 -0.2910
  723TMC3     H10690   1.565   0.321  13.608 -0.3173 -0.6449 -2.2692
  723TMC3    H110691   1.658   0.731  13.536  2.2139 -1.2253  1.5330
  723TMC3    H210692   1.260   0.612  13.528 -0.7278  0.7169  0.0507
  723TMC3    C710693   1.428   0.827  13.512 -0.3966  0.6537 -0.7807
  723TMC3    C810694   1.312   0.355  13.530  1.0024 -0.6016 -0.3845
  723TMC3    O110695   1.512   0.908  13.554  0.6263 -0.2068 -0.4498
  723TMC3    O210696   1.212   0.342  13.601  0.2882 -0.1546  0.2327
  724TMC3    C110697   2.526   0.031   8.694 -0.0729  0.1945  0.3611
  724TMC3    C210698   2.504   4.624   8.658  0.1504  0.4683 -0.8435
  724TMC3    C310699   2.588   4.534   8.711  0.5365  0.3187  0.2541
  724TMC3    C410700   2.635   0.087   8.755 -0.0228 -0.0351  0.0667
  724TMC3    C510701   2.708   4.711   8.813 -0.1763 -0.1978 -0.8012
  724TMC3    C610702   2.696   4.575   8.781 -0.0772  0.4640 -0.0104
  724TMC3     C10703   2.446   0.114   8.606 -0.0413 -0.6456 -0.2884
  724TMC3     O10704   2.346   0.056   8.568  0.5473  0.1938  0.3100
  724TMC3     H10705   2.412   4.583   8.618  0.5489 -2.5997  1.3299
  724TMC3    H110706   2.650   0.193   8.773  0.8046  0.3733 -2.9604
  724TMC3    H210707   2.758   4.506   8.839 -0.6706  0.0825  0.1727
  724TMC3    C710708   2.835   0.015   8.876 -0.1862  0.1460 -0.5340
  724TMC3    C810709   2.520   4.411   8.754 -0.1120  0.5473 -0.5305
  724TMC3    O110710   2.894   4.646   8.926 -0.0054  0.0670 -0.4851
  724TMC3    O210711   2.467   4.348   8.666  0.7087  0.1276  0.0399
  725TMC3    C110712   4.028   2.740  12.481  0.3436  0.3374 -0.8319
  725TMC3    C210713   3.991   2.781  12.354 -0.1048  0.4800 -0.8272
  725TMC3    C310714   3.987   2.682  12.251 -0.2659 -0.1301  0.2231
  725TMC3    C410715   4.037   2.607  12.513  0.0100  0.1525 -0.2175
  725TMC3    C510716   4.010   2.517  12.409 -0.6798  0.1132  0.5277
  725TMC3    C610717   3.989   2.553  12.283  0.1218 -0.0494 -0.4268
  725TMC3     C10718   4.068   2.829  12.584 -0.0138  0.5644 -0.2019
  725TMC3     O10719   4.104   2.940  12.548 -0.2183  0.3326 -0.8554
  725TMC3     H10720   3.984   2.887  12.330 -0.0847  0.1095 -2.4601
  725TMC3    H110721   4.091   2.574  12.601 -0.6840  1.3197  0.6449
  725TMC3    H210722   3.976   2.471  12.214  0.0081 -2.2849  2.2512
  725TMC3    C710723   4.045   2.379  12.436 -0.8840 -0.6621 -0.4819
  725TMC3    C810724   3.951   2.706  12.114 -0.2560 -0.0490  0.0955
  725TMC3    O110725   4.092   2.316  12.345  0.5337  0.3827 -0.3257
  725TMC3    O210726   3.890   2.618  12.053  0.1278 -0.1597 -0.2189
  726MPD2     C10727   2.045   4.073  10.194 -0.0180  0.1474  0.4585
  726MPD2    C110728   1.926   4.083  10.124  0.3356  0.4000  0.4653
  726MPD2    C210729   1.858   3.971  10.081  0.3321 -0.6597  0.6526
  726MPD2    C310730   1.905   3.845  10.122  0.3709 -0.6769 -0.5208
  726MPD2    C410731   2.025   3.837  10.190  0.8854 -0.4954 -1.0570
  726MPD2    C510732   2.100   3.949  10.220 -0.3405 -0.3575 -0.1913
  726MPD2     H10733   1.772   3.982  10.017 -0.0960 -0.0005  1.3446
  726MPD2    H110734   2.057   3.736  10.213  1.0477 -0.9618 -3.2944
  726MPD2    H210735   2.105   4.160  10.216  0.1004 -0.3103  2.0055
  726MPD2    H310736   2.195   3.944  10.272  0.0306 -1.9362 -0.9951
  726MPD2     N10737   1.833   3.724  10.102  0.7652 -0.2536 -0.1188
  726MPD2    H510738   1.871   3.635  10.134  1.9034  0.6431  1.0199
  726MPD2    N110739   1.861   4.207  10.106  0.4301  0.0120  0.7148
  726MPD2    H710740   1.784   4.208  10.040  1.7096  0.7761 -0.7629
  727TMC3    C110741   1.842   4.442  10.106 -0.4686  0.1941 -0.3718
  727TMC3    C210742   1.899   4.551  10.158 -0.8305  0.3237  0.8863
  727TMC3    C310743   1.911   4.667  10.084  0.0740  0.7183  0.2006
  727TMC3    C410744   1.795   4.436   9.975 -0.7198  0.4831 -0.7367
  727TMC3    C510745   1.819   4.549   9.903 -0.1641 -0.3748  0.3639
  727TMC3    C610746   1.870   4.664   9.955 -0.3117  0.2383 -0.7230
  727TMC3     C10747   1.891   4.320  10.170  0.6935 -0.4674  0.2906
  727TMC3     O10748   1.981   4.341  10.250 -0.2012  0.7522 -0.4208
  727TMC3     H10749   1.928   4.544  10.262  1.4962  0.6414  0.2641
  727TMC3    H110750   1.745   4.348   9.935 -0.3247  0.4065 -1.0591
  727TMC3    H210751   1.888   0.027   9.893  0.5696  1.3068  1.0359
  727TMC3    C710752   1.761   4.566   9.776 -0.6457 -0.0914 -0.0370
  727TMC3    C810753   2.047   4.716  10.088  0.8398  0.4791 -0.0409
  727TMC3    O110754   1.766   4.681   9.737 -0.3002 -0.1207  0.9584
  727TMC3    O210755   2.119   4.689   9.991 -0.0008  0.0998  1.1479
  728TMC3    C110756   1.029   2.468  15.558  0.3571  0.7011 -0.0085
  728TMC3    C210757   1.145   2.534  15.594  0.1991  0.4344 -0.0034
  728TMC3    C310758   1.176   2.636  15.520  0.1210 -0.0411  0.5851
  728TMC3    C410759   0.978   2.480  15.432  0.0369 -0.6534  0.2271
  728TMC3    C510760   1.029   2.577  15.348  0.2990 -0.0022 -0.6914
  728TMC3    C610761   1.118   2.664  15.401  0.4708  0.2916  0.4218
  728TMC3     C10762   0.981   2.367  15.646 -0.6854 -0.5227 -0.7025
  728TMC3     O10763   1.008   2.377  15.768  0.5136  0.1021 -0.4087
  728TMC3     H10764   1.171   2.527  15.699 -1.2123  0.5015  0.3495
  728TMC3    H110765   0.897   2.415  15.401 -0.8821  1.2351 -1.2966
  728TMC3    H210766   1.147   2.745  15.335  1.0812 -0.2730  0.0083
  728TMC3    C710767   0.941   2.619  15.244 -0.0170  1.1495  0.7100
  728TMC3    C810768   1.310   2.695  15.544  0.8619 -0.3097 -1.1677
  728TMC3    O110769   0.823   2.589  15.249  0.0230 -0.6933  0.5042
  728TMC3    O210770   1.334   2.811  15.505 -0.2371 -0.6255  0.0722
  729MPD2     C10771   3.632   3.637  17.007  0.7352  0.5774  0.0070
  729MPD2    C110772   3.756   3.686  17.025 -1.1952  0.4096  0.9746
  729MPD2    C210773   3.791   3.750  17.149 -0.4254  0.2373 -0.1818
  729MPD2    C310774   3.709   3.732  17.255  0.2336  0.0209 -0.2444
  729MPD2    C410775   3.583   3.676  17.242  0.5445 -0.2746  0.8466
  729MPD2    C510776   3.544   3.632  17.119  0.2862 -0.0292  0.1261
  729MPD2     H10777   3.879   3.813  17.149  0.4828 -1.0237 -0.7432
  729MPD2    H110778   3.509   3.678  17.321 -0.6600 -0.8659 -0.2698
  729MPD2    H210779   3.599   3.631  16.904  0.4230 -0.9269  0.1985
  729MPD2    H310780   3.439   3.604  17.111 -0.0976  1.6823 -0.7159
  729MPD2     N10781   3.736   3.796  17.379 -0.3483 -0.5970 -0.2888
  729MPD2    H510782   3.668   3.791  17.454  1.3078 -2.9243  1.0700
  729MPD2    N110783   3.831   3.705  16.907  0.1748  0.5621 -0.1906
  729MPD2    H710784   3.790   3.691  16.815 -2.3670  0.7891  0.9291
  730TMC3    C110785   3.874   3.909  17.543  0.1022  0.9166 -0.1978
  730TMC3    C210786   3.996   3.965  17.563  0.3402 -0.5509 -0.2964
  730TMC3    C310787   4.005   4.076  17.642  0.1057 -0.3838  0.2265
  730TMC3    C410788   3.763   3.966  17.590  0.5018  0.4241 -0.5563
  730TMC3    C510789   3.775   4.078  17.663 -0.4533  0.3586 -0.2502
  730TMC3    C610790   3.895   4.127  17.694 -0.3907  0.0467  0.1245
  730TMC3     C10791   3.866   3.830  17.415  0.2127  0.1712  0.2289
  730TMC3     O10792   3.975   3.800  17.367 -0.0086 -0.1508  0.4145
  730TMC3     H10793   4.088   3.932  17.517 -0.2650 -3.2143  0.3974
  730TMC3    H110794   3.667   3.915  17.585  1.6673 -1.6590 -1.7169
  730TMC3    H210795   3.899   4.221   0.051  0.0396  0.7030 -1.0539
  730TMC3    C710796   3.668   4.174  17.630  0.3323  0.4071  0.8195
  730TMC3    C810797   4.105   4.175  17.600  0.8493 -0.6438  0.0696
  730TMC3    O110798   3.589   4.139  17.541 -0.0632 -0.0024  0.3219
  730TMC3    O210799   4.151   4.165  17.488  0.0966 -0.1347  0.2132
  731MPD2     C10800   3.553   2.270  11.886 -0.3971 -0.4704 -0.6489
  731MPD2    C110801   3.595   2.167  11.966  0.2476 -0.5369  0.2239
  731MPD2    C210802   3.648   2.187  12.090  0.1906  0.1756 -0.3293
  731MPD2    C310803   3.654   2.316  12.138  0.1148  0.0121  0.3373
  731MPD2    C410804   3.602   2.422  12.071  0.5335  0.8290  0.4739
  731MPD2    C510805   3.554   2.396  11.944 -0.0353 -0.1044  0.2872
  731MPD2     H10806   3.681   2.105  12.153 -1.1046  0.2671  0.4610
  731MPD2    H110807   3.599   2.523  12.110 -1.5216  2.3684 -3.6246
  731MPD2    H210808   3.499   2.255  11.793 -1.6524  1.6039 -0.2419
  731MPD2    H310809   3.522   2.481  11.886 -0.8353 -1.5542 -1.4006
  731MPD2     N10810   3.683   2.323  12.274  0.2064  0.1520  0.1550
  731MPD2    H510811   3.695   2.233  12.320  1.6384 -0.7921 -2.0591
  731MPD2    N110812   3.587   2.043  11.907  0.6415  0.1690 -0.3224
  731MPD2    H710813   3.521   2.039  11.830  0.0281  1.1080  0.1603
  732TMC3    C110814   3.630   1.808  11.868  0.1203 -0.7450  0.4083
  732TMC3    C210815   3.536   1.813  11.764  0.1843  1.0403  0.6002
  732TMC3    C310816   3.545   1.718  11.667  0.1134  0.5311  0.0774
  732TMC3    C410817   3.719   1.710  11.888 -0.7039 -0.0935 -0.7530
  732TMC3    C510818   3.726   1.620  11.782 -0.0818 -0.6828 -0.2006
  732TMC3    C610819   3.648   1.621  11.668  0.3046 -0.2250  0.2680
  732TMC3     C10820   3.642   1.925  11.954 -0.2124  0.0663 -0.5133
  732TMC3     O10821   3.699   1.907  12.056 -0.1059 -0.1996 -0.1183
  732TMC3     H10822   3.468   1.897  11.755  1.1008  1.6966 -0.1570
  732TMC3    H110823   3.785   1.712  11.974  1.1767  2.5708 -2.2613
  732TMC3    H210824   3.647   1.543  11.593 -1.0380  0.4011 -0.3902
  732TMC3    C710825   3.826   1.510  11.790 -0.4194  0.6239 -0.6874
  732TMC3    C810826   3.441   1.697  11.574  0.3574 -0.6528  0.5994
  732TMC3    O110827   3.852   1.462  11.682 -0.3382  0.1212  0.5036
  732TMC3    O210828   3.459   1.631  11.473  0.0667  0.3816 -0.1046
  733TMC3    C110829   4.231   0.291  12.944  0.9434 -0.0648 -0.4808
  733TMC3    C210830   4.346   0.225  12.980  0.1460 -0.2864  0.5425
  733TMC3    C310831   4.465   0.278  12.927 -0.6565  0.4311 -0.9077
  733TMC3    C410832   4.227   0.398  12.850 -0.0768  0.2771 -0.5799
  733TMC3    C510833   4.352   0.444  12.809  0.0094  0.1743  0.2815
  733TMC3    C610834   4.473   0.389  12.844 -1.1804 -0.7379 -0.6516
  733TMC3     C10835   4.098   0.236  12.961  0.4744  0.0362  0.0527
  733TMC3     O10836   4.012   0.262  12.875 -0.8823 -0.1937  0.0700
  733TMC3     H10837   4.336   0.125  13.021  0.6518 -0.1455  1.0031
  733TMC3    H110838   4.135   0.448  12.823 -0.7800 -1.1376 -0.7933
  733TMC3    H210839   4.569   0.432  12.818 -1.4399 -0.1451 -0.6470
  733TMC3    C710840   4.359   0.545  12.708  0.6207  0.3946  0.3092
  733TMC3    C810841   4.575   0.188  12.927  0.0494 -0.6810  0.3750
  733TMC3    O110842   4.281   0.637  12.725  0.1876  0.3363 -0.4699
  733TMC3    O210843   4.605   0.122  13.027  0.2080  0.6283 -0.0656
  734MPD2     C10844   1.475   2.778  12.325  0.1645 -0.3007  0.4262
  734MPD2    C110845   1.461   2.660  12.255  0.4067  0.0605 -0.1277
  734MPD2    C210846   1.506   2.666  12.125  0.7754  0.6528 -0.2027
  734MPD2    C310847   1.547   2.777  12.064  0.1888  0.5403 -0.0701
  734MPD2    C410848   1.543   2.900  12.133  0.7566 -0.2513 -0.5905
  734MPD2    C510849   1.519   2.893  12.267  0.7081  0.2235 -0.0106
  734MPD2     H10850   1.504   2.578  12.062 -0.5218  0.7132 -0.2394
  734MPD2    H110851   1.569   2.998  12.093 -0.3155 -0.3845 -1.6238
  734MPD2    H210852   1.457   2.769  12.431  0.0078  0.2250  0.4442
  734MPD2    H310853   1.535   2.983  12.325 -0.1482  1.6854 -2.0469
  734MPD2     N10854   1.569   2.767  11.924 -0.6192 -0.7891  0.1743
  734MPD2    H510855   1.564   2.675  11.882 -0.1785 -1.6101  1.9081
  734MPD2    N110856   1.394   2.544  12.314  0.3805 -0.2023 -0.3201
  734MPD2    H710857   1.384   2.543  12.415 -1.7015 -0.2968 -0.5330
  735TMC3    C110858   1.301   2.325  12.302 -0.2639  0.8043  0.1053
  735TMC3    C210859   1.195   2.269  12.226  0.1139 -0.8057 -0.8067
  735TMC3    C310860   1.212   2.147  12.176  0.5184  0.7566 -0.3934
  735TMC3    C410861   1.407   2.248  12.332  0.5713  0.4303  0.0936
  735TMC3    C510862   1.414   2.124  12.281 -0.6158 -0.0614  0.0081
  735TMC3    C610863   1.310   2.067  12.211 -0.8593 -0.1242 -0.3046
  735TMC3     C10864   1.329   2.452  12.237 -0.2789  0.2774  0.0799
  735TMC3     O10865   1.307   2.453  12.115  0.2875 -0.1979  0.0878
  735TMC3     H10866   1.113   2.332  12.193  0.4002 -0.5304 -0.9825
  735TMC3    H110867   1.492   2.301  12.372  0.4043 -0.0589  1.1139
  735TMC3    H210868   1.334   1.975  12.158 -0.5170  0.9125 -1.9449
  735TMC3    C710869   1.544   2.082  12.242 -0.2281  0.1538  0.5300
  735TMC3    C810870   1.178   2.130  12.039 -0.2911 -0.1196 -0.4068
  735TMC3    O110871   1.617   2.176  12.217 -0.8396  0.1194 -0.3954
  735TMC3    O210872   1.188   2.017  11.988  0.0607  0.1737 -0.8669
  736MPD2     C10873   1.662   1.736  12.251  0.8819 -0.4176 -0.2629
  736MPD2    C110874   1.678   1.870  12.229 -0.0300  0.0865 -0.4753
  736MPD2    C210875   1.793   1.925  12.169  0.4718  0.2035 -0.5062
  736MPD2    C310876   1.889   1.831  12.134 -0.3273 -0.3730  0.7544
  736MPD2    C410877   1.887   1.700  12.186  0.4052  0.1260 -0.3566
  736MPD2    C510878   1.772   1.656  12.247 -0.2646 -0.6682 -0.2460
  736MPD2     H10879   1.802   2.030  12.147  2.1109  0.1197 -0.2570
  736MPD2    H110880   1.955   1.624  12.151 -0.2726  0.1017 -1.6101
  736MPD2    H210881   1.576   1.689  12.299  0.1579  0.3887 -0.7686
  736MPD2    H310882   1.776   1.550  12.270  0.5385 -1.1781 -2.6356
  736MPD2     N10883   1.996   1.855  12.045 -0.2885 -0.6811 -0.9252
  736MPD2    H510884   2.061   1.780  12.024 -0.4697 -1.2779  0.6483
  736MPD2    N110885   1.559   1.944  12.250 -0.0113 -0.2178  0.1378
  736MPD2    H710886   1.477   1.889  12.274 -0.3841 -0.1182 -0.9313
  737TMC3    C110887   2.090   1.949  11.847  0.4739  0.3776 -0.2873
  737TMC3    C210888   2.104   2.067  11.774  0.0303  0.3216  0.0243
  737TMC3    C310889   2.209   2.066  11.691 -1.1857  0.5339 -0.5127
  737TMC3    C410890   2.160   1.834  11.821 -0.1607  0.4816 -0.3182
  737TMC3    C510891   2.251   1.838  11.719  0.7039 -0.4100  0.0780
  737TMC3    C610892   2.281   1.956  11.656  0.3700  0.1342 -0.4819
  737TMC3     C10893   1.998   1.964  11.960 -1.0874  0.9761  0.1921
  737TMC3     O10894   1.927   2.063  11.962 -0.2929  0.5666  0.9094
  737TMC3     H10895   2.059   2.161  11.803 -1.5806 -0.5804  0.4466
  737TMC3    H110896   2.145   1.740  11.873  0.3850  0.8163  0.4391
  737TMC3    H210897   2.356   1.971  11.579  1.5877 -2.9573  0.1026
  737TMC3    C710898   2.324   1.721  11.671  0.1429  0.3085 -0.4187
  737TMC3    C810899   2.231   2.186  11.618  0.5920 -0.8621  0.2640
  737TMC3    O110900   2.336   1.625  11.747  0.1047  0.0476 -0.0729
  737TMC3    O210901   2.347   2.197  11.585 -0.0592  0.0425  0.3904
  738MPD2     C10902   1.949   1.130  14.721  0.7699  0.6022 -0.3535
  738MPD2    C110903   2.022   1.124  14.837 -0.0720 -0.5951 -0.0220
  738MPD2    C210904   2.136   1.198  14.847 -0.6439 -1.1746 -1.5499
  738MPD2    C310905   2.169   1.286  14.744  0.1912  0.7125  0.2767
  738MPD2    C410906   2.088   1.299  14.631 -0.2678  0.7213  0.0428
  738MPD2    C510907   1.978   1.219  14.625  0.4318  0.0148  0.1242
  738MPD2     H10908   2.202   1.168  14.927 -0.3611  2.1178 -0.5485
  738MPD2    H110909   2.113   1.376  14.558  0.7494 -0.0130 -0.3834
  738MPD2    H210910   1.858   1.072  14.711  1.3044 -1.0714  4.7580
  738MPD2    H310911   1.903   1.234  14.548 -2.3295  2.2129  3.2073
  738MPD2     N10912   2.285   1.365  14.742 -0.3071 -1.1141  0.0655
  738MPD2    H510913   2.304   1.425  14.663 -1.8647 -0.2541  0.3546
  738MPD2    N110914   1.978   1.027  14.925  0.0736  0.3497  0.0263
  738MPD2    H710915   1.886   0.989  14.904 -0.0529  0.0893  1.0477
  739TMC3    C110916   2.472   1.473  14.825  0.8399  0.1611 -0.2201
  739TMC3    C210917   2.552   1.440  14.720 -0.3636 -0.4333 -0.4864
  739TMC3    C310918   2.666   1.514  14.705  0.5791  0.5814  0.0925
  739TMC3    C410919   2.521   1.543  14.929 -0.0616 -0.4999  0.3993
  739TMC3    C510920   2.642   1.610  14.914  0.1966  0.1600  0.2829
  739TMC3    C610921   2.715   1.600  14.802 -0.3342  0.4073 -0.2163
  739TMC3     C10922   2.360   1.391  14.852 -0.6411 -0.4000 -0.4169
  739TMC3     O10923   2.345   1.356  14.969  0.3680  0.4439 -0.5023
  739TMC3     H10924   2.511   1.373  14.645 -0.3990 -0.4643 -0.4392
  739TMC3    H110925   2.460   1.567  15.015  1.5518 -0.8977  1.6475
  739TMC3    H210926   2.812   1.649  14.798 -0.9154  1.5911  0.2494
  739TMC3    C710927   2.680   1.697  15.021  0.7925  0.1116  0.1945
  739TMC3    C810928   2.744   1.489  14.582  0.0807 -0.3217 -0.9586
  739TMC3    O110929   2.598   1.720  15.105 -0.2728  0.4828  0.2716
  739TMC3    O210930   2.714   1.391  14.514 -0.0874 -0.5290 -0.2515
  740TMC3    C110931   3.359   2.356  14.399 -0.3303  0.2538  0.9940
  740TMC3    C210932   3.427   2.281  14.498  0.3269  0.1925  0.0428
  740TMC3    C310933   3.550   2.222  14.463  0.6043  0.5324  0.5379
  740TMC3    C410934   3.408   2.370  14.271  0.6013  0.2486 -0.5602
  740TMC3    C510935   3.531   2.313  14.246 -0.3144  0.2525 -0.6809
  740TMC3    C610936   3.596   2.232  14.334 -0.5553 -0.2802 -0.1857
  740TMC3     C10937   3.257   2.453  14.436  0.5002 -0.2986  0.2141
  740TMC3     O10938   3.233   2.540  14.356 -0.0132  0.3358 -0.4334
  740TMC3     H10939   3.384   2.277  14.598 -1.6974 -0.3627 -0.8476
  740TMC3    H110940   3.348   2.405  14.188 -3.5183  0.3674  2.5033
  740TMC3    H210941   3.691   2.183  14.312 -0.3025  0.3118 -0.3968
  740TMC3    C710942   3.577   2.285  14.112  0.3305 -0.3347  0.1368
  740TMC3    C810943   3.657   2.210  14.566 -0.2343 -0.0312  0.3356
  740TMC3    O110944   3.653   2.191  14.092 -0.2885 -0.7072 -0.4513
  740TMC3    O210945   3.769   2.185  14.529  0.3823 -0.1545 -0.4541
  741TMC3    C110946   2.624   1.562  14.119  0.0377  0.6423  0.2970
  741TMC3    C210947   2.559   1.458  14.187 -0.7206  0.1889 -0.0746
  741TMC3    C310948   2.526   1.480  14.314 -0.6105  0.0582 -0.2028
  741TMC3    C410949   2.667   1.677  14.173  0.7047  0.3221 -0.7277
  741TMC3    C510950   2.623   1.696  14.303 -0.2291  0.4068  0.1930
  741TMC3    C610951   2.548   1.603  14.375 -0.0883  0.4155 -0.4833
  741TMC3     C10952   2.637   1.542  13.971 -0.0240  0.4058 -0.3688
  741TMC3     O10953   2.581   1.441  13.930 -0.4272  0.1787 -0.1097
  741TMC3     H10954   2.558   1.357  14.147 -0.0037  0.4293 -0.6917
  741TMC3    H110955   2.736   1.740  14.118  0.9302  0.3051 -0.4638
  741TMC3    H210956   2.508   1.629  14.473 -0.7626 -0.3168 -0.5593
  741TMC3    C710957   2.663   1.818  14.381 -0.2953 -0.1548 -0.2231
  741TMC3    C810958   2.425   1.393  14.374  0.0330  0.1412  0.0300
  741TMC3    O110959   2.657   1.817  14.501 -0.1856 -0.1564 -0.2845
  741TMC3    O210960   2.353   1.432  14.468 -0.5173  1.2008 -0.5440
  742TMC3    C110961   2.574   0.036  15.407 -0.2449 -0.3211  0.0579
  742TMC3    C210962   2.509   4.709  15.297 -0.2590 -0.2926  1.2237
  742TMC3    C310963   2.571   0.002  15.173  0.1806 -0.2019  0.0801
  742TMC3    C410964   2.702   0.085  15.407 -0.5869  0.3218  1.2784
  742TMC3    C510965   2.772   0.060  15.290 -0.0095  0.1190  0.6944
  742TMC3    C610966   2.703   0.029  15.174 -0.1738 -0.5073 -0.0500
  742TMC3     C10967   2.487   0.048  15.524  0.4956  0.3301 -0.3253
  742TMC3     O10968   2.370   0.080  15.509  0.2542  0.5312 -0.4984
  742TMC3     H10969   2.406   4.676  15.308 -0.6144 -0.0855 -1.5444
  742TMC3    H110970   2.747   0.116  15.500  1.6539 -1.2695  0.7199
  742TMC3    H210971   2.764   0.017  15.085  0.4046 -2.5417  0.6269
  742TMC3    C710972   2.916   0.048  15.294 -0.1188  0.0443 -0.0068
  742TMC3    C810973   2.505   4.715  15.046 -0.3707  0.0938  0.1018
  742TMC3    O110974   2.962   0.027  15.181  0.1524 -0.2667 -0.2716
  742TMC3    O210975   2.572   4.693  14.945  0.5620 -0.0961 -0.4304
  743MPD2     C10976   4.494   0.280   0.879  0.1113 -0.4004 -0.4749
  743MPD2    C110977   4.583   0.382   0.882  0.3051 -0.6434  0.2234
  743MPD2    C210978   4.708   0.361   0.938 -0.8606 -0.1000  0.1778
  743MPD2    C310979   0.023   0.234   0.979  0.3882 -0.0011 -0.1717
  743MPD2    C410980   4.655   0.133   0.977 -0.2037 -0.3223  0.0114
  743MPD2    C510981   4.531   0.155   0.922  0.4708 -0.2619 -0.5896
  743MPD2     H10982   0.050   0.446   0.925 -0.1836 -1.0052 -2.4567
  743MPD2    H110983   4.675   0.033   1.014 -0.5183 -0.4026 -0.0330
  743MPD2    H210984   4.389   0.280   0.852 -0.4998  0.1979  1.8745
  743MPD2    H310985   4.461   0.072   0.927 -0.7644  0.8868  1.3115
  743MPD2     N10986   0.161   0.217   1.003  0.4443  0.2828  0.7071
  743MPD2    H510987   0.226   0.295   0.991 -0.1262  0.9138  1.7330
  743MPD2    N110988   4.557   0.509   0.828 -0.1126  0.6471 -0.0484
  743MPD2    H710989   4.631   0.578   0.827  1.1791 -0.7515 -0.3687
  744TMC3    C110990   4.443   0.671   0.713 -0.3374 -0.0481  0.4555
  744TMC3    C210991   4.394   0.780   0.780 -0.4426 -0.0730  0.5220
  744TMC3    C310992   4.441   0.903   0.745 -0.0717  0.2582  0.3432
  744TMC3    C410993   4.552   0.678   0.627  0.6314  0.0238  0.0703
  744TMC3    C510994   4.586   0.800   0.594 -0.1627  0.0221  0.5540
  744TMC3    C610995   4.544   0.911   0.659 -0.3050  0.2865  0.1910
  744TMC3     C10996   4.437   0.548   0.782 -0.0291  0.3196  0.1133
  744TMC3     O10997   4.322   0.508   0.802 -0.4252  0.2515  0.5854
  744TMC3     H10998   4.320   0.760   0.856 -0.8515 -0.1915  0.0941
  744TMC3    H110999   4.595   0.591   0.578  0.6663  1.2098 -2.0045
  744TMC3    H211000   4.567   1.011   0.623  0.1205  1.5324  3.8486
  744TMC3    C711001   4.689   0.821   0.502  0.0796  0.1826  0.7135
  744TMC3    C811002   4.406   1.019   0.828 -0.2354  0.6032  0.2948
  744TMC3    O111003   0.046   0.910   0.521 -0.2574 -0.6493 -0.2625
  744TMC3    O211004   4.491   1.109   0.838 -0.2745  0.0549 -0.0084
  745TMC3    C111005   3.081   0.211  13.970  0.3697 -0.3579 -0.4789
  745TMC3    C211006   3.017   0.318  14.029 -0.1918 -0.6437  0.7635
  745TMC3    C311007   2.885   0.323  14.007 -0.0092 -0.6062 -0.1412
  745TMC3    C411008   3.026   0.113  13.899 -0.0400 -0.0106  0.2758
  745TMC3    C511009   2.891   0.123  13.872  0.3607 -0.0627 -0.1300
  745TMC3    C611010   2.814   0.223  13.935 -0.3945  0.7888 -0.3777
  745TMC3     C11011   3.224   0.216  13.990 -0.1545 -0.1539  0.2528
  745TMC3     O11012   3.288   0.126  14.045  0.7606  0.4959  0.3203
  745TMC3     H11013   3.070   0.392  14.087  0.6948 -1.0119  0.4166
  745TMC3    H111014   3.086   0.028  13.870  1.4633  0.8208  0.9331
  745TMC3    H211015   2.708   0.226  13.916 -0.6102 -0.2976  0.6294
  745TMC3    C711016   2.825   0.053  13.761 -0.8134  0.2339  0.1828
  745TMC3    C811017   2.810   0.450  14.003  0.3413 -0.3561 -0.7234
  745TMC3    O111018   2.705   0.050  13.748 -0.1740  0.2338  0.5159
  745TMC3    O211019   2.703   0.458  13.944  0.7820 -1.0355 -0.2738
  746TMC3    C111020   0.381   2.039  10.901  0.0193 -0.3162  0.3325
  746TMC3    C211021   0.355   2.038  10.764 -0.8040 -0.1837  0.2957
  746TMC3    C311022   0.257   1.949  10.722 -0.2474 -0.4521  0.6041
  746TMC3    C411023   0.314   1.960  10.998 -0.5467 -0.8347 -0.0917
  746TMC3    C511024   0.216   1.869  10.946 -0.4993 -0.2062 -0.0565
  746TMC3    C611025   0.185   1.866  10.816 -0.5357  0.1020 -0.0516
  746TMC3     C11026   0.444   2.162  10.958  1.2297  1.0092  1.2140
  746TMC3     O11027   0.401   2.207  11.061  0.1143  0.0901  0.1711
  746TMC3     H11028   0.410   2.102  10.696 -0.9089 -0.7750 -0.3355
  746TMC3    H111029   0.343   1.962  11.102  0.8282 -2.3869 -0.4439
  746TMC3    H211030   0.097   1.811  10.784 -0.7948 -0.4371  1.5999
  746TMC3    C711031   0.139   1.784  11.034 -0.1832 -0.4924  0.6776
  746TMC3    C811032   0.225   1.926  10.585 -0.3261 -0.2977 -0.2811
  746TMC3    O111033   0.022   1.772  11.015 -0.0612 -0.0895  0.2705
  746TMC3    O211034   0.148   1.836  10.546 -0.1609  0.0154  0.2192
  747TMC3    C111035   2.659   1.670  10.656  0.2684 -0.4663 -0.7746
  747TMC3    C211036   2.616   1.600  10.766  0.0941 -0.0074  0.0674
  747TMC3    C311037   2.628   1.657  10.894 -0.8562 -0.1207  0.7987
  747TMC3    C411038   2.723   1.786  10.669 -0.2621 -0.3266  0.0894
  747TMC3    C511039   2.740   1.850  10.794 -0.9222  0.6623 -0.1937
  747TMC3    C611040   2.689   1.784  10.903  0.8971  0.1510  0.6025
  747TMC3     C11041   2.640   1.601  10.529  0.6598 -0.0876 -0.2780
  747TMC3     O11042   2.644   1.479  10.533 -0.0261  0.3913 -0.0668
  747TMC3     H11043   2.552   1.513  10.751 -0.0082  0.4121 -2.0288
  747TMC3    H111044   2.776   1.804  10.576  2.4076 -2.3362  1.2289
  747TMC3    H211045   2.707   1.825  11.002 -0.3491  0.5851  0.6487
  747TMC3    C711046   2.790   1.985  10.811  0.9643 -0.9343 -0.6249
  747TMC3    C811047   2.587   1.576  11.005  0.0759  0.4308 -0.6956
  747TMC3    O111048   2.811   2.019  10.927  0.3852  0.5516  0.5407
  747TMC3    O211049   2.564   1.459  10.971 -0.3475 -0.3803 -0.2675
  748MPD2     C11050   0.345   2.623   1.482 -0.2364  0.1871  0.5041
  748MPD2    C111051   0.350   2.512   1.403 -0.1880 -0.2611 -0.2733
  748MPD2    C211052   0.394   2.528   1.272  0.1298  0.4220 -0.0314
  748MPD2    C311053   0.441   2.644   1.224 -0.1357  0.7294 -0.4456
  748MPD2    C411054   0.448   2.752   1.307 -0.3136 -0.7363  0.2260
  748MPD2    C511055   0.401   2.737   1.438  0.1610  0.0521 -0.7983
  748MPD2     H11056   0.387   2.446   1.202 -1.2223  0.0731  0.5073
  748MPD2    H111057   0.468   2.853   1.275  0.9881 -1.1180 -0.1387
  748MPD2    H211058   0.285   2.632   1.572  1.6172  1.1808  1.6403
  748MPD2    H311059   0.392   2.830   1.493 -2.9248 -1.2843  0.9326
  748MPD2     N11060   0.460   2.657   1.087 -0.1320 -0.1283 -0.2557
  748MPD2    H511061   0.480   2.574   1.032  0.5123 -1.2978  1.7177
  748MPD2    N111062   0.299   2.387   1.454  0.3216 -0.5412  0.3593
  748MPD2    H711063   0.255   2.386   1.545 -0.7380 -0.3468 -0.1543
  749TMC3    C111064   0.528   2.771   0.897 -0.2238  0.0516  0.1971
  749TMC3    C211065   0.535   2.654   0.824 -0.7579  0.3111 -0.0502
  749TMC3    C311066   0.585   2.665   0.693  0.0941  0.1648 -0.2365
  749TMC3    C411067   0.564   2.890   0.843 -0.4762  0.3244  0.3937
  749TMC3    C511068   0.614   2.894   0.718 -0.0137  0.8660  0.6489
  749TMC3    C611069   0.620   2.788   0.635 -0.4519  0.2576 -0.7270
  749TMC3     C11070   0.465   2.778   1.018  0.3282 -0.6132  0.1672
  749TMC3     O11071   0.443   2.892   1.060  0.5223 -0.4520 -0.3128
  749TMC3     H11072   0.484   2.563   0.854 -0.5952  0.7275  1.4719
  749TMC3    H111073   0.563   2.974   0.911  0.0435 -0.0004  0.8067
  749TMC3    H211074   0.672   2.803   0.541 -2.6419 -1.2077 -2.1628
  749TMC3    C711075   0.689   3.016   0.680 -0.1267 -0.3547  0.9116
  749TMC3    C811076   0.602   2.548   0.616  0.2600  0.5089  0.4394
  749TMC3    O111077   0.739   3.084   0.772 -0.5263 -0.2552  0.0576
  749TMC3    O211078   0.670   2.558   0.512 -0.0991 -0.3500  0.2102
  750MPD2     C11079   0.700   3.867  11.531 -0.6389  0.0413  0.7957
  750MPD2    C111080   0.583   3.812  11.579 -0.2222  0.0650  0.5127
  750MPD2    C211081   0.562   3.673  11.569  0.4757  0.0283  0.5818
  750MPD2    C311082   0.644   3.600  11.491 -0.6363 -0.0615 -0.3362
  750MPD2    C411083   0.759   3.657  11.446  0.1685 -0.4984 -0.2430
  750MPD2    C511084   0.791   3.787  11.466  0.4574  0.0719 -0.4414
  750MPD2     H11085   0.463   3.637  11.592  0.3484  0.1441  0.2296
  750MPD2    H111086   0.831   3.598  11.391  0.1324 -0.7402 -0.0277
  750MPD2    H211087   0.728   3.971  11.530 -2.2575  0.4603 -0.9538
  750MPD2    H311088   0.885   3.830  11.435  0.0019  0.6252 -1.0577
  750MPD2     N11089   0.611   3.470  11.442 -0.0517  0.0691  0.3153
  750MPD2    H511090   0.652   3.437  11.355 -0.9212  3.0702 -1.2316
  750MPD2    N111091   0.486   3.907  11.627  0.0299  0.2694 -0.2865
  750MPD2    H711092   0.517   4.003  11.616 -0.6822  0.6727  1.3352
  751TMC3    C111093   0.465   3.277  11.408 -0.0964 -0.3708 -0.1640
  751TMC3    C211094   0.346   3.310  11.355 -0.3102  0.1029 -0.1748
  751TMC3    C311095   0.326   3.294  11.226 -0.4396 -0.3049  0.3714
  751TMC3    C411096   0.564   3.222  11.318 -0.1534 -0.0167  1.0645
  751TMC3    C511097   0.535   3.195  11.189 -0.0153  0.3330 -0.1230
  751TMC3    C611098   0.411   3.226  11.145 -0.5184  0.1303 -0.6482
  751TMC3     C11099   0.504   3.389  11.491 -0.2999 -0.5719  0.9745
  751TMC3     O11100   0.444   3.401  11.595  0.5444 -0.1268  0.1298
  751TMC3     H11101   0.285   3.377  11.416 -0.1524  0.2974 -0.2281
  751TMC3    H111102   0.670   3.231  11.342 -0.0621  0.9848  0.2490
  751TMC3    H211103   0.390   3.201  11.041  1.2929  0.3582 -1.0846
  751TMC3    C711104   0.617   3.108  11.107 -0.0201 -0.3193 -0.1117
  751TMC3    C811105   0.191   3.308  11.173 -0.1718  0.5108 -0.2369
  751TMC3    O111106   0.737   3.127  11.116 -0.2556  0.0356 -0.0675
  751TMC3    O211107   0.182   3.238  11.074 -0.2664 -0.0886 -0.0564
  752TMC3    C111108   4.584   4.340  17.338 -0.7905 -0.4165  0.5766
  752TMC3    C211109   4.563   4.233  17.415  0.4591  0.0651 -0.1329
  752TMC3    C311110   4.542   4.244  17.546  0.1763  0.2756  0.2949
  752TMC3    C411111   4.570   4.468  17.392 -0.0366 -0.5386  0.2595
  752TMC3    C511112   4.533   4.479  17.525 -0.1602  0.2194 -0.0341
  752TMC3    C611113   4.521   4.369  17.599 -0.4198 -0.0806  0.0656
  752TMC3     C11114   4.602   4.332  17.193  0.6832 -0.4587  0.0539
  752TMC3     O11115   4.672   4.424  17.152  0.7046  0.1445 -0.5116
  752TMC3     H11116   4.561   4.134  17.372 -0.8017 -0.6638  1.6090
  752TMC3    H111117   4.595   4.552  17.327  1.5823 -1.1493  0.0787
  752TMC3    H211118   4.482   4.374   0.003  2.2503 -1.1336  1.1327
  752TMC3    C711119   4.537   4.602  17.598 -0.8525 -0.0549 -0.3432
  752TMC3    C811120   4.508   4.118  17.613 -0.5685  0.9621 -0.8371
  752TMC3    O111121   4.547   4.600   0.021 -0.3653 -0.9053 -0.5710
  752TMC3    O211122   4.532   4.015  17.552  0.8336 -0.6989 -0.0536
  753TMC3    C111123   1.030   4.357  13.533  0.2688  0.4006  0.1871
  753TMC3    C211124   1.132   4.356  13.619 -0.8634 -0.6197  0.0162
  753TMC3    C311125   1.220   4.252  13.608 -0.2885  0.2060  0.0123
  753TMC3    C411126   1.010   4.266  13.433 -0.2115  0.6810  1.1330
  753TMC3    C511127   1.109   4.171  13.420  0.0690 -0.4159 -0.0917
  753TMC3    C611128   1.214   4.160  13.504 -0.0804  0.7627  0.2146
  753TMC3     C11129   0.919   4.461  13.552  0.2375 -0.2274 -0.0869
  753TMC3     O11130   0.833   4.465  13.464  0.7967  0.0289 -0.5086
  753TMC3     H11131   1.148   4.428  13.697 -0.0701 -0.7419 -0.0365
  753TMC3    H111132   0.940   4.295  13.356  0.0006 -2.9435 -0.4270
  753TMC3    H211133   1.288   4.083  13.487  0.4366  1.4837 -0.8120
  753TMC3    C711134   1.065   4.054  13.344  0.3337  0.1448 -0.1895
  753TMC3    C811135   1.346   4.243  13.684 -0.6446  0.0073  0.1388
  753TMC3    O111136   1.151   3.969  13.321 -0.4262  0.8311 -0.0766
  753TMC3    O211137   1.438   4.185  13.623  0.2314  0.0988 -0.5676
  754MPD2     C11138   0.247   3.856  12.866  0.4360  0.0663 -0.2160
  754MPD2    C111139   0.250   3.720  12.864 -0.4890 -0.5287  0.2539
  754MPD2    C211140   0.129   3.656  12.870 -0.0061 -0.1827 -0.0756
  754MPD2    C311141   0.015   3.728  12.876 -0.1865  0.3530  0.0616
  754MPD2    C411142   0.022   3.867  12.873  0.2492 -0.0439 -1.0140
  754MPD2    C511143   0.140   3.933  12.862  0.0008  0.1076  0.7253
  754MPD2     H11144   0.132   3.549  12.853 -2.2178  0.1412 -2.4521
  754MPD2    H111145   4.659   3.930  12.885  1.2276  1.0202  0.6884
  754MPD2    H211146   0.346   3.899  12.875  0.7238 -1.2393  2.7604
  754MPD2    H311147   0.149   4.040  12.873 -2.5264  0.5414 -1.5972
  754MPD2     N11148   4.606   3.680  12.891  0.0474  0.2122 -0.3310
  754MPD2    H511149   4.533   3.750  12.903  0.6233  0.8095 -0.2919
  754MPD2    N111150   0.369   3.649  12.867 -0.0268  0.0993 -0.2790
  754MPD2    H711151   0.440   3.707  12.825  0.6413 -1.8228 -1.7788
  755MPD2     C11152   3.814   4.053  12.963 -0.3565  0.5512  0.5073
  755MPD2    C111153   3.843   3.989  13.080  0.2385 -0.0069 -0.4533
  755MPD2    C211154   3.945   3.897  13.081  0.0089 -0.9907  0.3150
  755MPD2    C311155   4.000   3.850  12.961 -0.0520 -0.0282  0.0842
  755MPD2    C411156   3.942   3.896  12.844 -0.3403 -0.3236  0.2447
  755MPD2    C511157   3.856   4.002  12.845 -0.1405  0.2607  0.1236
  755MPD2     H11158   3.976   3.853  13.175  0.0318 -2.8068 -0.5365
  755MPD2    H111159   3.976   3.866  12.746  1.3176  0.9179  0.4399
  755MPD2    H211160   3.747   4.138  12.960 -0.1408  0.7235  0.5184
  755MPD2    H311161   3.820   4.040  12.750  1.0433 -1.2229 -0.8911
  755MPD2     N11162   4.112   3.757  12.951  0.2327 -0.2161 -0.8484
  755MPD2    H511163   4.175   3.747  12.872 -0.1092 -0.3993 -1.0942
  755MPD2    N111164   3.778   4.011  13.203  0.4015  0.1193  0.2919
  755MPD2    H711165   3.815   3.971  13.289 -0.3638 -2.0815 -0.4159
  756MPD2     C11166   0.455   3.364   9.596  0.1047  0.1359  0.1685
  756MPD2    C111167   0.434   3.405   9.728 -1.1906  0.4017 -0.2336
  756MPD2    C211168   0.336   3.341   9.803  0.0580 -0.1489 -0.1623
  756MPD2    C311169   0.258   3.240   9.745  0.2003  0.3682  0.1937
  756MPD2    C411170   0.283   3.206   9.615  0.6729 -0.4661  0.3357
  756MPD2    C511171   0.372   3.275   9.541  0.1199  0.1484 -0.5770
  756MPD2     H11172   0.317   3.374   9.905  3.0897 -2.0372  0.9976
  756MPD2    H111173   0.235   3.119   9.571 -0.8555  1.0215 -0.9223
  756MPD2    H211174   0.528   3.407   9.529 -0.0140  0.5346  0.2900
  756MPD2    H311175   0.394   3.236   9.442 -1.9156 -0.2368 -0.8961
  756MPD2     N11176   0.157   3.177   9.818  0.5367  0.2328 -0.9679
  756MPD2    H511177   0.151   3.201   9.917  0.3519  1.8291 -1.3573
  756MPD2    N111178   0.505   3.512   9.795  0.0148  0.4229 -0.7140
  756MPD2    H711179   0.497   3.528   9.895  0.1840  0.3489 -0.6883
  757MPD2     C11180   4.148   2.533   9.560  0.4507  0.3299 -1.0296
  757MPD2    C111181   4.266   2.568   9.498  0.2287  0.4332  0.3896
  757MPD2    C211182   4.341   2.662   9.570 -0.0081  0.4420  0.1698
  757MPD2    C311183   4.310   2.710   9.692 -0.2300 -0.8356  0.9747
  757MPD2    C411184   4.189   2.675   9.748  0.1473  0.2463  0.0311
  757MPD2    C511185   4.112   2.591   9.680 -0.3116 -0.7337  0.2639
  757MPD2     H11186   4.434   2.691   9.521  0.2293 -0.7473 -0.0984
  757MPD2    H111187   4.152   2.697   9.847  0.9669  3.1445 -0.2838
  757MPD2    H211188   4.099   2.453   9.505 -0.9562  1.1969 -1.0485
  757MPD2    H311189   4.023   2.549   9.726 -0.2918 -1.0938 -0.0159
  757MPD2     N11190   4.407   2.782   9.763 -0.0340 -0.3883 -0.2542
  757MPD2    H511191   4.495   2.801   9.716  0.1265 -0.9558 -0.1830
  757MPD2    N111192   4.302   2.501   9.375 -0.6009  0.1864  0.1549
  757MPD2    H711193   4.248   2.422   9.340 -1.1670 -0.1324  1.7477
  758MPD2     C11194   4.633   2.846  16.022  0.7516 -0.2732  0.3314
  758MPD2    C111195   0.021   2.823  16.099 -0.2377 -0.6010 -0.0131
  758MPD2    C211196   0.062   2.916  16.190 -0.1898  0.2033  0.0199
  758MPD2    C311197   4.697   3.012  16.232  0.4134  0.1234  0.6198
  758MPD2    C411198   4.583   3.029  16.158 -0.3535  0.6496 -0.5976
  758MPD2    C511199   4.560   2.957  16.046  0.2988 -0.1330 -0.2278
  758MPD2     H11200   0.160   2.898  16.233 -1.1484 -0.8223  1.7987
  758MPD2    H111201   4.500   3.091  16.189 -0.2566  0.7316 -0.5003
  758MPD2    H211202   4.615   2.783  15.936  1.9529 -0.9733  0.5981
  758MPD2    H311203   4.481   2.994  15.982 -0.0217 -1.4731 -0.6105
  758MPD2     N11204   0.005   3.107  16.338  0.7860 -0.1135  0.1472
  758MPD2    H511205   4.661   3.177  16.365  1.3660  0.0146  1.2794
  758MPD2    N111206   0.120   2.722  16.084 -0.4165 -0.0767 -0.6428
  758MPD2    H711207   0.206   2.734  16.137 -0.3877  1.0092 -0.9431
  759MPD2     C11208   3.332   1.287   9.617 -0.6990 -0.8780 -0.7302
  759MPD2    C111209   3.421   1.292   9.724 -0.6747 -0.8027  0.0307
  759MPD2    C211210   3.525   1.392   9.712 -0.3150 -0.0271  0.2464
  759MPD2    C311211   3.529   1.486   9.607 -0.1948 -0.1291 -0.4652
  759MPD2    C411212   3.431   1.481   9.516 -0.7802  0.4933 -0.1945
  759MPD2    C511213   3.339   1.374   9.517 -0.1616 -0.2530 -0.6688
  759MPD2     H11214   3.588   1.392   9.801  0.0972  2.0082 -0.0568
  759MPD2    H111215   3.417   1.551   9.435  1.2640  2.0624  0.8154
  759MPD2    H211216   3.258   1.207   9.617 -0.4688 -1.0878 -0.0245
  759MPD2    H311217   3.260   1.371   9.442  1.6343  0.6400 -2.5973
  759MPD2     N11218   3.634   1.580   9.607 -0.7678 -0.2454 -0.1985
  759MPD2    H511219   3.708   1.571   9.676 -1.8706 -1.1247  0.8537
  759MPD2    N111220   3.409   1.218   9.844 -0.7722 -0.7048 -0.0856
  759MPD2    H711221   3.480   1.233   9.915  0.3625 -0.6061 -1.2425
  760MPD2     C11222   3.395   4.088  11.844  0.7980  0.0527 -1.1145
  760MPD2    C111223   3.459   4.100  11.721  0.7248 -0.2239 -0.0675
  760MPD2    C211224   3.541   3.999  11.688 -0.2003  0.0545 -0.1261
  760MPD2    C311225   3.550   3.888  11.770 -0.3832 -0.1408  0.6903
  760MPD2    C411226   3.470   3.872  11.877 -0.0972 -0.0657 -1.1479
  760MPD2    C511227   3.392   3.974  11.916  0.0453  0.2165 -0.2436
  760MPD2     H11228   3.598   3.996  11.596 -0.0172  0.8456 -0.0429
  760MPD2    H111229   3.476   3.781  11.937  1.7049  1.4899  1.0537
  760MPD2    H211230   3.341   4.171  11.889  1.8044 -0.4556  1.0541
  760MPD2    H311231   3.336   3.972  12.009  0.1233 -0.4028 -0.2056
  760MPD2     N11232   3.650   3.792  11.742 -0.1692  0.0095  0.2944
  760MPD2    H511233   3.642   3.705  11.794  0.5834 -0.1299  0.1771
  760MPD2    N111234   3.435   4.217  11.649 -0.2799 -0.7335  0.4335
  760MPD2    H711235   3.390   4.294  11.698 -0.0413  0.8262 -1.8115
  761MPD2     C11236   4.415   3.315  11.257 -0.0795 -0.7888  0.5214
  761MPD2    C111237   4.491   3.239  11.171 -0.4610  0.0149  0.0446
  761MPD2    C211238   4.628   3.269  11.153 -0.4647 -0.0751 -0.4787
  761MPD2    C311239   4.687   3.364  11.235 -0.4010 -0.6022 -0.8042
  761MPD2    C411240   4.609   3.438  11.324  0.4642  0.1024  0.6883
  761MPD2    C511241   4.472   3.416  11.335  0.5368  0.0538 -0.3127
  761MPD2     H11242   4.693   3.203  11.095  0.9612 -0.8765  2.0280
  761MPD2    H111243   4.646   3.512  11.393  2.8726 -0.0448 -0.4626
  761MPD2    H211244   4.311   3.286  11.265  0.2518 -2.0315  0.4500
  761MPD2    H311245   4.412   3.474  11.404  0.0308  1.2561 -1.7467
  761MPD2     N11246   0.104   3.393  11.239  0.5075  0.2852  0.4861
  761MPD2    H511247   0.137   3.468  11.298 -0.9108  1.7108 -0.5454
  761MPD2    N111248   4.428   3.136  11.107 -0.0222  0.0423 -0.0434
  761MPD2    H711249   4.334   3.114  11.138 -0.4583 -1.3132 -2.2940
  762MPD2     C11250   0.158   3.004  10.730 -0.6215 -0.0998  0.7467
  762MPD2    C111251   0.089   2.885  10.704 -0.5089 -0.1898  0.2056
  762MPD2    C211252   0.138   2.803  10.605  0.7225 -0.7541  0.1714
  762MPD2    C311253   0.254   2.837  10.525  0.4397  0.6324 -0.2535
  762MPD2    C411254   0.315   2.953  10.559 -0.1318  0.1677  0.3105
  762MPD2    C511255   0.278   3.029  10.665 -0.1845 -0.4057 -0.0155
  762MPD2     H11256   0.085   2.710  10.588 -1.7956  0.8529 -0.7892
  762MPD2    H111257   0.410   2.977  10.513 -0.0779 -1.3306 -0.3405
  762MPD2    H211258   0.118   3.078  10.798  0.5696  0.2417  1.0629
  762MPD2    H311259   0.332   3.119  10.693 -1.9867  0.6761 -0.0506
  762MPD2     N11260   0.304   2.752  10.423 -0.1722 -0.0793  0.6130
  762MPD2    H511261   0.258   2.662  10.413 -0.6577  0.0411  1.7883
  762MPD2    N111262   4.689   2.860  10.768  0.0215 -0.2481  0.0179
  762MPD2    H711263   4.659   2.936  10.828  0.8379 -0.8386  1.1735
  763MPD2     C11264   2.408   3.147  16.211 -0.0220 -0.8539  0.3710
  763MPD2    C111265   2.302   3.225  16.171 -0.2004 -0.2148  0.8671
  763MPD2    C211266   2.282   3.352  16.225 -0.3225  0.3205  0.3212
  763MPD2    C311267   2.368   3.390  16.329  0.0673 -0.1380 -0.4661
  763MPD2    C411268   2.472   3.305  16.373 -0.2693  0.0525 -0.3721
  763MPD2    C511269   2.495   3.188  16.304 -0.5175 -0.0859 -0.0373
  763MPD2     H11270   2.201   3.418  16.194 -0.6720 -0.6099 -0.7425
  763MPD2    H111271   2.539   3.331  16.455 -0.7084 -0.2459  0.0752
  763MPD2    H211272   2.417   3.049  16.165  1.2629 -0.2000 -0.7772
  763MPD2    H311273   2.554   3.111  16.353  0.8082  0.8867 -0.1021
  763MPD2     N11274   2.365   3.509  16.397 -0.1401  0.1859  0.3778
  763MPD2    H511275   2.430   3.533  16.471 -0.7845  1.7755  0.4261
  763MPD2    N111276   2.234   3.182  16.057  0.2417 -0.1003  0.4449
  763MPD2    H711277   2.169   3.249  16.017  2.3890  1.1566 -0.9577
  764MPD2     C11278   0.823   0.066  17.081 -0.7599 -0.0626  0.4434
  764MPD2    C111279   0.691   0.099  17.110  0.6932 -0.8420 -0.1010
  764MPD2    C211280   0.634   0.046  17.224 -0.3302  0.1464  0.1286
  764MPD2    C311281   0.707   4.692  17.319 -0.0045 -0.1462  0.0121
  764MPD2    C411282   0.837   4.669  17.286  0.6889  0.0572 -0.0667
  764MPD2    C511283   0.898   4.719  17.176  0.3839 -0.5687  0.1713
  764MPD2     H11284   0.526   0.053  17.231 -0.3379  0.9413 -0.7357
  764MPD2    H111285   0.896   4.598  17.344  1.1015  0.0415 -0.5003
  764MPD2    H211286   0.874   0.104  16.993  0.3050  0.7302  1.3955
  764MPD2    H311287   1.004   4.700  17.163  0.1202 -1.5672 -0.4934
  764MPD2     N11288   0.644   4.632  17.427  0.7666  0.1048  0.2709
  764MPD2    H511289   0.544   4.650  17.436  1.0185  1.9247 -0.5671
  764MPD2    N111290   0.601   0.150  17.016  0.0493 -0.2261 -0.1602
  764MPD2    H711291   0.506   0.172  17.043  0.3414  2.4888 -1.3349
  765MPD2     C11292   4.506   2.146  15.865 -0.3348  0.1376  0.0750
  765MPD2    C111293   4.538   2.220  15.754 -0.0976  0.5115 -0.7565
  765MPD2    C211294   4.612   2.159  15.656  0.2974 -0.0774 -0.3094
  765MPD2    C311295   4.662   2.029  15.680 -0.4509 -0.0112 -0.3146
  765MPD2    C411296   4.615   1.958  15.784 -0.1928  0.7487 -0.0950
  765MPD2    C511297   4.534   2.016  15.878 -0.1850  0.0608  0.5083
  765MPD2     H11298   4.663   2.222  15.584  0.5229  1.8754  1.5341
  765MPD2    H111299   4.630   1.851  15.793  1.7435  1.1193  1.1840
  765MPD2    H211300   4.442   2.187  15.942  0.2628  1.1522  0.0374
  765MPD2    H311301   4.485   1.964  15.960 -2.2363  1.1871  0.0108
  765MPD2     N11302   0.024   1.957  15.591 -0.1824 -0.2492  0.2327
  765MPD2    H511303   0.064   1.868  15.620 -0.0510  0.2329  1.5402
  765MPD2    N111304   4.485   2.353  15.744 -0.2030 -0.0136  0.1264
  765MPD2    H711305   4.404   2.374  15.801 -0.1049  2.3912 -0.6203
  766MPD2     C11306   3.877   2.540  15.435 -0.0815  0.3872 -0.2006
  766MPD2    C111307   4.006   2.507  15.420 -0.2064  0.1213  0.5537
  766MPD2    C211308   4.053   2.446  15.298 -0.2897 -0.3480 -0.2267
  766MPD2    C311309   3.967   2.431  15.191 -0.0279 -0.4591  0.4385
  766MPD2    C411310   3.834   2.459  15.209  0.5831  0.5147 -0.0881
  766MPD2    C511311   3.792   2.516  15.334  0.2209 -0.2911 -0.0467
  766MPD2     H11312   4.160   2.433  15.286 -0.2528  0.3421 -0.6196
  766MPD2    H111313   3.776   2.461  15.117  1.2034  1.9363 -0.4572
  766MPD2    H211314   3.835   2.576  15.528 -3.3219 -0.9544 -1.1465
  766MPD2    H311315   3.685   2.532  15.345  0.7122  1.2104  2.2901
  766MPD2     N11316   4.010   2.394  15.060 -0.1303 -0.6629 -0.2200
  766MPD2    H511317   3.943   2.384  14.985 -1.6603 -0.3951  1.1310
  766MPD2    N111318   4.098   2.539  15.515  0.2018 -0.5276 -0.4549
  766MPD2    H711319   4.191   2.501  15.504  1.2562  2.3126 -1.2313
  767MPD2     C11320   3.666   2.736  15.096  0.3680 -0.2873  0.0854
  767MPD2    C111321   3.789   2.741  15.039 -0.9492 -1.5258  0.0170
  767MPD2    C211322   3.798   2.709  14.905 -0.1006  0.0543  0.6867
  767MPD2    C311323   3.687   2.668  14.833  0.1183 -0.0968 -0.0167
  767MPD2    C411324   3.564   2.682  14.895 -0.0016 -0.2666  0.2116
  767MPD2    C511325   3.549   2.713  15.027  0.8862  0.7297  0.0660
  767MPD2     H11326   3.891   2.705  14.848  0.1991 -0.6983  1.2256
  767MPD2    H111327   3.469   2.677  14.843  0.6105 -0.5469 -0.8794
  767MPD2    H211328   3.653   2.776  15.195  1.6083  0.7378 -0.1687
  767MPD2    H311329   3.456   2.715  15.081  1.3448  1.0886  0.8449
  767MPD2     N11330   3.705   2.645  14.694 -0.7860 -0.0143  0.0655
  767MPD2    H511331   3.801   2.649  14.662 -0.5995 -0.5384  0.5661
  767MPD2    N111332   3.901   2.784  15.120 -0.0255 -0.3866 -0.6499
  767MPD2    H711333   3.879   2.800  15.218  0.0671  0.0653 -0.7020
  768MPD2     C11334   4.479   1.550  10.765  0.3803  0.0110 -0.6986
  768MPD2    C111335   4.522   1.502  10.883 -1.0465  0.7368  0.3750
  768MPD2    C211336   4.653   1.470  10.906  0.7742  0.1364  0.1560
  768MPD2    C311337   0.030   1.486  10.809 -0.0954 -0.5537 -0.4332
  768MPD2    C411338   4.717   1.546  10.689 -1.0244  0.1928  0.2486
  768MPD2    C511339   4.575   1.567  10.671  0.4075  0.7068 -0.3017
  768MPD2     H11340   4.686   1.442  11.005 -1.0590  0.8265  0.9586
  768MPD2    H111341   0.067   1.560  10.611 -0.9038 -0.4533  0.2443
  768MPD2    H211342   4.378   1.586  10.749  0.7687  0.1275 -2.9020
  768MPD2    H311343   4.543   1.596  10.571 -0.2960  0.6762 -0.0828
  768MPD2     N11344   0.163   1.448  10.826 -0.0400 -0.0980  0.1570
  768MPD2    H511345   0.234   1.496  10.772  0.1766  0.2013  0.7026
  768MPD2    N111346   4.437   1.501  11.001  0.6242  0.0296 -0.3373
  768MPD2    H711347   4.486   1.471  11.086 -1.7242 -1.3642  0.5279
  769MPD2     C11348   0.983   4.157  14.784  0.2930  0.1311 -0.4861
  769MPD2    C111349   0.904   4.203  14.880  0.2237 -0.2266 -0.5204
  769MPD2    C211350   0.960   4.251  15.001 -0.5361  0.4706 -0.2334
  769MPD2    C311351   1.099   4.246  15.011 -0.1991 -0.4625  0.4869
  769MPD2    C411352   1.175   4.205  14.907 -0.4931 -0.2850 -0.3792
  769MPD2    C511353   1.116   4.163  14.790 -0.2178  0.8019  0.3155
  769MPD2     H11354   0.896   4.290  15.078 -1.6546 -2.8452  0.5278
  769MPD2    H111355   1.283   4.209  14.921 -0.2411 -0.3136 -2.3891
  769MPD2    H211356   0.939   4.104  14.700  1.4888 -0.7473 -0.5551
  769MPD2    H311357   1.172   4.114  14.711 -1.8926 -0.0919 -0.3171
  769MPD2     N11358   1.158   4.304  15.127  0.2880  0.6534  0.0835
  769MPD2    H511359   1.091   4.342  15.193  0.5560  1.0139  0.1438
  769MPD2    N111360   0.764   4.195  14.854  0.0454  0.1625  0.3184
  769MPD2    H711361   0.739   4.156  14.764  0.2771  2.6659 -0.8238
  770MPD2     C11362   0.316   3.500  15.406  0.0833 -0.5409 -0.4622
  770MPD2    C111363   0.388   3.459  15.298 -0.3854  0.6712  0.7141
  770MPD2    C211364   0.413   3.553  15.194  0.9342  0.3469  0.5736
  770MPD2    C311365   0.350   3.676  15.202  0.1689 -0.3574  0.0097
  770MPD2    C411366   0.267   3.706  15.301  0.4763  0.1855 -0.0564
  770MPD2    C511367   0.252   3.615  15.404  0.8870 -0.3972  0.3222
  770MPD2     H11368   0.482   3.532  15.113 -0.8568 -1.7141 -0.4341
  770MPD2    H111369   0.216   3.801  15.309  0.0911 -0.2190  2.4360
  770MPD2    H211370   0.300   3.430  15.487  0.3434 -1.6332 -1.3650
  770MPD2    H311371   0.192   3.650  15.487 -1.0357 -0.5791 -0.9820
  770MPD2     N11372   0.390   3.774  15.110  0.0200 -0.5836  0.6994
  770MPD2    H511373   0.418   3.732  15.022  1.0806  1.0572  0.2515
  770MPD2    N111374   0.460   3.336  15.300 -0.0065  0.1467  0.0844
  770MPD2    H711375   0.449   3.271  15.377  0.6432  0.8208  0.7339
  771MPD2     C11376   1.890   1.859  13.955  0.7703  0.3311  0.5486
  771MPD2    C111377   1.833   1.954  13.871 -0.7219  0.0040 -0.3324
  771MPD2    C211378   1.757   1.909  13.763  0.5868  0.6379  0.3418
  771MPD2    C311379   1.739   1.774  13.740  0.3053 -0.6321  0.1928
  771MPD2    C411380   1.808   1.681  13.818  0.2534  0.2227 -0.3254
  771MPD2    C511381   1.882   1.723  13.924  0.4018 -0.4797  0.5335
  771MPD2     H11382   1.703   1.979  13.701  0.4288  0.9038  0.7756
  771MPD2    H111383   1.786   1.577  13.797  0.6195  0.3193 -1.2008
  771MPD2    H211384   1.931   1.891  14.050 -1.0550  1.9116  0.8170
  771MPD2    H311385   1.930   1.649  13.987  2.6042  1.3038  0.9616
  771MPD2     N11386   1.643   1.747  13.643  0.3243  0.0864  0.4665
  771MPD2    H511387   1.590   1.823  13.603  2.4142 -0.3437 -3.0839
  771MPD2    N111388   1.846   2.093  13.884 -0.3886  0.3621 -0.5011
  771MPD2    H711389   1.794   2.146  13.814  0.6411 -0.4835 -1.8873
  772MPD2     C11390   1.580   2.608  13.556  0.3823 -0.4539  0.4509
  772MPD2    C111391   1.583   2.596  13.693  0.2397 -0.1342  0.3014
  772MPD2    C211392   1.466   2.624  13.765 -1.0992  0.1778 -0.1761
  772MPD2    C311393   1.351   2.677  13.707  0.4081  0.2907 -0.4857
  772MPD2    C411394   1.359   2.695  13.570  0.1759 -0.6015 -0.2102
  772MPD2    C511395   1.468   2.656  13.499  0.2017  0.3690  0.6579
  772MPD2     H11396   1.463   2.619  13.874  1.3290 -0.7092 -0.1636
  772MPD2    H111397   1.269   2.730  13.520  0.5586 -0.0823 -0.5232
  772MPD2    H211398   1.660   2.592  13.485 -0.1710 -2.4114  0.2643
  772MPD2    H311399   1.467   2.662  13.390  1.1782 -0.1989  0.6152
  772MPD2     N11400   1.229   2.699  13.770  0.3117  1.0700 -0.0753
  772MPD2    H511401   1.155   2.732  13.708  1.5129  1.3658 -1.3441
  772MPD2    N111402   1.689   2.536  13.760 -0.2388  0.1625 -0.7622
  772MPD2    H711403   1.688   2.531  13.862 -0.2878 -1.1227 -0.8290
  773MPD2     C11404   1.117   3.418   0.321  0.0267 -0.0401  1.0461
  773MPD2    C111405   1.084   3.328   0.226 -0.3512  0.2626  0.1340
  773MPD2    C211406   1.129   3.203   0.238 -0.1296 -0.5235  0.1005
  773MPD2    C311407   1.209   3.161   0.342 -0.3483 -0.0033  0.3165
  773MPD2    C411408   1.235   3.249   0.447 -0.4665  0.1559  0.0136
  773MPD2    C511409   1.183   3.378   0.436  0.2743 -0.5400  1.5183
  773MPD2     H11410   1.113   3.141   0.150  1.5749  0.6928 -1.0622
  773MPD2    H111411   1.297   3.218   0.531 -0.6748 -2.0072 -0.6372
  773MPD2    H211412   1.080   3.519   0.313  1.8466  0.7736  2.7534
  773MPD2    H311413   1.200   3.450   0.516 -0.2740  0.2496  0.9281
  773MPD2     N11414   1.281   3.040   0.325  0.0419 -1.0481 -0.3783
  773MPD2    H511415   1.266   2.984   0.242 -1.0613 -2.0197  0.4947
  773MPD2    N111416   1.003   3.355   0.112  0.4192  0.1173 -0.2053
  773MPD2    H711417   0.959   3.282   0.058  0.0313 -0.6996  1.2107
  774MPD2     C11418   4.405   2.944  13.281  0.1203 -0.5299 -0.1515
  774MPD2    C111419   4.498   2.981  13.373  0.0980  1.0198 -0.6068
  774MPD2    C211420   4.605   3.059  13.341 -0.0562  0.4466  0.1522
  774MPD2    C311421   4.629   3.087  13.207 -0.4218  0.4944  0.2119
  774MPD2    C411422   4.531   3.053  13.111  0.1753 -0.1449  0.7269
  774MPD2    C511423   4.418   2.982  13.150 -1.0570  0.0148 -0.4585
  774MPD2     H11424   4.683   3.095  13.407 -1.6965  0.1949  2.2574
  774MPD2    H111425   4.544   3.080  13.006 -2.2962  1.5560  0.8821
  774MPD2    H211426   4.322   2.881  13.312  0.1999 -0.5844 -0.0473
  774MPD2    H311427   4.351   2.948  13.072 -0.5695 -0.1689 -0.7952
  774MPD2     N11428   0.017   3.169  13.169 -0.1202 -0.2014  0.7368
  774MPD2    H511429   0.071   3.213  13.243  0.9240 -1.0677  0.4905
  774MPD2    N111430   4.473   2.943  13.509  0.3146 -0.1541 -0.0504
  774MPD2    H711431   4.398   2.879  13.534  1.8864 -2.0713 -0.2267
  775MPD2     C11432   1.378   4.002  15.537 -0.5815 -0.4421 -0.4505
  775MPD2    C111433   1.420   4.075  15.645  0.2923 -0.6490  0.9493
  775MPD2    C211434   1.524   4.156  15.630 -0.5702 -0.0012 -0.2448
  775MPD2    C311435   1.599   4.163  15.509 -0.1681 -0.4068 -0.8366
  775MPD2    C411436   1.552   4.092  15.404  0.0989  0.2295  0.1262
  775MPD2    C511437   1.445   4.013  15.416 -0.6838  0.2602  0.2232
  775MPD2     H11438   1.557   4.219  15.712  0.6919 -0.7824 -0.1520
  775MPD2    H111439   1.588   4.099  15.302 -2.7809 -0.1802 -0.9274
  775MPD2    H211440   1.293   3.935  15.548 -1.3922  0.8790  1.3083
  775MPD2    H311441   1.413   3.965  15.324 -0.8800  0.1994  0.3223
  775MPD2     N11442   1.716   4.241  15.489  0.0690 -0.2002  0.0904
  775MPD2    H511443   1.745   4.245  15.391 -0.7589 -1.1953 -0.1945
  775MPD2    N111444   1.341   4.068  15.758  0.0814 -0.0269 -0.3393
  775MPD2    H711445   1.252   4.020  15.752 -0.2963  0.5877  0.3047
  776MPD2     C11446   0.748   4.391  11.958 -0.1269 -0.0106  0.1020
  776MPD2    C111447   0.615   4.413  11.908 -0.5327 -0.9932  0.2099
  776MPD2    C211448   0.595   4.527  11.836 -0.2600  0.4996 -0.2572
  776MPD2    C311449   0.689   4.630  11.813  0.3533 -0.1847  0.5101
  776MPD2    C411450   0.812   4.617  11.874  0.2539 -0.2629 -0.2365
  776MPD2    C511451   0.836   4.503  11.950 -1.0562 -1.0452 -0.6849
  776MPD2     H11452   0.498   4.529  11.788 -1.1409 -0.8491  1.4881
  776MPD2    H111453   0.892   4.689  11.865 -0.4235  0.9382  3.3117
  776MPD2    H211454   0.770   4.301  12.014  0.8337 -0.0590 -0.3534
  776MPD2    H311455   0.933   4.490  11.997 -1.1364 -0.4672 -0.3663
  776MPD2     N11456   0.668   0.017  11.736 -0.1105  0.0638 -0.2842
  776MPD2    H511457   0.746   0.081  11.721  1.4991 -1.0303  3.3798
  776MPD2    N111458   0.514   4.312  11.919 -0.6412  0.6140 -0.0517
  776MPD2    H711459   0.537   4.217  11.947 -0.5041  0.9752  1.0381
  777MPD2     C11460   0.756   1.168   1.029 -0.4257  1.0257 -0.2868
  777MPD2    C111461   0.783   1.261   0.933  0.4462 -0.1008 -0.3117
  777MPD2    C211462   0.802   1.223   0.807 -0.8289 -0.3567  0.1619
  777MPD2    C311463   0.766   1.098   0.771 -0.1073 -0.1247 -0.3185
  777MPD2    C411464   0.751   0.995   0.862 -0.0459  0.0572 -0.5134
  777MPD2    C511465   0.760   1.034   0.993 -0.3972  0.3601 -0.3662
  777MPD2     H11466   0.851   1.289   0.736 -1.7017 -0.0697 -0.1823
  777MPD2    H111467   0.750   0.887   0.845  0.8189  0.1604 -1.1895
  777MPD2    H211468   0.740   1.200   1.132  0.1570  0.6588 -0.0835
  777MPD2    H311469   0.736   0.957   1.066  2.1984  1.1286  1.3196
  777MPD2     N11470   0.756   1.078   0.631  0.0684 -0.2928 -0.3812
  777MPD2    H511471   0.766   1.162   0.575 -1.4707 -1.1341 -1.8712
  777MPD2    N111472   0.794   1.396   0.974 -0.0358 -0.1585  0.6099
  777MPD2    H711473   0.765   1.412   1.071  0.5167 -0.0684  0.7593
  778MPD2     C11474   1.610   1.679  15.070  0.3106 -0.3750 -0.5090
  778MPD2    C111475   1.584   1.670  14.931 -0.7219  0.2267 -0.2485
  778MPD2    C211476   1.680   1.733  14.844  0.5255  1.3379  0.8093
  778MPD2    C311477   1.789   1.800  14.895 -0.0704  0.0930  0.7843
  778MPD2    C411478   1.797   1.814  15.029 -0.7947  0.6780  0.4103
  778MPD2    C511479   1.711   1.753  15.117  0.3825 -1.0877  0.3729
  778MPD2     H11480   1.672   1.723  14.736  1.4581  2.0383  0.6771
  778MPD2    H111481   1.878   1.862  15.082  0.8477 -2.8271  1.0426
  778MPD2    H211482   1.540   1.644  15.145 -0.3941  0.4256 -0.7822
  778MPD2    H311483   1.713   1.773  15.224 -0.6026  2.0048 -0.1984
  778MPD2     N11484   1.875   1.849  14.804 -0.4098  0.1840  0.2235
  778MPD2    H511485   1.871   1.811  14.710 -1.7873  0.1652  0.2890
  778MPD2    N111486   1.469   1.607  14.875  0.7788 -0.6257  0.1672
  778MPD2    H711487   1.452   1.609  14.775  0.1758 -1.2380  0.2530
  779MPD2     C11488   1.207   0.698  14.234 -0.6593 -0.2712  0.7021
  779MPD2    C111489   1.343   0.680  14.207 -0.0836  0.1858 -0.1227
  779MPD2    C211490   1.423   0.790  14.202 -0.1784  0.1192  0.3292
  779MPD2    C311491   1.382   0.920  14.229  0.9224  0.1432  0.5867
  779MPD2    C411492   1.250   0.937  14.245  0.5442 -0.0934  0.1532
  779MPD2    C511493   1.165   0.826  14.257 -0.7906  0.3796  0.2709
  779MPD2     H11494   1.528   0.773  14.181 -0.6510 -0.9349 -1.1558
  779MPD2    H111495   1.211   1.037  14.261 -1.3231 -1.1707  2.4557
  779MPD2    H211496   1.138   0.616  14.216  0.0912 -0.5264 -1.0182
  779MPD2    H311497   1.059   0.842  14.279 -1.6312 -1.1265 -2.7792
  779MPD2     N11498   1.480   1.024  14.230 -0.4161  0.2631  0.1139
  779MPD2    H511499   1.575   1.009  14.196  0.4235 -1.2038  3.1349
  779MPD2    N111500   1.407   0.556  14.191 -0.3410 -1.1541  0.5790
  779MPD2    H711501   1.505   0.557  14.163 -0.9503 -5.0335 -1.5717
  780MPD2     C11502   1.400   0.863   0.936 -0.8890 -0.1733 -0.6456
  780MPD2    C111503   1.376   0.784   0.830 -0.4142  0.4610  0.3076
  780MPD2    C211504   1.392   0.835   0.700  0.3892  0.5351  0.9322
  780MPD2    C311505   1.419   0.969   0.678 -0.5236  0.4782 -0.4127
  780MPD2    C411506   1.438   1.041   0.795  0.0142  0.3296 -0.4496
  780MPD2    C511507   1.433   0.996   0.920  0.6388 -0.1966  0.2003
  780MPD2     H11508   1.354   0.778   0.615  0.5034  2.7718 -0.6079
  780MPD2    H111509   1.467   1.146   0.800  1.7592 -0.1389 -0.6305
  780MPD2    H211510   1.387   0.826   1.037  0.4731 -2.0003 -1.1410
  780MPD2    H311511   1.442   1.062   1.005 -1.6955 -0.3268  0.5510
  780MPD2     N11512   1.427   1.021   0.546  0.3008 -0.5307  0.6194
  780MPD2    H511513   1.445   0.953   0.473  1.0145  0.4723 -0.1338
  780MPD2    N111514   1.327   0.659   0.856  0.3381 -0.2452  0.4277
  780MPD2    H711515   1.319   0.631   0.954  1.2249 -3.0704 -0.3137
  781MPD2     C11516   3.354   2.824  11.860 -0.4628 -0.1468 -0.2920
  781MPD2    C111517   3.291   2.701  11.853  0.5371  0.0472 -0.1103
  781MPD2    C211518   3.268   2.646  11.723  0.1705  0.0072 -0.6742
  781MPD2    C311519   3.304   2.727  11.613 -0.7974 -0.0078  0.3974
  781MPD2    C411520   3.376   2.847  11.625 -0.7104 -0.0849 -0.6368
  781MPD2    C511521   3.398   2.895  11.751  0.1535 -0.9113  0.3842
  781MPD2     H11522   3.214   2.553  11.715  0.8140 -0.4039 -0.1831
  781MPD2    H111523   3.399   2.905  11.537 -0.1279 -2.2015 -1.8919
  781MPD2    H211524   3.371   2.874  11.954 -0.2805  0.7511 -0.8045
  781MPD2    H311525   3.433   2.997  11.756  0.6199 -1.1778  2.4488
  781MPD2     N11526   3.264   2.695  11.482  0.3595  0.3706 -0.3548
  781MPD2    H511527   3.291   2.763  11.412  3.5311  0.2652  0.7821
  781MPD2    N111528   3.255   2.642  11.977 -0.1110 -0.0148 -0.8565
  781MPD2    H711529   3.178   2.576  11.981 -0.5353  0.5135 -0.3824
  782MPD2     C11530   1.008   3.022   9.977 -0.9894  0.1819  0.2376
  782MPD2    C111531   1.107   2.962  10.046  0.1270 -0.1123 -0.1479
  782MPD2    C211532   1.232   3.017  10.060 -0.1525  0.3324  0.1035
  782MPD2    C311533   1.250   3.137   9.991 -0.3272  0.7418  0.1902
  782MPD2    C411534   1.158   3.187   9.905 -0.5911 -0.0483 -0.2356
  782MPD2    C511535   1.035   3.131   9.899 -0.0555 -0.3148  0.3295
  782MPD2     H11536   1.307   2.980  10.129  0.8670  1.6112 -0.3203
  782MPD2    H111537   1.177   3.282   9.857  1.9851  0.0421  0.9946
  782MPD2    H211538   0.906   2.987   9.995 -1.6087  1.5135 -0.6987
  782MPD2    H311539   0.951   3.182   9.854  1.7955  0.3520 -2.3469
  782MPD2     N11540   1.374   3.203  10.019 -0.3577 -0.8463 -0.4296
  782MPD2    H511541   1.434   3.155  10.084 -0.8342 -0.8024  0.0429
  782MPD2    N111542   1.062   2.855  10.124 -0.2289 -1.2629  0.4834
  782MPD2    H711543   0.967   2.821  10.112  0.6362 -3.1562 -1.0424
  783MPD2     C11544   0.467   2.840  10.920 -0.0884  0.4595  0.1245
  783MPD2    C111545   0.568   2.930  10.949 -0.2206  0.3665 -0.2892
  783MPD2    C211546   0.685   2.938  10.873  0.2592  0.0236 -0.3380
  783MPD2    C311547   0.701   2.868  10.753 -0.8095  0.5208  0.4867
  783MPD2    C411548   0.592   2.783  10.723 -0.2941 -0.8166 -0.3907
  783MPD2    C511549   0.483   2.771  10.804  0.3785 -0.5113  0.1978
  783MPD2     H11550   0.766   2.994  10.916 -0.8559  1.0095  0.4494
  783MPD2    H111551   0.611   2.714  10.642 -1.1641 -1.7333  0.1933
  783MPD2    H211552   0.382   2.840  10.987  0.2583 -1.8164  0.5467
  783MPD2    H311553   0.409   2.697  10.777 -0.2028  0.2696 -0.3303
  783MPD2     N11554   0.820   2.869  10.677  0.3573  0.0968  0.2906
  783MPD2    H511555   0.895   2.925  10.715 -0.5306  1.9379 -0.6881
  783MPD2    N111556   0.539   3.013  11.056  0.2595 -0.6239  1.2050
  783MPD2    H711557   0.443   3.004  11.088 -0.2298 -0.9605 -0.3304
  784MPD2     C11558   4.089   3.499   0.572  0.1688  0.2557 -0.1860
  784MPD2    C111559   4.055   3.615   0.647 -0.1914 -0.5802 -0.2079
  784MPD2    C211560   3.977   3.709   0.582  0.3442  0.1579 -0.4795
  784MPD2    C311561   3.948   3.691   0.445  0.1811  0.2366  0.2405
  784MPD2    C411562   3.995   3.586   0.370  0.2258 -0.0440  0.7630
  784MPD2    C511563   4.056   3.482   0.437 -0.9048  0.0676 -0.0154
  784MPD2     H11564   3.929   3.788   0.639 -1.5899 -2.4157  1.4427
  784MPD2    H111565   3.977   3.577   0.263 -0.5528  1.5917  0.7576
  784MPD2    H211566   4.134   3.415   0.623  0.1587 -1.2503 -2.6605
  784MPD2    H311567   4.072   3.391   0.380 -0.3604  0.0447  0.1842
  784MPD2     N11568   3.867   3.796   0.387 -0.2564 -0.1295  0.5611
  784MPD2    H511569   3.838   3.867   0.454  1.0923 -0.1016  1.1278
  784MPD2    N111570   4.090   3.634   0.785  0.0285  0.3103 -0.1194
  784MPD2    H711571   4.032   3.693   0.843  1.5510 -1.4012  3.1717
  785MPD2     C11572   3.561   1.423  10.415 -0.2510 -1.1567 -0.2426
  785MPD2    C111573   3.470   1.527  10.421 -0.1971 -0.2741 -0.7380
  785MPD2    C211574   3.341   1.498  10.402  0.1453  0.2991 -0.3376
  785MPD2    C311575   3.307   1.372  10.364 -1.0120  0.5907 -0.6714
  785MPD2    C411576   3.399   1.271  10.357  0.1034 -0.8254 -0.4452
  785MPD2    C511577   3.529   1.297  10.380  0.6985  0.2744  0.0798
  785MPD2     H11578   3.276   1.584  10.413 -2.2420 -1.1922 -2.7051
  785MPD2    H111579   3.373   1.169  10.330  0.7592 -0.5572 -2.0751
  785MPD2    H211580   3.666   1.450  10.427 -0.5536 -0.7566  1.5492
  785MPD2    H311581   3.614   1.232  10.362  0.8331  0.4036  0.2477
  785MPD2     N11582   3.168   1.364  10.341  0.1516 -0.4841 -0.2372
  785MPD2    H511583   3.109   1.445  10.354 -1.0110 -1.6502  1.7717
  785MPD2    N111584   3.499   1.671  10.441 -0.3490 -0.3917 -0.7756
  785MPD2    H711585   3.423   1.738  10.452 -1.6070 -1.6157 -1.9036
  786MPD2     C11586   2.066   4.693  14.775  0.0573 -0.3186 -0.0891
  786MPD2    C111587   2.197   4.674  14.734 -1.3364  0.3606  0.0269
  786MPD2    C211588   2.297   4.664  14.828 -0.3783  0.8795  0.2352
  786MPD2    C311589   2.271   4.704  14.960  0.6274  0.7506  0.3634
  786MPD2    C411590   2.143   0.008  14.995 -0.0567  0.1747  0.1359
  786MPD2    C511591   2.042   0.006  14.906 -0.7381  1.0135  0.3905
  786MPD2     H11592   2.401   4.640  14.809 -0.6838  0.9257 -1.4499
  786MPD2    H111593   2.118   0.045  15.094 -1.8527  2.7662 -1.2827
  786MPD2    H211594   1.983   4.680  14.707 -1.4260 -2.6838  2.1762
  786MPD2    H311595   1.940   0.026  14.937 -1.5824 -2.3828 -0.2151
  786MPD2     N11596   2.367   4.718  15.061 -0.7879  0.1710  0.9683
  786MPD2    H511597   2.329   0.007  15.154  0.5215 -0.3170  1.5839
  786MPD2    N111598   2.234   4.647  14.596  0.4594  0.2797 -0.0813
  786MPD2    H711599   2.330   4.620  14.576 -0.3064 -1.2796 -1.7320
  787MPD2     C11600   2.554   4.134  14.527  0.1263  0.3200  0.5095
  787MPD2    C111601   2.529   4.171  14.400 -0.1154 -0.3834 -0.8728
  787MPD2    C211602   2.563   4.082  14.294  0.1994 -0.5799  0.0049
  787MPD2    C311603   2.628   3.961  14.314  0.9422  0.2570  0.3648
  787MPD2    C411604   2.639   3.922  14.447  0.1260 -0.5763  0.0570
  787MPD2    C511605   2.620   4.013  14.548  0.2330 -0.5761  0.0099
  787MPD2     H11606   2.534   4.101  14.191  0.0075 -2.1552 -0.2318
  787MPD2    H111607   2.673   3.820  14.463  3.0191  0.2497 -0.8214
  787MPD2    H211608   2.530   4.197  14.612 -0.5263 -0.5069  0.9457
  787MPD2    H311609   2.639   3.981  14.650 -1.8526  0.1312  0.6303
  787MPD2     N11610   2.674   3.895  14.203 -0.8064  0.0331 -0.2078
  787MPD2    H511611   2.651   3.937  14.114  0.9342  1.2176 -0.1109
  787MPD2    N111612   2.455   4.287  14.383 -0.0776 -0.5135  0.2632
  787MPD2    H711613   2.450   4.355  14.459 -0.4863  0.3506 -0.5278
  788MPD2     C11614   4.311   2.641   1.278  0.0386 -0.0577 -0.2055
  788MPD2    C111615   4.375   2.572   1.173  0.0704  0.3795 -0.0518
  788MPD2    C211616   4.429   2.640   1.065  0.8008 -1.0367 -0.3301
  788MPD2    C311617   4.414   2.773   1.049 -0.2900 -0.4606 -0.3286
  788MPD2    C411618   4.363   2.840   1.159 -0.0276  0.0843 -0.8217
  788MPD2    C511619   4.308   2.777   1.266  0.5932 -0.2536 -0.4544
  788MPD2     H11620   4.473   2.591   0.979 -1.2776 -1.9389 -0.8912
  788MPD2    H111621   4.368   2.948   1.159  1.2673  0.0251  0.6240
  788MPD2    H211622   4.256   2.599   1.362  1.2290  0.0159  0.6049
  788MPD2    H311623   4.258   2.843   1.337  1.7650  0.9875 -0.7825
  788MPD2     N11624   4.448   2.854   0.935 -0.1950  0.4407  0.2397
  788MPD2    H511625   4.422   2.952   0.934 -0.8115  0.2863  1.7543
  788MPD2    N111626   4.388   2.437   1.172  0.5255  0.3733 -0.3364
  788MPD2    H711627   4.440   2.400   1.093 -0.3291 -1.6199  0.0407
  789MPD2     C11628   0.077   2.807  16.658 -0.6345  0.7920  0.8820
  789MPD2    C111629   4.674   2.810  16.598  0.2088 -0.3467 -0.4254
  789MPD2    C211630   4.587   2.916  16.622  0.1755  0.1998  0.6162
  789MPD2    C311631   4.624   3.016  16.708 -0.8508 -0.0951 -0.1872
  789MPD2    C411632   0.031   3.017  16.758 -0.1117  0.6499 -0.2846
  789MPD2    C511633   0.116   2.909  16.739 -0.2252 -0.4216 -0.5259
  789MPD2     H11634   4.495   2.916  16.565 -1.0390  1.3389  2.5803
  789MPD2    H111635   0.078   3.100  16.809  2.0149 -0.8331  0.1749
  789MPD2    H211636   0.153   2.731  16.647  0.3014  1.9522 -0.7014
  789MPD2    H311637   0.216   2.908  16.782 -0.7817 -0.9287  0.7338
  789MPD2     N11638   4.549   3.137  16.732  0.7542  0.4038 -0.4840
  789MPD2    H511639   4.577   3.185  16.817  0.3985 -0.6396  0.2154
  789MPD2    N111640   4.634   2.717  16.498 -0.2687  0.2493 -0.0007
  789MPD2    H711641   4.541   2.728  16.461  0.7804  2.8892 -1.9042
  790MPD2     C11642   0.345   4.365  13.562  0.8175  1.0167  0.8224
  790MPD2    C111643   0.459   4.309  13.513 -0.5639 -0.6761  0.2804
  790MPD2    C211644   0.474   4.292  13.372  0.2217  0.0431  0.2043
  790MPD2    C311645   0.377   4.351  13.285 -0.5761 -0.2327  0.0724
  790MPD2    C411646   0.260   4.402  13.345 -0.2689 -0.1108 -0.0570
  790MPD2    C511647   0.254   4.411  13.483  0.4682  0.6997  0.8705
  790MPD2     H11648   0.572   4.269  13.332  0.4503  0.3836  0.5724
  790MPD2    H111649   0.175   4.443  13.292  0.5660  0.9013 -0.6340
  790MPD2    H211650   0.331   4.369  13.669  0.9653 -1.7717  0.9433
  790MPD2    H311651   0.161   4.453  13.517  0.5593  1.4333  0.2078
  790MPD2     N11652   0.395   4.349  13.142  0.1831  0.6189  0.4271
  790MPD2    H511653   0.487   4.328  13.104  0.4685  2.5001  0.1213
  790MPD2    N111654   0.548   4.282  13.617  0.1322  0.1731  0.0885
  790MPD2    H711655   0.513   4.301  13.710  0.4590  1.1547  0.0035
  791MPD2     C11656   4.538   4.511  12.598 -0.5678 -0.0479  0.4831
  791MPD2    C111657   4.588   4.382  12.588  0.3065 -0.4724 -0.0412
  791MPD2    C211658   4.501   4.289  12.540  0.3509 -0.1325 -0.5006
  791MPD2    C311659   4.367   4.318  12.510 -0.2079  0.3215 -0.7070
  791MPD2    C411660   4.328   4.448  12.516 -0.4239  0.0077  0.3550
  791MPD2    C511661   4.414   4.544  12.551 -0.2227 -0.4622  0.0616
  791MPD2     H11662   4.539   4.187  12.535 -0.7481 -0.5016 -1.3171
  791MPD2    H111663   4.231   4.471  12.474 -0.7346  0.5238  1.3602
  791MPD2    H211664   4.591   4.596  12.640 -0.7694  0.5223 -0.4235
  791MPD2    H311665   4.375   4.644  12.537 -2.1498 -0.8236  2.7944
  791MPD2     N11666   4.284   4.210  12.463 -0.2568  0.4222  0.0818
  791MPD2    H511667   4.322   4.117  12.447  1.0467  1.0020 -0.1695
  791MPD2    N111668   4.717   4.370  12.640 -0.3567  0.3010  0.4152
  791MPD2    H711669   0.045   4.453  12.669  3.4903 -2.6695  2.0697
  792MPD2     C11670   1.281   4.704  11.057  0.1907  0.2890  0.6145
  792MPD2    C111671   1.150   4.686  11.090 -0.9981 -0.4116  0.1155
  792MPD2    C211672   1.093   4.561  11.085 -0.1092 -0.5635  0.5327
  792MPD2    C311673   1.165   4.451  11.042 -0.3726  0.5451  0.4253
  792MPD2    C411674   1.295   4.471  11.002 -0.4176 -1.2551  0.0669
  792MPD2    C511675   1.355   4.595  11.017  0.1036 -0.3673 -0.5832
  792MPD2     H11676   0.992   4.547  11.122 -0.3430 -0.0693  0.0868
  792MPD2    H111677   1.336   4.385  10.950  0.1863 -0.7371 -0.3175
  792MPD2    H211678   1.317   0.083  11.060  0.9904  0.0371 -0.3144
  792MPD2    H311679   1.448   4.613  10.964 -0.8505  0.9243 -1.8141
  792MPD2     N11680   1.114   4.317  11.039  0.3867  0.1287 -0.1182
  792MPD2    H511681   1.177   4.258  10.986 -1.3235 -0.0760 -1.9065
  792MPD2    N111682   1.081   0.082  11.118  0.5637 -0.4018 -0.0532
  792MPD2    H711683   1.134   0.169  11.118  0.3736 -0.2727 -2.0220
  793MPD2     C11684   0.423   4.053  10.328  0.6158 -0.0316 -0.0844
  793MPD2    C111685   0.546   3.987  10.322  0.8547  0.0145  0.0646
  793MPD2    C211686   0.636   3.994  10.427 -0.0366 -0.2338 -1.2862
  793MPD2    C311687   0.587   4.044  10.550  0.4379  0.7383  0.2430
  793MPD2    C411688   0.460   4.091  10.561 -0.1460  0.6286  0.2701
  793MPD2    C511689   0.383   4.098  10.450 -0.2006 -0.1119  0.1352
  793MPD2     H11690   0.738   3.958  10.415 -0.5441 -0.9836 -3.3143
  793MPD2    H111691   0.424   4.133  10.654  0.2691 -1.4042  1.3530
  793MPD2    H211692   0.358   4.077  10.245 -1.1436 -0.4483  1.1844
  793MPD2    H311693   0.292   4.156  10.455 -0.2357 -0.1114 -0.5114
  793MPD2     N11694   0.682   4.038  10.655 -0.0337 -0.5920  0.2660
  793MPD2    H511695   0.778   4.028  10.623  0.1736 -0.4969  0.8635
  793MPD2    N111696   0.587   3.939  10.196 -0.3658 -0.1266  0.3037
  793MPD2    H711697   0.687   3.923  10.186 -0.4484  0.5127 -1.5646
  794MPD2     C11698   0.831   3.915  17.163 -0.0499  0.6943  0.4732
  794MPD2    C111699   0.738   3.814  17.163 -0.7546  0.0606  0.9191
  794MPD2    C211700   0.643   3.803  17.059 -0.5363 -0.1166  0.7151
  794MPD2    C311701   0.633   3.898  16.962 -0.8431  0.2984  0.1063
  794MPD2    C411702   0.728   3.995  16.962 -0.2425 -0.5707  0.0329
  794MPD2    C511703   0.826   4.003  17.056  0.6892 -0.3510 -0.3544
  794MPD2     H11704   0.565   3.727  17.064 -0.6193 -0.1671 -1.6161
  794MPD2    H111705   0.734   4.065  16.879  2.6871 -0.4595  0.3222
  794MPD2    H211706   0.895   3.928  17.249  0.4977  0.3084  0.1246
  794MPD2    H311707   0.892   4.090  17.057  1.0877 -0.6560 -0.4095
  794MPD2     N11708   0.535   3.904  16.863 -0.2272 -0.2246  0.2772
  794MPD2    H511709   0.531   3.985  16.802 -0.8892 -0.5313 -0.0995
  794MPD2    N111710   0.737   3.711  17.263  0.2079  0.3135 -0.6716
  794MPD2    H711711   0.665   3.640  17.262  2.6915 -2.2036 -1.7210
  795MPD2     C11712   2.925   1.303  13.217  0.4006  0.1113 -0.0754
  795MPD2    C111713   2.902   1.216  13.318  0.3420 -0.6712 -0.0493
  795MPD2    C211714   3.010   1.151  13.374 -0.4962 -0.3325  0.2535
  795MPD2    C311715   3.140   1.167  13.339  0.1969 -0.3740  0.6063
  795MPD2    C411716   3.161   1.252  13.230  0.4473  0.3049 -0.3401
  795MPD2    C511717   3.056   1.324  13.181  0.2567 -0.3889 -0.0650
  795MPD2     H11718   2.996   1.095  13.465 -0.7075 -1.1878 -0.3046
  795MPD2    H111719   3.258   1.277  13.187  1.2686 -2.5054 -0.1162
  795MPD2    H211720   2.850   1.358  13.161  1.7833  1.9292 -0.1322
  795MPD2    H311721   3.087   1.396  13.108 -2.5027  2.3259  1.4439
  795MPD2     N11722   3.244   1.100  13.409  0.1576 -0.0359  0.2355
  795MPD2    H511723   3.222   1.051  13.496  0.2362  0.0389  0.2974
  795MPD2    N111724   2.767   1.182  13.370 -0.6583 -0.5568  0.2625
  795MPD2    H711725   2.761   1.106  13.437  0.1994 -1.0000 -0.1616
  796MPD2     C11726   2.542   2.769  15.963 -0.4737 -0.0626  0.6558
  796MPD2    C111727   2.636   2.830  16.043  0.2757 -0.3771 -0.5109
  796MPD2    C211728   2.661   2.965  16.036  0.3937 -0.6149 -0.2553
  796MPD2    C311729   2.587   3.038  15.937  0.4430 -0.0386  0.8925
  796MPD2    C411730   2.506   2.975  15.851 -0.2431  0.2497  0.0487
  796MPD2    C511731   2.481   2.844  15.863 -0.3212 -0.2088 -0.6183
  796MPD2     H11732   2.716   3.023  16.110  0.0918 -0.5504 -0.0805
  796MPD2    H111733   2.444   3.024  15.777  0.0285  0.9045  0.2536
  796MPD2    H211734   2.532   2.661  15.971  0.1872 -0.3811 -2.7398
  796MPD2    H311735   2.410   2.802  15.793 -1.4583 -0.5246  0.7317
  796MPD2     N11736   2.604   3.180  15.933 -0.3093  0.2076 -0.5699
  796MPD2    H511737   2.664   3.207  16.010 -0.0719 -2.1819  0.0878
  796MPD2    N111738   2.696   2.758  16.145  0.2594  0.3061 -0.4419
  796MPD2    H711739   2.653   2.668  16.164 -0.9564  0.9547 -0.1147
  797MPD2     C11740   3.696   2.245  17.207  0.1254  0.5262  0.0581
  797MPD2    C111741   3.751   2.338  17.296 -0.0286 -0.8479 -0.4179
  797MPD2    C211742   3.690   2.458  17.315 -0.7889  0.1962 -0.0837
  797MPD2    C311743   3.565   2.479  17.257  0.4835 -0.0305 -0.0889
  797MPD2    C411744   3.511   2.390  17.160 -0.2911  0.2028  0.2047
  797MPD2    C511745   3.574   2.273  17.139 -0.0883 -0.0031 -0.3864
  797MPD2     H11746   3.743   2.535  17.370 -1.0176 -0.1202  0.5792
  797MPD2    H111747   3.424   2.423  17.105 -0.7104  1.8865  1.8596
  797MPD2    H211748   3.740   2.150  17.180 -0.1937  0.4718 -0.2659
  797MPD2    H311749   3.547   2.201  17.063  1.6829 -0.2754 -0.7529
  797MPD2     N11750   3.501   2.602  17.276 -0.3596  0.3102 -0.0490
  797MPD2    H511751   3.415   2.625  17.227  1.0132  3.6900 -0.8936
  797MPD2    N111752   3.879   2.323  17.352 -0.2890  0.0774 -0.2189
  797MPD2    H711753   3.912   2.411  17.391  0.7811 -0.7799  0.8234
  798MPD2     C11754   3.962   2.948  17.666 -0.7804 -0.6147 -0.0829
  798MPD2    C111755   3.965   2.925  17.530 -0.1716  0.2322 -0.7515
  798MPD2    C211756   4.042   2.822  17.475  0.0850  0.4043 -0.7767
  798MPD2    C311757   4.108   2.737  17.563 -0.8239 -0.4265  0.3615
  798MPD2    C411758   4.090   2.751   0.004  0.1837  0.9711 -0.2198
  798MPD2    C511759   4.023   2.857   0.053  0.2515  0.1469  0.4110
  798MPD2     H11760   4.035   2.791  17.372  0.6903  2.6301 -1.4799
  798MPD2    H111761   4.128   2.680   0.075 -1.5043 -0.4475 -0.7256
  798MPD2    H211762   3.897   3.022   0.014  1.5873  2.1769 -1.2368
  798MPD2    H311763   4.026   2.876   0.160  1.1138 -2.0271  0.7793
  798MPD2     N11764   4.167   2.622  17.507  0.1722 -0.4311 -0.1972
  798MPD2    H511765   4.168   2.619  17.406  0.3244  0.1083 -0.2105
  798MPD2    N111766   3.873   2.999  17.456 -0.0959  1.0206 -0.2317
  798MPD2    H711767   3.809   3.057  17.509 -0.9729  0.0824 -0.2677
  799MPD2     C11768   2.287   3.804  14.562  1.0094  0.1061 -0.4628
  799MPD2    C111769   2.238   3.675  14.534  0.1340 -0.1008 -0.5152
  799MPD2    C211770   2.125   3.671  14.454 -0.5989 -0.5489 -0.0369
  799MPD2    C311771   2.052   3.781  14.419  0.2584  0.0729 -0.5813
  799MPD2    C411772   2.094   3.905  14.459  0.2639 -0.4308 -0.2902
  799MPD2    C511773   2.215   3.915  14.530  0.0389  0.5442  0.2751
  799MPD2     H11774   2.095   3.572  14.421 -1.8246 -0.1492 -0.1039
  799MPD2    H111775   2.043   3.996  14.427 -0.2739 -0.2002  1.2256
  799MPD2    H211776   2.376   3.814  14.623  0.3615  1.1597  0.3015
  799MPD2    H311777   2.250   4.014  14.557 -0.3655  0.5306  0.8363
  799MPD2     N11778   1.936   3.794  14.335  0.3022  0.0666  0.0034
  799MPD2    H511779   1.888   3.883  14.322  0.3884  0.2048  0.6586
  799MPD2    N111780   2.306   3.558  14.568 -0.0202 -0.4933  0.2326
  799MPD2    H711781   2.250   3.480  14.535  0.3414 -2.2079  3.6136
  800MPD2     C11782   2.730   0.946  14.110  0.5791 -0.0559 -0.1158
  800MPD2    C111783   2.860   0.910  14.147 -0.1410  0.0897 -0.0248
  800MPD2    C211784   2.906   0.779  14.144 -0.8160  0.1278  0.3265
  800MPD2    C311785   2.830   0.686  14.076  0.1367  0.1594 -0.1227
  800MPD2    C411786   2.701   0.725  14.044 -0.1832 -0.3948 -0.4467
  800MPD2    C511787   2.644   0.852  14.067 -0.2151 -0.0864  0.1488
  800MPD2     H11788   3.007   0.753  14.175 -0.9056 -1.1538 -0.4629
  800MPD2    H111789   2.634   0.648  14.011 -1.2301  1.0638 -1.7322
  800MPD2    H211790   2.700   1.050  14.100 -0.4091 -0.1587  1.9151
  800MPD2    H311791   2.543   0.883  14.044 -0.3757  0.1172  1.1408
  800MPD2     N11792   2.879   0.557  14.058 -0.1250  0.3165 -0.3665
  800MPD2    H511793   2.967   0.540  14.107 -0.3066 -0.2336 -0.2262
  800MPD2    N111794   2.932   1.011  14.210 -0.3609 -0.8665  0.2609
  800MPD2    H711795   2.877   1.090  14.241 -1.4967 -0.7678 -2.0251
  801MPD2     C11796   2.790   1.219  14.863  0.2827  0.6531 -0.6015
  801MPD2    C111797   2.811   1.130  14.758  0.3658  0.0740 -0.6133
  801MPD2    C211798   2.720   1.024  14.741  0.0054 -0.5886 -0.7440
  801MPD2    C311799   2.631   0.995  14.839 -0.1098  0.2912 -0.1257
  801MPD2    C411800   2.620   1.079  14.948 -0.1928 -0.7877  1.0828
  801MPD2    C511801   2.701   1.194  14.959 -0.0022 -0.7492  0.6834
  801MPD2     H11802   2.744   0.956  14.660  1.1776  0.9645 -1.7083
  801MPD2    H111803   2.549   1.052  15.025  0.0477 -2.9552  0.5273
  801MPD2    H211804   2.861   1.299  14.883  0.2674  0.5308 -0.0740
  801MPD2    H311805   2.703   1.253  15.049  2.6251  1.0937 -0.5906
  801MPD2     N11806   2.570   0.866  14.867 -0.1135 -0.4970  0.4671
  801MPD2    H511807   2.502   0.864  14.942  1.3133 -1.7649  1.7361
  801MPD2    N111808   2.912   1.137  14.663 -0.0812  0.5974 -1.1467
  801MPD2    H711809   2.914   1.063  14.594  0.4818 -0.1262 -0.3566
  802MPD2     C11810   2.431   1.203   0.736 -0.3151  0.0505 -0.0228
  802MPD2    C111811   2.426   1.243   0.607 -0.6353 -0.2471  0.5187
  802MPD2    C211812   2.425   1.152   0.509  0.6863 -0.4186  0.4308
  802MPD2    C311813   2.414   1.020   0.529  0.2501  0.4257 -0.0085
  802MPD2    C411814   2.409   0.974   0.663 -0.9767 -0.1064  0.1809
  802MPD2    C511815   2.408   1.069   0.767 -0.1583 -0.0675 -0.5471
  802MPD2     H11816   2.417   1.179   0.405  0.8015 -0.4834  0.4052
  802MPD2    H111817   2.406   0.868   0.690  0.4883 -0.2693 -0.3124
  802MPD2    H211818   2.412   1.267   0.821  0.4894  3.2275 -2.2677
  802MPD2    H311819   2.387   1.039   0.869  0.6086 -2.3047 -1.0415
  802MPD2     N11820   2.404   0.936   0.409  0.1668 -0.2707 -0.0348
  802MPD2    H511821   2.416   0.983   0.320  0.1759 -0.2958 -0.0466
  802MPD2    N111822   2.418   1.381   0.576  0.0568 -0.1575 -0.3596
  802MPD2    H711823   2.397   1.404   0.479  0.9975 -0.6231 -0.6642
  803MPD2     C11824   2.939   0.179  11.904 -0.3385  0.3309  0.2025
  803MPD2    C111825   3.052   0.102  11.932  0.5161  0.8521 -0.4511
  803MPD2    C211826   3.041   4.708  12.005  0.0576 -0.4844  0.2358
  803MPD2    C311827   2.926   4.660  12.048  0.0300  0.2490  0.3138
  803MPD2    C411828   2.813   0.013  12.021  0.5352  0.2743 -0.4535
  803MPD2    C511829   2.825   0.133  11.957  0.3051  0.3190  1.0338
  803MPD2     H11830   3.133   4.653  12.018 -0.6019 -0.9935  2.7263
  803MPD2    H111831   2.713   4.709  12.050  1.5526 -2.1840  0.6990
  803MPD2    H211832   2.946   0.275  11.855  1.5329  1.7786  3.2287
  803MPD2    H311833   2.730   0.182  11.942  0.0270 -1.0839 -1.7271
  803MPD2     N11834   2.906   4.532  12.108  0.2533 -0.1085 -0.2572
  803MPD2    H511835   2.818   4.527  12.157  1.2872 -0.8941  1.5033
  803MPD2    N111836   3.182   0.152  11.890  0.3024  0.0915  0.7884
  803MPD2    H711837   3.262   0.104  11.929  0.4301  0.8603  1.4505
  804MPD2     C11838   2.961   0.803  16.839 -0.1503 -0.2331  0.0913
  804MPD2    C111839   2.950   0.789  16.978  0.0188  0.2931  0.2761
  804MPD2    C211840   2.985   0.897  17.056 -0.3763  0.2930 -0.4089
  804MPD2    C311841   3.025   1.016  17.004  0.4524 -0.0042 -0.4303
  804MPD2    C411842   3.042   1.028  16.865 -0.1534  0.6939  0.2782
  804MPD2    C511843   3.005   0.925  16.782  0.4337  0.0133  0.1830
  804MPD2     H11844   2.984   0.879  17.163  0.7633  0.3074 -0.3881
  804MPD2    H111845   3.097   1.111  16.822 -1.3256  1.4285  0.1952
  804MPD2    H211846   2.946   0.717  16.775  2.6742 -1.2648  0.8173
  804MPD2    H311847   3.021   0.947  16.677 -1.9924 -1.5410 -0.4844
  804MPD2     N11848   3.072   1.122  17.083  0.1273  0.0880 -0.3401
  804MPD2    H511849   3.129   1.195  17.040  0.7385  0.2758  0.7961
  804MPD2    N111850   2.925   0.666  17.044  0.5109 -0.0143  0.0107
  804MPD2    H711851   2.920   0.661  17.145  1.5485  1.3724  0.1285
  805MPD2     C11852   2.038   4.047  15.531 -0.1187  0.6155  0.1380
  805MPD2    C111853   2.144   4.063  15.438 -0.3464  0.3236  0.1674
  805MPD2    C211854   2.272   4.077  15.494  0.1453  0.4047  0.2383
  805MPD2    C311855   2.291   4.095  15.627  0.0809 -0.0736  0.4860
  805MPD2    C411856   2.183   4.079  15.708  0.0343  0.2764 -0.0823
  805MPD2    C511857   2.058   4.059  15.667  0.5393 -0.3451  0.0650
  805MPD2     H11858   2.353   4.086  15.422 -0.6096 -0.7067 -0.7406
  805MPD2    H111859   2.187   4.102  15.814  0.2280 -1.2236  0.2380
  805MPD2    H211860   1.937   4.019  15.503  0.7849 -2.4011 -0.1505
  805MPD2    H311861   1.975   4.046  15.735  3.0026  1.1366  3.3089
  805MPD2     N11862   2.419   4.103  15.683  0.2713 -0.1844  0.2354
  805MPD2    H511863   2.416   4.142  15.777  0.0204 -0.0313  0.1621
  805MPD2    N111864   2.119   4.062  15.297  0.0306 -0.4119 -0.3418
  805MPD2    H711865   2.207   4.068  15.246  0.2369  1.2290  0.2347
  806MPD2     C11866   3.048   2.979   0.543  0.7240  0.1436  0.2701
  806MPD2    C111867   2.934   3.032   0.602 -0.3488  0.3253  0.7663
  806MPD2    C211868   2.909   3.166   0.609  0.3425  0.0609  0.7232
  806MPD2    C311869   2.992   3.249   0.548  0.1088  0.0024  0.2368
  806MPD2    C411870   3.111   3.203   0.485  0.3476  0.2536  0.5686
  806MPD2    C511871   3.135   3.068   0.483  0.3025 -0.1781  0.2410
  806MPD2     H11872   2.825   3.214   0.658  0.4890  1.4501 -0.4050
  806MPD2    H111873   3.197   3.264   0.463  0.7016 -0.2975  0.4421
  806MPD2    H211874   3.065   2.872   0.546 -0.5058 -0.0243  1.6656
  806MPD2    H311875   3.231   3.043   0.438  0.6747  0.1953  0.8265
  806MPD2     N11876   2.952   3.377   0.560 -0.2818 -0.1813 -1.2280
  806MPD2    H511877   2.869   3.401   0.614  0.7080 -0.8671  0.5673
  806MPD2    N111878   2.846   2.937   0.657  0.3386  0.3213  0.0108
  806MPD2    H711879   2.873   2.839   0.651  1.1651  0.6694 -1.7779
  807MPD2     C11880   2.195   2.771   1.213 -0.7242  0.9970 -0.0927
  807MPD2    C111881   2.307   2.698   1.227  0.7535 -0.0206 -0.3933
  807MPD2    C211882   2.314   2.593   1.319 -0.0455  0.1236 -0.0694
  807MPD2    C311883   2.202   2.557   1.395  0.3387 -0.0294  0.3633
  807MPD2    C411884   2.087   2.634   1.372 -0.5823  0.4479  0.4816
  807MPD2    C511885   2.085   2.741   1.291  0.1518 -0.2872  0.4909
  807MPD2     H11886   2.408   2.542   1.338  0.1751  0.5032 -0.1577
  807MPD2    H111887   1.996   2.618   1.429 -1.7021  0.3809 -1.3424
  807MPD2    H211888   2.184   2.851   1.141 -0.5418 -1.4357 -2.8124
  807MPD2    H311889   2.002   2.810   1.286  0.5057 -0.0165 -1.8103
  807MPD2     N11890   2.207   2.443   1.480 -0.1092 -0.0515 -0.0859
  807MPD2    H511891   2.300   2.411   1.505 -0.1866 -0.9392 -0.9778
  807MPD2    N111892   2.427   2.722   1.149  0.3153  0.6783  0.2563
  807MPD2    H711893   2.505   2.658   1.162 -0.1882  0.2522  1.1978
  808MPD2     C11894   3.064   4.047   9.822  0.0739 -0.0133 -0.8192
  808MPD2    C111895   3.005   4.168   9.799  0.5080 -0.4616  0.3988
  808MPD2    C211896   3.067   4.285   9.848  0.2607 -0.0705  0.2171
  808MPD2    C311897   3.196   4.280   9.910 -0.3516  0.2162  1.2998
  808MPD2    C411898   3.261   4.159   9.922  0.0746 -0.4665 -0.5810
  808MPD2    C511899   3.189   4.047   9.877 -0.8808 -0.3425  0.4341
  808MPD2     H11900   3.008   4.376   9.843 -0.2756 -0.3921  0.7329
  808MPD2    H111901   3.349   4.136   9.982  0.7894  3.8686 -0.0000
  808MPD2    H211902   3.011   3.953   9.808 -1.6380  0.8347 -0.0802
  808MPD2    H311903   3.236   3.954   9.906  1.6854  1.3596  1.8419
  808MPD2     N11904   3.269   4.390   9.961  0.9901 -1.5585  0.2585
  808MPD2    H511905   3.366   4.367   9.982  0.6795 -1.1964  2.1312
  808MPD2    N111906   2.876   4.181   9.746  0.1506  0.4898 -0.1574
  808MPD2    H711907   2.837   4.272   9.768  0.6719  0.8222 -0.5895
  809MPD2     C11908   3.784   4.337  10.600  0.2681 -1.3631 -0.1610
  809MPD2    C111909   3.843   4.422  10.511 -0.4523  0.1929  0.2626
  809MPD2    C211910   3.761   4.509  10.434  0.0961  0.4540  0.5217
  809MPD2    C311911   3.626   4.499  10.446  0.1257  0.4998 -0.5936
  809MPD2    C411912   3.573   4.409  10.529  0.2338  0.3041 -0.1299
  809MPD2    C511913   3.653   4.332  10.609 -0.6737  0.1208  0.2605
  809MPD2     H11914   3.803   4.581  10.364  0.7049  0.7749  1.2208
  809MPD2    H111915   3.465   4.397  10.525  0.4902 -1.1334 -2.2368
  809MPD2    H211916   3.840   4.269  10.664  3.3364 -0.8900 -2.3515
  809MPD2    H311917   3.612   4.259  10.678 -1.2051  0.0564 -0.1213
  809MPD2     N11918   3.543   4.576  10.357  0.0511 -0.1850 -0.2220
  809MPD2    H511919   3.443   4.559  10.357 -0.0280  0.2779 -0.9418
  809MPD2    N111920   3.980   4.432  10.492 -0.0854  0.0073  0.4275
  809MPD2    H711921   4.021   4.520  10.461 -1.7903  0.4340 -0.6098
  810MPD2     C11922   2.911   3.820  10.063 -0.4838  0.5172 -0.3467
  810MPD2    C111923   2.794   3.892  10.045  0.6241 -0.2577 -0.3854
  810MPD2    C211924   2.793   4.028  10.072  0.3648 -0.2397 -0.3925
  810MPD2    C311925   2.909   4.085  10.116  0.2559  0.2041 -0.1901
  810MPD2    C411926   3.016   4.007  10.141  0.4935 -0.1748 -0.1675
  810MPD2    C511927   3.024   3.876  10.112 -0.3065  0.1687 -0.4450
  810MPD2     H11928   2.709   4.089  10.040  1.7853  1.4144 -0.9551
  810MPD2    H111929   3.106   4.039  10.194 -0.0542  1.2280 -0.0961
  810MPD2    H211930   2.920   3.714  10.044 -2.2268  0.4659 -0.8167
  810MPD2    H311931   3.117   3.822  10.123 -1.4887 -1.6356  0.6467
  810MPD2     N11932   2.919   4.220  10.145  0.0538  0.0981  0.1339
  810MPD2    H511933   3.009   4.253  10.178  0.3915 -0.0179 -0.6590
  810MPD2    N111934   2.678   3.818   9.993  0.1407  0.1501  0.2151
  810MPD2    H711935   2.694   3.721   9.970 -1.5627 -0.2352  0.6618
  811MPD2     C11936   2.016   3.886   9.473 -0.0463  0.5442 -0.2316
  811MPD2    C111937   2.081   3.952   9.577 -0.6215 -0.8303 -0.0493
  811MPD2    C211938   2.069   4.089   9.575 -0.0124  0.8433 -0.3942
  811MPD2    C311939   1.998   4.163   9.479  0.0309 -0.2234 -0.5820
  811MPD2    C411940   1.941   4.095   9.370 -0.3256 -0.4750 -0.2237
  811MPD2    C511941   1.951   3.956   9.376  0.0073  0.4823  0.5129
  811MPD2     H11942   2.097   4.144   9.663 -2.2464  1.1657  0.1181
  811MPD2    H111943   1.890   4.141   9.286  0.0537 -2.9064 -1.7834
  811MPD2    H211944   2.014   3.780   9.451  0.3439  0.4925 -0.0307
  811MPD2    H311945   1.918   3.907   9.285  0.7045  0.7950  0.0912
  811MPD2     N11946   1.988   4.302   9.499 -0.3408 -0.6300 -0.5039
  811MPD2    H511947   2.034   4.332   9.584 -0.1013 -0.7389 -0.5955
  811MPD2    N111948   2.150   3.896   9.689  0.2296  0.2379  0.3613
  811MPD2    H711949   2.198   3.960   9.751  0.3838  0.6767 -0.2077
  812MPD2     C11950   1.632   4.289  12.042 -0.4428 -0.3279  0.1168
  812MPD2    C111951   1.555   4.376  12.121  0.3945  0.0913  0.7172
  812MPD2    C211952   1.501   4.330  12.238  0.5467 -0.3610 -0.2072
  812MPD2    C311953   1.537   4.202  12.281  0.4199  0.2975 -0.5757
  812MPD2    C411954   1.622   4.127  12.211 -0.1565 -0.2770 -0.4357
  812MPD2    C511955   1.659   4.164  12.087 -0.7632  0.2246 -0.4681
  812MPD2     H11956   1.441   4.395  12.300  1.5739  0.5692 -0.1847
  812MPD2    H111957   1.670   4.033  12.238  2.4234  0.8984 -0.8726
  812MPD2    H211958   1.657   4.323  11.942  2.4790 -0.2177  0.8861
  812MPD2    H311959   1.726   4.107  12.023  0.8200  1.8785 -0.2930
  812MPD2     N11960   1.479   4.148  12.406 -0.4490 -0.0762 -0.5886
  812MPD2    H511961   1.416   4.206  12.461 -2.1106 -0.8755 -1.6554
  812MPD2    N111962   1.537   4.508  12.068  0.4783  0.8660  0.0784
  812MPD2    H711963   1.584   4.518  11.979  0.8652 -1.7656 -0.0064
  813MPD2     C11964   0.924   1.421  12.813  0.4908  0.3695 -0.5148
  813MPD2    C111965   0.840   1.521  12.773 -0.0017 -0.6825 -0.1423
  813MPD2    C211966   0.709   1.521  12.833  0.2428  0.4411 -0.2029
  813MPD2    C311967   0.677   1.424  12.925 -0.2076  0.5640  0.5994
  813MPD2    C411968   0.768   1.323  12.963  0.0164  0.6298  0.7901
  813MPD2    C511969   0.892   1.323  12.902  0.0004 -0.4769  0.3239
  813MPD2     H11970   0.635   1.595  12.804 -0.2750  0.2306  0.6075
  813MPD2    H111971   0.752   1.243  13.034  2.3556  0.3930  1.0366
  813MPD2    H211972   1.022   1.413  12.768  1.3787  2.1605  1.1176
  813MPD2    H311973   0.963   1.248  12.935  0.8237  0.2481  0.1987
  813MPD2     N11974   0.549   1.431  12.990 -0.4694 -0.2076  0.0316
  813MPD2    H511975   0.495   1.516  12.978 -1.7321 -1.0738 -0.3962
  813MPD2    N111976   0.892   1.621  12.692 -0.1816 -0.0686  0.0320
  813MPD2    H711977   0.991   1.628  12.669 -0.0145  1.8455  1.3420
  814MPD2     C11978   0.790   2.977  12.324 -0.0889  0.0085  0.1588
  814MPD2    C111979   0.905   2.943  12.265 -0.2662  0.8251 -0.5289
  814MPD2    C211980   1.010   3.033  12.254  0.2408  0.6645 -0.0762
  814MPD2    C311981   0.998   3.170  12.293  0.0771 -0.2844 -0.5689
  814MPD2    C411982   0.875   3.213  12.338  0.1915  0.2576 -0.1942
  814MPD2    C511983   0.776   3.118  12.351 -0.1245 -0.0708 -0.5285
  814MPD2     H11984   1.104   2.988  12.224  0.2213  0.7386 -0.2474
  814MPD2    H111985   0.857   3.319  12.353  0.1631  0.3405 -0.8165
  814MPD2    H211986   0.705   2.916  12.352 -0.6103  1.2174  1.2402
  814MPD2    H311987   0.676   3.145  12.385  1.1164  1.3535  1.9828
  814MPD2     N11988   1.093   3.276  12.268  0.0838 -0.4187  0.2211
  814MPD2    H511989   1.063   3.371  12.290 -1.8769 -0.8597 -0.4774
  814MPD2    N111990   0.926   2.823  12.204  0.0871 -0.1576 -0.3190
  814MPD2    H711991   1.017   2.818  12.161  2.4834 -1.6182  4.9425
  815MPD2     C11992   1.607   1.502  11.484  0.2347  0.2952 -0.0663
  815MPD2    C111993   1.520   1.418  11.409 -0.5009 -0.7104 -0.3652
  815MPD2    C211994   1.413   1.355  11.475  0.5339 -0.0513 -0.7577
  815MPD2    C311995   1.392   1.380  11.611 -0.2931  0.0809  0.0230
  815MPD2    C411996   1.474   1.474  11.678  0.9164 -0.4257  0.0787
  815MPD2    C511997   1.580   1.530  11.615  0.2013 -0.3525 -0.8700
  815MPD2     H11998   1.349   1.294  11.412  0.4286 -2.0558  1.2810
  815MPD2    H111999   1.454   1.502  11.781 -1.4620 -2.0208  0.0536
  815MPD2    H212000   1.689   1.554  11.437 -0.2120  0.9228 -0.1560
  815MPD2    H312001   1.643   1.595  11.674 -0.2149 -0.4623 -0.3120
  815MPD2     N12002   1.281   1.329  11.676 -0.3906 -0.3906 -0.0106
  815MPD2    H512003   1.216   1.282  11.613  0.6975 -1.1332 -0.5752
  815MPD2    N112004   1.542   1.385  11.277 -0.2701 -0.0725 -0.0979
  815MPD2    H712005   1.471   1.334  11.225 -0.0832 -0.4143 -0.0137
  816MPD2     C12006   1.484   0.514  16.997 -0.0143  0.4078  0.0660
  816MPD2    C112007   1.559   0.614  17.055  0.5138 -0.5491 -0.3803
  816MPD2    C212008   1.698   0.597  17.065 -0.1839 -0.3466  0.1223
  816MPD2    C312009   1.757   0.484  17.011 -0.7906 -0.2563  0.4433
  816MPD2    C412010   1.680   0.388  16.953  0.2026 -0.1460 -0.4818
  816MPD2    C512011   1.545   0.411  16.935  0.4199  0.2714 -0.1120
  816MPD2     H12012   1.762   0.670  17.113  0.3029 -1.0739  0.5683
  816MPD2    H112013   1.720   0.293  16.919  1.0090 -0.3553  1.0552
  816MPD2    H212014   1.376   0.511  17.003  0.1822 -1.2901  2.5736
  816MPD2    H312015   1.478   0.341  16.888  0.8852 -1.2498  1.5064
  816MPD2     N12016   1.899   0.464  17.009 -0.5090  0.2811 -0.0559
  816MPD2    H512017   1.958   0.541  17.040  0.1160  0.4014 -1.5477
  816MPD2    N112018   1.494   0.727  17.112  0.1481 -0.7897 -0.2533
  816MPD2    H712019   1.392   0.731  17.109  0.0141 -0.8370  3.7432
  817MPD2     C12020   0.903   1.722   9.597 -0.2440  0.4584 -0.5172
  817MPD2    C112021   0.799   1.648   9.546  0.0989  0.6391 -0.9620
  817MPD2    C212022   0.702   1.719   9.482  0.3191  0.5674  1.0062
  817MPD2    C312023   0.702   1.859   9.479 -0.0938  0.7508 -0.3345
  817MPD2    C412024   0.800   1.928   9.547  0.3102 -0.2793 -0.1462
  817MPD2    C512025   0.897   1.856   9.619 -0.2065  0.1030 -0.4730
  817MPD2     H12026   0.618   1.663   9.444  1.7916 -1.1845  0.3006
  817MPD2    H112027   0.801   2.037   9.548  0.3616 -0.2997  1.1857
  817MPD2    H212028   0.992   1.670   9.633 -0.5338 -0.5088 -1.1882
  817MPD2    H312029   0.974   1.909   9.673 -0.0389 -1.0429  0.4084
  817MPD2     N12030   0.594   1.930   9.425  0.8450  0.1323  0.1056
  817MPD2    H512031   0.523   1.877   9.375  0.1498 -0.7770  2.0351
  817MPD2    N112032   0.790   1.510   9.562 -0.0049  0.0978 -0.1172
  817MPD2    H712033   0.710   1.464   9.519  0.8557 -1.2248 -0.3269
  818MPD2     C12034   4.574   2.282  10.260  1.0845 -0.1942  0.8396
  818MPD2    C112035   4.445   2.247  10.276  0.0554 -0.4397  0.3857
  818MPD2    C212036   4.386   2.149  10.195 -0.3430  1.0442  0.0918
  818MPD2    C312037   4.459   2.085  10.101 -0.2511  0.0384  0.0996
  818MPD2    C412038   4.589   2.120  10.085  0.9382 -0.1171 -0.0712
  818MPD2    C512039   4.654   2.213  10.165 -0.3692 -0.0611  0.0826
  818MPD2     H12040   4.282   2.131  10.219 -0.0168  1.7678  2.0833
  818MPD2    H112041   4.646   2.077  10.004  0.3226 -0.0600 -0.5388
  818MPD2    H212042   4.623   2.356  10.322  2.4607 -0.1433 -0.3193
  818MPD2    H312043   0.035   2.236  10.153 -0.3118 -0.9690 -1.1474
  818MPD2     N12044   4.413   1.971  10.031 -0.4700  0.6405 -0.1520
  818MPD2    H512045   4.480   1.921   9.973  0.6476  0.7906  1.0222
  818MPD2    N112046   4.365   2.312  10.372  0.3642 -0.3909 -0.1370
  818MPD2    H712047   4.272   2.271  10.381 -1.3471  3.1351 -2.0051
  819MPD2     C12048   2.996   3.767  15.529  0.1518 -0.1782  0.4223
  819MPD2    C112049   2.975   3.639  15.563  0.2790  0.0352 -0.0018
  819MPD2    C212050   3.062   3.591  15.663  0.6657  0.6284  0.1477
  819MPD2    C312051   3.169   3.655  15.713  0.0308  0.1941 -0.0721
  819MPD2    C412052   3.183   3.779  15.670 -0.0190  0.5632 -0.1052
  819MPD2    C512053   3.104   3.844  15.582 -0.1754 -0.0266 -0.4972
  819MPD2     H12054   3.054   3.493  15.709  0.7981  0.5396 -0.0177
  819MPD2    H112055   3.274   3.830  15.700  0.5436  0.2273 -1.2353
  819MPD2    H212056   2.930   3.824  15.465  2.5425  1.0194 -0.9712
  819MPD2    H312057   3.123   3.948  15.559  1.3715  0.1265  1.4559
  819MPD2     N12058   3.266   3.593  15.797 -0.6911  0.1736 -0.1461
  819MPD2    H512059   3.246   3.503  15.839 -1.0399  1.7798  3.1270
  819MPD2    N112060   2.861   3.568  15.516  0.4561 -0.4198  0.0596
  819MPD2    H712061   2.800   3.621  15.456 -2.5598 -2.6347  1.1513
  820MPD2     C12062   2.139   3.443  14.843 -0.1903 -0.1041  0.1998
  820MPD2    C112063   2.202   3.546  14.911  0.1244 -0.3792 -0.1446
  820MPD2    C212064   2.285   3.512  15.018 -0.9428  0.0102  0.9723
  820MPD2    C312065   2.304   3.379  15.051  0.1533  0.3039 -0.6911
  820MPD2    C412066   2.221   3.281  14.995  0.3763  0.2490 -0.1156
  820MPD2    C512067   2.141   3.313  14.892 -0.3844 -0.2674  0.9189
  820MPD2     H12068   2.339   3.586  15.076 -0.8688  1.1840 -0.5729
  820MPD2    H112069   2.228   3.179  15.033  3.3223  0.7097  0.5865
  820MPD2    H212070   2.068   3.461  14.763  1.3406  2.0533 -0.6705
  820MPD2    H312071   2.076   3.238  14.849 -0.2391  0.8253 -1.2299
  820MPD2     N12072   2.396   3.333  15.151 -0.1843  0.0743  0.2310
  820MPD2    H512073   2.387   3.235  15.176 -2.5020  0.2236 -0.0584
  820MPD2    N112074   2.177   3.679  14.875  0.3024  0.2014  0.2512
  820MPD2    H712075   2.113   3.701  14.799 -2.8631 -1.0435  2.5563
  821MPD2     C12076   2.785   0.031  13.463  0.6575 -0.2573  0.9074
  821MPD2    C112077   2.904   0.059  13.525 -0.4993  0.3040 -0.5626
  821MPD2    C212078   3.014   0.095  13.445  0.5982 -0.4189 -0.3100
  821MPD2    C312079   3.000   0.125  13.314 -0.0545 -0.5782 -0.0915
  821MPD2    C412080   2.880   0.100  13.253  0.1437 -0.4350 -0.3519
  821MPD2    C512081   2.776   0.042  13.324  0.0080 -0.2851  0.5265
  821MPD2     H12082   3.110   0.109  13.494  1.2559 -0.7590 -1.4921
  821MPD2    H112083   2.847   0.133  13.155  1.0167  2.1836  0.2491
  821MPD2    H212084   2.695   0.001  13.515 -0.0223 -0.1282 -0.2053
  821MPD2    H312085   2.685   0.012  13.275  0.1668 -0.4695  0.3411
  821MPD2     N12086   3.106   0.197  13.254 -0.1424  0.1354  0.3255
  821MPD2    H512087   3.186   0.214  13.314 -1.0485  1.7425  1.1020
  821MPD2    N112088   2.922   0.061  13.664  0.2421  0.1089 -0.4388
  821MPD2    H712089   3.010   0.098  13.698 -0.2034 -0.4532  1.3285
  822MPD2     C12090   3.858   0.285  15.721 -0.0937  0.3670  0.4321
  822MPD2    C112091   3.858   0.241  15.848 -0.1067  0.1078  0.2973
  822MPD2    C212092   3.780   0.307  15.942  0.3871 -0.2732 -0.0212
  822MPD2    C312093   3.712   0.413  15.907  0.0099  0.0859  0.0782
  822MPD2    C412094   3.705   0.452  15.776  0.4435  0.5326 -0.3943
  822MPD2    C512095   3.786   0.390  15.685 -0.6188 -0.1481 -0.3374
  822MPD2     H12096   3.767   0.273  16.044 -1.3195  0.1527 -0.0834
  822MPD2    H112097   3.636   0.532  15.749  1.9311  1.9716  0.0746
  822MPD2    H212098   3.919   0.241  15.643  0.2383  1.5162  0.0518
  822MPD2    H312099   3.791   0.409  15.578 -0.4062  2.7721  0.1843
  822MPD2     N12100   3.652   0.478  16.013 -0.3440 -0.1448  0.1048
  822MPD2    H512101   3.643   0.425  16.099  1.9365 -1.0866 -0.2371
  822MPD2    N112102   3.936   0.127  15.884  0.3260  0.2824 -0.0527
  822MPD2    H712103   3.945   0.116  15.984 -0.3082  0.1149 -0.0144
  823MPD2     C12104   3.271   0.630  16.758 -0.0471  0.3567  0.7807
  823MPD2    C112105   3.318   0.550  16.657  0.1375  0.1194 -0.1060
  823MPD2    C212106   3.341   0.418  16.690 -0.3280  0.3534 -0.1295
  823MPD2    C312107   3.319   0.362  16.819  0.2224 -0.2139 -0.2036
  823MPD2    C412108   3.264   0.452  16.911  0.0614  0.5970 -0.4866
  823MPD2    C512109   3.242   0.580  16.887 -0.1588  0.8073 -0.0385
  823MPD2     H12110   3.386   0.368  16.605  0.2275 -0.9874  0.9442
  823MPD2    H112111   3.247   0.409  17.009 -0.2288 -0.3252 -0.9431
  823MPD2    H212112   3.249   0.734  16.739  1.6464  0.5149 -0.2960
  823MPD2    H312113   3.202   0.649  16.961  2.8472  0.6324  1.7928
  823MPD2     N12114   3.363   0.237  16.865 -0.6221  0.2842 -0.5530
  823MPD2    H512115   3.341   0.226  16.964 -1.3451 -0.2622 -0.7764
  823MPD2    N112116   3.346   0.606  16.533 -0.0247  0.0273 -0.1354
  823MPD2    H712117   3.367   0.705  16.533  3.3457 -0.6981  1.4627
  824MPD2     C12118   4.449   4.119  15.970 -0.3009 -0.1210 -0.8706
  824MPD2    C112119   4.404   4.169  15.859  0.3429 -0.1406 -0.3121
  824MPD2    C212120   4.432   4.110  15.740  0.5591 -0.1486  0.1803
  824MPD2    C312121   4.511   3.999  15.732  0.0014  0.4636 -0.5922
  824MPD2    C412122   4.569   3.960  15.846  0.0081 -0.3523 -0.2055
  824MPD2    C512123   4.537   4.012  15.968  0.0137  0.3947 -0.1839
  824MPD2     H12124   4.395   4.155  15.648  1.1419 -0.7436 -0.3412
  824MPD2    H112125   4.652   3.891  15.838  0.8818  0.4145  2.3121
  824MPD2    H212126   4.427   4.160  16.067  1.0111 -0.8704 -0.2642
  824MPD2    H312127   4.591   3.976  16.055  0.8051  0.5485 -0.6177
  824MPD2     N12128   4.529   3.932  15.609 -0.2633 -0.2314 -0.2055
  824MPD2    H512129   4.497   3.984  15.528 -0.0436 -0.6767 -0.5802
  824MPD2    N112130   4.319   4.282  15.874  0.0252  0.2846  0.4216
  824MPD2    H712131   4.309   4.309  15.971  1.4570  1.5816  0.2043
  825MPD2     C12132   0.069   3.888  14.781 -0.0033  0.0294 -0.0532
  825MPD2    C112133   0.061   3.946  14.907 -0.4366  0.1035 -0.2076
  825MPD2    C212134   0.092   4.083  14.917 -0.0151 -0.4354 -0.1317
  825MPD2    C312135   0.141   4.152  14.802 -0.1944  0.1974  0.6298
  825MPD2    C412136   0.157   4.083  14.683 -0.2297  0.5535  0.6693
  825MPD2    C512137   0.115   3.956  14.673 -0.7452  0.2283 -0.2456
  825MPD2     H12138   0.071   4.136  15.009 -1.0416  2.0096 -1.7733
  825MPD2    H112139   0.191   4.134  14.594 -0.1619 -0.0740  0.3357
  825MPD2    H212140   0.026   3.789  14.769  0.2875 -0.1412  0.3026
  825MPD2    H312141   0.112   3.893  14.585  1.8085 -0.3147  0.0585
  825MPD2     N12142   0.158   4.290  14.784  0.5551 -0.7061  0.1231
  825MPD2    H512143   0.178   4.319  14.688  0.0160 -1.5299 -0.2387
  825MPD2    N112144   0.017   3.868  15.020  0.9036  0.1531 -0.2939
  825MPD2    H712145   0.015   3.769  15.000  2.9863 -0.0419  0.4776
  826MPD2     C12146   4.180   4.238  13.666  0.4513  0.4568 -0.3899
  826MPD2    C112147   4.101   4.252  13.556 -0.0961 -0.0648 -0.5789
  826MPD2    C212148   3.972   4.301  13.569  0.0813  0.7141 -0.2372
  826MPD2    C312149   3.925   4.346  13.692 -0.7316  0.4259 -0.0459
  826MPD2    C412150   4.004   4.338  13.802 -0.2258 -0.7865  0.2708
  826MPD2    C512151   4.130   4.287  13.785  0.3091  0.9185  0.6239
  826MPD2     H12152   3.895   4.300  13.493 -1.7750 -0.7785  1.6837
  826MPD2    H112153   3.973   4.362  13.904 -0.8628  3.3929 -0.8900
  826MPD2    H212154   4.279   4.194  13.663 -0.5261 -1.5505 -2.7206
  826MPD2    H312155   4.184   4.274  13.877  1.4833  0.6414 -0.1015
  826MPD2     N12156   3.793   4.386  13.722  0.1801  0.1656  0.1351
  826MPD2    H512157   3.767   4.402  13.818 -1.6700 -2.0325 -0.0120
  826MPD2    N112158   4.159   4.215  13.433  0.3523  0.2847 -0.7772
  826MPD2    H712159   4.245   4.160  13.438 -0.0734 -0.2117  1.1046
  827MPD2     C12160   4.711   0.755  10.166  0.1254 -0.9505  0.5981
  827MPD2    C112161   0.095   0.682  10.205  0.1565 -0.4266 -0.9741
  827MPD2    C212162   0.104   0.551  10.159 -0.5424  0.2610  0.7044
  827MPD2    C312163   4.723   0.493  10.084 -0.2189  0.6003  0.3743
  827MPD2    C412164   4.623   0.571  10.043  0.0849  0.1177 -0.5424
  827MPD2    C512165   4.619   0.698  10.084  0.3643  0.4257  0.6070
  827MPD2     H12166   0.184   0.484  10.187  0.3905  0.7719 -0.7368
  827MPD2    H112167   4.541   0.540   9.978 -1.6865 -1.8385  2.6242
  827MPD2    H212168   4.708   0.862  10.183 -2.4457 -1.1041  1.1173
  827MPD2    H312169   4.532   0.757  10.060  1.5079  1.6925 -0.3863
  827MPD2     N12170   4.715   0.352  10.060 -0.0844  0.2024  0.4788
  827MPD2    H512171   0.068   0.300  10.100 -0.8555  0.3831  2.1930
  827MPD2    N112172   0.190   0.746  10.283  0.6139  0.6576 -0.2357
  827MPD2    H712173   0.168   0.837  10.323 -1.2819 -0.3101  0.8658
  828MPD2     C12174   3.514   0.831  12.550 -0.1622  0.5861 -0.7135
  828MPD2    C112175   3.484   0.828  12.414 -0.3564  0.0445 -0.2833
  828MPD2    C212176   3.582   0.797  12.324 -0.4791 -0.4480 -0.0616
  828MPD2    C312177   3.714   0.790  12.368 -0.3420  0.6745  0.4859
  828MPD2    C412178   3.736   0.793  12.505 -0.6816 -0.1746  0.4452
  828MPD2    C512179   3.640   0.818  12.596  0.1440  0.7092  0.1909
  828MPD2     H12180   3.550   0.771  12.224  3.0364 -0.8675 -1.0897
  828MPD2    H112181   3.837   0.787  12.543 -1.2133  0.7025  1.9956
  828MPD2    H212182   3.438   0.849  12.625 -0.9828 -3.2004 -0.6504
  828MPD2    H312183   3.657   0.830  12.703  0.9941 -0.0647  0.1469
  828MPD2     N12184   3.828   0.764  12.289  0.1331 -0.3609 -0.7703
  828MPD2    H512185   3.921   0.765  12.328 -0.1910 -1.3774  0.0359
  828MPD2    N112186   3.351   0.847  12.364 -0.4073  0.5286  0.0731
  828MPD2    H712187   3.337   0.841  12.264 -2.5597  0.5079  0.3874
  829MPD2     C12188   3.303   1.064  11.551  0.3134 -0.0871 -0.4815
  829MPD2    C112189   3.193   1.127  11.599 -0.1693  0.0863 -0.2878
  829MPD2    C212190   3.156   1.098  11.730  0.0319 -0.4221 -0.7342
  829MPD2    C312191   3.227   1.008  11.810  0.5051  0.2983 -0.2542
  829MPD2    C412192   3.337   0.949  11.760  0.0274  0.1891 -0.7974
  829MPD2    C512193   3.380   0.988  11.634  0.3732 -0.2774  0.0786
  829MPD2     H12194   3.068   1.149  11.768 -0.3228 -0.4703 -1.4868
  829MPD2    H112195   3.409   0.888  11.814  1.4582  0.4692 -2.3922
  829MPD2    H212196   3.342   1.091  11.453 -1.4521  2.7040 -0.4316
  829MPD2    H312197   3.468   0.938  11.596 -0.5675 -0.9183 -1.2592
  829MPD2     N12198   3.187   0.976  11.939 -0.1566 -0.4087 -0.6295
  829MPD2    H512199   3.263   0.946  11.999  1.3090 -1.6915 -3.1132
  829MPD2    N112200   3.136   1.229  11.514 -0.1535  0.2634 -0.5479
  829MPD2    H712201   3.170   1.242  11.419 -2.2738  4.1381 -0.8079
  830MPD2     C12202   3.891   3.089  15.977  0.3932 -0.0475  0.3936
  830MPD2    C112203   3.786   3.153  15.916  0.6045 -0.4999 -0.4533
  830MPD2    C212204   3.802   3.188  15.784  0.3027 -0.5289 -0.8668
  830MPD2    C312205   3.917   3.163  15.709  0.0577  0.4861  0.3791
  830MPD2    C412206   4.025   3.113  15.773 -0.1969  0.6675  0.1925
  830MPD2    C512207   4.007   3.063  15.902  0.0351  0.2231 -1.1492
  830MPD2     H12208   3.718   3.236  15.734  1.3869  0.2994 -1.8792
  830MPD2    H112209   4.117   3.083  15.724 -1.4425 -0.5660 -1.3880
  830MPD2    H212210   3.894   3.073  16.084  2.0375 -1.6943  0.0996
  830MPD2    H312211   4.088   3.011  15.951 -0.0363 -0.3378 -1.6298
  830MPD2     N12212   3.941   3.212  15.578  0.3342 -0.6813 -0.2221
  830MPD2    H512213   4.039   3.209  15.550  0.5292  2.6258  0.1036
  830MPD2    N112214   3.669   3.191  15.991 -0.2877  0.3528  0.2607
  830MPD2    H712215   3.681   3.191  16.092 -2.6624  1.6345  0.5488
  831MPD2     C12216   3.762   0.625  16.440 -0.2761  0.2818 -0.0917
  831MPD2    C112217   3.809   0.531  16.341  0.0318  0.5433 -0.6331
  831MPD2    C212218   3.764   0.399  16.343  0.0232 -0.0888 -0.3688
  831MPD2    C312219   3.680   0.351  16.436 -0.3419 -0.3187 -0.1362
  831MPD2    C412220   3.648   0.438  16.539  0.1427  0.1836  0.0050
  831MPD2    C512221   3.687   0.567  16.544  0.4367 -0.0034 -0.1698
  831MPD2     H12222   3.797   0.331  16.265 -0.0228 -0.6692  0.1197
  831MPD2    H112223   3.579   0.401  16.613  0.4775  0.0929  0.2715
  831MPD2    H212224   3.799   0.726  16.440  1.8645 -0.5006  1.6293
  831MPD2    H312225   3.660   0.623  16.633 -0.2288  1.2374 -1.1526
  831MPD2     N12226   3.618   0.218  16.425 -0.1775  0.0001 -0.4112
  831MPD2    H512227   3.547   0.206  16.497 -0.8667  0.2590 -1.0511
  831MPD2    N112228   3.895   0.585  16.244 -0.0877  0.7828  0.7428
  831MPD2    H712229   3.915   0.684  16.247  0.6556  0.6520  0.2575
  832MPD2     C12230   2.384   1.647  17.527 -0.2465  0.0737  0.2818
  832MPD2    C112231   2.398   1.770  17.464 -0.6091 -0.1298  0.3368
  832MPD2    C212232   2.307   1.809  17.365  0.4366 -0.7938 -0.7625
  832MPD2    C312233   2.203   1.712  17.338 -0.2628 -0.3700  0.1850
  832MPD2    C412234   2.181   1.598  17.407 -0.1892  1.0768 -0.2288
  832MPD2    C512235   2.276   1.564  17.501  0.8206 -0.1971  0.1992
  832MPD2     H12236   2.333   1.888  17.295 -1.8168 -0.1961 -0.9221
  832MPD2    H112237   2.104   1.529  17.375  1.4253  0.4241 -2.7219
  832MPD2    H212238   2.465   1.616  17.593 -1.0426  1.1252  1.7493
  832MPD2    H312239   2.259   1.464  17.538  0.9218 -0.4606 -0.4646
  832MPD2     N12240   2.109   1.740  17.237  0.0508 -0.2877 -0.2366
  832MPD2    H512241   2.035   1.671  17.228 -0.3461 -0.0176  0.8830
  832MPD2    N112242   2.510   1.855  17.498 -0.2810  0.1355  0.1363
  832MPD2    H712243   2.577   1.835  17.572 -0.7725  2.5978  1.2533
  833MPD2     C12244   4.574   3.010  12.695  0.2426  0.6871 -0.2745
  833MPD2    C112245   4.541   3.060  12.575 -0.0685  0.2577 -0.3956
  833MPD2    C212246   4.610   3.017  12.463  0.7742  0.1258  0.1158
  833MPD2    C312247   4.705   2.915  12.465  0.2304 -0.2064  0.2817
  833MPD2    C412248   0.009   2.858  12.588  0.5217  0.2720 -0.3944
  833MPD2    C512249   4.663   2.903  12.700 -0.0771  0.0449 -0.0196
  833MPD2     H12250   4.589   3.051  12.363 -1.1617 -0.7054  0.2366
  833MPD2    H112251   0.080   2.776  12.599  0.9379  0.7796  0.6731
  833MPD2    H212252   4.539   3.048  12.790 -0.3008 -0.7135  0.0995
  833MPD2    H312253   4.687   2.869  12.800  1.5846 -1.0490 -0.7973
  833MPD2     N12254   0.051   2.865  12.354 -0.2433  0.1436  0.1917
  833MPD2    H512255   0.099   2.777  12.367 -1.4259 -0.3276  1.4153
  833MPD2    N112256   4.441   3.162  12.569 -0.0597 -0.2793  0.0370
  833MPD2    H712257   4.391   3.182  12.655  1.6808 -2.3663  1.5469
  834MPD2     C12258   4.195   2.438  11.832  0.5365 -0.6365 -0.1421
  834MPD2    C112259   4.223   2.564  11.794  0.3089  0.6949  0.6217
  834MPD2    C212260   4.358   2.599  11.806  0.5980  0.1682 -0.4890
  834MPD2    C312261   4.447   2.528  11.888 -0.3127 -0.6866 -0.3608
  834MPD2    C412262   4.405   2.406  11.936 -0.2670  0.0007 -0.2934
  834MPD2    C512263   4.280   2.360  11.915 -0.0150  0.6740  0.1998
  834MPD2     H12264   4.399   2.686  11.755  2.8906 -1.0603 -0.7653
  834MPD2    H112265   4.476   2.341  11.987 -0.1640  0.8963  0.6977
  834MPD2    H212266   4.091   2.411  11.815  0.3049  0.8449 -1.1128
  834MPD2    H312267   4.240   2.264  11.947 -0.5428  0.7850 -0.1359
  834MPD2     N12268   4.578   2.578  11.913 -0.1308  0.0912  1.1486
  834MPD2    H512269   4.606   2.663  11.865 -0.9556 -1.2070 -1.6534
  834MPD2    N112270   4.125   2.640  11.727 -0.3958 -0.5538 -0.1698
  834MPD2    H712271   4.029   2.616  11.748 -0.5447 -0.3923 -0.6737
  835MPD2     C12272   4.062   0.797  10.915 -0.2117  0.3851  0.2877
  835MPD2    C112273   3.959   0.874  10.951  0.0467  0.0025 -0.0270
  835MPD2    C212274   3.943   0.925  11.075  0.2219 -0.3295 -0.3539
  835MPD2    C312275   4.040   0.903  11.173  0.4919 -0.3823 -0.0419
  835MPD2    C412276   4.145   0.812  11.144  0.1063 -0.3702 -0.4596
  835MPD2    C512277   4.152   0.771  11.014  0.3765  0.7601  0.0712
  835MPD2     H12278   3.857   0.990  11.088  0.3629  0.2010 -2.1158
  835MPD2    H112279   4.219   0.787  11.219  1.2756  2.6368 -0.6246
  835MPD2    H212280   4.097   0.765  10.818 -2.3203 -4.0589  1.0278
  835MPD2    H312281   4.241   0.715  10.987  0.6603  0.9339  0.6246
  835MPD2     N12282   4.039   0.959  11.303 -0.1677 -0.4627  0.1053
  835MPD2    H512283   4.112   0.917  11.361  1.4172 -0.1179 -1.6468
  835MPD2    N112284   3.860   0.907  10.863 -0.2102  0.0875 -0.4211
  835MPD2    H712285   3.782   0.958  10.903 -1.6585 -0.9808 -1.9371
  836MPD2     C12286   3.481   1.356  11.663 -0.3365 -0.6277 -0.6947
  836MPD2    C112287   3.560   1.294  11.755 -0.2125  0.2789 -0.5469
  836MPD2    C212288   3.518   1.290  11.887  0.1648  0.3865 -0.8745
  836MPD2    C312289   3.396   1.339  11.929 -0.3341 -0.2155  0.1429
  836MPD2    C412290   3.317   1.395  11.828 -0.0414 -0.5911  0.0083
  836MPD2    C512291   3.358   1.408  11.696  0.1066  0.1136  0.8877
  836MPD2     H12292   3.591   1.266  11.964 -1.3374 -1.0390  0.1018
  836MPD2    H112293   3.218   1.431  11.854  0.3846  0.0765  0.7187
  836MPD2    H212294   3.525   1.359  11.564  0.9308  0.3721 -0.0931
  836MPD2    H312295   3.298   1.460  11.622 -0.3363 -1.2328  0.3038
  836MPD2     N12296   3.346   1.338  12.063  0.2254  0.2950  0.1756
  836MPD2    H512297   3.258   1.384  12.086  0.1371 -0.8043  2.0467
  836MPD2    N112298   3.672   1.230  11.708  0.3153 -0.4839 -0.2499
  836MPD2    H712299   3.683   1.227  11.607  0.1026 -2.3239 -0.2093
  837MPD2     C12300   2.287   0.262   9.808 -0.4589 -0.0549  0.2610
  837MPD2    C112301   2.160   0.270   9.761 -0.0041 -0.6792 -0.8475
  837MPD2    C212302   2.098   0.392   9.765 -0.2472  0.3262 -0.4643
  837MPD2    C312303   2.157   0.502   9.824  0.1933  0.0758 -0.2949
  837MPD2    C412304   2.281   0.489   9.883  0.1744  0.6716 -0.0857
  837MPD2    C512305   2.350   0.372   9.867  0.6399  0.2016 -0.5724
  837MPD2     H12306   2.002   0.401   9.714  0.8451  1.9126 -2.2619
  837MPD2    H112307   2.328   0.579   9.921 -0.7409  1.3044 -0.4400
  837MPD2    H212308   2.338   0.167   9.803  0.9077  0.5604  2.3945
  837MPD2    H312309   2.453   0.357   9.896  0.6052 -0.2388 -0.6756
  837MPD2     N12310   2.089   0.619   9.827 -0.3742  0.0526 -0.2739
  837MPD2    H512311   2.003   0.617   9.773  0.1403  0.4115 -1.1100
  837MPD2    N112312   2.104   0.175   9.673  1.0254  0.2859 -0.7948
  837MPD2    H712313   2.010   0.198   9.643  1.2840 -2.1950 -3.5080
  838MPD2     C12314   1.172   4.059  11.327 -0.1272 -0.5689  0.0483
  838MPD2    C112315   1.193   3.936  11.377  0.6884 -0.7261  0.3885
  838MPD2    C212316   1.139   3.908  11.504  0.3084  0.3353 -0.3688
  838MPD2    C312317   1.065   4.005  11.576  0.3352  0.2443  0.8315
  838MPD2    C412318   1.062   4.130  11.528  0.4841 -0.1567  0.3305
  838MPD2    C512319   1.112   4.153  11.405 -0.1436 -0.0871 -0.1433
  838MPD2     H12320   1.142   3.810  11.550  1.0496 -0.1176 -1.4075
  838MPD2    H112321   1.017   4.214  11.580 -1.0917  0.2810 -1.7149
  838MPD2    H212322   1.202   4.088  11.227 -0.2895 -0.1137  0.1334
  838MPD2    H312323   1.113   4.253  11.363  2.6289  0.3052  0.8920
  838MPD2     N12324   1.012   3.961  11.696  0.1100  0.1595  0.0032
  838MPD2    H512325   1.025   3.863  11.720  0.5581 -0.0217 -0.9452
  838MPD2    N112326   1.247   3.830  11.302 -0.0438  0.1673  0.6153
  838MPD2    H712327   1.248   3.743  11.354 -0.7999 -0.5125 -0.5252
  839MPD2     C12328   0.843   3.248  11.599  0.2234 -0.3083 -0.0563
  839MPD2    C112329   0.865   3.180  11.485  0.2333  0.9042 -0.2482
  839MPD2    C212330   0.948   3.231  11.384  0.1397  0.1746  0.1473
  839MPD2    C312331   1.014   3.354  11.404  0.3882 -0.0406  0.2281
  839MPD2    C412332   0.997   3.412  11.522 -0.0706  0.8467  0.3247
  839MPD2    C512333   0.916   3.361  11.619  0.8165 -0.1559  0.5596
  839MPD2     H12334   0.971   3.177  11.293 -0.7077 -1.3829  0.8595
  839MPD2    H112335   1.049   3.506  11.538  1.2179  0.3997 -1.2581
  839MPD2    H212336   0.785   3.211  11.683 -0.8118  1.5155  0.0415
  839MPD2    H312337   0.904   3.422  11.708  2.2919  0.2436  0.4809
  839MPD2     N12338   1.088   3.424  11.299  0.7902  0.4031 -0.2415
  839MPD2    H512339   1.137   3.505  11.337 -0.5609  0.5912  1.0937
  839MPD2    N112340   0.828   3.048  11.471 -0.2320 -0.3899 -0.7009
  839MPD2    H712341   0.878   2.993  11.402  0.0939 -2.9256  1.5616
  840MPD2     C12342   1.028   0.683  10.396  0.1508  0.0707  0.1334
  840MPD2    C112343   0.939   0.780  10.445  0.4734  0.5642 -0.3902
  840MPD2    C212344   0.993   0.905  10.476 -0.2561  0.0286  0.4467
  840MPD2    C312345   1.129   0.931  10.466 -0.1282  0.1050  0.0270
  840MPD2    C412346   1.212   0.824  10.431  0.1309 -0.3246 -0.2003
  840MPD2    C512347   1.164   0.708  10.386 -0.1570  0.2794  0.1892
  840MPD2     H12348   0.930   0.981  10.520 -0.1417  1.6714 -2.2834
  840MPD2    H112349   1.317   0.850  10.425  0.2185 -0.2546  1.8484
  840MPD2    H212350   0.991   0.589  10.357  1.8741 -0.1437 -0.9886
  840MPD2    H312351   1.228   0.630  10.346 -1.2209 -0.9726  0.9753
  840MPD2     N12352   1.196   1.050  10.506 -0.2104  0.3973  0.1476
  840MPD2    H512353   1.291   1.030  10.538  0.0512 -0.6728 -1.3344
  840MPD2    N112354   0.797   0.754  10.454  0.4946 -0.7333 -0.8276
  840MPD2    H712355   0.763   0.669  10.412 -0.1290 -2.0583  2.3844
  841MPD2     C12356   4.665   0.847  14.406  0.1349 -0.3579  0.3037
  841MPD2    C112357   0.047   0.827  14.317 -0.1071  0.3829  0.2655
  841MPD2    C212358   0.091   0.930  14.225 -0.0117  0.2455  0.2680
  841MPD2    C312359   0.026   1.053  14.234  0.2247  0.8879  0.1139
  841MPD2    C412360   4.656   1.078  14.328 -0.2845 -0.7337 -0.3281
  841MPD2    C512361   4.601   0.975  14.398 -0.1020  0.4066 -0.0452
  841MPD2     H12362   0.172   0.919  14.154 -0.1537 -2.5279  0.5338
  841MPD2    H112363   4.607   1.175  14.333  2.5683  0.7618 -1.2274
  841MPD2    H212364   4.626   0.768  14.469 -0.0454 -0.4053  0.1310
  841MPD2    H312365   4.522   1.007  14.465  1.0838 -0.1873  1.6449
  841MPD2     N12366   0.079   1.162  14.155 -0.5546  0.1330 -0.0165
  841MPD2    H512367   0.125   1.129  14.072  0.8543  1.1032  0.3799
  841MPD2    N112368   0.115   0.706  14.320 -0.0807  0.1390  0.5197
  841MPD2    H712369   0.171   0.684  14.238  0.5947 -1.4995  1.4260
  842MPD2     C12370   0.872   1.949  17.158 -0.3335  0.2733  1.1241
  842MPD2    C112371   0.997   1.976  17.109 -0.5200 -0.5616 -0.7165
  842MPD2    C212372   1.114   1.958  17.188  0.0991 -0.1311 -0.0148
  842MPD2    C312373   1.094   1.916  17.318 -0.0034 -0.1025  0.0938
  842MPD2    C412374   0.969   1.889  17.369  0.4208  0.4885  0.1438
  842MPD2    C512375   0.861   1.906  17.290  0.5406  0.0594  0.6535
  842MPD2     H12376   1.213   1.963  17.143 -0.5116 -0.1937 -1.3934
  842MPD2    H112377   0.960   1.848  17.469 -0.1961 -0.5382 -0.3357
  842MPD2    H212378   0.780   1.958  17.101  0.3924  1.1681  0.1242
  842MPD2    H312379   0.765   1.873  17.328 -0.1967  2.1321  0.6086
  842MPD2     N12380   1.190   1.894  17.415 -0.1345 -0.5423  0.1359
  842MPD2    H512381   1.155   1.854  17.502  3.2828  2.9097  3.0950
  842MPD2    N112382   1.007   2.001  16.970 -0.1615 -0.1772 -0.1986
  842MPD2    H712383   0.920   1.993  16.918 -2.1476  0.4779  3.0842
  843MPD2     C12384   3.197   1.815   0.025 -0.2757 -0.0496 -1.2009
  843MPD2    C112385   3.169   1.905   0.119 -0.1840  0.6617  0.0508
  843MPD2    C212386   3.271   1.989   0.168  1.0229 -0.4992 -0.6510
  843MPD2    C312387   3.400   1.982   0.122  0.0703  0.2938  0.5526
  843MPD2    C412388   3.429   1.885   0.037 -0.7153  0.0611  0.3184
  843MPD2    C512389   3.329   1.800  17.688  0.4158 -0.5391 -0.4538
  843MPD2     H12390   3.240   2.054   0.249 -0.2180 -0.9751 -0.7283
  843MPD2    H112391   3.532   1.867   0.008 -0.3581  1.2414  0.8709
  843MPD2    H212392   3.116   1.755  17.681 -1.0884  0.8944 -0.9804
  843MPD2    H312393   3.354   1.726  17.613  0.4662 -1.0603  0.0732
  843MPD2     N12394   3.502   2.066   0.159 -0.6139 -0.2292  0.2464
  843MPD2    H512395   3.593   2.023   0.147  0.3018  2.0795 -1.1455
  843MPD2    N112396   3.030   1.909   0.154  0.3292  0.2646 -0.5766
  843MPD2    H712397   2.977   1.832   0.115  1.1610  0.0236 -1.2232
  844MPD2     C12398   1.750   1.482  16.558 -0.0107 -0.0963  0.5770
  844MPD2    C112399   1.826   1.367  16.570 -0.1727 -0.1509  0.8335
  844MPD2    C212400   1.920   1.361  16.670 -0.2847 -0.3984  0.3042
  844MPD2    C312401   1.948   1.463  16.757 -0.5152 -0.3700 -0.1095
  844MPD2    C412402   1.878   1.587  16.741 -0.9112 -0.3082  0.2015
  844MPD2    C512403   1.777   1.586  16.651 -0.4741  0.2122  0.5243
  844MPD2     H12404   1.974   1.268  16.684 -1.3467 -0.9750  0.5762
  844MPD2    H112405   1.903   1.668  16.808  1.8549 -0.7726 -0.2422
  844MPD2    H212406   1.675   1.494  16.480  1.1608  0.1432 -0.5174
  844MPD2    H312407   1.725   1.681  16.639  0.0875  0.3622 -0.7071
  844MPD2     N12408   2.050   1.443  16.852  0.1771 -0.1015  0.1540
  844MPD2    H512409   2.075   1.348  16.876  1.4011  0.6938  2.0676
  844MPD2    N112410   1.817   1.257  16.483 -0.3002 -0.1307  0.5033
  844MPD2    H712411   1.885   1.182  16.480  1.8380  1.8371 -0.2320
  845MPD2     C12412   2.754   2.094  17.097  0.3864 -0.2152  0.5557
  845MPD2    C112413   2.615   2.102  17.085  0.3209 -0.5202  0.2544
  845MPD2    C212414   2.538   1.986  17.069  0.4201 -0.0262 -0.1394
  845MPD2    C312415   2.606   1.864  17.071  0.7760 -0.3612  0.2391
  845MPD2    C412416   2.745   1.859  17.077  0.2663  0.2036 -0.3789
  845MPD2    C512417   2.818   1.973  17.085  0.3709 -0.8589  0.7530
  845MPD2     H12418   2.430   1.989  17.070  0.3333 -2.5366 -2.2141
  845MPD2    H112419   2.794   1.764  17.058  0.6744  0.3596 -0.0824
  845MPD2    H212420   2.813   2.185  17.099  1.0514 -0.5747 -2.5554
  845MPD2    H312421   2.926   1.958  17.082  0.4205 -0.5467  1.0048
  845MPD2     N12422   2.521   1.747  17.080  0.0644 -0.2696  0.1820
  845MPD2    H512423   2.421   1.763  17.071  0.0765  2.0798  4.1068
  845MPD2    N112424   2.554   2.232  17.116  0.0477 -0.0274  0.0626
  845MPD2    H712425   2.612   2.306  17.153  0.7175 -1.2110  1.3901
  846MPD2     C12426   3.542   2.328  13.600 -0.1392 -0.2122  0.0975
  846MPD2    C112427   3.506   2.453  13.657 -0.0326 -0.0977 -0.0037
  846MPD2    C212428   3.497   2.457  13.794 -0.3055  0.1694 -0.6150
  846MPD2    C312429   3.528   2.355  13.879 -0.2530  0.3277  0.4085
  846MPD2    C412430   3.555   2.236  13.822 -0.8012  1.0720  0.9767
  846MPD2    C512431   3.569   2.227  13.687  0.0459  0.3429  0.1495
  846MPD2     H12432   3.469   2.558  13.821 -0.6236  0.8667 -3.6069
  846MPD2    H112433   3.576   2.143  13.875  0.8081  0.7881 -0.1561
  846MPD2    H212434   3.555   2.314  13.493  0.1659  0.3115  0.0677
  846MPD2    H312435   3.602   2.134  13.643 -0.1021  1.1494 -1.6820
  846MPD2     N12436   3.517   2.371  14.020 -0.4336  0.3863 -0.3157
  846MPD2    H512437   3.466   2.453  14.054 -2.1465  0.6521 -3.5836
  846MPD2    N112438   3.485   2.573  13.585 -0.9604 -0.3436  0.1097
  846MPD2    H712439   3.454   2.656  13.634 -1.7511 -1.2311  1.1288
  847MPD2     C12440   3.360   3.310  14.392 -0.2954 -0.0310  0.3959
  847MPD2    C112441   3.468   3.389  14.410 -0.3439 -0.4547 -0.2478
  847MPD2    C212442   3.596   3.337  14.424 -0.1835 -0.2985  0.2248
  847MPD2    C312443   3.619   3.202  14.428 -0.1449  0.6316 -0.1794
  847MPD2    C412444   3.504   3.119  14.422 -0.3161 -0.9039 -0.3214
  847MPD2    C512445   3.385   3.174  14.403 -0.9290 -0.6973  0.9414
  847MPD2     H12446   3.687   3.394  14.436 -0.6514  0.6634 -0.8048
  847MPD2    H112447   3.513   3.011  14.429  0.2554 -0.7758  0.9135
  847MPD2    H212448   3.257   3.342  14.376  0.4127  0.2047 -3.7204
  847MPD2    H312449   3.308   3.102  14.379  1.6115 -2.6893 -1.0858
  847MPD2     N12450   3.751   3.159  14.465 -0.2157  0.0293  0.3122
  847MPD2    H512451   3.810   3.239  14.487 -2.7096  2.0095 -0.1057
  847MPD2    N112452   3.462   3.529  14.406  0.2503 -0.5053 -0.4178
  847MPD2    H712453   3.550   3.575  14.424  0.5808 -0.2308 -2.7319
  848MPD2     C12454   1.887   2.139  16.509  0.2500  1.1753  0.1362
  848MPD2    C112455   1.857   2.204  16.630  0.1081 -0.9595 -0.3006
  848MPD2    C212456   1.816   2.336  16.640 -0.0376  0.0794 -0.6628
  848MPD2    C312457   1.803   2.412  16.523  0.8766 -0.3789 -0.1540
  848MPD2    C412458   1.825   2.352  16.406  0.3289 -0.0131 -1.1648
  848MPD2    C512459   1.872   2.220  16.401 -0.7963  0.0857  0.3096
  848MPD2     H12460   1.784   2.372  16.738  1.3638  1.9750 -0.9156
  848MPD2    H112461   1.830   2.402  16.310  1.7502  0.1587 -0.9949
  848MPD2    H212462   1.915   2.035  16.501 -3.5856  0.3065 -2.2081
  848MPD2    H312463   1.905   2.181  16.305  0.0564 -0.2867  0.7490
  848MPD2     N12464   1.744   2.538  16.522 -0.1183 -0.0027 -0.0402
  848MPD2    H512465   1.745   2.580  16.614 -0.5733 -5.0727  2.2771
  848MPD2    N112466   1.860   2.138  16.755  0.3484  0.5552  0.5821
  848MPD2    H712467   1.838   2.200  16.832  1.4790 -0.5447  1.8047
  849MPD2     C12468   0.508   1.505  13.624 -0.2422  0.2819 -0.0675
  849MPD2    C112469   0.559   1.569  13.737 -0.5191 -0.1356  0.1768
  849MPD2    C212470   0.631   1.501  13.832 -0.0825  0.3234 -0.4508
  849MPD2    C312471   0.660   1.370  13.809 -0.1809 -0.6562  0.3131
  849MPD2    C412472   0.615   1.311  13.689  0.0315  0.2757 -0.7053
  849MPD2    C512473   0.537   1.372  13.604  0.2104  0.3320 -0.2703
  849MPD2     H12474   0.665   1.556  13.919 -0.5542  2.2012 -1.4417
  849MPD2    H112475   0.634   1.205  13.673  3.8670  0.8266  0.1820
  849MPD2    H212476   0.452   1.563  13.551 -0.1894 -0.9555 -1.0888
  849MPD2    H312477   0.506   1.321  13.514  2.1506 -0.7149 -0.3601
  849MPD2     N12478   0.739   1.306  13.908  0.2653 -0.0986 -0.3084
  849MPD2    H512479   0.772   1.215  13.877  0.9096 -0.4380  1.3465
  849MPD2    N112480   0.533   1.709  13.749 -0.6890 -0.4849  0.5975
  849MPD2    H712481   0.508   1.752  13.660  2.3165 -1.4802 -0.7305
  850MPD2     C12482   3.739   4.258  14.664 -0.0280  0.4666 -0.3762
  850MPD2    C112483   3.718   4.345  14.765  0.3607 -0.0949  0.3473
  850MPD2    C212484   3.825   4.362  14.855 -0.2057 -0.3125 -0.0593
  850MPD2    C312485   3.938   4.281  14.855  0.0361 -0.0020  0.4623
  850MPD2    C412486   3.947   4.188  14.759 -0.4124 -0.1245  0.0854
  850MPD2    C512487   3.849   4.181  14.664  0.4812 -0.0395  0.0795
  850MPD2     H12488   3.812   4.448  14.920  0.0685 -2.0749  2.3098
  850MPD2    H112489   4.035   4.126  14.759  1.4877  2.5654 -1.5919
  850MPD2    H212490   3.666   4.254  14.584 -1.0510  2.2776  0.4639
  850MPD2    H312491   3.855   4.105  14.587 -0.5015 -0.8496  0.8009
  850MPD2     N12492   4.043   4.304  14.945 -0.1706 -0.1484  0.1404
  850MPD2    H512493   4.118   4.236  14.929  0.8780  0.6348  1.7018
  850MPD2    N112494   3.582   4.388  14.775  0.5525 -0.7349  0.1690
  850MPD2    H712495   3.533   4.379  14.687 -1.2451 -2.5093  1.3694
  851MPD2     C12496   4.063   4.157  15.437  0.0809  0.6493  0.1343
  851MPD2    C112497   3.956   4.111  15.355  0.4173 -0.0946  0.4062
  851MPD2    C212498   3.946   3.980  15.330  0.0402 -0.2367 -0.0954
  851MPD2    C312499   4.045   3.886  15.365  0.2637 -0.0932  0.4243
  851MPD2    C412500   4.149   3.932  15.438  0.1885 -0.5477  0.0389
  851MPD2    C512501   4.160   4.069  15.475  0.4237  0.1947  0.5305
  851MPD2     H12502   3.870   3.934  15.268  0.8176 -0.4215 -0.9088
  851MPD2    H112503   4.226   3.865  15.474  0.9111 -0.5351 -1.4712
  851MPD2    H212504   4.067   4.260  15.470  2.0870  0.5631  0.1152
  851MPD2    H312505   4.242   4.108  15.533 -0.6634  0.6136  1.7954
  851MPD2     N12506   4.033   3.754  15.316  0.1423 -0.6895 -0.2123
  851MPD2    H512507   3.956   3.744  15.250  0.8233  0.8702 -1.2454
  851MPD2    N112508   3.867   4.206  15.309  0.6382 -0.1806  0.1432
  851MPD2    H712509   3.890   4.303  15.325 -2.1013  0.6466 -0.8702
  852MPD2     C12510   2.965   1.453   9.608 -0.5561 -0.2240  0.3864
  852MPD2    C112511   3.059   1.508   9.697  0.5281 -0.2921 -0.9197
  852MPD2    C212512   3.144   1.605   9.662 -1.2162 -0.1291  0.3520
  852MPD2    C312513   3.143   1.659   9.530  0.1280  0.2307 -0.5158
  852MPD2    C412514   3.049   1.600   9.438  0.3737 -0.1776  0.6872
  852MPD2    C512515   2.960   1.499   9.482 -1.1127  0.0820  0.1017
  852MPD2     H12516   3.223   1.646   9.725 -0.3835  2.6555 -2.4465
  852MPD2    H112517   3.040   1.627   9.333 -1.7684  1.0210  1.1688
  852MPD2    H212518   2.894   1.377   9.638  1.6406 -1.0228  3.5845
  852MPD2    H312519   2.879   1.458   9.424 -0.2675 -0.6059 -0.5945
  852MPD2     N12520   3.230   1.764   9.499 -0.4120 -0.1837 -0.6158
  852MPD2    H512521   3.296   1.796   9.569 -1.4185  0.6418 -0.0388
  852MPD2    N112522   3.053   1.485   9.838 -0.3805  0.1035 -0.2868
  852MPD2    H712523   3.108   1.535   9.906 -1.1200  2.3306 -1.3148
  853MPD2     C12524   0.425   1.881  12.239 -0.6996 -0.3925 -0.3378
  853MPD2    C112525   0.318   1.947  12.175  0.0546 -0.0346  0.2081
  853MPD2    C212526   0.333   1.993  12.046 -0.2459  0.4652  0.0199
  853MPD2    C312527   0.452   1.989  11.986  0.3621  0.1083  0.2087
  853MPD2    C412528   0.558   1.922  12.044  0.1206  0.3781 -0.1183
  853MPD2    C512529   0.542   1.867  12.169 -0.2867 -0.1400  0.3605
  853MPD2     H12530   0.247   2.040  12.000 -0.8861 -0.5061  0.2248
  853MPD2    H112531   0.659   1.909  12.009 -0.2580 -1.6693 -0.4353
  853MPD2    H212532   0.414   1.842  12.339 -3.9170 -0.4195 -0.6853
  853MPD2    H312533   0.624   1.815  12.216 -0.7658  0.1842  1.5368
  853MPD2     N12534   0.467   2.037  11.855 -0.0501 -0.3137  0.3981
  853MPD2    H512535   0.553   2.012  11.808  0.3658  2.2180 -0.1988
  853MPD2    N112536   0.200   1.956  12.253 -0.2391  0.9477  0.4958
  853MPD2    H712537   0.200   1.897  12.335  0.0180 -0.2624 -0.3720
  854MPD2     C12538   1.995   2.277  13.017 -0.5885  0.8358 -0.3617
  854MPD2    C112539   2.016   2.239  12.887 -0.3335  0.1667  0.1029
  854MPD2    C212540   2.115   2.142  12.866  0.2967 -0.0900 -0.2194
  854MPD2    C312541   2.188   2.096  12.970  0.4368  0.2073  0.4183
  854MPD2    C412542   2.159   2.128  13.098  0.0451  0.6267  0.0695
  854MPD2    C512543   2.059   2.220  13.126 -0.1854  0.2133  1.1348
  854MPD2     H12544   2.127   2.099  12.767 -3.5566 -0.8637 -0.3492
  854MPD2    H112545   2.214   2.097  13.186 -2.2215 -0.0031  1.2563
  854MPD2    H212546   1.926   2.356  13.042 -0.5868  2.0053 -4.1999
  854MPD2    H312547   2.039   2.252  13.227 -0.4288 -0.2213  1.2247
  854MPD2     N12548   2.299   2.006  12.948 -0.6500 -0.3272 -0.2030
  854MPD2    H512549   2.348   1.979  13.032  2.2165  0.8176 -1.5304
  854MPD2    N112550   1.932   2.297  12.787  0.1450  0.1676 -0.5767
  854MPD2    H712551   1.856   2.360  12.811  0.1334 -0.3996  0.8897
  855MPD2     C12552   3.127   1.654  13.379 -0.9983 -0.0103 -0.2113
  855MPD2    C112553   2.997   1.605  13.390 -0.5417  0.3363  0.0930
  855MPD2    C212554   2.905   1.631  13.288  0.5628 -0.0166 -0.4750
  855MPD2    C312555   2.941   1.708  13.182  0.7108 -0.1989  0.0492
  855MPD2    C412556   3.074   1.739  13.162 -0.2608  0.1336  0.6184
  855MPD2    C512557   3.162   1.723  13.265  0.2241  0.1219  0.0523
  855MPD2     H12558   2.806   1.590  13.299  0.5302  0.6231  1.6731
  855MPD2    H112559   3.105   1.789  13.071 -1.2955 -0.2699  0.0388
  855MPD2    H212560   3.199   1.641  13.459 -0.2437  0.2895 -0.8389
  855MPD2    H312561   3.264   1.758  13.261  0.3571 -0.3547 -0.7158
  855MPD2     N12562   2.849   1.758  13.087  0.3968 -0.0493  0.0711
  855MPD2    H512563   2.890   1.791  13.000 -0.8628  0.4415 -0.3335
  855MPD2    N112564   2.952   1.521  13.498 -0.2224  0.5098 -0.1641
  855MPD2    H712565   2.858   1.486  13.481  1.0797 -0.9285 -4.4856
  856MPD2     C12566   4.254   2.723  14.103  0.2082  0.7150  0.0490
  856MPD2    C112567   4.364   2.806  14.120  0.8472 -0.3501  0.3898
  856MPD2    C212568   4.370   2.935  14.070 -0.1947  1.1101 -0.4973
  856MPD2    C312569   4.261   2.985  14.000  0.4571  0.7018  0.2319
  856MPD2    C412570   4.162   2.900  13.969 -1.0898  0.4188 -0.0619
  856MPD2    C512571   4.157   2.781  14.028 -0.1828  0.6085 -0.1566
  856MPD2     H12572   4.456   2.998  14.089 -0.0938  1.0339 -0.7084
  856MPD2    H112573   4.076   2.932  13.911 -0.3989  0.8942 -0.8204
  856MPD2    H212574   4.223   2.647  14.174  1.1009  0.9123  0.6470
  856MPD2    H312575   4.071   2.717  14.013  0.2341 -0.2547  1.1234
  856MPD2     N12576   4.251   3.121  13.969  0.7704 -0.1196 -0.0773
  856MPD2    H512577   4.165   3.145  13.921  0.7503 -1.6318 -0.8075
  856MPD2    N112578   4.472   2.778  14.211  0.2224  0.5309 -0.1220
  856MPD2    H712579   4.541   2.851  14.224  2.0243 -1.4263  1.3886
  857MPD2     C12580   1.229   4.630  13.293  1.0407 -0.1342  0.1789
  857MPD2    C112581   1.308   4.703  13.210  0.9673 -0.4949 -0.5058
  857MPD2    C212582   1.347   0.103  13.253 -0.2920  0.7886 -0.0470
  857MPD2    C312583   1.310   0.155  13.378 -0.4209 -0.2286  0.0581
  857MPD2    C412584   1.226   0.083  13.461  0.6416  1.1391 -0.6660
  857MPD2    C512585   1.193   4.676  13.421  0.0790  0.0134 -0.3082
  857MPD2     H12586   1.418   0.160  13.194 -1.6013  0.0643 -2.2729
  857MPD2    H112587   1.192   0.115  13.559 -0.3264  2.8913 -1.5830
  857MPD2    H212588   1.200   4.534  13.252 -2.3067  1.8690 -2.1627
  857MPD2    H312589   1.138   4.616  13.492 -1.5497 -2.2619 -3.5350
  857MPD2     N12590   1.360   0.280  13.419 -0.1465 -0.1862  0.0466
  857MPD2    H512591   1.418   0.336  13.359 -1.6504 -1.7622 -2.8592
  857MPD2    N112592   1.343   4.646  13.084  0.5768  0.7055  0.0852
  857MPD2    H712593   1.297   4.562  13.053 -0.2977  1.4588 -0.6595
  858MPD2     C12594   1.978   4.139  16.563  0.4658 -0.9174 -0.0560
  858MPD2    C112595   2.119   4.140  16.569 -0.6946  0.3692  0.4298
  858MPD2    C212596   2.182   4.194  16.676 -0.1767  0.4029 -0.5451
  858MPD2    C312597   2.113   4.259  16.774  0.0522 -0.3083  0.1858
  858MPD2    C412598   1.974   4.260  16.773  0.4925 -0.2549  0.0942
  858MPD2    C512599   1.910   4.202  16.662 -0.2839  0.5472  0.3267
  858MPD2     H12600   2.287   4.178  16.695 -0.1014 -0.1365 -1.4754
  858MPD2    H112601   1.912   4.312  16.845  1.4288 -0.4328  1.0179
  858MPD2    H212602   1.921   4.090  16.485 -0.9188 -0.3973  0.6486
  858MPD2    H312603   1.803   4.193  16.674  0.0769  0.2577  3.3823
  858MPD2     N12604   2.178   4.320  16.881 -0.3849 -0.3672 -0.2848
  858MPD2    H512605   2.119   4.385  16.932 -1.2550 -0.5565 -1.0352
  858MPD2    N112606   2.195   4.067  16.469 -0.4028  0.2203 -0.6962
  858MPD2    H712607   2.140   3.995  16.424 -1.1982 -0.3839  1.2015
  859MPD2     C12608   0.528   1.384  15.220  0.3908  0.0015  0.6451
  859MPD2    C112609   0.544   1.383  15.085  0.0145 -0.3042 -0.4176
  859MPD2    C212610   0.507   1.273  15.008  0.4600  0.4735  0.5649
  859MPD2    C312611   0.449   1.165  15.068 -0.7459 -0.2363 -0.4314
  859MPD2    C412612   0.426   1.170  15.204  0.3414 -0.0571 -0.2209
  859MPD2    C512613   0.471   1.278  15.274 -0.4021  0.5414 -0.7638
  859MPD2     H12614   0.514   1.276  14.900  2.9053 -0.3084  0.7151
  859MPD2    H112615   0.391   1.080  15.252 -0.2142 -0.0497 -0.6094
  859MPD2    H212616   0.546   1.468  15.286  0.2447  1.4896 -1.1912
  859MPD2    H312617   0.453   1.276  15.381  0.3910 -0.6052 -0.6550
  859MPD2     N12618   0.409   1.051  14.994  0.0828  0.4033 -0.9290
  859MPD2    H512619   0.380   0.968  15.044 -0.3932 -0.0140 -1.8888
  859MPD2    N112620   0.609   1.488  15.015  0.2752  0.5921 -0.3097
  859MPD2    H712621   0.619   1.481  14.914  1.8543 -2.1139  0.0329
  860MPD2     C12622   3.220   1.762  11.393  0.1468 -0.7173  0.2393
  860MPD2    C112623   3.213   1.769  11.532 -0.0349 -0.0138 -0.8960
  860MPD2    C212624   3.089   1.788  11.592 -0.0775  0.1959  0.3995
  860MPD2    C312625   2.982   1.808  11.517 -0.1872  0.2071  1.1117
  860MPD2    C412626   2.987   1.808  11.381  0.4866  0.5930  0.2035
  860MPD2    C512627   3.104   1.783  11.319  0.2889 -0.1294  0.0806
  860MPD2     H12628   3.091   1.799  11.699  0.4103  0.4120  0.3678
  860MPD2    H112629   2.898   1.822  11.321  1.5114  0.5790 -1.3346
  860MPD2    H212630   3.314   1.759  11.339  0.5504 -1.8082  1.0039
  860MPD2    H312631   3.115   1.793  11.212  0.6044 -0.3260  0.0964
  860MPD2     N12632   2.871   1.862  11.583  0.0832 -0.3941  0.1225
  860MPD2    H512633   2.860   1.854  11.684 -0.8567  0.0588  0.0607
  860MPD2    N112634   3.322   1.754  11.615  0.1650 -0.0110  0.6262
  860MPD2    H712635   3.305   1.777  11.713 -1.2096 -0.0645  0.4106
  861MPD2     C12636   1.921   4.667  11.026  0.1018  0.4709 -0.2842
  861MPD2    C112637   1.862   0.065  11.056 -0.5397  0.3335  0.3219
  861MPD2    C212638   1.744   0.100  10.992  0.5001  1.0703 -0.6131
  861MPD2    C312639   1.695   0.020  10.890 -0.1118 -0.8944 -0.0862
  861MPD2    C412640   1.750   4.613  10.868 -0.1837  0.1192 -0.3117
  861MPD2    C512641   1.866   4.577  10.939  0.1482 -0.1076 -0.1310
  861MPD2     H12642   1.689   0.186  11.027 -0.7926  0.0772 -0.2235
  861MPD2    H112643   1.708   4.540  10.800  2.1697  0.0144 -1.6594
  861MPD2    H212644   2.010   4.637  11.080 -1.7060 -0.5523  2.1190
  861MPD2    H312645   1.921   4.485  10.927  0.2890  0.0021 -0.3342
  861MPD2     N12646   1.574   0.052  10.817 -0.5074 -0.1516 -0.2557
  861MPD2    H512647   1.552   4.712  10.741 -1.1604  1.9499 -1.8322
  861MPD2    N112648   1.911   0.137  11.166  0.3277 -0.6323  0.2158
  861MPD2    H712649   1.846   0.213  11.186 -0.8602 -1.4925 -0.4052
  862MPD2     C12650   1.439   4.720  10.116 -0.1266 -0.4143  0.0750
  862MPD2    C112651   1.482   4.683  10.243  0.8985  0.1549 -0.3623
  862MPD2    C212652   1.533   4.561  10.263 -0.7631  0.3932 -0.5456
  862MPD2    C312653   1.510   4.451  10.172 -0.2154 -0.0077 -0.4528
  862MPD2    C412654   1.458   4.488  10.044  0.0873 -0.3144 -0.0329
  862MPD2    C512655   1.415   4.616  10.023  0.2947  0.4445  0.1719
  862MPD2     H12656   1.594   4.557  10.353 -1.1558  2.0568 -0.2122
  862MPD2    H112657   1.424   4.418   9.968 -0.3203  1.6188 -1.6429
  862MPD2    H212658   1.400   0.096  10.100  1.2521  0.3066  1.2032
  862MPD2    H312659   1.367   4.645   9.930 -2.3691 -1.5208  0.9360
  862MPD2     N12660   1.543   4.320  10.204 -0.0462  0.7721 -0.3276
  862MPD2    H512661   1.520   4.244  10.140  0.7730 -0.8938  1.3727
  862MPD2    N112662   1.472   0.046  10.351  0.6523 -0.1164  0.0033
  862MPD2    H712663   1.495   0.004  10.441  1.9299  0.2355 -0.1534
  863MPD2     C12664   0.750   3.248  16.490 -0.1991  0.0490 -0.4268
  863MPD2    C112665   0.686   3.235  16.608 -1.1157 -0.3360  0.7594
  863MPD2    C212666   0.758   3.236  16.720  0.2613  0.3222  0.1234
  863MPD2    C312667   0.896   3.234  16.725 -0.2783 -0.0433  1.0452
  863MPD2    C412668   0.959   3.252  16.602 -0.1714  0.0999  0.2720
  863MPD2    C512669   0.884   3.263  16.494 -0.0153  0.4929 -0.2220
  863MPD2     H12670   0.710   3.241  16.817  1.3552  0.3038  0.6713
  863MPD2    H112671   1.065   3.273  16.590  0.0384 -1.4453 -0.5118
  863MPD2    H212672   0.701   3.256  16.393  0.8854 -0.6324 -1.0305
  863MPD2    H312673   0.939   3.273  16.401  0.7135  0.2042  0.1830
  863MPD2     N12674   0.967   3.207  16.841  0.0340  0.1064  0.0667
  863MPD2    H512675   1.067   3.219  16.828 -0.4610  3.4094 -0.7120
  863MPD2    N112676   0.545   3.224  16.595 -0.4574 -0.0166  0.0368
  863MPD2    H712677   0.512   3.235  16.499 -1.1843 -1.8785  0.0856
  864MPD2     C12678   1.323   4.225  17.485 -0.1228 -0.0402  0.0421
  864MPD2    C112679   1.285   4.206  17.355 -0.7104  0.5089  0.1486
  864MPD2    C212680   1.279   4.318  17.270  0.5262 -0.0396  0.0031
  864MPD2    C312681   1.334   4.441  17.310 -0.2467  0.0853 -0.5574
  864MPD2    C412682   1.374   4.453  17.442  0.7102  0.7228  0.8531
  864MPD2    C512683   1.373   4.347  17.521 -0.5589 -0.5353  0.3582
  864MPD2     H12684   1.233   4.298  17.174 -0.2535  0.9452  0.1694
  864MPD2    H112685   1.417   4.542  17.488  0.3855  0.7083  1.1875
  864MPD2    H212686   1.305   4.153  17.564 -2.1809  0.7829  0.3419
  864MPD2    H312687   1.406   4.358  17.624  1.0474 -0.8414 -0.1206
  864MPD2     N12688   1.344   4.550  17.226  0.0134 -0.1804 -0.0272
  864MPD2    H512689   1.403   4.631  17.245 -2.0020  1.1162  0.6937
  864MPD2    N112690   1.238   4.075  17.312  0.4067 -0.0549 -0.0071
  864MPD2    H712691   1.241   4.006  17.387  1.9384  0.8071  0.7301
  865MPD2     C12692   1.397   4.678  16.170  0.1916  0.2557 -0.2690
  865MPD2    C112693   1.337   4.585  16.253 -0.0810  0.1022  0.1866
  865MPD2    C212694   1.305   4.612  16.383  0.0830  0.0778  0.0880
  865MPD2    C312695   1.315   0.017  16.433  0.0405 -0.6650 -0.3053
  865MPD2    C412696   1.359   0.112  16.343 -0.8303 -0.9032 -0.2043
  865MPD2    C512697   1.402   0.083  16.216 -0.9218 -0.0573 -0.1470
  865MPD2     H12698   1.288   4.535  16.457 -0.4904  0.3049  0.1954
  865MPD2    H112699   1.383   0.212  16.378  1.5688 -1.5244 -0.0137
  865MPD2    H212700   1.420   4.654  16.067  2.5888 -1.1898  0.5998
  865MPD2    H312701   1.457   0.149  16.149 -0.1093 -1.8646 -1.2704
  865MPD2     N12702   1.291   0.057  16.570 -0.0033  0.3203 -0.2053
  865MPD2    H512703   1.310   0.153  16.596 -1.1875  0.1584  1.2438
  865MPD2    N112704   1.331   4.453  16.194 -0.0163 -0.2100 -0.0123
  865MPD2    H712705   1.373   4.437  16.103  0.4214 -0.4474  0.2302
  866MPD2     C12706   2.578   0.189  11.238 -0.2024 -0.1129 -0.1280
  866MPD2    C112707   2.560   0.131  11.120  0.8295  0.6101  0.2513
  866MPD2    C212708   2.450   0.160  11.043  0.4903 -0.0215  0.2625
  866MPD2    C312709   2.365   0.257  11.084  0.5363  0.1819  0.0406
  866MPD2    C412710   2.403   0.330  11.195 -0.3529 -0.8164 -0.4478
  866MPD2    C512711   2.511   0.296  11.270 -0.1304 -0.3577  0.1185
  866MPD2     H12712   2.428   0.096  10.958 -1.7636  0.9702  0.0860
  866MPD2    H112713   2.343   0.413  11.231 -0.4673  0.0344 -2.6126
  866MPD2    H212714   2.673   0.176  11.288  0.7241  0.8974 -1.6142
  866MPD2    H312715   2.555   0.351  11.352  0.8896  0.5646 -1.0428
  866MPD2     N12716   2.250   0.300  11.014 -0.3332  0.6033 -0.3230
  866MPD2    H512717   2.216   0.394  11.031  0.3794  0.7255  0.3725
  866MPD2    N112718   2.646   0.024  11.076 -0.2451 -0.0454  0.1167
  866MPD2    H712719   2.705   4.717  11.153  0.2396  0.7564  0.0620
  867MPD2     C12720   0.044   4.356  16.364  0.2668  1.0370  0.5302
  867MPD2    C112721   0.147   4.335  16.459 -0.2516  0.4915  0.2840
  867MPD2    C212722   0.210   4.454  16.506  0.3761  0.0875  0.1847
  867MPD2    C312723   0.169   4.578  16.468  0.5537  0.8650  0.0576
  867MPD2    C412724   0.076   4.586  16.372  0.5996 -0.1006  0.8128
  867MPD2    C512725   0.019   4.480  16.318 -0.4890 -0.3445  0.3051
  867MPD2     H12726   0.289   4.447  16.579 -0.4861 -1.8043  0.9492
  867MPD2    H112727   0.043   4.686  16.345 -1.2519 -0.5506  1.4365
  867MPD2    H212728   4.719   4.267  16.327 -0.1246  0.4490  2.4543
  867MPD2    H312729   4.677   4.493  16.233  0.1755  1.2727  0.0334
  867MPD2     N12730   0.234   4.701  16.499 -0.0799  0.3707 -0.3294
  867MPD2    H512731   0.204   0.065  16.458  0.1768  0.8996  0.6305
  867MPD2    N112732   0.191   4.208  16.489  0.2794 -0.5459  0.2278
  867MPD2    H712733   0.150   4.138  16.428 -1.9533  1.7044 -0.8609
  868MPD2     C12734   1.414   2.638  13.023 -0.0121  0.7110  0.0914
  868MPD2    C112735   1.491   2.739  13.070  0.3667 -0.3074  0.0815
  868MPD2    C212736   1.436   2.835  13.157  0.3302 -0.1955  0.2624
  868MPD2    C312737   1.301   2.827  13.198  0.3683  0.1862  1.2283
  868MPD2    C412738   1.226   2.723  13.143 -0.3845  0.1700  0.1274
  868MPD2    C512739   1.278   2.634  13.053  0.1585  0.0955  0.0159
  868MPD2     H12740   1.504   2.917  13.180 -1.2702  1.0695  0.4856
  868MPD2    H112741   1.122   2.701  13.164 -0.4477 -0.6629 -1.0371
  868MPD2    H212742   1.457   2.563  12.957 -0.8586  0.9265 -0.6940
  868MPD2    H312743   1.216   2.553  13.015 -0.9187  0.2139  1.5206
  868MPD2     N12744   1.246   2.922  13.291  0.0047  0.1176 -0.6862
  868MPD2    H512745   1.318   2.972  13.342  0.9142 -0.0025 -1.8547
  868MPD2    N112746   1.631   2.751  13.022 -0.3683  0.1881  0.2494
  868MPD2    H712747   1.663   2.678  12.960 -2.7739  1.1800 -2.1627
  869MPD2     C12748   3.452   0.820   1.522  0.5526  0.3564 -0.4350
  869MPD2    C112749   3.334   0.848   1.585  0.6493  0.4733  0.9159
  869MPD2    C212750   3.235   0.920   1.527  0.4229 -0.9063 -0.3344
  869MPD2    C312751   3.263   0.976   1.401 -0.3843 -0.1857  0.1067
  869MPD2    C412752   3.389   0.963   1.344 -0.9269  0.7269 -0.4624
  869MPD2    C512753   3.479   0.882   1.406 -0.0703 -0.1840  0.3648
  869MPD2     H12754   3.137   0.936   1.570  0.0059 -0.4070 -1.4772
  869MPD2    H112755   3.422   1.010   1.252 -1.5831  0.2593 -0.9308
  869MPD2    H212756   3.526   0.758   1.571  2.3060  1.0714 -2.1777
  869MPD2    H312757   3.571   0.856   1.356  0.2635  0.5125  0.6100
  869MPD2     N12758   3.161   1.038   1.321  0.2642  0.0245 -0.1146
  869MPD2    H512759   3.181   1.063   1.225  0.6985  1.9976  0.4759
  869MPD2    N112760   3.323   0.798   1.716 -0.0030  0.5082 -0.1276
  869MPD2    H712761   3.394   0.728   1.734  2.4610  2.6025 -1.7279
  870MPD2     C12762   2.142   4.602   1.848 -0.7080 -0.1494 -0.5794
  870MPD2    C112763   2.251   4.675   1.817  0.4681  0.1775 -0.1076
  870MPD2    C212764   2.248   0.022   1.697 -0.3387  0.9523 -0.3938
  870MPD2    C312765   2.147   0.011   1.610 -0.0437 -0.2972  0.0598
  870MPD2    C412766   2.031   4.667   1.651 -0.2307  0.0680 -0.0822
  870MPD2    C512767   2.033   4.600   1.772 -0.0793  0.6289 -0.5999
  870MPD2     H12768   2.337   0.079   1.672 -0.7488  0.9629 -1.7857
  870MPD2    H112769   1.939   4.658   1.594 -1.1819 -0.8805  1.5866
  870MPD2    H212770   2.129   4.557   1.946 -2.4744  2.7959  0.5716
  870MPD2    H312771   1.944   4.551   1.811  0.5255 -0.6416 -0.8457
  870MPD2     N12772   2.152   0.080   1.483 -0.5125  0.2289 -0.4344
  870MPD2    H512773   2.242   0.112   1.450 -0.3352  0.2365  0.0535
  870MPD2    N112774   2.361   4.675   1.906 -0.4560 -0.2402  1.1893
  870MPD2    H712775   2.336   4.622   1.989 -0.5644  0.1799  1.4213
  871MPD2     C12776   3.602   4.363  16.465  0.2581 -0.3754 -1.1865
  871MPD2    C112777   3.617   4.325  16.593 -0.2171 -0.5937 -0.7394
  871MPD2    C212778   3.701   4.228  16.628  0.5046 -0.2040 -0.7909
  871MPD2    C312779   3.755   4.146  16.533  0.7580 -0.0088  0.3321
  871MPD2    C412780   3.733   4.181  16.401  0.3919  0.7425  0.7423
  871MPD2    C512781   3.656   4.284  16.365  0.0702 -0.5588  0.3654
  871MPD2     H12782   3.718   4.200  16.731 -0.2551  2.7378  0.1447
  871MPD2    H112783   3.787   4.132  16.321  0.8547  0.4219  1.2436
  871MPD2    H212784   3.557   4.458  16.439  2.9164  1.0795 -0.4561
  871MPD2    H312785   3.655   4.321  16.263  3.6554  1.3131  1.0004
  871MPD2     N12786   3.830   4.034  16.579  0.2121 -0.0670 -0.1715
  871MPD2    H512787   3.850   4.030  16.679 -1.1974 -0.5792  0.0937
  871MPD2    N112788   3.562   4.412  16.699 -0.3952  0.1349 -0.0467
  871MPD2    H712789   3.518   4.498  16.667 -4.5203 -1.9551 -0.0135
  872MPD2     C12790   3.999   2.528  13.803 -0.6807 -0.9093 -0.4446
  872MPD2    C112791   4.117   2.476  13.855 -1.2031 -0.5405 -0.2013
  872MPD2    C212792   4.108   2.355  13.920  0.0915 -0.2831 -0.1138
  872MPD2    C312793   3.983   2.292  13.948 -0.3924  0.5921  0.1646
  872MPD2    C412794   3.870   2.357  13.904 -0.1042 -0.1510  0.3100
  872MPD2    C512795   3.880   2.474  13.839 -0.3517  0.0074  0.9682
  872MPD2     H12796   4.196   2.304  13.956 -0.0989 -1.7155 -1.6481
  872MPD2    H112797   3.771   2.316  13.918  0.2340 -0.9313  0.3922
  872MPD2    H212798   4.001   2.620  13.745  0.9569 -2.2181 -2.4968
  872MPD2    H312799   3.793   2.509  13.785 -0.0233 -1.7486 -0.6758
  872MPD2     N12800   3.955   2.170  14.011 -0.0330  0.0662  0.0370
  872MPD2    H512801   3.859   2.147  14.036 -0.6795  1.2802 -1.3135
  872MPD2    N112802   4.245   2.548  13.827 -0.2684 -0.0952 -0.3785
  872MPD2    H712803   4.322   2.518  13.886  0.1906 -0.1631 -1.0092
  873MPD2     C12804   1.081   1.755   0.601  0.4725 -0.1884 -0.0480
  873MPD2    C112805   1.098   1.725   0.736 -0.4228 -0.2106 -0.4162
  873MPD2    C212806   1.123   1.591   0.775 -0.4415 -0.2152  0.4017
  873MPD2    C312807   1.118   1.484   0.682  0.6197 -0.7590 -0.6778
  873MPD2    C412808   1.100   1.517   0.549  0.1918 -0.0707 -0.5632
  873MPD2    C512809   1.078   1.651   0.512  0.3612  0.4242 -0.1243
  873MPD2     H12810   1.146   1.577   0.880  1.0938  1.1052  0.2332
  873MPD2    H112811   1.089   1.447   0.466 -1.3642  0.5174 -0.8463
  873MPD2    H212812   1.057   1.855   0.570  0.3871 -0.1628  0.0994
  873MPD2    H312813   1.070   1.674   0.406  1.5169 -2.1460 -0.7634
  873MPD2     N12814   1.132   1.347   0.715  0.4132  0.5179 -0.3014
  873MPD2    H512815   1.127   1.289   0.632 -0.4851 -0.0196  0.1391
  873MPD2    N112816   1.077   1.834   0.826 -0.1519 -0.1264 -0.2684
  873MPD2    H712817   1.066   1.926   0.784  1.4172  0.7604  1.2788
  874MPD2     C12818   0.984   2.697  16.464 -0.1578  0.4592  0.7067
  874MPD2    C112819   1.094   2.611  16.489  0.9787 -0.6489  0.0929
  874MPD2    C212820   1.220   2.655  16.460 -0.8489 -0.6002 -0.9184
  874MPD2    C312821   1.246   2.786  16.424  0.4302  0.4739 -0.0404
  874MPD2    C412822   1.137   2.874  16.398  0.6199  0.5745  0.5090
  874MPD2    C512823   1.005   2.821  16.412 -1.1960  0.3413  0.2199
  874MPD2     H12824   1.296   2.578  16.465 -2.0144 -1.8140 -1.9597
  874MPD2    H112825   1.154   2.978  16.373  5.0463 -0.6169 -1.2828
  874MPD2    H212826   0.881   2.665  16.475  0.0544  0.2974  2.2043
  874MPD2    H312827   0.916   2.881  16.396 -0.8567  0.5211 -0.9308
  874MPD2     N12828   1.381   2.828  16.408 -0.2556  0.2549  0.1502
  874MPD2    H512829   1.454   2.763  16.434  0.4398  1.0066  0.0663
  874MPD2    N112830   1.064   2.497  16.550  0.2702  0.3183  0.4374
  874MPD2    H712831   0.967   2.468  16.556 -0.3500  2.0526 -1.1132
  875MPD2     C12832   2.035   0.284  14.461  0.1829 -0.0898 -0.0643
  875MPD2    C112833   1.921   0.359  14.482  0.6683 -0.1551 -0.0742
  875MPD2    C212834   1.908   0.442  14.588  0.4201 -0.0039  0.0006
  875MPD2    C312835   2.008   0.455  14.686  0.3537 -0.4079 -0.3478
  875MPD2    C412836   2.117   0.370  14.667 -0.4333 -0.2776 -0.4886
  875MPD2    C512837   2.133   0.292  14.555 -0.2933 -0.4762  0.4429
  875MPD2     H12838   1.819   0.496  14.616 -0.3006  0.5199 -3.3752
  875MPD2    H112839   2.199   0.380  14.738 -0.8660 -0.9075  0.1060
  875MPD2    H212840   2.050   0.211  14.382  1.1783  1.7988 -1.6323
  875MPD2    H312841   2.218   0.225  14.546  0.2234  0.1273  0.8778
  875MPD2     N12842   1.994   0.542  14.792 -0.5601  0.4683  0.1851
  875MPD2    H512843   1.915   0.606  14.790  0.3586  1.4657 -3.4912
  875MPD2    N112844   1.811   0.333  14.397 -0.4806  0.4332  0.3912
  875MPD2    H712845   1.723   0.373  14.428  0.4953  2.5094  0.4795
  876MPD2     C12846   1.088   1.889  15.926 -0.7271 -0.0402  0.3079
  876MPD2    C112847   1.120   1.812  15.819 -0.6582  0.4322  0.5057
  876MPD2    C212848   1.137   1.678  15.844 -0.3166  0.6055  0.2538
  876MPD2    C312849   1.099   1.617  15.961 -0.0096 -0.2553 -0.0907
  876MPD2    C412850   1.062   1.695  16.066 -0.3583 -0.3563  0.3993
  876MPD2    C512851   1.063   1.833  16.050 -0.7428  0.0984  0.3300
  876MPD2     H12852   1.163   1.610  15.762 -3.2225 -0.5706  0.3051
  876MPD2    H112853   1.044   1.656  16.166 -1.9734 -0.2549  0.1455
  876MPD2    H212854   1.082   1.996  15.911 -0.7343 -0.6260 -3.7033
  876MPD2    H312855   1.033   1.886  16.140 -0.9981 -0.6124  0.6687
  876MPD2     N12856   1.106   1.474  15.959  0.8798 -0.1147  0.4504
  876MPD2    H512857   1.135   1.437  15.869 -2.2758  1.9559 -1.4218
  876MPD2    N112858   1.138   1.885  15.694 -0.3887  0.5565  0.4714
  876MPD2    H712859   1.114   1.984  15.690 -2.7801 -0.0682 -0.5343
  877MPD2     C12860   0.861   2.281  15.049 -0.5585 -0.2173  0.1260
  877MPD2    C112861   0.994   2.252  15.031 -0.0294 -0.2424 -0.0374
  877MPD2    C212862   1.041   2.267  14.904  0.7002 -0.7802  0.2760
  877MPD2    C312863   0.971   2.321  14.802  0.0824  0.4710 -0.1685
  877MPD2    C412864   0.839   2.352  14.823 -0.3703  0.0411 -0.4042
  877MPD2    C512865   0.778   2.328  14.946 -0.3945  0.5695 -0.4708
  877MPD2     H12866   1.144   2.239  14.885  1.2098  1.2535  0.0863
  877MPD2    H112867   0.775   2.382  14.741 -1.6281 -3.4538 -0.7046
  877MPD2    H212868   0.805   2.255  15.139 -2.3033  1.8675 -0.3557
  877MPD2    H312869   0.671   2.342  14.957 -0.1984  1.0162  0.7867
  877MPD2     N12870   1.035   2.335  14.668  0.8288  0.4938 -0.0191
  877MPD2    H512871   0.976   2.349  14.586 -1.0552  0.3740  1.3297
  877MPD2    N112872   1.075   2.194  15.128  0.8104  0.1930  0.0288
  877MPD2    H712873   1.172   2.171  15.107  0.4375  0.8353 -2.3652
  878MPD2     C12874   0.871   1.715  13.091 -0.0971  0.0686 -0.4384
  878MPD2    C112875   0.866   1.849  13.083  0.8939  0.4757 -0.3596
  878MPD2    C212876   0.802   1.926  13.183  0.8134 -0.2339  0.3701
  878MPD2    C312877   0.731   1.859  13.284  0.2302  0.0675  0.1788
  878MPD2    C412878   0.729   1.719  13.289  0.4385 -0.4182  0.0582
  878MPD2    C512879   0.807   1.651  13.196  0.4536 -0.0509  0.1221
  878MPD2     H12880   0.797   2.034  13.182  0.9006 -0.2305  0.2037
  878MPD2    H112881   0.685   1.671  13.376  0.6595  0.6374  0.7605
  878MPD2    H212882   0.931   1.649  13.029 -1.5308 -0.7336 -0.9602
  878MPD2    H312883   0.815   1.545  13.218  0.0389 -0.2932 -0.9150
  878MPD2     N12884   0.674   1.948  13.380 -0.4235  0.4817 -0.1929
  878MPD2    H512885   0.695   2.047  13.372 -1.4711  0.7766  0.7041
  878MPD2    N112886   0.909   1.894  12.958 -0.5022 -0.4270  0.0902
  878MPD2    H712887   0.965   1.826  12.907  1.1892 -0.1516  1.5757
  879MPD2     C12888   1.404   3.050  16.773 -0.0384 -0.3764 -0.3029
  879MPD2    C112889   1.428   2.984  16.888  0.0182  0.4195  0.2984
  879MPD2    C212890   1.342   2.877  16.914  0.9374  0.2640  0.4555
  879MPD2    C312891   1.227   2.852  16.843  0.4285  0.4040  0.0614
  879MPD2    C412892   1.203   2.925  16.728  0.3079  0.8393  0.8261
  879MPD2    C512893   1.294   3.027  16.700 -0.1100 -0.1145  0.9595
  879MPD2     H12894   1.347   2.824  17.009  2.7254 -0.5686 -0.0875
  879MPD2    H112895   1.118   2.898  16.666  1.9055  0.4893 -1.2188
  879MPD2    H212896   1.467   3.132  16.742 -0.2721 -0.3682 -0.7509
  879MPD2    H312897   1.286   3.095  16.616 -0.1361  0.1641  1.1879
  879MPD2     N12898   1.139   2.750  16.869 -0.4208 -0.1153  0.4995
  879MPD2    H512899   1.064   2.751  16.801  1.7068  0.0474 -1.8398
  879MPD2    N112900   1.544   3.014  16.966  0.2741  0.2349 -0.3093
  879MPD2    H712901   1.610   3.083  16.932  0.0491 -0.5489 -2.3405
  880MPD2     C12902   3.453   4.702   0.341  0.1085  0.0463 -0.1561
  880MPD2    C112903   3.353   4.616   0.378  0.3683 -0.2577  0.9424
  880MPD2    C212904   3.375   4.482   0.395 -0.1226 -0.3053  0.7919
  880MPD2    C312905   3.498   4.429   0.369 -0.0979  0.0643  0.2251
  880MPD2    C412906   3.602   4.510   0.322 -0.9396  0.4861  0.2843
  880MPD2    C512907   3.575   4.646   0.311  0.5154 -0.1986 -0.3879
  880MPD2     H12908   3.296   4.412   0.420 -0.4850 -0.5321 -0.9953
  880MPD2    H112909   3.707   4.485   0.310 -0.5586  1.0973  2.2365
  880MPD2    H212910   3.428   0.079   0.309 -3.4741 -1.0176 -0.7389
  880MPD2    H312911   3.654   4.708   0.270 -2.2338  3.0133 -0.9355
  880MPD2     N12912   3.523   4.298   0.400  0.2417 -0.1550  0.6492
  880MPD2    H512913   3.451   4.247   0.449  0.0820 -1.1334 -0.5950
  880MPD2    N112914   3.229   4.673   0.411 -0.2302  0.1805 -0.0758
  880MPD2    H712915   3.216   0.048   0.392 -0.2732  0.3266  0.6922
  881MPD2     C12916   2.731   0.601  17.639 -0.1119 -1.0181 -0.0002
  881MPD2    C112917   2.814   0.501  17.616 -0.4506 -0.4614  0.5764
  881MPD2    C212918   2.834   0.405   0.015  0.0226  0.2955 -0.3938
  881MPD2    C312919   2.791   0.430   0.147  0.6698 -0.5411 -0.1680
  881MPD2    C412920   2.730   0.543   0.183  0.4925 -0.8225  0.0238
  881MPD2    C512921   2.695   0.623   0.075  0.0620 -0.5097 -0.1344
  881MPD2     H12922   2.892   0.316  17.692 -1.5939 -0.8722  0.0812
  881MPD2    H112923   2.688   0.560   0.282  0.7068 -0.1553  0.0018
  881MPD2    H212924   2.709   0.679  17.567 -0.1992 -1.3211 -0.3044
  881MPD2    H312925   2.656   0.722   0.095  1.1172 -0.3419  1.1307
  881MPD2     N12926   2.813   0.341   0.256  0.4709  0.2620 -0.5307
  881MPD2    H512927   2.782   0.379   0.345 -1.2498 -3.3282  0.4198
  881MPD2    N112928   2.844   0.480  17.483  0.1035 -0.1261  0.1716
  881MPD2    H712929   2.783   0.519  17.412  0.0466 -1.7841 -0.6938
  882MPD2     C12930   1.046   2.374  13.820 -0.9885  0.1935 -0.7462
  882MPD2    C112931   0.983   2.344  13.938  0.0741 -0.1048  0.0357
  882MPD2    C212932   0.847   2.354  13.952  0.4500  0.1079  0.8978
  882MPD2    C312933   0.768   2.379  13.840 -0.6082  0.9046  0.4202
  882MPD2    C412934   0.836   2.397  13.722  0.2635 -1.2401  1.0885
  882MPD2    C512935   0.970   2.399  13.713  0.4847 -0.2975  0.0262
  882MPD2     H12936   0.791   2.324  14.040  0.0232 -1.2771  0.1590
  882MPD2    H112937   0.780   2.412  13.630  1.4099 -1.9257  0.2780
  882MPD2    H212938   1.153   2.372  13.805 -0.4888  0.9748  2.6942
  882MPD2    H312939   1.012   2.411  13.614  0.4773  0.4646  0.1166
  882MPD2     N12940   0.621   2.377  13.834  0.3352  0.6096  0.7197
  882MPD2    H512941   0.580   2.364  13.742  2.1229 -2.8105  0.4250
  882MPD2    N112942   1.058   2.313  14.062 -0.3584  0.4641 -0.6041
  882MPD2    H712943   1.157   2.297  14.051 -0.6432 -1.7551 -0.0158
  883MPD2     C12944   2.912   2.327  16.330  0.2607  0.0644 -0.9061
  883MPD2    C112945   3.022   2.298  16.250 -0.1012 -0.1039  0.1326
  883MPD2    C212946   3.149   2.309  16.301  0.1848  0.1380  0.2880
  883MPD2    C312947   3.174   2.352  16.427 -0.3853  0.7205 -0.4964
  883MPD2    C412948   3.070   2.395  16.510  0.7239 -0.7767 -0.2082
  883MPD2    C512949   2.942   2.353  16.464 -0.0560  0.1598  0.8685
  883MPD2     H12950   3.235   2.294  16.236  0.6689 -1.5259  1.3149
  883MPD2    H112951   3.071   2.437  16.610  1.5872  2.3714 -1.5370
  883MPD2    H212952   2.806   2.324  16.309 -0.1260  0.1368  1.0269
  883MPD2    H312953   2.853   2.363  16.525 -2.2531 -2.7494 -1.8338
  883MPD2     N12954   3.307   2.370  16.469 -0.3261 -0.3327 -0.1518
  883MPD2    H512955   3.372   2.338  16.398 -2.1703 -2.8270 -0.7093
  883MPD2    N112956   3.008   2.268  16.116  0.0896  0.0286  0.1381
  883MPD2    H712957   3.097   2.241  16.076  1.0204 -0.2043  2.3705
  884MPD2     C12958   0.228   2.631  15.306 -0.0055  0.3638 -0.3480
  884MPD2    C112959   0.216   2.751  15.232 -0.2362 -0.1828  0.7123
  884MPD2    C212960   0.091   2.791  15.192 -0.1676  0.5509  0.0257
  884MPD2    C312961   4.701   2.722  15.243  0.0512  0.0361 -0.1041
  884MPD2    C412962   4.714   2.604  15.310  0.5456  0.6509 -0.0868
  884MPD2    C512963   0.118   2.558  15.340 -0.9197  0.3518 -0.2603
  884MPD2     H12964   0.093   2.884  15.137 -0.5397 -0.3449 -1.5098
  884MPD2    H112965   4.636   2.545  15.358 -0.8833  2.7714  0.2127
  884MPD2    H212966   0.322   2.597  15.350 -1.1357 -1.5969  0.5401
  884MPD2    H312967   0.133   2.471  15.401  1.0350 -1.0336 -2.7223
  884MPD2     N12968   4.577   2.785  15.231 -0.4473  0.8004 -0.1548
  884MPD2    H512969   4.561   2.875  15.186 -1.6799 -0.3753 -2.0454
  884MPD2    N112970   0.319   2.839  15.214 -0.1476 -0.3603 -0.1911
  884MPD2    H712971   0.300   2.929  15.172 -0.7977 -0.0454  0.7701
  885MPD2     C12972   3.236   2.618   0.071  0.0518 -0.2930  0.4587
  885MPD2    C112973   3.313   2.716   0.123  0.2792 -0.2472 -0.2924
  885MPD2    C212974   3.336   2.834   0.056  0.3614  0.2436  0.0560
  885MPD2    C312975   3.275   2.845  17.629 -0.8373  0.6285 -0.1191
  885MPD2    C412976   3.186   2.742  17.575 -0.3412  0.0806  0.3187
  885MPD2    C512977   3.176   2.625  17.644  0.4201  0.7654  0.1759
  885MPD2     H12978   3.397   2.918   0.088 -0.6718  1.7255 -1.9439
  885MPD2    H112979   3.128   2.761  17.485  0.1207 -0.2952 -0.0555
  885MPD2    H212980   3.212   2.530   0.129  2.2693 -0.4000  1.2367
  885MPD2    H312981   3.119   2.539  17.611  2.8959 -1.5115  1.7973
  885MPD2     N12982   3.293   2.971  17.563 -0.2705 -0.1712  0.4652
  885MPD2    H512983   3.344   3.044  17.613 -1.1061 -0.3901  1.6359
  885MPD2    N112984   3.353   2.687   0.250  0.0156  0.1824  0.0418
  885MPD2    H712985   3.348   2.591   0.283  0.8010 -0.5170 -1.8569
  886MPD2     C12986   4.496   1.552  15.547  0.5156 -0.2172 -0.3592
  886MPD2    C112987   4.454   1.494  15.428 -0.3961  0.0202  0.0077
  886MPD2    C212988   4.412   1.577  15.328  0.7847  0.3145 -1.0858
  886MPD2    C312989   4.417   1.712  15.342 -0.0404  0.4587 -0.5904
  886MPD2    C412990   4.455   1.761  15.466 -0.6248 -0.8268  0.2934
  886MPD2    C512991   4.482   1.681  15.570 -0.4324  0.4443 -0.4206
  886MPD2     H12992   4.382   1.534  15.233 -1.7875 -0.4119  0.0605
  886MPD2    H112993   4.463   1.869  15.477  0.9427 -1.1445  2.1770
  886MPD2    H212994   4.528   1.488  15.628 -3.3384  0.1716  1.4504
  886MPD2    H312995   4.500   1.729  15.665  0.3307 -0.0119 -0.3343
  886MPD2     N12996   4.410   1.805  15.232  0.0289  0.3968 -0.6248
  886MPD2    H512997   4.432   1.903  15.248  2.2207 -0.2777  0.5064
  886MPD2    N112998   4.477   1.358  15.396 -0.8417  0.2168 -0.2598
  886MPD2    H712999   4.448   1.339  15.301  1.5078  1.7329 -1.2874
  887MPD2     C13000   0.163   1.348  14.927  0.5787 -0.3946  0.6133
  887MPD2    C113001   0.122   1.363  15.055 -0.2293 -0.8209  0.1857
  887MPD2    C213002   0.150   1.475  15.124 -0.2348 -0.0918  0.3303
  887MPD2    C313003   0.221   1.583  15.063 -0.0913  0.3329  0.1637
  887MPD2    C413004   0.261   1.569  14.926  0.2625  0.0935 -0.7023
  887MPD2    C513005   0.229   1.456  14.862 -0.0095 -0.0516 -0.3623
  887MPD2     H13006   0.105   1.498  15.220  1.1546 -0.8979  1.1858
  887MPD2    H113007   0.311   1.653  14.879  0.4393  0.8708  0.8529
  887MPD2    H213008   0.146   1.259  14.868 -0.8155  0.2440  0.0600
  887MPD2    H313009   0.237   1.436  14.755  1.5233  2.0171 -0.6448
  887MPD2     N13010   0.235   1.702  15.142  0.7335  0.3255  0.0844
  887MPD2    H513011   0.182   1.697  15.228 -1.0200  0.8480 -0.9632
  887MPD2    N113012   0.041   1.263  15.116 -0.1404 -0.1450 -0.4824
  887MPD2    H713013   0.015   1.285  15.211  0.6038  0.8315 -0.5104
  888MPD2     C13014   2.250   1.681  14.692 -0.4939 -0.4121  0.1475
  888MPD2    C113015   2.202   1.704  14.824 -0.4241  0.0433  0.4265
  888MPD2    C213016   2.281   1.781  14.915 -0.2786 -0.0566  0.1233
  888MPD2    C313017   2.385   1.859  14.865 -0.4621 -0.0114  0.3292
  888MPD2    C413018   2.412   1.855  14.729 -0.4541  0.0112 -0.2763
  888MPD2    C513019   2.344   1.767  14.644  0.3864  0.1953  0.3373
  888MPD2     H13020   2.252   1.788  15.019  1.1338 -1.2134  0.6084
  888MPD2    H113021   2.483   1.915  14.673 -2.1556 -0.6429 -3.1796
  888MPD2    H213022   2.199   1.614  14.624 -1.5537 -0.4856  1.0122
  888MPD2    H313023   2.368   1.750  14.539  1.0766  0.8548  0.3826
  888MPD2     N13024   2.450   1.954  14.957 -0.2228 -0.5101 -0.1954
  888MPD2    H513025   2.429   1.959  15.056  1.3937 -0.3898  0.1394
  888MPD2    N113026   2.096   1.631  14.887 -0.1375  0.5137 -0.6948
  888MPD2    H713027   2.077   1.639  14.987 -2.3333 -0.3309 -1.0521
  889MPD2     C13028   1.168   0.945  13.285  0.3678  0.5656  0.7028
  889MPD2    C113029   1.268   0.955  13.380  0.1360  0.7038  0.4985
  889MPD2    C213030   1.332   1.076  13.383  0.6318 -0.8042  0.0486
  889MPD2    C313031   1.294   1.183  13.301 -0.2273 -1.0730  1.2099
  889MPD2    C413032   1.187   1.176  13.224  0.8373  0.9643  0.5460
  889MPD2    C513033   1.123   1.056  13.219 -0.2974 -0.3624  0.4870
  889MPD2     H13034   1.432   1.092  13.422  1.0109 -0.8302 -0.9004
  889MPD2    H113035   1.148   1.262  13.171  0.7461 -0.3831 -1.5826
  889MPD2    H213036   1.113   0.852  13.285  0.8612  0.2750 -0.0182
  889MPD2    H313037   1.040   1.043  13.151  1.0494 -2.3839 -0.7717
  889MPD2     N13038   1.375   1.302  13.319  0.1602 -0.4022 -0.5217
  889MPD2    H513039   1.445   1.299  13.392  0.0807  0.0271 -0.4252
  889MPD2    N113040   1.318   0.837  13.431 -0.3430  0.6043 -0.0313
  889MPD2    H713041   1.268   0.754  13.402  0.1058  0.0489  0.7850
  890MPD2     C13042   0.844   2.810  14.793 -0.4388  0.2835 -0.9595
  890MPD2    C113043   0.959   2.866  14.828  0.2525 -0.0473 -0.0630
  890MPD2    C213044   1.003   2.829  14.955  0.2035  0.4716 -0.0784
  890MPD2    C313045   0.941   2.735  15.029  0.5910  0.2171  0.9368
  890MPD2    C413046   0.825   2.674  14.982  0.2135 -0.0903 -0.4492
  890MPD2    C513047   0.785   2.712  14.866  0.1765  0.7067  0.2360
  890MPD2     H13048   1.097   2.865  14.997  1.6478  0.2559 -3.1103
  890MPD2    H113049   0.764   2.600  15.033  1.5078 -0.6907  0.2363
  890MPD2    H213050   0.788   2.827  14.702 -2.6297  2.3654  0.7639
  890MPD2    H313051   0.689   2.672  14.837  0.0284 -0.0281  1.7293
  890MPD2     N13052   1.009   2.687  15.143  0.0690 -0.6179  0.5613
  890MPD2    H513053   1.109   2.705  15.147  0.1728 -0.8962 -0.6833
  890MPD2    N113054   1.004   2.974  14.747 -0.5100  0.1627 -0.3475
  890MPD2    H713055   0.956   2.985  14.658  0.5353 -1.3399 -1.1021
  891MPD2     C13056   3.692   1.619  16.408  0.0940 -0.0082  0.6353
  891MPD2    C113057   3.661   1.653  16.533 -0.6760  0.5868  0.3903
  891MPD2    C213058   3.757   1.651  16.637 -0.5479 -0.4483  0.0402
  891MPD2    C313059   3.875   1.585  16.613  0.8252  0.0221 -0.0436
  891MPD2    C413060   3.901   1.523  16.496 -0.1155 -0.3217 -0.1578
  891MPD2    C513061   3.810   1.545  16.393 -0.5095 -0.7766 -0.5106
  891MPD2     H13062   3.746   1.696  16.735  2.6721  0.0189  0.2192
  891MPD2    H113063   3.989   1.462  16.478 -0.6795 -0.7726 -1.3402
  891MPD2    H213064   3.631   1.616  16.318  1.8955  2.1485 -0.6516
  891MPD2    H313065   3.830   1.500  16.297  1.9640  0.4756 -0.5689
  891MPD2     N13066   3.964   1.581  16.715 -0.1327  0.7281  0.3594
  891MPD2    H513067   3.926   1.615  16.803  1.3197 -0.3369  1.3842
  891MPD2    N113068   3.532   1.703  16.551 -0.3162 -0.1621 -0.0489
  891MPD2    H713069   3.479   1.724  16.467  2.0097 -1.1730 -1.7580
  892MPD2     C13070   0.030   2.418  14.632 -0.3085 -0.1122  1.3431
  892MPD2    C113071   4.654   2.409  14.533 -0.9451 -0.6174 -0.1383
  892MPD2    C213072   4.688   2.428  14.399 -0.2511 -0.5417 -0.0922
  892MPD2    C313073   0.103   2.438  14.362  0.7175 -0.2244  0.1187
  892MPD2    C413074   0.195   2.437  14.460 -0.2454 -0.0438  0.0382
  892MPD2    C513075   0.159   2.418  14.593 -0.2935 -0.0009  0.6471
  892MPD2     H13076   4.616   2.435  14.318 -2.2473  1.3085  1.8488
  892MPD2    H113077   0.296   2.447  14.424 -0.0866  1.1004  0.8097
  892MPD2    H213078   0.016   2.410  14.739 -0.3348  0.2099  1.3651
  892MPD2    H313079   0.233   2.405  14.671 -1.7480 -1.5849  1.7640
  892MPD2     N13080   0.153   2.454  14.227  0.2761  0.1923 -0.6904
  892MPD2    H513081   0.254   2.444  14.237 -0.0815 -0.1906  2.8131
  892MPD2    N113082   4.515   2.398  14.572  0.6964 -0.0117  0.2181
  892MPD2    H713083   4.451   2.421  14.497  1.0197  0.9023  0.2324
  893MPD2     C13084   1.848   4.617   2.122  0.3815  0.5872  0.3485
  893MPD2    C113085   1.961   4.662   2.181  1.0261 -0.6201  0.2318
  893MPD2    C213086   2.009   4.588   2.295 -0.5672  0.0961 -0.9142
  893MPD2    C313087   1.942   4.472   2.338  0.4539 -0.5411  0.1115
  893MPD2    C413088   1.816   4.441   2.285 -0.4386  0.2360  0.1438
  893MPD2    C513089   1.767   4.515   2.175  0.1424  0.6620  0.3440
  893MPD2     H13090   2.101   4.621   2.342 -1.0823  1.8898 -1.1653
  893MPD2    H113091   1.763   4.350   2.308 -0.8556  0.1391 -1.1941
  893MPD2    H213092   1.811   4.666   2.033 -1.0208 -2.0264 -0.4839
  893MPD2    H313093   1.677   4.483   2.125  0.2562  3.3023 -1.5215
  893MPD2     N13094   2.011   4.385   2.433 -0.1735 -0.7821  0.3478
  893MPD2    H513095   1.959   4.314   2.483 -1.0516  0.4044  1.1059
  893MPD2    N113096   2.032   0.037   2.110  0.2654 -0.7041  0.2689
  893MPD2    H713097   1.980   0.088   2.039  1.9458  0.2463 -0.2767
  894MPD2     C13098   0.213   2.740   0.742  0.2708  0.4401 -0.1970
  894MPD2    C113099   0.197   2.844   0.829 -0.4008 -0.0634  0.4074
  894MPD2    C213100   0.228   2.974   0.789  0.4540  0.0863 -0.3108
  894MPD2    C313101   0.259   2.999   0.659 -0.0068 -0.4965 -0.0889
  894MPD2    C413102   0.286   2.894   0.575  1.0761 -0.5566 -0.7572
  894MPD2    C513103   0.249   2.765   0.611  0.2654  0.1151  0.3566
  894MPD2     H13104   0.224   3.057   0.858  1.0311 -0.5248  0.4598
  894MPD2    H113105   0.309   2.899   0.469 -0.0679 -0.8588 -1.0118
  894MPD2    H213106   0.201   2.634   0.763  0.6534  0.0680 -1.8375
  894MPD2    H313107   0.257   2.679   0.546 -1.8518 -0.3988  0.7679
  894MPD2     N13108   0.293   3.129   0.622  0.6146  0.2644 -0.0571
  894MPD2    H513109   0.293   3.202   0.692  2.6649  0.0128  0.2143
  894MPD2    N113110   0.136   2.830   0.959 -0.2338  0.3154 -0.4413
  894MPD2    H713111   0.127   2.911   1.019  0.5767 -1.3717  1.9792
  895MPD2     C13112   4.383   1.428  13.509 -0.5049 -0.9827  0.0685
  895MPD2    C113113   4.362   1.463  13.375 -0.3158  0.2501  0.5427
  895MPD2    C213114   4.439   1.407  13.278  0.3262  0.6091  0.2013
  895MPD2    C313115   4.533   1.311  13.311 -0.3824  0.3785  0.4827
  895MPD2    C413116   4.543   1.273  13.443 -1.2050  0.2265  0.4350
  895MPD2    C513117   4.480   1.344  13.542  1.0976 -0.1715 -0.1043
  895MPD2     H13118   4.419   1.430  13.174  3.2924 -0.9862 -0.7303
  895MPD2    H113119   4.607   1.189  13.466 -1.2534  0.0164 -0.1776
  895MPD2    H213120   4.324   1.456  13.595 -1.2771  1.6049 -1.2861
  895MPD2    H313121   4.486   1.307  13.643  1.8189 -1.7407 -0.7252
  895MPD2     N13122   4.594   1.224  13.217 -0.1564  0.1370 -0.9344
  895MPD2    H513123   4.646   1.146  13.255 -1.8026 -1.6101 -2.3239
  895MPD2    N113124   4.257   1.545  13.334  1.1000 -0.4680  1.4271
  895MPD2    H713125   4.235   1.545  13.235 -1.8257  0.7068  2.0610
  896MPD2     C13126   1.539   4.230   2.262  0.1291  0.0445  0.0092
  896MPD2    C113127   1.577   4.126   2.178  0.0921 -0.1273  0.2048
  896MPD2    C213128   1.501   4.098   2.066 -0.1056 -0.8837 -0.7537
  896MPD2    C313129   1.397   4.178   2.032  0.2634  0.4625  0.4010
  896MPD2    C413130   1.362   4.285   2.119  0.0942  0.1804 -0.6820
  896MPD2    C513131   1.437   4.314   2.226  0.6174  0.1346 -0.2886
  896MPD2     H13132   1.525   4.024   1.990  0.6820  1.0948 -2.4146
  896MPD2    H113133   1.274   4.346   2.105 -1.2013 -2.1694 -2.7442
  896MPD2    H213134   1.588   4.256   2.355  1.6044  4.2262 -1.9193
  896MPD2    H313135   1.408   4.386   2.302 -1.5455  0.0813 -1.0828
  896MPD2     N13136   1.328   4.146   1.916  0.3562  0.1270  0.0838
  896MPD2    H513137   1.348   4.058   1.869  0.4205 -1.3988  2.9293
  896MPD2    N113138   1.688   4.053   2.229 -0.5640 -0.4104 -0.2493
  896MPD2    H713139   1.730   4.084   2.316  0.6054  0.6091 -1.1837
  897MPD2     C13140   2.496   0.522  10.159  0.6974 -0.3133  0.0443
  897MPD2    C113141   2.459   0.650  10.190 -0.0660 -0.3429  0.4173
  897MPD2    C213142   2.383   0.677  10.300  0.1002  0.2472  0.2987
  897MPD2    C313143   2.341   0.581  10.384  0.2810  0.5132 -0.3822
  897MPD2    C413144   2.381   0.452  10.359 -0.1353  0.0721 -0.1573
  897MPD2    C513145   2.452   0.423  10.244  0.1866 -0.3841  0.1819
  897MPD2     H13146   2.328   0.770  10.300 -1.8714 -0.9235  0.1784
  897MPD2    H113147   2.339   0.372  10.419  0.5566 -1.0507 -1.1761
  897MPD2    H213148   2.552   0.496  10.070 -2.6873 -1.3344 -1.7928
  897MPD2    H313149   2.486   0.322  10.228  1.1728 -0.0717  0.2957
  897MPD2     N13150   2.257   0.628  10.486  0.6167 -0.0936  0.2932
  897MPD2    H513151   2.250   0.729  10.491 -2.7910 -0.3547  0.7708
  897MPD2    N113152   2.502   0.755  10.109  0.3788 -0.0533 -0.2342
  897MPD2    H713153   2.550   0.732  10.022  0.6380  0.8310 -0.3245
  898MPD2     C13154   4.559   2.349   0.425  0.7837  0.2072 -0.3720
  898MPD2    C113155   4.593   2.346   0.294  0.2162 -0.9393 -0.0217
  898MPD2    C213156   4.570   2.458   0.221 -0.9480  0.5905  0.0167
  898MPD2    C313157   4.526   2.573   0.291 -0.1303 -0.3811  0.2625
  898MPD2    C413158   4.492   2.570   0.427  0.5599 -0.5544  0.4044
  898MPD2    C513159   4.518   2.456   0.492  0.1775  0.4537  0.0826
  898MPD2     H13160   4.583   2.459   0.114 -1.9329  0.2160 -0.1064
  898MPD2    H113161   4.451   2.642   0.497 -0.6923 -0.0960 -0.8110
  898MPD2    H213162   4.565   2.262   0.489 -0.0352 -0.7364 -1.5791
  898MPD2    H313163   4.479   2.437   0.591  1.6142 -0.3971  0.4928
  898MPD2     N13164   4.484   2.677   0.205 -0.6939  0.2914  0.0979
  898MPD2    H513165   4.510   2.666   0.107  1.6524  0.4038  0.7116
  898MPD2    N113166   4.635   2.236   0.221  0.5855 -0.1821  0.3520
  898MPD2    H713167   4.654   2.246   0.122  2.0379  2.9822  0.9463
  899MPD2     C13168   1.402   2.697  17.467  0.2355  0.9730  0.2666
  899MPD2    C113169   1.278   2.720  17.423 -0.7776 -0.2935  0.0896
  899MPD2    C213170   1.175   2.654  17.482 -0.3686  0.3189 -0.5611
  899MPD2    C313171   1.194   2.569  17.588  0.1275  0.2536 -0.1880
  899MPD2    C413172   1.318   2.556  17.636 -0.5759  0.6223  0.3277
  899MPD2    C513173   1.426   2.615  17.574  0.4552 -0.2540  0.1011
  899MPD2     H13174   1.072   2.678  17.459 -0.7799 -2.2577 -1.4212
  899MPD2    H113175   1.339   2.508   0.034  1.5614 -0.9658 -0.9456
  899MPD2    H213176   1.483   2.757  17.427  0.9282 -0.7888 -0.9614
  899MPD2    H313177   1.527   2.613  17.615  0.8280  0.9825 -0.7307
  899MPD2     N13178   1.090   2.515  17.668  0.6647 -0.8324  0.5190
  899MPD2    H513179   1.122   2.466   0.054  0.0652 -0.5032  0.9521
  899MPD2    N113180   1.257   2.808  17.306 -0.1697 -0.5421 -0.0589
  899MPD2    H713181   1.333   2.868  17.275  0.3962 -1.2663 -0.0585
  900MPD2     C13182   0.303   4.482  12.452 -0.3527  0.5359 -0.4421
  900MPD2    C113183   0.250   4.400  12.355 -0.1325  0.3109 -0.2238
  900MPD2    C213184   0.140   4.451  12.285 -0.3378  0.1050  0.1277
  900MPD2    C313185   0.082   4.566  12.321  0.5650 -0.3217 -0.2325
  900MPD2    C413186   0.134   4.638  12.428 -0.4866  0.5849 -0.2042
  900MPD2    C513187   0.244   4.594  12.497 -0.5305  0.3077  0.0482
  900MPD2     H13188   0.089   4.400  12.204 -1.6288 -0.7234  1.4542
  900MPD2    H113189   0.093   0.007  12.467  1.1644  0.2790  2.2519
  900MPD2    H213190   0.395   4.452  12.502 -1.4636  0.0143  1.2965
  900MPD2    H313191   0.283   4.651  12.581  0.9463 -1.4836  0.5980
  900MPD2     N13192   4.693   4.608  12.247 -0.2896 -0.1087 -0.3638
  900MPD2    H513193   4.661   4.557  12.166 -0.5253  0.2969 -0.5239
  900MPD2    N113194   0.316   4.276  12.331  0.6915  0.6002 -0.1766
  900MPD2    H713195   0.408   4.263  12.373  0.7277  0.1193 -0.4048
  901MPD2     C13196   0.128   3.244  12.559  1.0393 -0.0448  1.0823
  901MPD2    C113197   0.201   3.262  12.444 -0.0195 -0.0917  0.2063
  901MPD2    C213198   0.221   3.387  12.393 -0.6764  0.6501  0.7097
  901MPD2    C313199   0.169   3.493  12.455  0.1757 -0.1574 -0.5574
  901MPD2    C413200   0.094   3.472  12.572 -0.5840  0.2063  0.5322
  901MPD2    C513201   0.070   3.352  12.617  1.0626 -0.2957  0.1592
  901MPD2     H13202   0.297   3.392  12.316 -0.7981 -3.4411  0.3449
  901MPD2    H113203   0.066   3.554  12.636 -0.3315  1.8573 -1.4958
  901MPD2    H213204   0.105   3.148  12.603  1.0525  1.2235  3.8596
  901MPD2    H313205   0.034   3.341  12.718 -1.0348  0.3059 -0.5319
  901MPD2     N13206   0.218   3.623  12.416  0.1530 -0.3513  0.7407
  901MPD2    H513207   0.309   3.620  12.371 -0.3956 -0.9730 -0.3150
  901MPD2    N113208   0.242   3.150  12.378  0.0653  0.4692 -0.0699
  901MPD2    H713209   0.218   3.063  12.425 -4.2577  1.1221 -1.0613
  902MPD2     C13210   3.998   2.185  12.757  0.2238  0.8166  0.7689
  902MPD2    C113211   4.048   2.211  12.630  0.2179  0.3546  0.5912
  902MPD2    C213212   4.115   2.109  12.564 -0.5177  0.0532  0.0721
  902MPD2    C313213   4.145   1.994  12.628 -0.1477  0.1476  0.0411
  902MPD2    C413214   4.102   1.975  12.759 -0.0885  0.4978  0.4532
  902MPD2    C513215   4.034   2.072  12.826 -0.5918  0.2770  0.2039
  902MPD2     H13216   4.160   2.124  12.466 -0.7028  1.5007  0.2057
  902MPD2    H113217   4.121   1.887  12.819 -1.3683  0.6403  1.0693
  902MPD2    H213218   3.941   2.267  12.801  0.5007  1.5972 -0.3255
  902MPD2    H313219   4.010   2.061  12.931 -1.4610  0.4678  0.0280
  902MPD2     N13220   4.201   1.877  12.557  0.4335  0.3680  0.2663
  902MPD2    H513221   4.202   1.787  12.603 -0.6138  1.0840  1.7194
  902MPD2    N113222   4.013   2.332  12.564  0.7516  0.4061  0.4020
  902MPD2    H713223   3.956   2.394  12.621 -1.3040 -0.8568 -0.3025
  903MPD2     C13224   4.234   1.306  12.020  0.7375 -0.5480 -0.4510
  903MPD2    C113225   4.155   1.366  12.120  0.1619 -0.4799  0.4759
  903MPD2    C213226   4.029   1.416  12.078 -0.6461 -0.4054  0.3681
  903MPD2    C313227   3.991   1.415  11.950 -0.0811  0.3134  0.5568
  903MPD2    C413228   4.072   1.360  11.852  0.0087 -0.2267 -0.5661
  903MPD2    C513229   4.197   1.310  11.889  0.7079  0.7389 -0.2807
  903MPD2     H13230   3.960   1.458  12.151 -0.6224 -0.0882  0.2031
  903MPD2    H113231   4.034   1.341  11.753 -2.1779  1.9146 -0.1424
  903MPD2    H213232   4.330   1.263  12.043  0.6141 -0.3323  0.4694
  903MPD2    H313233   4.268   1.275  11.814  2.1263 -0.8464  1.8038
  903MPD2     N13234   3.873   1.486  11.917  0.0391 -0.5406  0.1594
  903MPD2    H513235   3.824   1.528  11.995  2.8636 -0.1448  1.7517
  903MPD2    N113236   4.211   1.375  12.250  0.7533 -0.0614 -0.1102
  903MPD2    H713237   4.298   1.323  12.261  0.8174  0.2903  1.0326
  904MPD2     C13238   3.654   1.222  13.838  0.2221 -0.3459 -0.0765
  904MPD2    C113239   3.757   1.238  13.743  0.9757 -0.0954  0.6215
  904MPD2    C213240   3.893   1.227  13.784 -0.2189 -0.2679  0.4544
  904MPD2    C313241   3.920   1.208  13.918 -0.2445  0.1353 -0.1483
  904MPD2    C413242   3.818   1.181  14.010 -0.2613  0.2425  0.0634
  904MPD2    C513243   3.689   1.184  13.969  0.3004 -0.1256 -0.0240
  904MPD2     H13244   3.975   1.248  13.718 -0.9947 -1.9240 -1.0276
  904MPD2    H113245   3.827   1.147  14.112 -0.8368 -1.6244 -0.5054
  904MPD2    H213246   3.550   1.230  13.809 -0.3433 -0.8029  1.8340
  904MPD2    H313247   3.610   1.175  14.043 -0.3913 -1.3016 -0.8999
  904MPD2     N13248   4.061   1.194  13.954  0.2365 -0.1354 -0.0144
  904MPD2    H513249   4.124   1.214  13.877  0.5046  1.2842  0.5856
  904MPD2    N113250   3.737   1.282  13.606 -0.7249  0.7597 -0.2114
  904MPD2    H713251   3.812   1.289  13.539  1.3548 -2.2273  1.7971
  905MPD2     C13252   3.871   1.329  12.748  0.0815  0.0070 -0.0867
  905MPD2    C113253   3.894   1.301  12.880 -0.2672 -0.1809 -0.3438
  905MPD2    C213254   4.003   1.234  12.913  0.3346 -0.4892  0.2648
  905MPD2    C313255   4.096   1.205  12.819  0.4441 -0.1350  0.6149
  905MPD2    C413256   4.071   1.238  12.686 -0.2866  0.0977 -0.5511
  905MPD2    C513257   3.960   1.299  12.652 -0.2636 -0.1054  0.1634
  905MPD2     H13258   4.013   1.190  13.012 -1.0647 -0.8484  0.2381
  905MPD2    H113259   4.144   1.228  12.606  1.3802 -1.9813  1.2104
  905MPD2    H213260   3.783   1.380  12.711  0.3437 -0.9059 -1.9723
  905MPD2    H313261   3.937   1.324  12.549 -0.4572 -1.3980 -0.1018
  905MPD2     N13262   4.213   1.132  12.866 -0.3228  0.3065  0.5630
  905MPD2    H513263   4.210   1.107  12.964 -0.5094 -0.5125  0.3487
  905MPD2    N113264   3.801   1.342  12.980 -0.0465 -0.1361  0.2665
  905MPD2    H713265   3.717   1.385  12.943 -0.5700 -0.0664  1.5367
  906MPD2     C13266   1.169   1.532  11.152 -0.2304  0.2118  0.3828
  906MPD2    C113267   1.127   1.439  11.061  0.1466 -0.0747 -0.5332
  906MPD2    C213268   1.080   1.320  11.103 -0.1731  0.1932  0.7665
  906MPD2    C313269   1.056   1.289  11.232  1.1956  1.1414 -0.5317
  906MPD2    C413270   1.069   1.389  11.326  0.3869  0.8830 -0.4259
  906MPD2    C513271   1.138   1.503  11.285  0.7181  0.1315 -0.5335
  906MPD2     H13272   1.068   1.237  11.034  1.1597  0.3374  0.3708
  906MPD2    H113273   1.040   1.369  11.428 -1.0883  1.8387 -0.6629
  906MPD2    H213274   1.232   1.617  11.127  1.9910 -1.9447 -1.3666
  906MPD2    H313275   1.158   1.582  11.356 -2.2047  2.1359 -1.9479
  906MPD2     N13276   1.007   1.162  11.276  0.4717  0.1637  0.2569
  906MPD2    H513277   0.956   1.109  11.206  0.5545 -1.2174  1.2503
  906MPD2    N113278   1.167   1.439  10.923 -0.5316 -0.2464 -0.1531
  906MPD2    H713279   1.131   1.361  10.868 -0.7254 -1.9118  2.3498
  907MPD2     C13280   0.211   0.295  15.251  0.1746 -0.2498 -0.2105
  907MPD2    C113281   0.257   0.165  15.236  0.7837  0.0364  0.1893
  907MPD2    C213282   0.364   0.124  15.324  0.0137 -0.0291 -0.0441
  907MPD2    C313283   0.418   0.212  15.413 -0.3229  0.2720  0.7039
  907MPD2    C413284   0.381   0.341  15.408  0.0350 -0.7124 -0.2862
  907MPD2    C513285   0.270   0.381  15.336  0.1769  0.5707  0.6546
  907MPD2     H13286   0.407   0.025  15.314 -0.6592 -0.1558 -1.7370
  907MPD2    H113287   0.431   0.425  15.457 -1.3043 -0.1800  0.1938
  907MPD2    H213288   0.136   0.336  15.183 -0.7577 -0.3383  0.7657
  907MPD2    H313289   0.251   0.488  15.334  0.2110  0.5915  1.4515
  907MPD2     N13290   0.517   0.163  15.498  0.4082  0.3107 -0.0752
  907MPD2    H513291   0.546   0.066  15.491 -0.6841  0.0121 -0.3639
  907MPD2    N113292   0.220   0.080  15.130  0.2196 -0.0465 -0.0181
  907MPD2    H713293   0.260   4.710  15.131 -2.2871 -1.0881  1.4567
  908MPD2     C13294   2.288   0.493   9.437 -0.6420  0.7134  0.5462
  908MPD2    C113295   2.401   0.459   9.510  0.5127  0.4036  0.2002
  908MPD2    C213296   2.461   0.552   9.589 -0.3317 -1.1326 -0.5433
  908MPD2    C313297   2.425   0.689   9.577 -0.3355  0.7874 -0.3255
  908MPD2    C413298   2.318   0.728   9.501  0.3241 -0.4847  0.2468
  908MPD2    C513299   2.251   0.627   9.431  1.1120  0.1282  0.2015
  908MPD2     H13300   2.542   0.524   9.655 -0.0830 -0.1750 -0.4477
  908MPD2    H113301   2.294   0.830   9.472 -0.1638 -0.5179  0.5519
  908MPD2    H213302   2.232   0.434   9.365 -0.8710  3.4095 -1.4722
  908MPD2    H313303   2.175   0.649   9.357 -1.6098 -1.2465  2.5694
  908MPD2     N13304   2.494   0.785   9.657  0.2660 -0.7009 -0.0148
  908MPD2    H513305   2.569   0.751   9.718  0.9276 -0.2181 -0.5582
  908MPD2    N113306   2.439   0.324   9.497  0.2238  0.3527 -0.1675
  908MPD2    H713307   2.389   0.273   9.426  3.4265 -3.6167  0.4192
  909MPD2     C13308   2.730   3.864  12.203 -0.3272 -0.1873 -0.4307
  909MPD2    C113309   2.725   3.978  12.120  1.1017  0.2961  0.7344
  909MPD2    C213310   2.641   4.088  12.145 -0.5978  0.2892  0.3914
  909MPD2    C313311   2.560   4.085  12.251 -0.2698 -0.4217 -0.1322
  909MPD2    C413312   2.550   3.965  12.327 -0.2716  0.7152  0.5995
  909MPD2    C513313   2.627   3.851  12.296 -1.3432 -1.0219 -0.1515
  909MPD2     H13314   2.652   4.181  12.090  0.4552  0.7836  1.4403
  909MPD2    H113315   2.479   3.951  12.407  0.6472 -3.5570  0.6500
  909MPD2    H213316   2.796   3.780  12.189 -0.9458 -0.3299 -2.3886
  909MPD2    H313317   2.616   3.767  12.364  2.4880 -0.1097  1.6257
  909MPD2     N13318   2.483   4.204  12.279 -0.2886 -0.1179  0.1277
  909MPD2    H513319   2.483   4.286  12.219 -0.4748 -0.9390 -0.9975
  909MPD2    N113320   2.824   3.997  12.017  0.6131 -0.0282  0.0911
  909MPD2    H713321   2.816   4.078  11.956 -0.1799  1.3752  2.0635
  910MPD2     C13322   3.948   0.603  15.348 -0.6408  0.2405 -0.5931
  910MPD2    C113323   4.059   0.665  15.290  0.0196 -0.1961  0.7433
  910MPD2    C213324   4.033   0.766  15.199 -0.3840  0.0925 -0.6260
  910MPD2    C313325   3.904   0.797  15.158  0.2304 -0.2434 -0.5156
  910MPD2    C413326   3.802   0.741  15.217 -0.1088 -0.5306 -0.3340
  910MPD2    C513327   3.823   0.638  15.311 -0.0989 -0.2306 -0.5502
  910MPD2     H13328   4.115   0.816  15.148  0.1811 -0.9533 -0.7439
  910MPD2    H113329   3.704   0.766  15.176  0.7354  2.2896 -0.6069
  910MPD2    H213330   3.964   0.537  15.433  1.5402  1.0820 -0.3427
  910MPD2    H313331   3.730   0.595  15.344  0.3414 -1.1236 -0.4735
  910MPD2     N13332   3.862   0.890  15.063 -0.0139  0.4441 -0.1283
  910MPD2    H513333   3.762   0.905  15.055  0.1120  1.1346 -0.3979
  910MPD2    N113334   4.195   0.626  15.314 -0.2349  0.2559 -0.2023
  910MPD2    H713335   4.272   0.672  15.265  0.6020  0.1383  1.0143
  911MPD2     C13336   2.054   1.450  16.089  0.2118  0.0885  1.2058
  911MPD2    C113337   2.065   1.495  16.221  0.3248 -0.1095  0.1630
  911MPD2    C213338   1.957   1.564  16.278  0.0631 -0.4815 -0.4248
  911MPD2    C313339   1.853   1.611  16.198  1.0150 -0.1925  0.3164
  911MPD2    C413340   1.840   1.554  16.075  0.2114  0.3307  0.5103
  911MPD2    C513341   1.941   1.478  16.017  0.5946 -0.3224 -0.1969
  911MPD2     H13342   1.958   1.601  16.380  0.2966 -0.6437 -0.3685
  911MPD2    H113343   1.757   1.589  16.015  1.0089 -0.0809 -0.8416
  911MPD2    H213344   2.139   1.402  16.043 -0.2407  1.3021 -0.8883
  911MPD2    H313345   1.951   1.462  15.910  0.0987 -0.1625 -0.2680
  911MPD2     N13346   1.754   1.703  16.246  0.8563  0.9167 -0.1659
  911MPD2    H513347   1.675   1.724  16.186  1.2078 -0.0691 -0.9766
  911MPD2    N113348   2.183   1.464  16.284 -0.8446  0.3294 -0.1764
  911MPD2    H713349   2.253   1.417  16.226 -0.5238  1.6820 -0.8758
  912MPD2     C13350   1.478   1.591  15.819 -0.1367  0.2647  0.9881
  912MPD2    C113351   1.472   1.582  15.958  0.0782 -0.3265  0.6884
  912MPD2    C213352   1.507   1.468  16.024  0.2782  0.0256 -0.0674
  912MPD2    C313353   1.558   1.361  15.951 -0.1502  0.2340 -0.9035
  912MPD2    C413354   1.546   1.364  15.814 -0.6237  0.0980 -0.1107
  912MPD2    C513355   1.506   1.477  15.751 -0.3618 -0.2841 -0.0173
  912MPD2     H13356   1.529   1.472  16.130  1.7332  0.3058 -0.3880
  912MPD2    H113357   1.576   1.280  15.752 -0.2857  0.8852 -1.0006
  912MPD2    H213358   1.448   1.677  15.761 -1.2563 -0.4291  0.5400
  912MPD2    H313359   1.513   1.479  15.643  0.7323 -3.4959 -0.0167
  912MPD2     N13360   1.617   1.258  16.027 -0.0075  0.0584 -0.6848
  912MPD2    H513361   1.623   1.274  16.127 -1.6701  0.7422 -0.6963
  912MPD2    N113362   1.446   1.700  16.028  0.1598 -0.4333 -0.1427
  912MPD2    H713363   1.438   1.781  15.969  0.2521 -1.4316 -1.5287
  913MPD2     C13364   2.411   2.921  10.655  0.3355 -0.2231 -0.1629
  913MPD2    C113365   2.334   2.852  10.564 -0.3383 -0.0900  0.6254
  913MPD2    C213366   2.308   2.915  10.446 -0.2429 -0.0443  0.1392
  913MPD2    C313367   2.367   3.037  10.419  0.1564  0.0020 -0.4521
  913MPD2    C413368   2.454   3.099  10.508 -0.3603 -0.2742 -0.5674
  913MPD2    C513369   2.468   3.045  10.631 -0.4399 -0.0257 -0.0489
  913MPD2     H13370   2.241   2.873  10.371 -1.2740 -2.7938  2.6176
  913MPD2    H113371   2.502   3.195  10.489 -2.4556  1.2092  1.6646
  913MPD2    H213372   2.420   2.882  10.756  1.5776  0.0189 -0.1833
  913MPD2    H313373   2.535   3.094  10.702 -1.5348 -1.1642  1.7684
  913MPD2     N13374   2.354   3.100  10.294 -0.7848  0.4263  0.2984
  913MPD2    H513375   2.428   3.168  10.280 -0.0686 -0.4484 -0.1114
  913MPD2    N113376   2.268   2.733  10.597 -0.0056 -0.6736  0.3747
  913MPD2    H713377   2.287   2.697  10.690 -2.2283  3.2989  2.3684
  914MPD2     C13378   0.993   3.300  11.923  0.1952 -0.4882  0.0381
  914MPD2    C113379   0.883   3.355  11.987 -0.1349 -0.5412 -0.6640
  914MPD2    C213380   0.787   3.275  12.033 -0.0138  0.0750 -0.6061
  914MPD2    C313381   0.790   3.145  11.993  0.7770 -1.1742 -0.1020
  914MPD2    C413382   0.890   3.092  11.916 -0.4243 -0.0340  0.4349
  914MPD2    C513383   0.998   3.168  11.887  0.5403 -0.1528 -0.0168
  914MPD2     H13384   0.705   3.328  12.081 -1.2851  0.6784 -3.4758
  914MPD2    H113385   0.880   2.990  11.881  2.4489 -0.0393 -0.3849
  914MPD2    H213386   1.073   3.359  11.881 -0.6750 -0.6704 -1.8549
  914MPD2    H313387   1.081   3.128  11.831  0.6033  1.2341 -0.9048
  914MPD2     N13388   0.676   3.075  12.021  0.1889 -0.4185 -0.7463
  914MPD2    H513389   0.604   3.133  12.062  0.5494 -0.0554 -0.6167
  914MPD2    N113390   0.862   3.495  12.005 -0.6727  0.3457 -0.1321
  914MPD2    H713391   0.773   3.522  12.046 -1.2364  0.2604 -1.2818
  915MPD2     C13392   3.549   2.635  15.682  0.1416 -0.2816 -0.2951
  915MPD2    C113393   3.428   2.677  15.638  0.0183 -0.4475  0.1227
  915MPD2    C213394   3.360   2.771  15.713 -0.5765 -0.2761 -0.1440
  915MPD2    C313395   3.403   2.825  15.831 -0.2311 -0.2501 -0.0894
  915MPD2    C413396   3.527   2.776  15.874  0.9840 -0.3693  0.1262
  915MPD2    C513397   3.599   2.689  15.796 -0.5560 -0.3435 -0.1826
  915MPD2     H13398   3.269   2.814  15.674 -1.0004 -0.1889  0.9554
  915MPD2    H113399   3.579   2.814  15.962 -0.8398 -0.8649  1.4246
  915MPD2    H213400   3.610   2.552  15.649 -1.0484 -0.4728 -1.9893
  915MPD2    H313401   3.689   2.639  15.831  0.4662 -0.1879 -2.5259
  915MPD2     N13402   3.323   2.910  15.911 -0.5377  0.4764  0.2319
  915MPD2    H513403   3.235   2.946  15.876 -0.1587  2.6844  1.5276
  915MPD2    N113404   3.378   2.622  15.519  0.8654 -0.8361 -0.2231
  915MPD2    H713405   3.435   2.550  15.476 -0.6972 -1.5974 -1.0204
  916MPD2     C13406   1.377   1.260  15.477 -0.1102  0.8145 -0.5749
  916MPD2    C113407   1.380   1.146  15.559  0.4552  0.4680 -0.5205
  916MPD2    C213408   1.428   1.020  15.512  0.3051 -0.0825 -0.1300
  916MPD2    C313409   1.490   1.019  15.389 -0.0538  0.1122  0.5964
  916MPD2    C413410   1.507   1.136  15.318  0.1758 -0.0370 -0.0445
  916MPD2    C513411   1.442   1.249  15.357 -0.0894 -0.0411  0.5540
  916MPD2     H13412   1.433   0.928  15.568 -1.0044 -0.5702 -0.8308
  916MPD2    H113413   1.556   1.137  15.221 -0.2840  0.2465 -0.2727
  916MPD2    H213414   1.314   1.347  15.489 -2.7588 -1.3725  1.2563
  916MPD2    H313415   1.433   1.324  15.278 -0.5273  1.4816  2.0498
  916MPD2     N13416   1.539   0.890  15.346  0.0320 -0.0168  0.5641
  916MPD2    H513417   1.521   0.810  15.406 -1.8052 -0.0095  0.0142
  916MPD2    N113418   1.326   1.164  15.692  0.0967  0.1453 -0.0066
  916MPD2    H713419   1.264   1.240  15.717 -0.8234 -1.3340  2.2749
  917MPD2     C13420   1.719   3.135  11.136 -0.4272 -0.4616  0.0280
  917MPD2    C113421   1.788   3.177  11.252 -0.6616 -0.2901  0.1721
  917MPD2    C213422   1.919   3.224  11.239  0.6136 -0.1372 -0.0446
  917MPD2    C313423   1.980   3.241  11.112 -1.1126  0.5422 -0.3418
  917MPD2    C413424   1.903   3.218  11.001  0.0103 -0.2767 -0.2239
  917MPD2    C513425   1.776   3.162  11.012 -0.1614 -0.7585  0.0445
  917MPD2     H13426   1.988   3.238  11.322  1.7785  0.3806 -1.0994
  917MPD2    H113427   1.936   3.233  10.899  1.0549  0.0365  0.1551
  917MPD2    H213428   1.614   3.105  11.135 -0.3074 -0.7359 -2.3432
  917MPD2    H313429   1.712   3.149  10.926  0.2339 -0.2306 -0.3354
  917MPD2     N13430   2.102   3.309  11.088  0.1867 -0.1357 -1.1223
  917MPD2    H513431   2.128   3.316  10.991  0.0460 -1.0854 -1.2260
  917MPD2    N113432   1.715   3.166  11.371 -0.6894  0.2530  0.0584
  917MPD2    H713433   1.623   3.123  11.366 -0.3176 -0.6936  1.3255
  918MPD2     C13434   1.853   3.773  12.123  0.0815  0.1818 -0.2896
  918MPD2    C113435   1.916   3.653  12.121  0.3912 -0.2589  0.6692
  918MPD2    C213436   1.860   3.541  12.059 -0.5779  0.3582  0.4126
  918MPD2    C313437   1.748   3.557  11.985 -0.6808  0.3800 -0.3007
  918MPD2    C413438   1.690   3.683  11.987 -0.3172 -0.2797  0.8745
  918MPD2    C513439   1.739   3.788  12.056 -0.1271 -0.0313  0.5468
  918MPD2     H13440   1.908   3.444  12.054 -2.1599 -0.3846 -0.3018
  918MPD2    H113441   1.589   3.700  11.952 -0.6521 -2.5031  0.7878
  918MPD2    H213442   1.890   3.856  12.182  0.4338 -1.0316  1.1833
  918MPD2    H313443   1.689   3.884  12.048 -0.9105 -0.3310  1.8519
  918MPD2     N13444   1.687   3.443  11.924  0.3859 -0.0750 -0.5773
  918MPD2    H513445   1.736   3.355  11.939  0.2437  0.2071  1.5388
  918MPD2    N113446   2.024   3.612  12.195  0.7936  0.4594  0.2001
  918MPD2    H713447   2.052   3.517  12.173  0.7339  1.0358 -2.3757
  919MPD2     C13448   2.231   2.443  11.480  1.0465 -0.1160 -0.5703
  919MPD2    C113449   2.120   2.364  11.495  0.3626 -0.5871 -0.6836
  919MPD2    C213450   2.008   2.392  11.417 -0.2618 -0.6528 -0.3758
  919MPD2    C313451   2.010   2.484  11.316 -0.0692 -1.0285  0.5128
  919MPD2    C413452   2.127   2.552  11.293 -0.1670 -0.6436  0.2472
  919MPD2    C513453   2.233   2.535  11.378  0.2621  0.9421 -0.4411
  919MPD2     H13454   1.922   2.327  11.427 -0.1386 -0.2630  3.2007
  919MPD2    H113455   2.132   2.623  11.211  0.9489  0.4256  1.2432
  919MPD2    H213456   2.326   2.424  11.528  0.4524  0.0588  0.6561
  919MPD2    H313457   2.324   2.574  11.334  1.1824  1.3135  1.7677
  919MPD2     N13458   1.899   2.522  11.241 -0.1197  0.3182 -0.0554
  919MPD2    H513459   1.914   2.599  11.178 -0.1643  2.6609  2.7748
  919MPD2    N113460   2.118   2.257  11.579  0.5404 -0.7499 -0.8088
  919MPD2    H713461   2.029   2.217  11.607  0.8462 -0.3154  0.8076
  920MPD2     C13462   1.759   2.461  10.259 -0.0443  0.8890  0.3446
  920MPD2    C113463   1.682   2.568  10.299 -0.1931 -0.2886  0.7027
  920MPD2    C213464   1.678   2.605  10.434  0.5905  0.2806  0.2036
  920MPD2    C313465   1.739   2.521  10.526  0.2956  0.2085  0.4349
  920MPD2    C413466   1.808   2.411  10.492 -0.1115 -0.1474  0.5314
  920MPD2    C513467   1.829   2.388  10.356 -0.0424 -0.1458  0.5170
  920MPD2     H13468   1.609   2.685  10.456  0.1670  0.0104 -0.1589
  920MPD2    H113469   1.844   2.331  10.556  3.2265  1.5723  0.8320
  920MPD2    H213470   1.771   2.429  10.156  0.1868  0.9098  0.3653
  920MPD2    H313471   1.891   2.305  10.322  0.9216  0.6293  0.4041
  920MPD2     N13472   1.704   2.545  10.657  0.1472  0.6212  0.1000
  920MPD2    H513473   1.625   2.605  10.677 -0.9061 -0.8105  0.2362
  920MPD2    N113474   1.615   2.659  10.210  0.2777 -0.0382 -0.1419
  920MPD2    H713475   1.559   2.734  10.248  1.3760 -0.0103  1.4258
  921MPD2     C13476   2.729   2.077  16.729 -0.5732  0.5826 -0.3278
  921MPD2    C113477   2.811   1.959  16.740 -0.6120  0.1581  0.4832
  921MPD2    C213478   2.749   1.839  16.714  0.0912  0.4220  0.0100
  921MPD2    C313479   2.614   1.827  16.690  0.2093 -0.1568  0.0370
  921MPD2    C413480   2.539   1.942  16.686 -0.6377 -0.3242  0.2661
  921MPD2    C513481   2.594   2.066  16.696 -0.1695 -0.4816 -0.0363
  921MPD2     H13482   2.807   1.748  16.697 -0.4421  0.1944 -0.5559
  921MPD2    H113483   2.431   1.942  16.678 -0.6116 -1.0199 -0.0478
  921MPD2    H213484   2.755   2.178  16.757  1.4393 -0.4353  1.4949
  921MPD2    H313485   2.522   2.147  16.697  0.2949 -0.0631 -1.1340
  921MPD2     N13486   2.553   1.709  16.656  0.0068 -0.0325 -0.3740
  921MPD2    H513487   2.460   1.722  16.616 -1.2313 -0.4719  2.3144
  921MPD2    N113488   2.954   1.973  16.765 -0.5067 -0.1324 -0.8025
  921MPD2    H713489   2.995   2.066  16.757 -1.5898  0.3828 -0.4412
  922MPD2     C13490   4.227   4.673  17.600  1.0456  0.8418  0.0073
  922MPD2    C113491   4.224   4.625   0.035  0.2315  0.4661 -0.2580
  922MPD2    C213492   4.188   4.492   0.059  0.5787 -0.0143  0.0939
  922MPD2    C313493   4.162   4.410  17.646  0.0409 -0.1750 -0.4182
  922MPD2    C413494   4.183   4.449  17.515 -0.5477  0.3237  0.3068
  922MPD2    C513495   4.216   4.582  17.492 -0.1067 -0.1428 -0.2665
  922MPD2     H13496   4.194   4.448   0.158 -0.1905 -2.7023 -1.0581
  922MPD2    H113497   4.168   4.377  17.435  1.0808  0.8225 -0.4529
  922MPD2    H213498   4.261   0.049  17.574  0.7860  0.5532 -1.4467
  922MPD2    H313499   4.217   4.622  17.391 -0.3251 -0.2703 -0.3193
  922MPD2     N13500   4.110   4.285  17.683  0.9840  0.5412 -0.4280
  922MPD2    H513501   4.074   4.277   0.081 -0.7606  1.4307 -1.0193
  922MPD2    N113502   4.273   4.691   0.149  0.3327  0.1383  0.2092
  922MPD2    H713503   4.292   4.640   0.234 -1.5903  0.9555  1.1480
  923MPD2     C13504   4.302   0.218   9.356  0.0282 -0.2803  0.9073
  923MPD2    C113505   4.335   0.354   9.359  0.0754  0.1533  0.5223
  923MPD2    C213506   4.463   0.394   9.328 -0.0080 -0.1752 -0.2983
  923MPD2    C313507   4.563   0.304   9.306 -0.2201 -0.7466  0.0319
  923MPD2    C413508   4.534   0.167   9.306  0.1585 -0.4592  0.1024
  923MPD2    C513509   4.405   0.124   9.332  1.0036 -0.1835  0.2748
  923MPD2     H13510   4.496   0.497   9.335 -0.6156  0.1596 -2.2794
  923MPD2    H113511   4.611   0.091   9.299 -1.2654 -2.2380  3.4814
  923MPD2    H213512   4.209   0.177   9.393  0.2880 -1.7761 -0.0698
  923MPD2    H313513   4.381   0.019   9.342 -0.3951  0.3173  2.3153
  923MPD2     N13514   4.702   0.336   9.304  0.5538  0.1650  0.5844
  923MPD2    H513515   0.043   0.258   9.306  0.4689  0.0695 -0.4834
  923MPD2    N113516   4.234   0.446   9.388 -0.0426 -0.2271 -0.8468
  923MPD2    H713517   4.151   0.392   9.408  0.0829 -0.3201 -0.5793
  924MPD2     C13518   0.573   4.098  15.641  0.5231  0.0483  0.4328
  924MPD2    C113519   0.512   4.181  15.734 -0.2780 -1.1710  0.1584
  924MPD2    C213520   0.561   4.314  15.762 -0.1481 -0.1601  0.4524
  924MPD2    C313521   0.669   4.358  15.695  0.3100 -0.0896 -0.3414
  924MPD2    C413522   0.726   4.272  15.604 -0.1555  0.8787  0.1546
  924MPD2    C513523   0.671   4.155  15.571 -0.6061  0.4255 -0.1363
  924MPD2     H13524   0.511   4.374  15.837  2.2417  2.6891 -0.2449
  924MPD2    H113525   0.818   4.304  15.555  1.5277  1.0812  3.3599
  924MPD2    H213526   0.543   4.002  15.601  2.0145  0.4606 -1.6823
  924MPD2    H313527   0.711   4.102  15.485  0.6194  0.1554  0.5990
  924MPD2     N13528   0.723   4.485  15.731  0.2935  0.0777 -0.6168
  924MPD2    H513529   0.678   4.530  15.810 -0.2441 -0.8715 -0.3781
  924MPD2    N113530   0.391   4.127  15.777  0.0489 -0.0312  0.1464
  924MPD2    H713531   0.356   4.043  15.733 -0.4585  1.3629 -2.1342
  925MPD2     C13532   4.215   1.635  14.651 -0.2193 -0.2622  0.2022
  925MPD2    C113533   4.086   1.690  14.639 -0.1358 -0.0894  0.1111
  925MPD2    C213534   3.997   1.681  14.752  0.1799 -0.1158 -0.4057
  925MPD2    C313535   4.036   1.620  14.873 -0.6291  0.7145 -0.1557
  925MPD2    C413536   4.161   1.558  14.867  1.0752  0.2863  1.0975
  925MPD2    C513537   4.244   1.556  14.757  0.6873 -0.4880 -0.3280
  925MPD2     H13538   3.901   1.730  14.754  0.1265 -0.3209  2.3184
  925MPD2    H113539   4.206   1.506  14.951  1.1904 -1.6840 -0.1812
  925MPD2    H213540   4.279   1.639  14.564 -0.7757 -1.5771 -0.2673
  925MPD2    H313541   4.339   1.505  14.764  2.0983  2.0699 -0.7270
  925MPD2     N13542   3.956   1.617  14.989  0.3509  0.2685  0.4066
  925MPD2    H513543   3.997   1.564  15.065  0.5392 -1.3497 -0.8258
  925MPD2    N113544   4.046   1.779  14.538 -1.0364 -0.3289 -0.4027
  925MPD2    H713545   3.956   1.826  14.545 -0.3765  1.1564 -1.9730
  926MPD2     C13546   2.699   0.448  13.251 -0.3763 -0.4380 -0.4303
  926MPD2    C113547   2.637   0.555  13.306 -0.5026  0.0140 -0.2685
  926MPD2    C213548   2.623   0.672  13.234  0.1446 -0.6420  0.0765
  926MPD2    C313549   2.672   0.685  13.106  0.2533 -0.9140  0.2660
  926MPD2    C413550   2.736   0.581  13.047  0.2963 -0.1293  0.1270
  926MPD2    C513551   2.756   0.470  13.124 -0.1146 -0.8647  0.0498
  926MPD2     H13552   2.576   0.760  13.276  0.1372 -1.3749  1.5913
  926MPD2    H113553   2.778   0.586  12.948  0.8130  1.1782  0.4049
  926MPD2    H213554   2.735   0.359  13.301  1.5168 -0.1577 -1.2888
  926MPD2    H313555   2.806   0.388  13.074  0.3450 -1.1633  1.0059
  926MPD2     N13556   2.667   0.803  13.035 -0.0555  0.0496  0.2441
  926MPD2    H513557   2.713   0.805  12.945 -1.0168 -0.7287 -0.2608
  926MPD2    N113558   2.578   0.547  13.436  0.0328  0.2531 -0.1233
  926MPD2    H713559   2.537   0.635  13.466  0.7908  0.1711  1.1399
  927MPD2     C13560   2.227   3.187   0.454  0.2650  0.0443 -0.1853
  927MPD2    C113561   2.301   3.074   0.474  0.7744 -0.4421  0.0268
  927MPD2    C213562   2.425   3.065   0.406 -0.2994  0.1822  0.7255
  927MPD2    C313563   2.486   3.181   0.358  0.7625 -0.2158 -0.1536
  927MPD2    C413564   2.414   3.298   0.347 -0.4136  0.1613  0.5611
  927MPD2    C513565   2.279   3.296   0.384 -0.2370  0.5169 -0.1958
  927MPD2     H13566   2.484   2.975   0.399 -0.2453  0.4398 -1.9041
  927MPD2    H113567   2.450   3.393   0.310  3.1219  0.1321  3.9233
  927MPD2    H213568   2.129   3.196   0.498  0.2113 -0.5053 -0.1942
  927MPD2    H313569   2.212   3.381   0.375  1.5122  1.7252 -1.7319
  927MPD2     N13570   2.619   3.151   0.320  0.1209  0.0072  0.0760
  927MPD2    H513571   2.655   3.057   0.318 -1.2421 -0.5046 -0.2587
  927MPD2    N113572   2.241   2.971   0.548  0.5123 -0.0692  0.0374
  927MPD2    H713573   2.148   2.994   0.583  0.2334  1.1913 -1.5137
  928MPD2     C13574   4.717   0.651   0.170  0.6508  0.6076 -0.1947
  928MPD2    C113575   0.026   0.736   0.272 -0.2804  0.5877 -0.4144
  928MPD2    C213576   0.148   0.805   0.255  0.9759  0.3078  0.2878
  928MPD2    C313577   0.232   0.790   0.147 -0.1803  0.2795  0.1065
  928MPD2    C413578   0.193   0.709   0.042 -0.1711 -1.4320  0.1725
  928MPD2    C513579   0.071   0.644   0.060 -0.1273  0.7074 -0.3445
  928MPD2     H13580   0.175   0.868   0.339 -1.8853  0.2178  1.2814
  928MPD2    H113581   0.257   0.691  17.652 -1.3683 -1.8409 -0.6219
  928MPD2    H213582   4.619   0.604   0.168  1.4208 -0.8924 -3.2646
  928MPD2    H313583   0.044   0.585  17.669 -1.5821 -1.1368  1.3393
  928MPD2     N13584   0.362   0.837   0.139  0.0451  0.1110 -0.3570
  928MPD2    H513585   0.424   0.807   0.064  1.3400  3.0242 -0.4280
  928MPD2    N113586   4.675   0.744   0.388  0.2644 -0.2305 -0.1529
  928MPD2    H713587   4.597   0.679   0.388 -1.1298  1.4381  0.4307
  929MPD2     C13588   0.310   1.621  10.057 -0.1395 -0.5578  0.1961
  929MPD2    C113589   0.204   1.566  10.134  0.5548  0.0034  0.4543
  929MPD2    C213590   0.075   1.580  10.094  0.2838 -0.3094  0.1555
  929MPD2    C313591   0.044   1.637   9.973 -0.5653 -0.6656 -0.3360
  929MPD2    C413592   0.147   1.702   9.901  0.3892 -0.3373 -0.3600
  929MPD2    C513593   0.281   1.691   9.945 -0.5873 -0.1305 -0.3696
  929MPD2     H13594   4.720   1.526  10.145 -0.1510  0.4002  0.2477
  929MPD2    H113595   0.130   1.751   9.806 -1.1224 -1.0728 -0.4669
  929MPD2    H213596   0.415   1.615  10.085  0.1175  1.0567 -0.4220
  929MPD2    H313597   0.356   1.740   9.884 -1.0223  1.3922  0.3344
  929MPD2     N13598   4.636   1.643   9.930 -0.6622  0.3196 -0.3944
  929MPD2    H513599   4.614   1.729   9.881  0.3235  0.2307 -0.9930
  929MPD2    N113600   0.244   1.476  10.234 -0.0851  0.1598 -0.0468
  929MPD2    H713601   0.341   1.449  10.223 -0.2909 -0.6610  0.2020
  930MPD2     C13602   2.062   3.362  14.082 -0.1657  0.1645  0.1517
  930MPD2    C113603   1.985   3.406  13.974 -0.3627 -0.3494 -0.4498
  930MPD2    C213604   1.899   3.316  13.914 -0.1305 -0.4278 -0.5732
  930MPD2    C313605   1.885   3.189  13.966  0.2262  0.2430 -0.0346
  930MPD2    C413606   1.947   3.157  14.086  0.5368 -0.1770 -0.9980
  930MPD2    C513607   2.035   3.244  14.145 -0.1931 -0.1523 -0.5334
  930MPD2     H13608   1.824   3.353  13.845  0.9967  0.5830 -1.2394
  930MPD2    H113609   1.922   3.063  14.134 -0.2742  1.4958  1.8276
  930MPD2    H213610   2.127   3.423  14.144 -0.6343  2.6650 -1.7968
  930MPD2    H313611   2.095   3.206  14.228  1.2771 -0.3591 -1.6930
  930MPD2     N13612   1.820   3.095  13.884 -0.0103 -0.0599 -0.1659
  930MPD2    H513613   1.793   3.135  13.794 -0.4935 -1.5192 -0.6613
  930MPD2    N113614   2.001   3.541  13.918  0.3605 -0.2020  0.1127
  930MPD2    H713615   2.079   3.585  13.965 -0.5649 -0.6748  2.1094
  931MPD2     C13616   2.481   2.346   0.955 -0.1287 -0.1026  0.0746
  931MPD2    C113617   2.359   2.386   0.997  0.2326  0.0167  0.0719
  931MPD2    C213618   2.293   2.314   1.089 -0.8792 -0.7287 -0.5698
  931MPD2    C313619   2.357   2.205   1.151  0.2980 -0.5069  0.0933
  931MPD2    C413620   2.487   2.174   1.116  0.9252  0.7916 -0.2190
  931MPD2    C513621   2.546   2.241   1.013  0.9449 -0.2120 -0.7071
  931MPD2     H13622   2.194   2.344   1.120  0.9637  1.9219  2.7039
  931MPD2    H113623   2.543   2.098   1.169  0.9258  0.7385 -0.2968
  931MPD2    H213624   2.534   2.407   0.883  0.3853 -0.5368  0.0849
  931MPD2    H313625   2.650   2.226   0.990  1.3142 -0.7965  1.3031
  931MPD2     N13626   2.298   2.108   1.237 -0.0285 -0.0588  0.3396
  931MPD2    H513627   2.362   2.043   1.282  1.2890 -0.1645 -1.6662
  931MPD2    N113628   2.298   2.483   0.910 -0.0366  0.7132  0.0536
  931MPD2    H713629   2.357   2.527   0.840 -0.0114 -0.5971 -0.7588
  932MPD2     C13630   3.533   2.490  11.377  0.0687 -0.2247  0.0707
  932MPD2    C113631   3.647   2.475  11.453  0.3677  0.5444  0.0144
  932MPD2    C213632   3.683   2.353  11.496  0.7750 -0.2287  0.1634
  932MPD2    C313633   3.621   2.237  11.441 -0.3633  0.0661  0.2941
  932MPD2    C413634   3.516   2.254  11.356  0.1194  0.9337 -0.8185
  932MPD2    C513635   3.468   2.381  11.333  0.4890  0.4149  0.1045
  932MPD2     H13636   3.779   2.340  11.546  1.5566  0.6334 -1.1392
  932MPD2    H113637   3.470   2.167  11.312 -0.0461  0.8548 -0.4914
  932MPD2    H213638   3.503   2.588  11.341  3.7767  0.9723  0.2620
  932MPD2    H313639   3.390   2.397  11.260 -0.0747 -0.1899  0.5650
  932MPD2     N13640   3.658   2.105  11.463 -0.1947  0.3784  0.7905
  932MPD2    H513641   3.628   2.037  11.394  1.8692  0.8684 -0.5617
  932MPD2    N113642   3.730   2.584  11.488  0.2370 -0.0225  0.1844
  932MPD2    H713643   3.804   2.564  11.555  0.2660 -0.4808  0.0149
  933MPD2     C13644   4.112   1.048   1.052 -0.1028  0.1610  0.3426
  933MPD2    C113645   4.235   1.074   0.999 -0.5557  0.0560 -0.1078
  933MPD2    C213646   4.310   1.173   1.062 -0.2520 -0.9292 -0.8031
  933MPD2    C313647   4.258   1.247   1.173  0.2666  0.6949 -0.0781
  933MPD2    C413648   4.128   1.218   1.223 -0.8264 -0.0690  0.2405
  933MPD2    C513649   4.065   1.112   1.164  1.1205 -0.0034  0.2262
  933MPD2     H13650   4.411   1.199   1.032 -0.5708 -0.5658 -1.5558
  933MPD2    H113651   4.076   1.270   1.302 -1.5049  1.0168 -0.9158
  933MPD2    H213652   4.045   0.979   1.002  0.8142 -1.9221  1.9940
  933MPD2    H313653   3.967   1.086   1.204  0.1667  2.4838 -0.4892
  933MPD2     N13654   4.349   1.341   1.234  0.4157 -0.1070 -0.3620
  933MPD2    H513655   4.439   1.362   1.191  0.3432 -1.6617 -1.2930
  933MPD2    N113656   4.280   1.001   0.885 -0.1315 -0.5827  0.1981
  933MPD2    H713657   4.230   0.924   0.841  0.4765 -0.3856 -0.8403
  934MPD2     C13658   0.914   3.949   1.944  0.5671  0.0440  0.0922
  934MPD2    C113659   1.018   3.857   1.950 -0.6741  0.0306 -0.1882
  934MPD2    C213660   1.030   3.760   1.851 -0.0129 -0.9766  0.5624
  934MPD2    C313661   0.930   3.760   1.750 -0.0073 -0.9667 -0.0515
  934MPD2    C413662   0.823   3.852   1.746  0.0540 -0.1995 -0.1306
  934MPD2    C513663   0.821   3.946   1.843  0.2135  0.1464  0.8141
  934MPD2     H13664   1.114   3.693   1.855  0.4218 -0.4666  0.0763
  934MPD2    H113665   0.741   3.844   1.676  0.8822 -1.2311 -0.9776
  934MPD2    H213666   0.909   4.041   2.000  1.7911  0.1033  0.1027
  934MPD2    H313667   0.741   4.020   1.838  1.0606  1.1344  1.6847
  934MPD2     N13668   0.937   3.667   1.642  0.1762 -0.2865 -0.8347
  934MPD2    H513669   0.863   3.674   1.574  0.8295 -3.1873 -1.8724
  934MPD2    N113670   1.121   3.852   2.051  0.3377 -0.6332 -0.3444
  934MPD2    H713671   1.196   3.785   2.037  1.1587  0.6019 -1.7937
  935MPD2     C13672   1.562   2.841   1.409  0.2647 -1.0577 -0.2200
  935MPD2    C113673   1.468   2.847   1.307  0.2121  0.2213 -0.2670
  935MPD2    C213674   1.371   2.945   1.315  0.1057 -0.8868  0.6611
  935MPD2    C313675   1.361   3.029   1.424  0.3264 -0.2132  0.1145
  935MPD2    C413676   1.447   3.015   1.527  0.5014  0.6023  0.5988
  935MPD2    C513677   1.541   2.922   1.519 -0.0917  0.5240  0.4862
  935MPD2     H13678   1.298   2.949   1.235  0.9683  0.0447 -0.0777
  935MPD2    H113679   1.452   3.085   1.609  0.7313  1.7579 -0.3896
  935MPD2    H213680   1.652   2.781   1.414  0.6412 -0.4098  0.7353
  935MPD2    H313681   1.609   2.897   1.599  3.1680  0.4514 -2.3012
  935MPD2     N13682   1.269   3.141   1.439  0.3528 -0.9920  0.2721
  935MPD2    H513683   1.265   3.191   1.528  2.2503  1.7092 -1.1673
  935MPD2    N113684   1.484   2.776   1.189  0.1908 -0.3539  0.1236
  935MPD2    H713685   1.423   2.809   1.115 -1.4100 -1.4002  0.9947
  936MPD2     C13686   4.489   0.737  12.542 -0.3518 -1.2487  0.1381
  936MPD2    C113687   4.499   0.602  12.515  0.1363 -0.4376  0.3721
  936MPD2    C213688   4.587   0.556  12.425 -0.1515 -0.0046  0.0994
  936MPD2    C313689   4.678   0.639  12.356 -0.1125 -0.2260 -0.3645
  936MPD2    C413690   4.652   0.776  12.368  0.0030 -0.1899 -0.4626
  936MPD2    C513691   4.559   0.822  12.459 -0.4311  0.0402 -1.1960
  936MPD2     H13692   4.588   0.447  12.425  1.3616  0.0127  1.3964
  936MPD2    H113693   4.707   0.848  12.308  2.4980 -1.7890 -0.0681
  936MPD2    H213694   4.442   0.782  12.629 -1.9516  0.3149 -1.5542
  936MPD2    H313695   4.554   0.928  12.482  0.2904 -0.1282 -0.2249
  936MPD2     N13696   0.059   0.593  12.271  0.0274 -0.4554 -0.0474
  936MPD2    H513697   0.109   0.652  12.205 -0.6955  3.3831  2.8465
  936MPD2    N113698   4.443   0.506  12.605  0.9199  0.2040 -0.3906
  936MPD2    H713699   4.486   0.414  12.599 -1.8173 -0.9988 -1.4271
  937MPD2     C13700   2.457   1.524  11.500 -0.0231 -0.3793  0.1879
  937MPD2    C113701   2.449   1.658  11.467  0.6297 -0.1404 -0.1825
  937MPD2    C213702   2.484   1.695  11.336  0.1088  0.1030  0.1522
  937MPD2    C313703   2.552   1.605  11.254 -0.4840  0.4052  0.4018
  937MPD2    C413704   2.556   1.472  11.291  0.2590  0.3541 -0.1588
  937MPD2    C513705   2.510   1.431  11.413  0.0682  0.0444 -0.4268
  937MPD2     H13706   2.467   1.795  11.298 -0.3729  0.5189  1.4585
  937MPD2    H113707   2.595   1.402  11.218 -2.2183 -1.4125  0.2268
  937MPD2    H213708   2.398   1.490  11.584 -2.3818 -1.4422 -1.8837
  937MPD2    H313709   2.525   1.326  11.435 -2.2043 -0.6404 -2.1577
  937MPD2     N13710   2.568   1.645  11.123 -0.0494  0.4737  0.3093
  937MPD2    H513711   2.563   1.746  11.111  0.3525  0.4143 -0.3971
  937MPD2    N113712   2.370   1.743  11.540 -0.3411  0.5081 -0.5824
  937MPD2    H713713   2.328   1.816  11.483 -1.8614  0.2835  0.2501
  938MPD2     C13714   0.733   3.409   0.352 -0.0300  0.5397  0.6597
  938MPD2    C113715   0.765   3.396   0.485  0.0682  0.3000  0.0931
  938MPD2    C213716   0.753   3.272   0.553 -0.8229 -0.1280  0.0542
  938MPD2    C313717   0.702   3.167   0.487  0.0212  0.2895  0.6390
  938MPD2    C413718   0.660   3.179   0.355  0.6498  0.0924 -0.0558
  938MPD2    C513719   0.673   3.301   0.289  0.7385 -0.9119 -0.2543
  938MPD2     H13720   0.763   3.275   0.661 -1.3907  0.1678  0.0998
  938MPD2    H113721   0.610   3.093   0.312  1.5155 -1.0319  1.1751
  938MPD2    H213722   0.757   3.497   0.294 -2.2607  0.7966  0.1174
  938MPD2    H313723   0.636   3.310   0.188  0.9841 -0.4323 -0.3006
  938MPD2     N13724   0.663   3.050   0.552  0.6686  0.5735  0.8572
  938MPD2    H513725   0.618   2.980   0.494  0.7702  0.9638  0.3067
  938MPD2    N113726   0.820   3.504   0.553  0.0961 -0.1526 -0.2611
  938MPD2    H713727   0.849   3.485   0.649 -0.6640 -1.8945 -0.3835
  939MPD2     C13728   2.514   4.427   1.303  0.4634  0.4941 -0.0495
  939MPD2    C113729   2.407   4.464   1.223 -0.2677  0.1072  0.5823
  939MPD2    C213730   2.436   4.500   1.090  0.4942 -0.4684  0.2914
  939MPD2    C313731   2.561   4.487   1.034 -0.2282 -0.0749 -0.0179
  939MPD2    C413732   2.666   4.442   1.115  0.4710  0.1097 -0.0872
  939MPD2    C513733   2.640   4.415   1.245  0.3017 -0.2142 -0.2266
  939MPD2     H13734   2.354   4.538   1.030  0.8882  1.0345  0.7001
  939MPD2    H113735   2.766   4.432   1.074  0.5960  2.1320 -0.2685
  939MPD2    H213736   2.499   4.410   1.409 -1.0481 -2.1807 -0.6868
  939MPD2    H313737   2.721   4.405   1.317 -1.1117  0.6223  1.5009
  939MPD2     N13738   2.583   4.540   0.905 -0.4770 -0.1700 -0.4455
  939MPD2    H513739   2.502   4.590   0.871  1.0174  2.1546 -0.6294
  939MPD2    N113740   2.284   4.475   1.289 -0.6224  0.3295 -0.2921
  939MPD2    H713741   2.288   4.449   1.387 -0.8614 -1.7566 -0.8324
  940MPD2     C13742   0.925   0.537  12.810 -0.1232  0.1450 -0.0091
  940MPD2    C113743   0.849   0.437  12.869  1.2849 -0.2509 -0.0169
  940MPD2    C213744   0.809   0.331  12.783 -0.0113 -0.5012  0.1416
  940MPD2    C313745   0.846   0.325  12.650 -0.7072 -0.5454  0.0415
  940MPD2    C413746   0.925   0.424  12.595 -0.3401  0.1039  0.7327
  940MPD2    C513747   0.963   0.525  12.681  0.1558 -0.5572 -0.1696
  940MPD2     H13748   0.747   0.256  12.832 -0.3229  0.0613  0.6086
  940MPD2    H113749   0.953   0.429  12.491 -0.2894  0.1432  0.7482
  940MPD2    H213750   0.966   0.623  12.861  1.0119 -1.1797  1.3210
  940MPD2    H313751   1.031   0.598  12.639 -0.7376  0.1524 -0.3835
  940MPD2     N13752   0.820   0.215  12.564 -0.0119 -0.2961 -0.7417
  940MPD2    H513753   0.851   0.232  12.469  1.5828 -2.6311 -0.6132
  940MPD2    N113754   0.793   0.447  13.006 -0.0144 -0.1675 -1.3867
  940MPD2    H713755   0.737   0.370  13.041  1.3123 -2.2174 -3.7266
  941MPD2     C13756   0.645   4.101   9.525 -0.2976 -0.5710  0.3689
  941MPD2    C113757   0.568   4.177   9.613  0.5595 -0.7274  0.2644
  941MPD2    C213758   0.466   4.116   9.687 -0.3706 -0.5438  0.1397
  941MPD2    C313759   0.429   3.985   9.659  0.5582 -0.3796  0.6455
  941MPD2    C413760   0.505   3.909   9.564 -0.1197  0.4040  0.6671
  941MPD2    C513761   0.610   3.970   9.497  0.0656 -0.2359 -0.4428
  941MPD2     H13762   0.409   4.182   9.751 -0.7154 -0.0474 -0.6762
  941MPD2    H113763   0.482   3.810   9.525  1.7448  0.6230 -1.0104
  941MPD2    H213764   0.733   4.144   9.478 -0.7097  1.2095  1.2324
  941MPD2    H313765   0.673   3.899   9.446 -0.0733 -1.0325  0.4870
  941MPD2     N13766   0.314   3.916   9.703 -0.3122 -0.4769 -0.5345
  941MPD2    H513767   0.297   3.821   9.672 -1.4299 -0.5111  0.2062
  941MPD2    N113768   0.595   4.314   9.635 -0.5736 -0.3293  0.2366
  941MPD2    H713769   0.524   4.365   9.686  0.2370  0.0091  1.0315
  942MPD2     C13770   3.179   0.833   9.326 -0.3858  0.0413  0.5031
  942MPD2    C113771   3.211   0.717   9.405 -0.5440 -0.6825  1.1101
  942MPD2    C213772   3.293   0.732   9.513  0.3577 -0.1585  0.0405
  942MPD2    C313773   3.353   0.854   9.554  0.0688 -0.6146 -0.6498
  942MPD2    C413774   3.339   0.955   9.463 -0.6328 -1.0189  0.2429
  942MPD2    C513775   3.253   0.947   9.356  0.2822  0.1721  0.1471
  942MPD2     H13776   3.312   0.645   9.575  1.9749 -0.7947 -1.3688
  942MPD2    H113777   3.397   1.046   9.477 -0.8442 -0.8140 -0.2070
  942MPD2    H213778   3.102   0.829   9.250 -0.8772  0.1157  0.9948
  942MPD2    H313779   3.248   1.036   9.294  1.4509 -1.1529 -1.8309
  942MPD2     N13780   3.444   0.856   9.656  0.3092 -0.0571 -0.2194
  942MPD2    H513781   3.511   0.933   9.660  1.0467 -0.5443 -2.9302
  942MPD2    N113782   3.154   0.591   9.383  0.8883 -0.3367 -0.1786
  942MPD2    H713783   3.164   0.524   9.458 -0.5270  0.2570  0.5530
  943MPD2     C13784   3.119   3.975   9.203  0.2766  0.3025  0.8640
  943MPD2    C113785   3.187   4.000   9.321 -0.7477  0.0363 -0.0507
  943MPD2    C213786   3.266   4.113   9.326 -0.1077 -0.0722 -0.5389
  943MPD2    C313787   3.273   4.201   9.224 -0.2969 -0.5667  0.0511
  943MPD2    C413788   3.201   4.177   9.112 -0.3057  0.2041 -0.3206
  943MPD2    C513789   3.133   4.058   9.091  0.0032  0.6226 -0.5047
  943MPD2     H13790   3.321   4.131   9.418 -0.8033  1.3013 -0.3894
  943MPD2    H113791   3.194   4.242   9.025  1.6257 -1.1963 -1.5408
  943MPD2    H213792   3.057   3.887   9.188  0.8587  0.6756 -3.7285
  943MPD2    H313793   3.079   4.033   9.001  0.0447  0.4297 -0.4757
  943MPD2     N13794   3.342   4.325   9.232 -0.5128 -0.4435  0.1186
  943MPD2    H513795   3.335   4.384   9.150  0.6002 -1.4916 -0.7318
  943MPD2    N113796   3.166   3.913   9.428 -0.0190 -0.1966 -0.4884
  943MPD2    H713797   3.091   3.845   9.418 -1.9722  1.9140 -0.1905
  944MPD2     C13798   2.666   2.485  11.158  0.8022 -0.6984  0.3746
  944MPD2    C113799   2.658   2.580  11.060 -0.2962 -0.0749  0.2489
  944MPD2    C213800   2.656   2.715  11.105  0.9416  0.2046  0.4797
  944MPD2    C313801   2.644   2.754  11.239 -0.1043  0.5074  0.1323
  944MPD2    C413802   2.641   2.656  11.332 -0.1640 -0.1431  0.4397
  944MPD2    C513803   2.668   2.527  11.289 -0.7186 -0.0665  0.1273
  944MPD2     H13804   2.665   2.794  11.031 -1.9561 -1.0873 -1.2386
  944MPD2    H113805   2.613   2.675  11.435 -1.9667  0.2439 -0.1136
  944MPD2    H213806   2.688   2.379  11.144 -1.2181 -0.8257 -1.7028
  944MPD2    H313807   2.673   2.442  11.356 -1.3197 -1.2728 -1.3416
  944MPD2     N13808   2.642   2.892  11.257 -0.0845  0.4685 -0.3891
  944MPD2    H513809   2.660   2.935  11.167  0.0208 -1.5180 -1.3197
  944MPD2    N113810   2.659   2.540  10.924 -0.0523 -1.4543  0.2150
  944MPD2    H713811   2.641   2.440  10.917 -1.5682 -1.0849 -1.4308
    1TCq1    O113812   0.745   3.518  14.503 -0.3991  0.3899  0.1365
    1TCq1    C113813   0.758   3.500  14.367  0.7767 -0.5742 -0.5924
    1TCq1    O213814   0.684   3.423  14.304  0.2935 -0.2909 -0.1171
    1TCq1    C213815   0.814   3.622  14.317 -0.5864  0.5649 -0.0530
    1TCq1    C313816   0.750   3.684  14.212  0.3980  0.2429 -0.0339
    1TCq1    C413817   0.812   3.778  14.137  0.7190  0.2201  0.1111
    1TCq1    C513818   0.944   3.812  14.160  0.4523 -0.4068 -0.3517
    1TCq1    C613819   1.005   3.748  14.268 -0.3477 -0.3892 -0.4583
    1TCq1    C713820   0.941   3.655  14.349 -0.5633  0.8980 -0.5692
    1TCq1    C813821   1.108   3.809  14.349 -0.6343 -0.2105 -0.3844
    1TCq1    O413822   1.176   3.733  14.418 -0.0973  0.5014  0.0592
    1TCq1    C913823   0.724   3.849  14.045 -0.0817  0.0283 -1.5045
    1TCq1    O513824   0.728   3.973  14.052 -0.3486 -0.2029  0.0836
    1TCq1    O613825   0.638   3.779  13.987  0.6818 -0.7417  0.6031
    1TCq1    H113826   0.795   3.599  14.526 -2.1206  1.2151  0.9241
    1TCq1    H213827   0.653   3.653  14.176  0.2362 -0.1026  0.6940
    1TCq1    H313828   0.991   3.882  14.091  0.6875 -0.0431  0.1809
    1TCq1    H413829   0.991   3.583  14.413 -1.5390 -1.5809 -2.6254
    2MPD2     C13830   1.364   4.222  14.532  0.0264  0.2773 -0.4185
    2MPD2    C113831   1.273   4.264  14.448  0.2113  1.0685  0.1054
    2MPD2    C213832   1.197   4.171  14.385 -0.2741 -0.1475 -0.8493
    2MPD2    C313833   1.208   4.034  14.404 -0.5353  0.3471 -1.1359
    2MPD2    C413834   1.314   3.993  14.482  0.0356  0.4069  0.3559
    2MPD2    C513835   1.390   4.089  14.549  0.0409 -0.6754  0.1418
    2MPD2     H13836   1.114   4.197  14.320  1.2684  1.5688 -2.1432
    2MPD2    H113837   1.345   3.889  14.483 -0.1578  0.3458  0.1472
    2MPD2    H213838   1.435   4.287  14.582  1.7790 -0.6670 -1.6706
    2MPD2    H313839   1.471   4.049  14.608  1.9725 -0.8686 -2.6299
    2MPD2     N13840   1.116   3.945  14.339 -0.1352 -0.3083 -0.1187
    2MPD2    H513841   1.051   3.985  14.272  1.6161 -1.1973 -2.3375
    2MPD2    N113842   1.247   4.402  14.433 -0.3342 -0.4504 -0.3549
    2MPD2    H713843   1.302   4.463  14.491 -3.1314  2.5345 -0.8691
    3TMC2    C113844   1.141   4.600  14.367  0.0556  0.2478  0.3517
    3TMC2    C213845   1.194   4.666  14.474 -0.2860 -0.0473  0.2990
    3TMC2    C313846   1.167   0.076  14.478  0.1091  0.7389 -0.5066
    3TMC2    C413847   1.061   4.660  14.274  0.4660  0.2434  0.0856
    3TMC2    C513848   1.037   0.071  14.284 -0.6544  0.0370 -0.0704
    3TMC2    C613849   1.098   0.146  14.385 -0.1417  0.4949  0.2945
    3TMC2     C13850   1.162   4.464  14.342  0.3205 -0.2884 -0.0275
    3TMC2     O13851   1.089   4.417  14.254  0.1332 -0.0265 -0.2423
    3TMC2     H13852   1.263   4.619  14.543  0.7725 -0.1187 -0.7906
    3TMC2    H113853   1.008   4.609  14.194 -2.6072  0.0087  2.2783
    3TMC2    H213854   1.063   0.245  14.411 -0.1746  0.5824 -0.0762
    3TMC2    C713855   0.941   0.133  14.194  0.2089  0.6921 -0.2008
    3TMC2    C813856   1.265   0.139  14.559 -0.4237 -0.5581  0.6457
    3TMC2    O113857   0.860   0.069  14.132 -0.3029 -0.5393  0.0481
    3TMC2    O213858   1.235   0.254  14.592  0.0080 -0.4758  0.1162
    3TMC2    O513859   1.382   0.102  14.498 -0.0498  0.1972  0.1591
    3TMC2    H513860   1.401   0.008  14.478 -0.9729  0.4327 -1.7971
    4MPD2     C13861   0.742   1.255  13.379  0.6188 -0.1148  0.0651
    4MPD2    C113862   0.746   1.118  13.382 -0.8377 -0.7983 -0.0436
    4MPD2    C213863   0.837   1.050  13.466  0.5354 -0.2693 -0.5180
    4MPD2    C313864   0.926   1.122  13.541 -0.9608  0.8113  0.3989
    4MPD2    C413865   0.907   1.255  13.542 -0.5243  0.2393  0.0731
    4MPD2    C513866   0.828   1.327  13.456  0.1535 -0.1008 -0.3136
    4MPD2     H13867   0.837   0.942  13.476  0.4141 -0.2546 -0.3634
    4MPD2    H113868   0.956   1.321  13.612 -1.2997  1.2788 -0.3620
    4MPD2    H213869   0.663   1.303  13.323  0.2478  0.1233  0.7934
    4MPD2    H313870   0.824   1.434  13.472  1.6423 -0.1825  0.6340
    4MPD2     N13871   1.019   1.045  13.613 -0.3568 -0.4580 -0.1165
    4MPD2    H513872   1.021   0.944  13.605  0.0496 -0.3838 -0.9218
    4MPD2    N113873   0.649   1.052  13.312 -0.3281  0.1638 -0.0085
    4MPD2    H713874   0.597   1.114  13.251 -0.5701  1.1151  1.1549
    5TCq2    C113875   1.125   1.090  13.682 -0.1704 -0.1567  0.4871
    5TCq2    O213876   1.169   1.205  13.679  0.3891  0.1155 -0.0193
    5TCq2    C213877   1.190   0.985  13.761 -0.4416 -0.8520 -0.0054
    5TCq2    C313878   1.323   1.012  13.796 -0.2230  0.5978  0.6254
    5TCq2    C413879   1.402   0.910  13.840  0.6783 -0.1379  0.2868
    5TCq2    C513880   1.350   0.788  13.870 -0.4947 -0.4797 -0.1823
    5TCq2    C613881   1.223   0.765  13.829 -0.2318 -0.6019  0.3494
    5TCq2    C713882   1.139   0.862  13.769 -0.4318 -0.5194 -1.3758
    5TCq2    C813883   1.157   0.633  13.867 -0.2044 -0.4835  0.4435
    5TCq2    O413884   1.239   0.547  13.904  0.1870  0.9323 -0.3449
    5TCq2    C913885   1.542   0.925  13.870 -0.5212  0.1092  0.3543
    5TCq2    O513886   1.599   1.028  13.823  0.8849 -1.1094  0.1468
    5TCq2    O613887   1.602   0.833  13.928 -0.5924  0.3888  0.0741
    5TCq2    H213888   1.358   1.115  13.797 -0.7185  0.7643  0.7355
    5TCq2    H313889   1.414   0.705  13.900  0.3072 -0.2921 -1.3821
    5TCq2    H413890   1.033   0.846  13.755 -0.2078 -0.2515 -3.3938
    6MPD1     C13891   0.949   1.738  11.661 -0.5909  0.2390  0.7442
    6MPD1    C113892   0.821   1.701  11.692  0.1058 -0.5984 -0.3044
    6MPD1    C213893   0.801   1.639  11.816  0.6843  0.5378 -0.1862
    6MPD1    C313894   0.907   1.606  11.897 -0.2041  0.3459  0.0649
    6MPD1    C413895   1.036   1.634  11.858 -0.0743 -0.1564 -0.0643
    6MPD1    C513896   1.059   1.697  11.732  0.7396  0.7344 -0.0242
    6MPD1     H13897   0.696   1.633  11.841  1.0800 -1.2577  1.0403
    6MPD1    H113898   1.123   1.617  11.921 -0.0239 -1.1903 -0.4192
    6MPD1    H213899   0.973   1.791  11.569 -0.3792 -1.8150 -0.3769
    6MPD1    H313900   1.157   1.733  11.703  0.8553  0.9367  0.6157
    6MPD1     N13901   0.882   1.552  12.032 -0.2214  0.1394  0.3128
    6MPD1    H513902   0.958   1.567  12.097 -0.0263  1.1718 -0.1492
    6MPD1    N113903   0.710   1.756  11.621  0.2598  0.0941  1.3291
    6MPD1    H613904   0.720   1.761  11.519  0.3971  0.6283  1.3645
    6MPD1    H713905   0.632   1.693  11.639 -0.9845  1.1023 -0.4865
    7MPD2     C13906   0.272   1.386  12.650  0.2069 -0.9631 -0.0907
    7MPD2    C113907   0.389   1.324  12.639 -0.1410  0.7981  0.1844
    7MPD2    C213908   0.414   1.216  12.729 -0.1071  0.1636  0.4454
    7MPD2    C313909   0.320   1.178  12.821  0.6811  0.0780 -0.2390
    7MPD2    C413910   0.206   1.256  12.841 -0.4136  0.3739 -0.0726
    7MPD2    C513911   0.180   1.357  12.750  0.1035  0.9670  0.1855
    7MPD2     H13912   0.510   1.167  12.721 -0.1781 -0.0610  0.9187
    7MPD2    H113913   0.132   1.245  12.920 -2.1941  1.3764 -1.5846
    7MPD2    H213914   0.255   1.470  12.584 -0.6658 -0.9748  0.1285
    7MPD2    H313915   0.092   1.419  12.767  0.2453  1.5096 -1.0691
    7MPD2     N13916   0.358   1.070  12.908 -0.1614  0.1289  0.5539
    7MPD2    H513917   0.447   1.024  12.891 -0.2233 -0.3091  1.4218
    7MPD2    N113918   0.488   1.341  12.535 -0.4103  0.0445 -0.1317
    7MPD2    H713919   0.567   1.278  12.539 -1.9931 -2.1357 -2.7267
    8TMC3    C113920   0.359   0.901  13.064 -0.2697  0.0492 -0.0117
    8TMC3    C213921   0.421   0.920  13.187 -0.2808 -0.3922  0.1193
    8TMC3    C313922   0.546   0.890  13.198 -0.3711 -1.1612  0.1123
    8TMC3    C413923   0.425   0.838  12.967 -0.2626 -0.1350 -0.3789
    8TMC3    C513924   0.564   0.823  12.979 -0.5007  0.1033  0.0754
    8TMC3    C613925   0.622   0.836  13.101 -0.5716  0.6839 -0.5092
    8TMC3     C13926   0.299   1.025  13.019  0.4602 -0.0867 -0.7829
    8TMC3     O13927   0.217   1.086  13.090 -0.1496  0.8060 -0.1593
    8TMC3     H13928   0.365   0.960  13.271 -0.9622  1.2144 -1.0924
    8TMC3    H113929   0.376   0.815  12.873 -0.3737 -1.8564  0.1060
    8TMC3    H213930   0.727   0.819  13.124  0.0831  2.7720 -1.8241
    8TMC3    C713931   0.639   0.866  12.867 -0.4689 -0.0199  0.3553
    8TMC3    C813932   0.620   0.922  13.313 -0.0466  0.3233 -0.2749
    8TMC3    O113933   0.568   0.917  12.781 -0.3508  0.1289 -0.1111
    8TMC3    O213934   0.649   0.831  13.388  0.2038  0.2753  0.3704
    9TMC3    C113935   0.749   1.465  12.200  0.1868  0.5622  0.3668
    9TMC3    C213936   0.864   1.419  12.269  0.7636 -0.1946 -0.5753
    9TMC3    C313937   0.851   1.386  12.402  0.2276  0.1910  0.3121
    9TMC3    C413938   0.626   1.466  12.253 -0.1462  0.1407  0.3550
    9TMC3    C513939   0.620   1.431  12.378 -0.0353  0.0634 -0.7519
    9TMC3    C613940   0.729   1.399  12.458  0.4459 -0.1904 -0.1568
    9TMC3     C13941   0.756   1.509  12.068  0.6081  0.2424  0.1422
    9TMC3     O13942   0.653   1.499  12.006 -0.3979  0.3288  0.3041
    9TMC3     H13943   0.960   1.401  12.223  2.4526 -0.4883  3.0651
    9TMC3    H113944   0.537   1.491  12.196 -0.7888  2.1995  2.2708
    9TMC3    H213945   0.713   1.368  12.561  2.3185 -3.4016 -0.8093
    9TMC3    C713946   0.497   1.444  12.447  0.6282  0.8139 -0.3337
    9TMC3    C813947   0.942   1.290  12.467 -1.1609 -0.1848 -0.2592
    9TMC3    O113948   0.416   1.515  12.397 -0.5782  0.0147  0.1131
    9TMC3    O213949   1.065   1.292  12.451  0.0613 -0.6343  0.4305
   10MPD2     C13950   0.997   0.941  12.835 -0.4789  0.1667 -0.1477
   10MPD2    C113951   0.863   0.936  12.802  0.1680 -0.1608  0.3102
   10MPD2    C213952   0.825   1.022  12.699 -0.6983 -0.3872  0.0293
   10MPD2    C313953   0.920   1.099  12.638 -0.5826  0.3976  0.0377
   10MPD2    C413954   1.051   1.095  12.673  0.3507  0.9616 -0.3634
   10MPD2    C513955   1.090   1.032  12.782 -0.5422  0.1491 -0.4771
   10MPD2     H13956   0.724   1.033  12.661 -0.9654 -0.8163  0.6107
   10MPD2    H113957   1.119   1.165  12.624 -1.0471  2.4331 -0.2055
   10MPD2    H213958   1.045   0.883  12.913  1.2909  1.5875 -0.1756
   10MPD2    H313959   1.195   1.023  12.808 -0.6078 -0.9304 -0.5864
   10MPD2     N13960   0.873   1.190  12.537 -0.5164 -0.3217 -0.4635
   10MPD2    H513961   0.773   1.187  12.521 -0.3278  2.9462 -2.2748
   10MPD2    N113962   0.775   0.854  12.874 -0.0062  0.3837  0.7358
   10MPD2    H713963   0.821   0.804  12.950  1.0667  1.4039  0.7608
   11MPD2     C13964   0.778   0.343  14.049  0.0684 -0.3895 -0.4318
   11MPD2    C113965   0.914   0.350  14.085  0.2209  0.1397 -0.3534
   11MPD2    C213966   0.993   0.444  14.024 -0.0329 -1.0947 -0.2015
   11MPD2    C313967   0.943   0.533  13.930 -0.6324 -0.0499  0.4171
   11MPD2    C413968   0.808   0.534  13.909  0.4273 -0.2756 -0.3586
   11MPD2    C513969   0.728   0.436  13.961 -0.6064  0.2455 -0.3201
   11MPD2     H13970   1.098   0.437  14.050  0.9021  1.4953 -3.3635
   11MPD2    H113971   0.755   0.603  13.843  0.0919 -1.7978 -1.6970
   11MPD2    H213972   0.714   0.271  14.099  0.1965 -0.5079 -0.4411
   11MPD2    H313973   0.623   0.437  13.933 -0.7194 -0.2267  0.1018
   11MPD2     N13974   1.023   0.629  13.866  0.2983  0.4328  0.6156
   11MPD2    H513975   0.974   0.703  13.817  1.1810 -0.1521 -1.1235
   11MPD2    N113976   0.980   0.266  14.178 -0.2850  0.4352  0.3393
   11MPD2    H713977   1.073   0.290  14.212  0.1147 -4.0933  2.5048
    1MPD1     C13978   4.616   1.919  16.869 -0.3662 -0.3582  0.3353
    1MPD1    C113979   4.531   2.010  16.816 -0.3020 -0.1130  0.4648
    1MPD1    C213980   4.430   1.972  16.735 -0.1999 -0.3424 -0.5638
    1MPD1    C313981   4.410   1.842  16.704 -0.1517  0.3724  0.1712
    1MPD1    C413982   4.493   1.747  16.761  0.1305  0.8144  0.8626
    1MPD1    C513983   4.592   1.784  16.856  0.2204  0.3539  0.0482
    1MPD1     H13984   4.378   2.045  16.674 -2.1679  1.2200  2.9867
    1MPD1    H113985   4.495   1.643  16.732 -1.5311  1.1922 -0.5991
    1MPD1    H213986   4.707   1.941  16.923 -0.8793  1.2535  0.5515
    1MPD1    H313987   4.665   1.714  16.894 -0.9973 -2.0072 -1.9525
    1MPD1     N13988   4.311   1.798  16.619  0.2764  0.3145  0.5390
    1MPD1    H513989   4.318   1.701  16.593 -0.2298  0.9760 -2.0474
    1MPD1    N113990   4.572   2.145  16.821 -0.0431 -0.1937 -0.0143
    1MPD1    H613991   4.625   2.160  16.906  2.4291 -0.6834 -1.4868
    1MPD1    H713992   4.491   2.206  16.835  1.1085  1.4163 -0.3700
    2MPD1     C13993   4.621   1.466  15.881 -0.7130  0.5330  0.5835
    2MPD1    C113994   4.666   1.564  15.967  0.0628  0.5123 -0.3622
    2MPD1    C213995   4.580   1.622  16.059  0.3634  0.0587 -0.7770
    2MPD1    C313996   4.444   1.578  16.058 -0.4606  1.0724  0.4655
    2MPD1    C413997   4.409   1.473  15.979  0.4422  0.0985  0.1989
    2MPD1    C513998   4.495   1.420  15.891 -0.3816  0.0781  0.3202
    2MPD1     H13999   4.612   1.702  16.123 -0.6194 -1.1664  1.2471
    2MPD1    H114000   4.322   1.411  15.995  1.0724 -0.6842  0.6381
    2MPD1    H214001   4.682   1.425  15.802 -1.4147 -0.3388  0.4994
    2MPD1    H314002   4.454   1.345  15.824  0.0811 -0.5003  0.6838
    2MPD1     N14003   4.362   1.636  16.154  0.3203 -0.0748 -0.5062
    2MPD1    H514004   4.408   1.713  16.202  0.6292 -0.9439  0.5953
    2MPD1    N114005   0.078   1.609  15.959  0.0897  1.2135  0.1878
    2MPD1    H614006   0.141   1.530  15.953 -0.1474  0.8561  2.3427
    2MPD1    H714007   0.110   1.674  16.030 -0.6628  1.4625  0.2990
    3TMC3    C114008   4.159   1.717  16.253 -0.1258 -0.1552 -0.1479
    3TMC3    C214009   4.034   1.761  16.214  0.3459 -0.0948  0.1896
    3TMC3    C314010   3.970   1.854  16.293 -0.5209 -0.4678 -0.3821
    3TMC3    C414011   4.201   1.732  16.382  0.1132 -0.2028  0.1666
    3TMC3    C514012   4.126   1.822  16.460 -0.3482  0.1910  0.0804
    3TMC3    C614013   4.012   1.888  16.414  0.4835  0.4946  0.3539
    3TMC3     C14014   4.220   1.621  16.163  0.0351 -0.3890  0.1496
    3TMC3     O14015   4.154   1.551  16.091  0.3654 -0.2867 -0.1178
    3TMC3     H14016   4.005   1.722  16.117 -1.7883  1.4686  0.1871
    3TMC3    H114017   4.291   1.678  16.409 -0.6099 -0.6672  1.6282
    3TMC3    H214018   3.949   1.946  16.480 -0.9137 -0.8131  0.1487
    3TMC3    C714019   4.197   1.871  16.573 -0.5561 -1.0038 -0.0712
    3TMC3    C814020   3.856   1.916  16.249 -0.0267  0.7870  0.1597
    3TMC3    O114021   4.148   1.979  16.612  0.3096 -0.2861 -0.5052
    3TMC3    O214022   3.780   1.967  16.332 -0.3135  0.1205  0.3574
    4MPD1     C14023   3.525   2.007  15.869  0.5104  0.7289  0.3099
    4MPD1    C114024   3.645   1.984  15.813 -0.3270 -0.3433  0.0291
    4MPD1    C214025   3.749   1.965  15.898  0.1844 -0.8482  0.0945
    4MPD1    C314026   3.736   1.963  16.035  0.4071 -0.1374  0.4389
    4MPD1    C414027   3.611   1.987  16.091  0.5390 -0.4197  0.1461
    4MPD1    C514028   3.508   2.019  16.005 -1.5863  0.1032  0.4766
    4MPD1     H14029   3.847   1.956  15.853  0.1066 -0.9172 -0.0619
    4MPD1    H114030   3.593   1.971  16.197 -3.2491  0.4540 -0.3862
    4MPD1    H214031   3.435   2.016  15.809  1.1334  1.1807 -0.5540
    4MPD1    H314032   3.408   2.047  16.036 -1.2336  2.0302 -0.1276
    4MPD1     N14033   3.841   1.907  16.114 -0.0109 -0.1361 -0.0152
    4MPD1    H514034   3.918   1.876  16.055 -0.4182  0.1870 -0.7229
    4MPD1    N114035   3.649   1.958  15.676  0.3278 -0.1292 -0.0678
    4MPD1    H614036   3.745   1.955  15.642  0.1869 -0.1071 -0.4667
    4MPD1    H714037   3.575   1.999  15.619  0.1765 -0.0427  0.1880
    1TCq1    O114038   4.065   2.283  11.577  0.0824  0.1776 -0.2035
    1TCq1    C114039   4.104   2.374  11.490  0.0659 -0.6264 -0.1452
    1TCq1    O214040   4.034   2.468  11.455  0.0660 -0.2621  0.0188
    1TCq1    C214041   4.219   2.326  11.416  0.4999 -0.6846 -0.1884
    1TCq1    C314042   4.314   2.255  11.490 -0.2508  0.2443 -0.1200
    1TCq1    C414043   4.406   2.181  11.416  0.5105 -0.2806  0.4186
    1TCq1    C514044   4.426   2.211  11.289 -0.8233 -0.0730  0.2604
    1TCq1    C614045   4.344   2.290  11.221  1.5492  0.4893  0.0266
    1TCq1    C714046   4.233   2.354  11.282 -0.8044  0.3115  0.4080
    1TCq1    C814047   4.366   2.309  11.082 -1.1700  0.0662  0.3955
    1TCq1    O414048   4.320   2.407  11.029  0.1073 -0.0237 -0.2022
    1TCq1    C914049   4.515   2.122  11.497 -1.1904 -0.1131 -1.0266
    1TCq1    O514050   4.485   2.086  11.615  0.3782  0.2835 -0.3673
    1TCq1    O614051   4.623   2.085  11.446 -0.1646 -0.1664 -0.5380
    1TCq1    H114052   4.121   2.203  11.585 -1.2641 -0.8768 -1.3621
    1TCq1    H214053   4.309   2.246  11.598 -3.1905  0.2003 -0.2379
    1TCq1    H314054   4.527   2.190  11.256  0.3782  3.9280  1.4253
    1TCq1    H414055   4.161   2.415  11.228 -0.7741  0.2515  0.3013
    2MPD1     C14056   4.600   2.141  10.650 -0.0203  0.5654  0.2682
    2MPD1    C114057   4.580   2.039  10.734 -0.8620  0.4802  0.0825
    2MPD1    C214058   4.518   2.064  10.858  0.7692  0.1241 -0.0595
    2MPD1    C314059   4.482   2.194  10.899  0.9051 -0.9336 -0.0597
    2MPD1    C414060   4.504   2.297  10.807 -0.2422  0.1872  0.0153
    2MPD1    C514061   4.572   2.267  10.687  0.3109 -0.1601  0.5266
    2MPD1     H14062   4.483   1.984  10.922 -2.0059 -0.6978 -2.5713
    2MPD1    H114063   4.482   2.399  10.836  1.6257 -0.1366  2.5610
    2MPD1    H214064   4.655   2.129  10.558  0.0680 -0.6142  0.4727
    2MPD1    H314065   4.603   2.348  10.622 -1.6969  0.7148  0.6501
    2MPD1     N14066   4.428   2.197  11.024  1.2551 -0.4653 -0.1020
    2MPD1    H514067   4.435   2.107  11.072 -0.1226 -0.3373  0.3460
    2MPD1    N114068   4.585   1.906  10.684  0.5095 -0.3035  0.7392
    2MPD1    H614069   4.600   1.829  10.749 -0.5830  0.3922  1.8074
    2MPD1    H714070   4.627   1.883  10.594 -0.0814 -0.4918  0.5123
    1TCq1    O114071   2.768   0.541   8.911 -0.2289 -0.4326  0.1934
    1TCq1    C114072   2.706   0.535   8.788  0.0474 -0.8446 -0.4796
    1TCq1    O214073   2.683   0.437   8.726  0.1520  0.2996  0.2329
    1TCq1    C214074   2.600   0.628   8.813  1.0618  0.1019  0.3195
    1TCq1    C314075   2.639   0.751   8.851  0.1607  0.7300 -0.6945
    1TCq1    C414076   2.542   0.852   8.842  0.8679 -0.0973  0.6873
    1TCq1    C514077   2.428   0.828   8.775  0.1332  0.5933 -0.2300
    1TCq1    C614078   2.390   0.702   8.744 -0.4662  0.0868  0.6140
    1TCq1    C714079   2.476   0.600   8.767 -0.3206 -0.1182 -1.1973
    1TCq1    C814080   2.285   0.680   8.640  0.9420  0.0157 -0.3175
    1TCq1    O414081   2.253   0.780   8.572 -0.1034  0.4972 -0.6536
    1TCq1    C914082   2.586   0.989   8.853  0.4203 -1.1611  0.1757
    1TCq1    O514083   2.699   1.005   8.902 -0.3930 -0.2206  0.2773
    1TCq1    O614084   2.512   1.077   8.800  0.9165 -0.0226  0.1720
    1TCq1    H114085   2.779   0.633   8.944  0.7778 -0.1466 -0.9661
    1TCq1    H214086   2.744   0.776   8.853 -0.1730  2.0890 -0.2815
    1TCq1    H314087   2.364   0.907   8.737 -1.5290 -1.1478 -1.0072
    1TCq1    H414088   2.461   0.503   8.721  1.0082 -1.4977  1.2705
    2MPD1     C14089   1.887   0.402   8.455  0.3408  0.1053  0.2533
    2MPD1    C114090   1.976   0.318   8.515 -0.7823  0.0962 -0.7077
    2MPD1    C214091   2.094   0.363   8.569 -0.6796  0.3380  0.2099
    2MPD1    C314092   2.121   0.501   8.569  0.1556  0.4469 -0.5475
    2MPD1    C414093   2.036   0.584   8.501 -0.1597  0.5207 -0.2810
    2MPD1    C514094   1.916   0.537   8.450 -0.1237 -0.8334  0.0735
    2MPD1     H14095   2.165   0.290   8.605 -0.9667  1.9256  4.0610
    2MPD1    H114096   2.035   0.692   8.502 -3.9237  0.4544  2.5636
    2MPD1    H214097   1.795   0.363   8.415 -0.1008 -0.2318  1.5813
    2MPD1    H314098   1.844   0.611   8.417 -0.6508 -1.7551 -0.8515
    2MPD1     N14099   2.239   0.548   8.636  0.1185  0.3170 -0.1683
    2MPD1    H514100   2.278   0.480   8.701 -1.8591  0.1848  0.8921
    2MPD1    N114101   1.967   0.184   8.480 -0.1508 -0.1436 -0.6118
    2MPD1    H614102   2.012   0.126   8.552  0.1062  1.2053  0.3119
    2MPD1    H714103   1.873   0.146   8.469 -0.1115  0.0505 -1.5627
    1MPD1     C14104   1.223   1.517  12.256 -0.5232  0.1081 -0.1500
    1MPD1    C114105   1.165   1.637  12.238  0.0934 -0.6002 -0.2945
    1MPD1    C214106   1.210   1.719  12.137  0.4969  0.4046  0.1909
    1MPD1    C314107   1.323   1.694  12.061 -0.2190 -0.0181  0.3881
    1MPD1    C414108   1.391   1.575  12.092  0.5689  0.0927 -0.4031
    1MPD1    C514109   1.327   1.484  12.172 -0.1546 -0.1340 -0.6344
    1MPD1     H14110   1.157   1.810  12.112 -0.8252  0.4339  3.1076
    1MPD1    H114111   1.465   1.544  12.019  0.9997  1.6295 -0.6214
    1MPD1    H214112   1.188   1.433  12.315  1.0059 -0.2395  0.2544
    1MPD1    H314113   1.366   1.385  12.194 -1.9221 -1.1113 -1.8606
    1MPD1     N14114   1.367   1.791  11.967 -1.0768 -0.2406 -0.1531
    1MPD1    H514115   1.311   1.873  11.951  1.2187  1.1181 -1.3164
    1MPD1    N114116   1.041   1.662  12.302  0.2726 -0.3820  0.4738
    1MPD1    H614117   1.038   1.627  12.398 -0.0217  0.0421  0.6147
    1MPD1    H714118   1.007   1.757  12.291 -0.0317 -0.7834 -2.1607
    2MPD1     C14119   1.886   0.718  10.200  0.0531 -0.1135  0.2779
    2MPD1    C114120   1.774   0.744  10.119  0.0039 -0.0499 -0.1380
    2MPD1    C214121   1.720   0.872  10.125 -0.1293  0.1142  0.1191
    2MPD1    C314122   1.782   0.968  10.204 -0.6219 -0.5235  0.1740
    2MPD1    C414123   1.907   0.940  10.255  0.0591 -0.0109  0.0902
    2MPD1    C514124   1.964   0.818  10.258 -0.0146  0.6023  0.1088
    2MPD1     H14125   1.618   0.882  10.090  0.3560  1.1037 -1.0208
    2MPD1    H114126   1.961   1.014  10.314  0.3438 -0.1635  0.0208
    2MPD1    H214127   1.934   0.621  10.190  1.0121  0.3449  0.4525
    2MPD1    H314128   2.051   0.790  10.317  0.7972  1.2614 -0.7804
    2MPD1     N14129   1.731   1.097  10.222 -0.0883  0.3464  0.4920
    2MPD1    H514130   1.795   1.167  10.258 -1.0968 -0.4217  3.7621
    2MPD1    N114131   1.720   0.636  10.053  0.1536  0.5990  0.2892
    2MPD1    H614132   1.799   0.574  10.036  0.3885  1.1676 -0.7636
    2MPD1    H714133   1.671   0.662   9.968 -1.0649  1.6612  1.3264
    3MPD1     C14134   0.907   1.716  10.517 -0.8584 -0.8434 -0.6488
    3MPD1    C114135   1.022   1.746  10.585  0.0962 -0.1567 -0.9217
    3MPD1    C214136   1.141   1.686  10.542  0.3114  0.5197  0.4828
    3MPD1    C314137   1.143   1.604  10.431  0.1584 -0.0327  0.4688
    3MPD1    C414138   1.021   1.563  10.377 -0.6627 -0.0716  0.9079
    3MPD1    C514139   0.907   1.625  10.415  0.2479  0.0105  0.3298
    3MPD1     H14140   1.233   1.691  10.599  0.2592 -0.1110  0.6239
    3MPD1    H114141   1.011   1.480  10.308  0.1902 -1.9092  2.9711
    3MPD1    H214142   0.814   1.758  10.552  1.2202  2.2358  1.1528
    3MPD1    H314143   0.809   1.589  10.387 -1.0975  2.4566  1.9017
    3MPD1     N14144   1.271   1.559  10.395  0.4224  0.3900  0.2733
    3MPD1    H514145   1.352   1.596  10.444  1.5349  0.5633 -1.6943
    3MPD1    N114146   1.013   1.811  10.703  0.1652  0.9315 -0.3720
    3MPD1    H614147   1.095   1.868  10.719  0.7578 -0.1891  0.6402
    3MPD1    H714148   0.930   1.870  10.698 -0.7939 -0.3443  0.2261
    4MPD2     C14149   1.387   2.042  11.235 -0.1964 -0.5120  0.2178
    4MPD2    C114150   1.495   2.089  11.303 -0.8604  0.2487  1.0135
    4MPD2    C214151   1.602   2.132  11.238 -0.3618 -0.0325 -0.4262
    4MPD2    C314152   1.604   2.134  11.101  0.2305  0.6143 -0.4556
    4MPD2    C414153   1.494   2.108  11.029 -0.1216  1.1120  1.5322
    4MPD2    C514154   1.391   2.050  11.098  0.9556  0.6442  0.2834
    4MPD2     H14155   1.689   2.171  11.292  0.8231 -2.6588 -0.4583
    4MPD2    H114156   1.497   2.113  10.921 -0.1132 -1.0919  1.4152
    4MPD2    H214157   1.296   2.008  11.283 -0.3683  0.1104  0.3361
    4MPD2    H314158   1.306   2.008  11.045 -0.8231  1.2853  2.6174
    4MPD2     N14159   1.723   2.146  11.026  0.6067  0.3460  0.2206
    4MPD2    H514160   1.713   2.144  10.925  1.3988 -1.9917  0.1824
    4MPD2    N114161   1.500   2.089  11.445  0.2522 -0.4891 -0.2498
    4MPD2    H714162   1.574   2.142  11.490 -0.4507  0.4000 -0.1204
    5TMC3    C114163   1.443   2.046  11.663 -0.0909 -0.2415  0.1536
    5TMC3    C214164   1.410   1.939  11.736  0.1241 -0.5500  0.6512
    5TMC3    C314165   1.510   1.898  11.824  0.5134  0.2588 -0.6509
    5TMC3    C414166   1.557   2.118  11.688 -0.1542  0.3807 -0.6211
    5TMC3    C514167   1.656   2.060  11.759  0.5757  1.2200  0.0964
    5TMC3    C614168   1.636   1.946  11.835  0.2874 -0.4461 -0.4744
    5TMC3     C14169   1.415   2.020  11.524  0.3797  0.3136 -0.1376
    5TMC3     O14170   1.339   1.929  11.505  0.6834 -0.0962  0.2781
    5TMC3     H14171   1.310   1.897  11.736 -0.3653  0.6353 -0.4105
    5TMC3    H114172   1.590   2.202  11.628 -0.3878  2.2132  1.8294
    5TMC3    H214173   1.706   1.910  11.910  2.5085  1.2164 -1.7605
    5TMC3    C714174   1.775   2.055  11.680 -0.0114  0.5944 -0.5656
    5TMC3    C814175   1.490   1.781  11.908 -0.4087  0.1515 -0.7520
    5TMC3    O114176   1.816   2.164  11.635 -0.1762  0.5989 -0.5883
    5TMC3    O214177   1.576   1.691  11.901 -0.2246 -0.4564 -0.8460
    6TMC3    C114178   1.585   1.281  10.211  0.0277 -0.1421 -0.3257
    6TMC3    C214179   1.454   1.325  10.208  0.1497  1.1850  0.2559
    6TMC3    C314180   1.431   1.454  10.257 -0.0143  0.8980 -0.0039
    6TMC3    C414181   1.683   1.365  10.240  0.0021 -0.3265 -0.1716
    6TMC3    C514182   1.656   1.490  10.293  0.5814  0.1430 -0.3249
    6TMC3    C614183   1.526   1.537  10.302  0.3381  0.5901  0.9081
    6TMC3     C14184   1.613   1.143  10.171 -0.3329  0.0373  0.0640
    6TMC3     O14185   1.533   1.089  10.099  0.6028  0.2237  0.1058
    6TMC3     H14186   1.368   1.261  10.186  2.7638 -1.3915 -2.4303
    6TMC3    H114187   1.785   1.339  10.212  0.1115  1.7890 -1.7805
    6TMC3    H214188   1.506   1.638  10.336 -0.2482 -0.0494  2.4154
    6TMC3    C714189   1.739   1.551  10.388 -0.4124  0.1207  0.3938
    6TMC3    C814190   1.295   1.493  10.279 -0.3042  0.3054 -0.1243
    6TMC3    O114191   1.685   1.628  10.470  0.4167 -0.8296  0.4688
    6TMC3    O214192   1.208   1.435  10.214  0.0297  0.2533  0.4013
    7MPD2     C14193   2.095   1.769  11.387 -0.3334 -0.4950 -0.0456
    7MPD2    C114194   2.047   1.894  11.369 -0.4517  0.3079 -0.1137
    7MPD2    C214195   1.944   1.947  11.457  0.0212  0.4488  0.7360
    7MPD2    C314196   1.894   1.876  11.565  0.2175 -0.5476  0.2297
    7MPD2    C414197   1.935   1.747  11.570 -0.7696  0.4430 -0.4138
    7MPD2    C514198   2.036   1.697  11.490  0.6599 -0.1274 -1.1820
    7MPD2     H14199   1.906   2.047  11.444  1.5799  1.1787  1.9035
    7MPD2    H114200   1.906   1.683  11.652  0.8941  0.8708  0.5207
    7MPD2    H214201   2.174   1.728  11.325  1.1397 -0.2064  1.6329
    7MPD2    H314202   2.069   1.598  11.516 -1.2940 -0.7867 -1.1880
    7MPD2     N14203   1.804   1.921  11.661  0.4889 -0.2399  0.1198
    7MPD2    H514204   1.772   1.849  11.726 -1.8230 -1.3729 -2.2455
    7MPD2    N114205   2.079   1.981  11.257 -0.1841 -0.3289 -0.4018
    7MPD2    H714206   2.010   2.050  11.229  2.8398  1.7392 -2.7249
    8TMC3    C114207   2.143   2.025  11.043 -0.4084  0.2659  0.3790
    8TMC3    C214208   2.126   1.944  10.931 -0.3324 -0.1429 -0.1409
    8TMC3    C314209   2.021   1.973  10.846  0.7787  0.7103  1.0633
    8TMC3    C414210   2.071   2.136  11.064 -0.5894 -0.2829  0.0501
    8TMC3    C514211   1.961   2.161  10.980 -0.1186  0.1005  0.6321
    8TMC3    C614212   1.944   2.082  10.866  0.4234 -1.3166  0.3106
    8TMC3     C14213   2.169   1.948  11.161  0.0516 -0.5097  0.3066
    8TMC3     O14214   2.241   1.849  11.155  0.1927  0.4512 -0.5352
    8TMC3     H14215   2.186   1.855  10.918 -1.3342 -0.7981 -0.3560
    8TMC3    H114216   2.099   2.203  11.145 -1.3580 -0.3358  0.3620
    8TMC3    H214217   1.857   2.086  10.801  0.5204 -0.3720  0.2323
    8TMC3    C714218   1.851   2.179  11.073 -0.1680 -0.3622  0.0266
    8TMC3    C814219   1.983   1.877  10.741 -0.4357 -0.2027 -1.0261
    8TMC3    O114220   1.890   2.186  11.190  0.3100 -0.3681  0.1672
    8TMC3    O214221   1.868   1.880  10.701  0.4366  1.0515  0.7942
    9MPD2     C14222   2.224   1.684  10.536  1.0946 -0.3898 -0.7083
    9MPD2    C114223   2.102   1.719  10.588  0.0281  0.1201 -0.1363
    9MPD2    C214224   1.988   1.672  10.527 -0.1012  1.0441 -0.0459
    9MPD2    C314225   1.983   1.566  10.435  0.7268 -0.1157 -1.0016
    9MPD2    C414226   2.113   1.520  10.409 -0.4983 -0.0593 -0.4719
    9MPD2    C514227   2.230   1.583  10.444 -0.1500 -0.1754  0.4859
    9MPD2     H14228   1.892   1.710  10.559 -1.2415 -2.2722  0.4579
    9MPD2    H114229   2.119   1.432  10.347  1.5520 -0.0200 -0.3315
    9MPD2    H214230   2.317   1.721  10.577  0.2881  1.9214 -0.9677
    9MPD2    H314231   2.319   1.529  10.413  0.3966  0.6104  0.6969
    9MPD2     N14232   1.874   1.517  10.370  0.5100 -0.0595  0.8273
    9MPD2    H514233   1.894   1.443  10.303 -0.7471  0.8556 -0.5665
    9MPD2    N114234   2.092   1.817  10.691 -0.3554  0.1847  0.4100
    9MPD2    H714235   2.180   1.842  10.734  0.1941 -1.4536  0.2312
    1MPD1     C14236   1.421   2.223  16.413  0.4136 -0.0260 -0.0202
    1MPD1    C114237   1.294   2.190  16.362 -0.3480 -0.2474  0.2419
    1MPD1    C214238   1.241   2.066  16.403 -0.4017  0.2989  0.4450
    1MPD1    C314239   1.307   1.985  16.489 -0.3009 -0.5105 -0.1214
    1MPD1    C414240   1.426   2.031  16.550  0.4364 -0.1007  1.0169
    1MPD1    C514241   1.484   2.147  16.507  0.0507 -0.0941  0.1473
    1MPD1     H14242   1.150   2.033  16.354  0.2086 -0.2152 -0.3392
    1MPD1    H114243   1.474   1.965  16.622  0.2941 -1.5864 -0.2459
    1MPD1    H214244   1.476   2.314  16.393  3.0623 -1.7137 -0.3616
    1MPD1    H314245   1.577   2.191  16.541  0.4823  1.3553 -2.8716
    1MPD1     N14246   1.251   1.863  16.527 -0.7672  0.2120  0.1374
    1MPD1    H514247   1.303   1.795  16.582 -0.5285  0.5903  0.3796
    1MPD1    N114248   1.231   2.270  16.268  0.4778  0.0858 -0.5750
    1MPD1    H614249   1.244   2.369  16.289  3.5112 -0.6698  1.0570
    1MPD1    H714250   1.129   2.260  16.267  0.3837  0.9786  0.0718
    2MPD1     C14251   1.563   0.952  16.730 -0.2663  0.4363  0.5616
    2MPD1    C114252   1.432   0.929  16.763  0.4075 -0.1512 -0.6166
    2MPD1    C214253   1.354   1.035  16.735 -0.0612 -0.4300  0.1111
    2MPD1    C314254   1.397   1.166  16.697  0.3483 -0.0520  0.2123
    2MPD1    C414255   1.534   1.184  16.674 -0.0994  0.4787  0.3956
    2MPD1    C514256   1.613   1.074  16.695 -0.0801 -0.1289  0.7525
    2MPD1     H14257   1.247   1.021  16.745 -0.7051  1.7697 -3.6291
    2MPD1    H114258   1.578   1.276  16.636  1.5555 -0.7602 -0.6611
    2MPD1    H214259   1.630   0.867  16.721  0.6027  1.0355  1.4137
    2MPD1    H314260   1.721   1.075  16.694 -0.0459 -2.8018  0.6199
    2MPD1     N14261   1.293   1.260  16.673 -0.3034  0.1911  0.2229
    2MPD1    H514262   1.200   1.226  16.693 -0.2146 -0.8135 -1.0504
    2MPD1    N114263   1.373   0.799  16.779 -0.0732 -0.0740  0.1907
    2MPD1    H614264   1.291   0.794  16.838  0.1537 -1.7872  0.3426
    2MPD1    H714265   1.441   0.736  16.821  0.8760  1.1664  0.5220
    3TCq2    C114266   1.318   1.387  16.624  0.2850  0.5567 -0.1980
    3TCq2    O214267   1.414   1.430  16.569 -0.0483 -0.7828  0.0891
    3TCq2    C214268   1.199   1.465  16.612 -0.1314 -0.8816 -0.2671
    3TCq2    C314269   1.078   1.428  16.668 -0.0639  0.4454 -0.6434
    3TCq2    C414270   0.977   1.523  16.673 -0.2612  1.3989 -0.0594
    3TCq2    C514271   0.995   1.649  16.617  0.3076  0.5593  0.1427
    3TCq2    C614272   1.109   1.678  16.547 -0.7889 -0.6820  0.2880
    3TCq2    C714273   1.214   1.586  16.542 -0.4050  0.3026 -0.8401
    3TCq2    C814274   1.122   1.814  16.493 -0.3616  0.0639 -0.1781
    3TCq2    O414275   1.018   1.866  16.449  0.0025  0.2344 -0.5085
    3TCq2    C914276   0.862   1.500  16.760 -0.2847  0.4790  0.4325
    3TCq2    O514277   0.760   1.580  16.746 -0.1153 -1.2106 -0.0034
    3TCq2    O614278   0.880   1.425  16.860  0.8450  0.1950 -0.6389
    3TCq2    H214279   1.063   1.333  16.720 -1.7531  1.8355  1.4128
    3TCq2    H314280   0.919   1.725  16.630  1.9570  2.4943 -1.4788
    3TCq2    H414281   1.308   1.594  16.488  0.3141 -1.0676  0.2130
    1TCq1    O114282   3.833   0.295  12.686  0.3143 -0.1155 -0.1408
    1TCq1    C114283   3.728   0.210  12.691 -0.5897 -0.5771  0.2708
    1TCq1    O214284   3.615   0.235  12.653  0.6796  0.0305 -0.1234
    1TCq1    C214285   3.773   0.084  12.728  0.3768  1.2343  0.1028
    1TCq1    C314286   3.679   0.005  12.795 -0.2631 -0.6771 -0.3693
    1TCq1    C414287   3.726   4.614  12.851 -0.2205  0.2342  0.1280
    1TCq1    C514288   3.856   4.578  12.848 -0.5276  0.0850 -0.3722
    1TCq1    C614289   3.947   4.664  12.782 -0.5195  0.1075 -0.0833
    1TCq1    C714290   3.902   0.054  12.711 -0.5413  0.0448  0.1252
    1TCq1    C814291   4.089   4.649  12.805  0.0580  0.3940 -0.3235
    1TCq1    O414292   4.164   4.701  12.720 -0.5216  1.3704  0.0355
    1TCq1    C914293   3.636   4.524  12.913 -0.2238 -0.7996 -0.4803
    1TCq1    O514294   3.510   4.538  12.890 -0.2326  0.0950  0.1690
    1TCq1    O614295   3.685   4.443  12.992 -0.1656 -0.5663  0.2423
    1TCq1    H114296   3.902   0.258  12.746  0.2850  0.8059  0.4577
    1TCq1    H214297   3.572   0.026  12.797 -0.1517 -0.1393  0.1607
    1TCq1    H314298   3.877   4.478  12.884  0.3028  0.6268  0.6434
    1TCq1    H414299   3.965   0.110  12.642 -0.6981 -1.4990 -1.2634
    2MPD2     C14300   4.356   4.574  12.900  0.0733 -0.3720 -0.2900
    2MPD2    C114301   4.238   4.560  12.972 -0.5423  0.4808 -1.1045
    2MPD2    C214302   4.253   4.521  13.103  0.1453  0.2645 -0.8984
    2MPD2    C314303   4.378   4.500  13.168  0.4685 -0.0195  0.0757
    2MPD2    C414304   4.488   4.518  13.092  0.1732  0.2925  0.4966
    2MPD2    C514305   4.480   4.561  12.961 -0.1161  0.0649  0.1737
    2MPD2     H14306   4.165   4.495  13.160  0.7677 -1.9856 -0.9506
    2MPD2    H114307   4.583   4.478  13.124 -0.1851  0.0785  1.2817
    2MPD2    H214308   4.353   4.609  12.797  0.7874 -1.9405 -0.8545
    2MPD2    H314309   4.571   4.592  12.910  0.5914  0.1000  1.4644
    2MPD2     N14310   4.378   4.465  13.300 -0.3562  0.4667  0.5247
    2MPD2    H514311   4.292   4.491  13.349 -0.3720  1.6820 -0.1452
    2MPD2    N114312   4.110   4.584  12.922 -0.2115  0.2811  0.8684
    2MPD2    H714313   4.024   4.563  12.972 -1.9918  2.4723 -1.3137
    3TCq1    O114314   4.218   4.641  13.872  0.5677 -0.1108 -0.1356
    3TCq1    C114315   4.242   4.652  13.737  0.8643 -0.3912 -0.1192
    3TCq1    O214316   4.172   4.708  13.653  0.1155 -0.7695 -0.7706
    3TCq1    C214317   4.338   4.559  13.699 -0.3557  0.0330  0.1406
    3TCq1    C314318   4.447   4.541  13.775 -0.4366 -0.4120 -0.5534
    3TCq1    C414319   4.557   4.476  13.736 -0.7150  0.3217 -0.6520
    3TCq1    C514320   4.573   4.438  13.606 -0.5611  0.4757  0.2499
    3TCq1    C614321   4.454   4.458  13.525  0.2983 -0.5069 -1.1153
    3TCq1    C714322   4.338   4.516  13.567 -0.2925 -0.6307  0.6730
    3TCq1    C814323   4.488   4.441  13.378 -0.5242  0.5850 -0.8681
    3TCq1    O414324   4.599   4.398  13.335 -0.3568 -0.3749 -0.1438
    3TCq1    C914325   4.667   4.450  13.827 -0.3889  0.0636 -0.0070
    3TCq1    O514326   4.642   4.454  13.950  0.4521 -0.2407 -0.6532
    3TCq1    O614327   0.056   4.425  13.774 -0.4868  0.2506 -0.2698
    3TCq1    H114328   4.273   4.568  13.907 -1.1420 -1.6714 -0.6751
    3TCq1    H214329   4.451   4.585  13.874 -2.8013 -0.2054 -0.5479
    3TCq1    H314330   4.654   4.370  13.585 -0.9914  0.8029 -2.4876
    3TCq1    H414331   4.257   4.534  13.497  1.2969 -1.0929 -1.3017
    1MPD2     C14332   3.599   0.092  14.789  0.0137 -0.2116 -0.1708
    1MPD2    C114333   3.574   0.013  14.680  0.1695  0.4133 -0.7622
    1MPD2    C214334   3.683   4.671  14.625 -0.5709 -0.1341 -0.1152
    1MPD2    C314335   3.808   4.696  14.677  0.4820  0.1645 -0.7569
    1MPD2    C414336   3.828   0.049  14.788  0.1427 -0.3761  0.1720
    1MPD2    C514337   3.722   0.111  14.845 -0.5277 -0.6305 -0.3465
    1MPD2     H14338   3.674   4.602  14.542 -2.8260  1.6156 -1.3196
    1MPD2    H114339   3.928   0.060  14.830 -0.4667 -0.4779  1.6752
    1MPD2    H214340   3.516   0.148  14.829  1.7389  1.3017  1.2970
    1MPD2    H314341   3.730   0.164  14.940  1.1914 -0.2115 -0.7168
    1MPD2     N14342   3.913   4.631  14.609 -0.8373  0.4390 -0.3144
    1MPD2    H514343   3.876   4.588  14.525 -1.7024 -0.5192  0.5583
    1MPD2    N114344   3.435   4.717  14.646  0.2065 -0.4833 -0.2560
    1MPD2    H714345   3.363   0.047  14.695 -0.5094 -0.7389 -1.0171
    2TMC3    C114346   3.272   4.618  14.507  0.2661 -0.2735  0.0827
    2TMC3    C214347   3.243   4.503  14.433 -0.0551  0.2075 -0.2074
    2TMC3    C314348   3.187   4.513  14.311  0.0808 -0.2372  0.1588
    2TMC3    C414349   3.224   0.013  14.468 -0.3744 -0.1954  0.2746
    2TMC3    C514350   3.169   0.017  14.342 -0.1395  0.0013 -0.1089
    2TMC3    C614351   3.144   4.631  14.266 -0.0921 -0.2115  0.2348
    2TMC3     C14352   3.393   4.607  14.573 -0.5256  0.6498  0.1048
    2TMC3     O14353   3.462   4.514  14.529  0.6363 -0.1739 -0.2006
    2TMC3     H14354   3.265   4.407  14.479 -0.1451  0.4232  0.2830
    2TMC3    H114355   3.238   0.100  14.530 -0.8466 -0.6103  0.9638
    2TMC3    H214356   3.096   4.640  14.169 -0.2496 -1.1788  0.2226
    2TMC3    C714357   3.071   0.120  14.320 -0.4278 -0.7277 -0.3699
    2TMC3    C814358   3.272   4.451  14.219  0.1112  0.4515 -0.3478
    2TMC3    O114359   2.980   0.093  14.242 -0.4405 -0.2118  0.1189
    2TMC3    O214360   3.245   4.454  14.100  0.3632 -0.2644 -0.3949
    3TCq1    O114361   2.884   0.840  15.210  0.2518 -0.6790 -0.3441
    3TCq1    C114362   2.813   0.799  15.101  0.1666 -0.4986 -0.2264
    3TCq1    O214363   2.738   0.702  15.104 -0.6225  0.0632 -0.4386
    3TCq1    C214364   2.911   0.821  15.002  0.1814 -0.3253 -0.1414
    3TCq1    C314365   2.992   0.931  14.996 -0.1563  0.7956 -0.5577
    3TCq1    C414366   3.100   0.943  14.915 -0.7430 -0.5767  0.0124
    3TCq1    C514367   3.126   0.843  14.827  0.3348 -0.2978 -0.5668
    3TCq1    C614368   3.034   0.741  14.821  0.1018  0.3984 -1.0553
    3TCq1    C714369   2.935   0.725  14.909 -0.0223  0.0586 -0.2531
    3TCq1    C814370   3.051   0.634  14.718 -0.4183 -0.3684 -0.1541
    3TCq1    O414371   3.160   0.613  14.664  0.8215 -0.3071  0.4269
    3TCq1    C914372   3.183   1.060  14.923 -0.2611  0.1496  0.0051
    3TCq1    O514373   3.259   1.093  14.830  0.6879  0.4619 -0.4733
    3TCq1    O614374   3.174   1.132  15.025  0.0308  0.7588  0.2256
    3TCq1    H114375   2.972   0.870  15.179  1.4289  0.3909  4.1291
    3TCq1    H214376   2.973   1.013  15.065 -0.6333  0.3201 -0.1316
    3TCq1    H314377   3.194   0.858  14.744  1.3480 -0.9479  0.1398
    3TCq1    H414378   2.869   0.639  14.912 -3.4205  2.7655  1.3349
    4MPD2     C14379   2.784   0.523  14.492 -0.2437 -0.4016 -0.5736
    4MPD2    C114380   2.907   0.514  14.558 -1.0932 -0.0802 -0.3350
    4MPD2    C214381   3.002   0.419  14.527 -0.4270  0.0638 -0.5990
    4MPD2    C314382   2.980   0.337  14.423  0.7441  0.6401 -0.3701
    4MPD2    C414383   2.871   0.347  14.356 -1.0008 -0.9640 -0.8656
    4MPD2    C514384   2.779   0.443  14.382  0.0258  0.3309  0.2676
    4MPD2     H14385   3.091   0.409  14.587 -1.2489  0.4988  0.7134
    4MPD2    H114386   2.849   0.292  14.266  0.9999  0.5911 -2.2933
    4MPD2    H214387   2.707   0.597  14.511 -0.1428 -0.3317 -0.4346
    4MPD2    H314388   2.692   0.456  14.319  0.1177 -0.1473  0.0433
    4MPD2     N14389   3.079   0.233  14.399  0.1153 -0.0054 -0.2850
    4MPD2    H514390   3.171   0.239  14.441  0.7407  2.7293 -2.0136
    4MPD2    N114391   2.925   0.602  14.664  0.7174 -0.2902 -0.0833
    4MPD2    H714392   2.838   0.650  14.685  0.9257  0.0863 -0.0870
    5TMC2    C114393   4.040   4.396  14.372  0.1224 -0.0550 -0.2861
    5TMC2    C214394   4.109   4.290  14.429 -0.3232  0.4750  0.5355
    5TMC2    C314395   4.168   4.311  14.549  0.2365 -0.6543 -0.2162
    5TMC2    C414396   4.057   4.518  14.437 -0.7455  0.8173  0.3628
    5TMC2    C514397   4.110   4.531  14.557 -0.0706  0.0751 -0.2856
    5TMC2    C614398   4.174   4.430  14.612  1.2209  0.8146  0.3162
    5TMC2     C14399   3.897   4.379  14.343  0.1802 -0.5933 -0.5275
    5TMC2     O14400   3.838   4.458  14.415  0.3149  0.3258  0.3953
    5TMC2     H14401   4.107   4.190  14.388 -0.7700  0.5417  0.3990
    5TMC2    H114402   4.021   4.606  14.384 -0.7870  1.4426  1.4302
    5TMC2    H214403   4.213   4.443  14.713 -0.6692 -0.9167  1.2633
    5TMC2    C714404   4.048   4.628  14.638 -0.8051  0.0769  0.5145
    5TMC2    C814405   4.255   4.206  14.604 -1.0994  0.1531  0.3182
    5TMC2    O114406   4.101   4.664  14.742 -0.2214  0.4936 -0.5704
    5TMC2    O214407   4.277   4.199  14.727 -0.6079  0.5004 -0.1609
    5TMC2    O514408   4.341   4.184  14.499 -0.0364 -0.2137 -0.0293
    5TMC2    H514409   4.319   4.229  14.415  0.8312  1.2653  0.5263
    6MPD2     C14410   3.461   4.252  14.119 -0.4145  0.3565  0.3990
    6MPD2    C114411   3.484   4.339  14.221 -0.5176  0.6644 -0.4140
    6MPD2    C214412   3.612   4.346  14.271 -0.2607 -0.2671  0.0777
    6MPD2    C314413   3.712   4.260  14.223  0.5798  0.8304  0.4825
    6MPD2    C414414   3.686   4.160  14.130 -0.1639  0.2448  0.3763
    6MPD2    C514415   3.558   4.160  14.084 -0.2424 -1.2348 -0.3874
    6MPD2     H14416   3.615   4.426  14.344 -2.0320 -0.0912 -0.0366
    6MPD2    H114417   3.761   4.111  14.070  0.0084  0.0419  0.7586
    6MPD2    H214418   3.365   4.255  14.068 -0.0744  0.1598 -0.2593
    6MPD2    H314419   3.536   4.095  14.000  0.9863 -1.4790 -0.5233
    6MPD2     N14420   3.849   4.277  14.267 -0.4664  0.3715 -0.2917
    6MPD2    H514421   3.916   4.223  14.213 -1.4234 -2.2957  1.1855
    6MPD2    N114422   3.387   4.419  14.284  0.6024 -0.5816 -0.0642
    6MPD2    H714423   3.406   4.447  14.380 -0.0914 -1.6466  0.3941
  945NH4     N114424   1.132   3.523  12.889  0.7503 -0.3308 -0.5260
  945NH4     H214425   1.087   3.431  12.906  0.8709 -0.3972 -0.5691
  945NH4     H314426   1.219   3.514  12.833  1.2193  2.0227 -0.2008
  945NH4     H414427   1.151   3.570  12.980 -0.9636 -1.0111  0.1719
  945NH4     H514428   1.075   3.583  12.826  0.8055  1.0620  0.7405
  946SOD     NA14429   0.127   3.542   1.136 -0.6666  0.2863  0.5305
  947SOD     NA14430   1.660   2.970  14.378  0.7046  0.1714 -0.3024
  948SOD     NA14431   2.259   4.590   9.868 -0.2131 -0.1326  0.5509
  949SOD     NA14432   0.134   3.313  17.672  0.0164 -0.3881  0.3123
  950SOD     NA14433   3.151   4.123  10.808 -0.6951 -0.3239  0.0304
  951SOD     NA14434   3.939   3.726  10.671  0.1685  0.4785 -0.2049
  952SOD     NA14435   3.094   3.456  11.717  0.1748 -0.1085 -0.1191
  953SOD     NA14436   0.014   4.674  11.599  0.0124  0.4369  0.2089
  954SOD     NA14437   0.701   4.643  14.184 -0.0621 -0.0749 -0.0497
  955SOD     NA14438   1.779   4.072   8.549 -0.0445  0.0585 -0.1233
  956SOD     NA14439   2.297   1.069  10.373 -0.2299 -0.3653 -0.1401
  957SOD     NA14440   1.475   0.187   1.468 -0.7111  0.3471 -0.1076
  958SOD     NA14441   2.438   4.704  13.774 -0.3568 -0.3328 -0.3388
  959SOD     NA14442   3.569   2.609   3.802 -0.1381  0.1677 -0.0150
  960SOD     NA14443   3.153   0.688  10.541 -0.0035  0.0251 -0.9158
  961SOD     NA14444   1.693   3.916   1.370  0.2755 -0.0080  0.1130
  962SOD     NA14445   1.836   0.439   3.807 -0.2997 -0.4123 -0.4844
  963SOD     NA14446   0.929   1.301   7.063  0.3140  0.2393  0.9802
  964SOD     NA14447   4.568   2.031  11.798 -0.0421  0.1217 -0.2957
  965SOD     NA14448   3.485   2.838  10.037 -0.4530 -0.4627  0.4607
  966SOD     NA14449   3.495   4.326  13.020 -0.2832 -0.0685 -0.0832
  967SOD     NA14450   0.352   0.076  11.073 -0.2704 -0.1914 -0.1716
  968SOD     NA14451   4.712   1.909  11.506  0.3955  0.1116  0.1381
  969SOD     NA14452   2.132   3.477  12.951  0.2720 -0.1198  0.3412
  970SOD     NA14453   0.522   2.275  17.233 -0.0732  0.1182 -0.2425
  971SOD     NA14454   0.189   0.063  11.327  0.1500 -0.1366  0.1008
  972SOD     NA14455   1.605   0.326  14.787  0.2399  0.1770  0.1501
  973SOD     NA14456   2.200   0.185   0.453  0.2366  0.2106 -0.3295
  974SOD     NA14457   3.399   4.450  12.724 -0.2710  0.1512 -0.4093
  975SOD     NA14458   1.749   4.371  11.297 -0.2621  0.1601 -0.4592
  976SOD     NA14459   3.996   3.187   9.663  0.2157 -0.2592 -0.1817
  977SOD     NA14460   4.672   1.346   0.539  0.3546  0.4319 -0.3214
  978SOD     NA14461   0.055   3.364  11.785  1.0367 -0.2805  0.0130
  979SOD     NA14462   2.538   1.621   1.139  0.3467  0.0207 -0.2913
  980SOD     NA14463   4.641   0.370  14.970  0.1406 -0.3538  0.3407
  981SOD     NA14464   0.313   1.191   8.083 -0.5163  0.2059 -0.1731
  982SOD     NA14465   4.407   0.208  11.609  0.1935 -0.6011  0.6355
  983SOD     NA14466   0.245   1.678  17.365 -0.6939  0.2607 -0.3001
  984SOD     NA14467   1.981   2.301   1.045 -0.4131 -0.2880 -0.5956
  985SOD     NA14468   3.651   0.617   5.872  0.3253  0.0420  0.4755
  986SOD     NA14469   3.572   1.765  14.607  0.4689  0.2982  0.1529
  987SOD     NA14470   1.002   1.810  14.228  0.2250 -0.1211 -0.2967
  988SOD     NA14471   2.264   1.014  15.652  0.1375  0.2557 -0.1485
  989SOD     NA14472   3.783   1.509  11.116  0.1108  0.4226  0.5469
  990SOD     NA14473   3.936   4.388   9.555 -0.8013 -0.2620  0.1657
  991SOD     NA14474   2.039   1.809  16.555  0.1370 -0.0646 -0.0843
  992SOD     NA14475   2.958   3.686  14.689  0.3298  0.1040  0.0127
  993SOD     NA14476   0.322   4.623  14.385 -0.2156 -0.5330 -0.0284
  994SOD     NA14477   0.892   4.371  14.319 -0.3225 -0.5482 -0.3121
  995SOD     NA14478   4.540   1.093   8.866  0.0364  0.3451  0.2890
  996SOD     NA14479   3.016   0.009  10.619 -0.1760 -0.2181 -0.4251
  997SOD     NA14480   0.527   1.370   2.005  0.5346 -0.1036  0.2042
  998SOD     NA14481   4.018   4.051  10.691 -0.1789 -0.2187  0.0401
  999SOD     NA14482   2.341   3.719   1.887  0.3932  0.6066 -0.0803
 1000SOD     NA14483   1.631   1.088  13.623  0.0112 -0.5199 -0.2794
 1001SOD     NA14484   0.674   2.377  14.257 -0.0831 -0.1792 -0.5378
 1002SOD     NA14485   1.442   3.856   0.306  0.0620 -0.1666 -0.3459
 1003SOD     NA14486   1.753   0.741   1.533  0.5558 -0.1611 -0.0052
 1004SOD     NA14487   3.290   0.733  14.176 -0.6705  0.1271  0.1448
 1005SOD     NA14488   3.319   1.287  14.930 -0.4013 -0.0791 -0.5158
 1006SOD     NA14489   4.622   3.905  10.443 -0.2970 -0.2933  0.1264
 1007SOD     NA14490   1.907   3.795   2.944 -0.1504 -0.0153  0.5402
 1008SOD     NA14491   1.429   3.274  16.378 -0.1253  0.7456  0.7571
 1009SOD     NA14492   0.299   4.386  10.958  0.0731  0.8600 -0.6032
 1010SOD     NA14493   1.308   2.490   2.819 -0.0303 -0.0739 -0.2610
 1011SOL     OW14494   4.529   4.658   9.048  0.5448  0.3713 -0.0696
 1011SOL    HW114495   4.440   4.635   9.020  0.0687  1.7660  0.3503
 1011SOL    HW214496   4.554   4.565   9.046  0.3308  0.3080  0.3432
 1012SOL     OW14497   2.480   3.885  10.259  0.4683 -0.2460  0.3750
 1012SOL    HW114498   2.564   3.843  10.276  1.1528  1.7916  1.9117
 1012SOL    HW214499   2.481   3.979  10.277 -2.6626 -0.2081  0.3529
 1013SOL     OW14500   0.810   1.989   8.081  0.7644 -0.5796 -0.5384
 1013SOL    HW114501   0.802   2.081   8.106 -0.8107 -1.2202  1.3233
 1013SOL    HW214502   0.894   1.961   8.117  1.4231  1.2613 -0.6526
 1014SOL     OW14503   3.243   4.168  11.025  0.0253  0.1370  0.0730
 1014SOL    HW114504   3.288   4.085  11.044 -0.3102  0.1332  0.8744
 1014SOL    HW214505   3.302   4.238  11.053  0.0709  1.0719 -2.3446
 1015SOL     OW14506   1.465   3.335   5.819  0.0155  0.2961  0.7229
 1015SOL    HW114507   1.372   3.349   5.805 -0.1371 -2.3829 -0.9130
 1015SOL    HW214508   1.485   3.371   5.906 -1.3767 -3.2218  2.5002
 1016SOL     OW14509   0.157   4.351   4.054 -0.1612  0.8296  0.2289
 1016SOL    HW114510   0.092   4.398   4.107 -0.6223 -1.9964  2.1902
 1016SOL    HW214511   0.124   4.364   3.966  1.6722  1.1054 -0.4223
 1017SOL     OW14512   4.128   4.030  16.976 -0.2699 -1.0665 -0.4179
 1017SOL    HW114513   4.116   3.959  17.040  1.1871  1.3731  2.5718
 1017SOL    HW214514   4.037   4.057  16.959  0.3392  2.1996  1.5823
 1018SOL     OW14515   0.802   0.249   7.940  0.5358 -0.3776  0.1385
 1018SOL    HW114516   0.773   0.298   7.863  0.4179  0.9269  1.0187
 1018SOL    HW214517   0.883   0.206   7.913 -0.1883 -1.6657 -0.0146
 1019SOL     OW14518   4.260   2.443  12.725  0.4559 -0.1583 -0.1874
 1019SOL    HW114519   4.339   2.419  12.677  1.3892  1.0804  0.7357
 1019SOL    HW214520   4.297   2.521  12.768 -1.2026 -0.1311  1.1995
 1020SOL     OW14521   4.437   3.228   6.808 -0.5141 -0.2678 -0.7112
 1020SOL    HW114522   4.478   3.152   6.765  0.2032 -0.1401 -0.2427
 1020SOL    HW214523   4.508   3.290   6.798  0.3243 -1.2100 -0.6502
 1021SOL     OW14524   1.031   1.383   6.344 -0.0574 -0.0708 -0.2047
 1021SOL    HW114525   0.936   1.387   6.356 -0.2272  0.3406 -1.6498
 1021SOL    HW214526   1.043   1.429   6.261  0.8591  1.2411  0.6653
 1022SOL     OW14527   3.453   2.558   3.377  0.4350 -0.2879  0.7471
 1022SOL    HW114528   3.372   2.508   3.387 -0.1747  0.6597  0.5279
 1022SOL    HW214529   3.511   2.492   3.415 -2.0100 -2.6369  0.3923
 1023SOL     OW14530   2.432   0.915   4.069 -0.3412 -0.1803  0.6993
 1023SOL    HW114531   2.506   0.899   4.011 -0.4278  0.4591  0.4151
 1023SOL    HW214532   2.368   0.844   4.065  2.8547 -3.0265  0.2449
 1024SOL     OW14533   4.688   1.353   3.591  0.0926 -0.1699 -0.1643
 1024SOL    HW114534   4.624   1.283   3.574 -0.5404  0.5806 -0.8756
 1024SOL    HW214535   4.659   1.415   3.524 -2.6723 -0.1907  1.0058
 1025SOL     OW14536   1.156   1.941  12.476  0.3709  0.1061 -0.5188
 1025SOL    HW114537   1.163   2.025  12.521  0.1517  0.8355 -1.8352
 1025SOL    HW214538   1.247   1.912  12.473  0.0659 -0.9941  1.0079
 1026SOL     OW14539   3.277   0.488   5.006 -0.0926 -0.1388 -0.1715
 1026SOL    HW114540   3.272   0.397   4.977 -2.7831  0.3784 -1.2848
 1026SOL    HW214541   3.251   0.482   5.098  0.5586 -0.7543 -0.0283
 1027SOL     OW14542   4.282   0.280  16.347 -0.2927 -0.0207 -0.6301
 1027SOL    HW114543   4.342   0.340  16.389 -1.1033  0.5955 -0.3485
 1027SOL    HW214544   4.338   0.218  16.300  0.1472 -0.8952  1.0568
 1028SOL     OW14545   4.486   4.102   6.164 -0.0697  0.1619 -0.1370
 1028SOL    HW114546   4.528   4.177   6.204 -0.5767  0.9707 -1.1264
 1028SOL    HW214547   4.484   4.033   6.230  1.3878  0.5428  0.3019
 1029SOL     OW14548   4.545   3.701   2.797 -0.1004 -0.4331  0.2543
 1029SOL    HW114549   4.618   3.659   2.753 -0.6927  0.0393 -1.2009
 1029SOL    HW214550   4.521   3.637   2.864  0.8872 -0.9568  0.0979
 1030SOL     OW14551   2.229   3.263   8.903 -0.6205 -0.3708 -0.2359
 1030SOL    HW114552   2.199   3.343   8.947 -1.6129 -1.7948  1.6422
 1030SOL    HW214553   2.166   3.251   8.832  0.5111  0.4302 -1.3645
 1031SOL     OW14554   3.515   1.270  11.088 -0.7081  0.0418  0.3096
 1031SOL    HW114555   3.513   1.358  11.127  1.6093 -0.5201  1.7022
 1031SOL    HW214556   3.485   1.293  10.999  1.4500 -0.2095 -0.4830
 1032SOL     OW14557   2.787   2.711   7.167  0.6497  0.0432  0.0218
 1032SOL    HW114558   2.880   2.722   7.145  0.8256  0.0226  0.7586
 1032SOL    HW214559   2.785   2.788   7.224 -0.3439  0.1444 -0.1469
 1033SOL     OW14560   2.795   4.514   5.200 -0.3828  0.0248  0.1689
 1033SOL    HW114561   2.754   4.522   5.286 -1.1585 -0.2923 -0.1756
 1033SOL    HW214562   2.825   4.424   5.191 -1.4550 -0.4188  1.0104
 1034SOL     OW14563   2.913   0.564   4.964 -0.3805 -0.2343  0.3244
 1034SOL    HW114564   2.936   0.655   4.981  2.5347 -1.0548  0.7085
 1034SOL    HW214565   2.909   0.527   5.053  3.2076  2.0746  1.4414
 1035SOL     OW14566   1.966   4.385   6.081  0.1243  0.5221 -0.5006
 1035SOL    HW114567   1.924   4.450   6.136  0.2509 -0.4696  0.7649
 1035SOL    HW214568   2.058   4.410   6.089  0.3345 -1.3047  2.7762
 1036SOL     OW14569   1.918   0.555  16.092  0.3908 -0.4580 -0.4105
 1036SOL    HW114570   1.980   0.562  16.020  0.7317  0.0093 -0.0769
 1036SOL    HW214571   1.870   0.638  16.089  1.8742  0.3849 -0.9982
 1037SOL     OW14572   1.386   1.354   4.651  0.0640 -0.6614 -0.3511
 1037SOL    HW114573   1.424   1.271   4.622 -0.2815 -1.8099  2.4730
 1037SOL    HW214574   1.384   1.344   4.746  1.4468  0.1095 -0.2399
 1038SOL     OW14575   2.421   2.708   7.532  0.6237 -0.9274 -0.2605
 1038SOL    HW114576   2.380   2.621   7.530 -0.9612 -0.1848  0.3772
 1038SOL    HW214577   2.357   2.751   7.588  1.1939  1.7314 -1.6863
 1039SOL     OW14578   3.873   2.640  10.506  0.6887  0.0955 -0.1546
 1039SOL    HW114579   3.781   2.666  10.501  0.9130  0.7440 -0.8964
 1039SOL    HW214580   3.857   2.546  10.492 -0.9047  0.2808  0.4150
 1040SOL     OW14581   4.688   1.585   2.868 -0.3146  0.1592  0.0203
 1040SOL    HW114582   4.716   1.615   2.781  0.3585 -0.2251  0.1006
 1040SOL    HW214583   4.595   1.606   2.870 -0.1233  1.0070 -0.2328
 1041SOL     OW14584   2.411   1.241  11.095 -0.1242  0.1949 -0.5489
 1041SOL    HW114585   2.496   1.265  11.132 -0.0507  0.3817 -0.8417
 1041SOL    HW214586   2.415   1.293  11.015  0.9707  2.0233  0.6790
 1042SOL     OW14587   3.456   1.093   9.017  0.2847  0.2405 -0.4787
 1042SOL    HW114588   3.476   1.002   9.035 -0.5333  0.2745  0.5951
 1042SOL    HW214589   3.525   1.106   8.952  0.3823  1.7710 -0.0714
 1043SOL     OW14590   1.672   4.380   3.021 -0.8174  0.2802  0.5790
 1043SOL    HW114591   1.616   4.310   2.987 -0.4028  0.6252 -0.8213
 1043SOL    HW214592   1.661   4.462   2.973  0.9963 -0.0540 -0.4131
 1044SOL     OW14593   1.142   4.178   5.077 -0.2517  0.3832  0.1383
 1044SOL    HW114594   1.058   4.152   5.038  1.3438  0.0457 -3.0661
 1044SOL    HW214595   1.209   4.133   5.025 -1.1938 -1.1125  0.2023
 1045SOL     OW14596   1.839   3.203  13.603 -0.0319 -0.0117 -0.4009
 1045SOL    HW114597   1.932   3.225  13.589 -0.5491  3.8730  2.3832
 1045SOL    HW214598   1.808   3.253  13.527  1.0896  1.2328 -0.0311
 1046SOL     OW14599   4.438   3.707   1.774  0.2603 -0.0640 -0.0146
 1046SOL    HW114600   4.395   3.650   1.838 -0.7222 -0.5194 -1.0782
 1046SOL    HW214601   4.483   3.772   1.828  1.7254  0.2690 -1.6627
 1047SOL     OW14602   2.302   4.328   3.204  0.3491 -0.2648  0.1663
 1047SOL    HW114603   2.338   4.289   3.124 -0.7349 -0.6575 -0.1378
 1047SOL    HW214604   2.225   4.274   3.221  0.5169 -0.7600 -0.6296
 1048SOL     OW14605   0.056   1.639  15.410 -0.1627 -0.3843  0.5140
 1048SOL    HW114606   4.688   1.611  15.410 -0.0189 -0.8871 -2.5447
 1048SOL    HW214607   0.077   1.650  15.502  0.2677 -0.6952  0.4516
 1049SOL     OW14608   2.103   2.071   5.605  0.6993  0.1999  0.3669
 1049SOL    HW114609   2.088   2.163   5.583 -0.4117 -0.2388 -0.6767
 1049SOL    HW214610   2.134   2.088   5.694 -2.6335  2.4775  1.0696
 1050SOL     OW14611   4.267   1.328   3.622  0.1769 -0.2732  0.1393
 1050SOL    HW114612   4.303   1.369   3.700 -1.0912 -2.4941  1.8937
 1050SOL    HW214613   4.177   1.325   3.656  0.5166  1.9916  1.2730
 1051SOL     OW14614   4.060   2.884   4.108  0.1336 -0.1399  0.0927
 1051SOL    HW114615   4.130   2.911   4.166 -0.3092 -0.1599  0.6385
 1051SOL    HW214616   4.011   2.842   4.178  0.2245 -0.9040 -0.3033
 1052SOL     OW14617   3.377   3.864  16.571 -0.0107  1.0460 -0.8342
 1052SOL    HW114618   3.452   3.885  16.516  0.1841  0.1119 -0.9335
 1052SOL    HW214619   3.308   3.926  16.545  0.8510  2.0308 -0.7402
 1053SOL     OW14620   3.108   1.940   8.102 -0.4767 -0.1420  0.0070
 1053SOL    HW114621   3.048   1.905   8.036  1.4871 -2.5356 -0.5040
 1053SOL    HW214622   3.064   2.009   8.151  1.4514  0.6850  0.5746
 1054SOL     OW14623   2.157   3.418   6.914  0.4383 -0.0997 -0.5115
 1054SOL    HW114624   2.076   3.424   6.864  0.8463  0.3149 -1.1225
 1054SOL    HW214625   2.183   3.510   6.922 -2.1098  0.6393 -0.9893
 1055SOL     OW14626   1.716   1.557   6.538  0.4348  0.3051  0.6174
 1055SOL    HW114627   1.714   1.497   6.464 -0.5150  0.9861  0.0942
 1055SOL    HW214628   1.639   1.525   6.586 -1.0340 -0.1649 -2.0377
 1056SOL     OW14629   1.393   0.106   8.103 -0.5456  0.0544 -0.3691
 1056SOL    HW114630   1.390   0.071   8.014  1.5239 -1.3091  0.0775
 1056SOL    HW214631   1.435   0.037   8.154 -0.1499 -0.2679 -1.1335
 1057SOL     OW14632   4.317   2.324  16.793 -0.1227 -0.0553  0.0116
 1057SOL    HW114633   4.228   2.292  16.780 -0.0628  0.9326 -2.7141
 1057SOL    HW214634   4.300   2.414  16.821  0.6579  0.3451 -0.7877
 1058SOL     OW14635   4.550   1.087   5.784 -0.0566 -0.7447  0.7393
 1058SOL    HW114636   4.554   1.002   5.740  2.6572  0.8642 -2.0873
 1058SOL    HW214637   4.602   1.069   5.863  1.7147 -0.4571 -0.3657
 1059SOL     OW14638   0.068   1.087  11.198  0.2974 -0.0998 -0.4529
 1059SOL    HW114639   0.073   1.166  11.144  1.2154 -0.9344 -1.5993
 1059SOL    HW214640   0.110   1.024  11.140 -0.7143 -0.3689 -0.8913
 1060SOL     OW14641   3.469   3.813   7.130 -0.5044  0.3641 -0.6934
 1060SOL    HW114642   3.392   3.808   7.186  0.4186  0.9558  0.6300
 1060SOL    HW214643   3.465   3.720   7.106 -0.8897  0.0081  0.7506
 1061SOL     OW14644   2.712   0.790   5.220  0.2799  0.3693 -0.2847
 1061SOL    HW114645   2.644   0.794   5.287 -1.4897 -1.4136 -1.9695
 1061SOL    HW214646   2.690   0.704   5.184 -1.9015  0.6683  0.3398
 1062SOL     OW14647   3.565   0.804  17.544  0.3747 -0.1876 -0.2140
 1062SOL    HW114648   3.563   0.764  17.631 -2.1405 -1.8355 -1.0057
 1062SOL    HW214649   3.489   0.862  17.545  0.3500 -0.1545 -2.9406
 1063SOL     OW14650   4.150   0.997   8.673  0.5688 -0.1249  0.1298
 1063SOL    HW114651   4.123   1.031   8.587 -0.5767  1.6405  1.1826
 1063SOL    HW214652   4.067   1.009   8.719 -0.7762  0.0028 -2.3188
 1064SOL     OW14653   1.748   1.808   4.811  0.3817  0.3893  0.1092
 1064SOL    HW114654   1.671   1.796   4.867 -0.7206  3.4709 -0.7465
 1064SOL    HW214655   1.805   1.797   4.888 -0.2871  0.3997  0.6081
 1065SOL     OW14656   1.228   0.365   7.042 -0.0009  0.1176  0.4397
 1065SOL    HW114657   1.175   0.347   7.120 -0.7685  0.9614  0.1051
 1065SOL    HW214658   1.176   0.437   7.009  0.0608 -0.4219 -0.8222
 1066SOL     OW14659   2.383   3.958   1.806 -0.3712 -0.6679  0.6123
 1066SOL    HW114660   2.316   4.016   1.771 -0.1507  0.0899  1.4262
 1066SOL    HW214661   2.432   3.933   1.728  3.2511 -1.9624  3.3200
 1067SOL     OW14662   1.599   2.428  13.219  0.2129  0.7942  0.2707
 1067SOL    HW114663   1.655   2.393  13.288  0.0984  0.8362  0.3852
 1067SOL    HW214664   1.521   2.453  13.267  0.2778  0.6821  0.4352
 1068SOL     OW14665   1.989   2.355   7.469  0.4363 -0.1563  0.1418
 1068SOL    HW114666   1.900   2.389   7.483  0.6516  0.3841  0.1785
 1068SOL    HW214667   2.038   2.436   7.458  0.2471  0.0446  0.7388
 1069SOL     OW14668   2.023   4.456  17.367 -0.5882  0.2032 -0.1910
 1069SOL    HW114669   1.968   4.411  17.431  1.6233 -0.1795  1.4160
 1069SOL    HW214670   2.089   4.387  17.363 -0.2748  0.4598  0.6696
 1070SOL     OW14671   2.397   1.709   1.817  0.4208 -0.0140 -0.2560
 1070SOL    HW114672   2.310   1.691   1.781 -0.6591 -0.5121  2.6339
 1070SOL    HW214673   2.403   1.804   1.818  2.5173 -0.1546 -0.3151
 1071SOL     OW14674   2.658   1.407   4.910 -0.0022  0.5660  0.0681
 1071SOL    HW114675   2.746   1.407   4.946  0.0430  0.4820 -0.0408
 1071SOL    HW214676   2.625   1.492   4.940  2.2682  0.3629  3.1168
 1072SOL     OW14677   0.034   2.771   8.029  0.3750  0.2118  0.0559
 1072SOL    HW114678   0.008   2.679   8.020 -0.0520  0.4062 -0.7837
 1072SOL    HW214679   4.674   2.815   8.046 -0.2038 -0.9202  0.1262
 1073SOL     OW14680   1.083   2.414   4.700  0.4562  0.0867 -0.1906
 1073SOL    HW114681   1.038   2.335   4.729  0.0663 -0.0779 -1.2249
 1073SOL    HW214682   1.177   2.399   4.713  0.9094  2.1277 -0.9628
 1074SOL     OW14683   2.702   1.981   0.895 -0.1931 -0.0113  0.0438
 1074SOL    HW114684   2.651   1.952   0.819  1.6878 -3.0258 -0.0499
 1074SOL    HW214685   2.756   2.051   0.859  0.2719 -0.3604  0.0751
 1075SOL     OW14686   0.458   3.491   3.086  0.6376 -0.1847 -0.0071
 1075SOL    HW114687   0.517   3.566   3.094  0.9299 -0.1624 -2.3445
 1075SOL    HW214688   0.490   3.453   3.004  0.5673 -0.6493  0.1811
 1076SOL     OW14689   1.140   4.227   9.451 -0.1056  0.0904  0.1203
 1076SOL    HW114690   1.067   4.193   9.398 -1.4176  1.4766  1.0355
 1076SOL    HW214691   1.170   4.146   9.492 -0.5367 -1.3588 -2.4327
 1077SOL     OW14692   2.328   0.941   1.962 -0.5594 -0.3617 -0.1014
 1077SOL    HW114693   2.328   0.986   2.046 -0.7471 -1.6309  0.5780
 1077SOL    HW214694   2.378   1.008   1.915  3.6969 -2.1149  1.9363
 1078SOL     OW14695   4.470   3.288   2.172 -0.0349 -0.3372  0.6085
 1078SOL    HW114696   4.401   3.259   2.112 -0.8202  1.8878  0.4630
 1078SOL    HW214697   4.535   3.313   2.106  0.2590 -0.7138  0.7503
 1079SOL     OW14698   1.562   0.338   0.767  0.5890  0.2558 -0.2231
 1079SOL    HW114699   1.505   0.282   0.716  0.0342  2.0589 -1.5580
 1079SOL    HW214700   1.597   0.268   0.824  1.5645  0.8796 -0.0528
 1080SOL     OW14701   1.608   2.348  16.145 -0.5315 -0.1233 -0.4735
 1080SOL    HW114702   1.660   2.409  16.198  1.0099 -2.9325  1.2757
 1080SOL    HW214703   1.660   2.326  16.068 -1.7865  0.9583 -1.6185
 1081SOL     OW14704   4.569   1.437   6.938 -0.1082 -0.9220 -0.1012
 1081SOL    HW114705   4.572   1.524   6.898  2.3380 -0.5731  0.8576
 1081SOL    HW214706   4.653   1.438   6.984  0.2936  0.6943 -0.8884
 1082SOL     OW14707   1.448   1.425   3.041  0.4592  0.4236  0.2115
 1082SOL    HW114708   1.497   1.508   3.043 -0.6489  1.0705  0.4916
 1082SOL    HW214709   1.519   1.369   3.009  1.0563  1.7787 -0.8702
 1083SOL     OW14710   2.601   2.355  12.596 -0.1810 -0.7595  0.0739
 1083SOL    HW114711   2.546   2.308  12.534  0.5608 -3.0214  1.1453
 1083SOL    HW214712   2.654   2.282  12.627 -0.5536 -0.0726  2.3205
 1084SOL     OW14713   1.565   0.563  11.795  0.6375  1.1321 -0.3378
 1084SOL    HW114714   1.572   0.623  11.721  1.1087  2.3374  0.7050
 1084SOL    HW214715   1.612   0.611  11.862  0.9454  2.3131 -1.4063
 1085SOL     OW14716   4.344   2.537   5.856  0.0643  0.6194  0.4956
 1085SOL    HW114717   4.330   2.592   5.779  1.5381 -0.6455 -0.6638
 1085SOL    HW214718   4.389   2.469   5.806  1.0405  0.8168  1.1090
 1086SOL     OW14719   1.219   3.694   6.960 -0.2093 -0.3109  1.1393
 1086SOL    HW114720   1.143   3.748   6.938 -0.1053 -0.8033 -0.3873
 1086SOL    HW214721   1.294   3.748   6.937  1.8381 -3.5224  0.2535
 1087SOL     OW14722   0.129   2.799  10.174  0.1466 -0.1987  0.6735
 1087SOL    HW114723   0.081   2.762  10.248  0.7751  1.3767  1.8707
 1087SOL    HW214724   0.121   2.890  10.203 -1.2785  0.3307 -1.3872
 1088SOL     OW14725   1.401   2.058   8.644  0.0557 -0.3695  0.5680
 1088SOL    HW114726   1.453   2.034   8.720 -0.7711  2.4048  2.0440
 1088SOL    HW214727   1.358   1.974   8.630  0.1282 -0.4607  0.9206
 1089SOL     OW14728   4.570   4.287   7.652  0.2842  0.1689 -0.0000
 1089SOL    HW114729   4.572   4.253   7.563 -0.9617  0.9779 -0.3340
 1089SOL    HW214730   4.576   4.382   7.641  0.0330  0.5701  3.4208
 1090SOL     OW14731   3.759   0.586   2.695  0.1158  0.1722  0.0921
 1090SOL    HW114732   3.717   0.583   2.781 -0.6568  0.4507 -0.2722
 1090SOL    HW214733   3.847   0.617   2.714  0.7354 -0.5879 -1.4864
 1091SOL     OW14734   0.796   3.955   8.031 -0.4707  0.3069  0.5517
 1091SOL    HW114735   0.781   3.891   8.101 -1.3547  1.2671  1.2455
 1091SOL    HW214736   0.799   4.036   8.082 -3.8838  1.6033 -1.2957
 1092SOL     OW14737   3.371   0.418  10.997  0.0568 -0.0011 -0.3236
 1092SOL    HW114738   3.380   0.333  10.955  0.6434  0.3648 -0.9368
 1092SOL    HW214739   3.448   0.419  11.054 -0.2437 -2.8092  0.1200
 1093SOL     OW14740   3.009   4.051   1.443 -0.2256  0.0494 -0.2554
 1093SOL    HW114741   3.005   4.144   1.421  0.8931 -0.3801 -2.2562
 1093SOL    HW214742   2.918   4.038   1.471  0.3893 -0.4297  1.5007
 1094SOL     OW14743   3.292   2.107  11.172 -0.0129  0.8530  0.1682
 1094SOL    HW114744   3.233   2.075  11.104  0.6834  0.4564 -0.2438
 1094SOL    HW214745   3.241   2.086  11.250  1.5514  1.9759  1.4892
 1095SOL     OW14746   4.079   4.459   8.657  0.0301 -0.1396  0.3952
 1095SOL    HW114747   3.987   4.485   8.649 -0.1042 -0.7289 -0.0460
 1095SOL    HW214748   4.108   4.470   8.566 -1.9428  1.3975 -0.0392
 1096SOL     OW14749   2.339   2.838  17.597  0.5450  0.2922 -0.8733
 1096SOL    HW114750   2.317   2.745  17.593 -2.1761  1.0341 -3.4405
 1096SOL    HW214751   2.304   2.866  17.513  0.1256  2.4521  0.0139
 1097SOL     OW14752   1.269   2.205  15.786 -0.0714 -0.9140 -0.3403
 1097SOL    HW114753   1.192   2.258  15.805 -0.5270 -1.5866 -0.3410
 1097SOL    HW214754   1.309   2.186  15.871  0.3028 -0.7511 -0.4772
 1098SOL     OW14755   0.806   0.680   0.763 -0.6036  1.0298  0.1970
 1098SOL    HW114756   0.732   0.704   0.708 -0.4377 -3.5733 -1.9541
 1098SOL    HW214757   0.789   0.587   0.770 -2.5551  1.4590  1.2168
 1099SOL     OW14758   2.202   4.103   6.254 -0.1924 -0.8841  0.5959
 1099SOL    HW114759   2.161   4.135   6.334 -0.3108  2.4625 -0.8130
 1099SOL    HW214760   2.254   4.181   6.231 -0.9133 -0.1435  1.4882
 1100SOL     OW14761   1.627   1.627   2.982  0.0376  0.4163  0.3708
 1100SOL    HW114762   1.665   1.703   2.938 -0.5948  0.5920  0.1377
 1100SOL    HW214763   1.678   1.624   3.063  0.9102  0.9997 -0.1463
 1101SOL     OW14764   1.728   2.111  13.432 -0.0032 -0.6190 -0.3562
 1101SOL    HW114765   1.755   2.203  13.426 -2.9178  0.1298 -2.3357
 1101SOL    HW214766   1.756   2.076  13.347 -2.4293  1.1953 -1.9106
 1102SOL     OW14767   3.032   3.643  17.461  0.4005  0.2579 -1.0300
 1102SOL    HW114768   2.946   3.647  17.420 -1.3994 -1.2613  2.5927
 1102SOL    HW214769   3.019   3.593  17.542 -1.4610  2.4415  0.0528
 1103SOL     OW14770   3.247   2.579   2.885  0.2849  0.0591 -0.4001
 1103SOL    HW114771   3.320   2.631   2.921 -0.2736 -0.1050  0.9763
 1103SOL    HW214772   3.299   2.531   2.821 -0.3180  0.1301 -0.9399
 1104SOL     OW14773   0.708   0.118   0.058 -0.0002 -0.7394 -0.2206
 1104SOL    HW114774   0.761   0.039   0.057  0.9249 -0.0959 -2.8050
 1104SOL    HW214775   0.741   0.156   0.139 -0.2542 -0.8524 -0.0640
 1105SOL     OW14776   0.444   0.576   6.323 -0.2504 -0.3785 -0.2033
 1105SOL    HW114777   0.356   0.592   6.358 -0.4396  1.0691 -1.2939
 1105SOL    HW214778   0.421   0.502   6.266  0.4281 -1.3443  0.7809
 1106SOL     OW14779   4.511   0.860   4.958  0.3025 -0.4304  0.2388
 1106SOL    HW114780   4.543   0.846   4.869  0.1126  0.8778 -0.0325
 1106SOL    HW214781   4.433   0.805   4.961  2.9617 -4.0935  1.8780
 1107SOL     OW14782   0.876   2.508   2.808  0.3040 -0.1503 -0.3928
 1107SOL    HW114783   0.845   2.562   2.735  2.4829 -1.9919 -2.6898
 1107SOL    HW214784   0.793   2.476   2.843  0.9483  2.7810  3.8647
 1108SOL     OW14785   1.414   3.511   4.899 -0.6051  0.3611 -0.0417
 1108SOL    HW114786   1.497   3.463   4.899  0.4329  2.1687  0.9693
 1108SOL    HW214787   1.449   3.582   4.954  0.1996 -0.8809  1.0751
 1109SOL     OW14788   3.306   2.375   9.230  0.2362 -0.0579  0.6104
 1109SOL    HW114789   3.332   2.322   9.155  1.0103  1.3864 -0.1413
 1109SOL    HW214790   3.220   2.336   9.243  0.3767 -0.9709 -1.1958
 1110SOL     OW14791   3.717   3.146   8.504  0.3720 -0.0319  0.4857
 1110SOL    HW114792   3.737   3.222   8.450 -3.7328  0.6542 -0.0191
 1110SOL    HW214793   3.789   3.083   8.494  0.2432 -0.2350  0.8336
 1111SOL     OW14794   1.542   0.415   5.398  0.0532 -0.2280  0.0886
 1111SOL    HW114795   1.594   0.489   5.428 -2.5576  2.1562 -1.2770
 1111SOL    HW214796   1.576   0.342   5.451 -1.2521 -0.6458  0.3637
 1112SOL     OW14797   4.610   2.099   2.579  0.2823  0.2809  0.0721
 1112SOL    HW114798   4.524   2.142   2.576 -1.7483 -3.8360 -1.2451
 1112SOL    HW214799   4.578   2.030   2.637  0.4405 -1.3652 -1.7790
 1113SOL     OW14800   1.611   4.286  11.130  0.2285  0.4841  0.4811
 1113SOL    HW114801   1.530   4.265  11.084  0.8742  3.3777 -2.0019
 1113SOL    HW214802   1.683   4.247  11.080  0.8384  0.3225  1.4741
 1114SOL     OW14803   2.925   1.533   8.138  0.9543  0.0194  1.0576
 1114SOL    HW114804   3.000   1.516   8.082  0.8397  0.1148  0.8769
 1114SOL    HW214805   2.943   1.621   8.173  0.5983 -0.1589  1.6941
 1115SOL     OW14806   4.363   3.237   7.766 -0.6551  0.0441  0.2928
 1115SOL    HW114807   4.400   3.251   7.853  0.9820  1.4399 -0.6359
 1115SOL    HW214808   4.405   3.298   7.706 -2.6940  1.1871  0.0104
 1116SOL     OW14809   3.920   4.466   0.550  0.0760 -0.2061 -0.0080
 1116SOL    HW114810   3.855   4.512   0.603 -0.6372  1.0782 -1.9980
 1116SOL    HW214811   3.959   4.539   0.502 -3.0020  0.7397 -1.0644
 1117SOL     OW14812   2.051   0.867   2.315  0.0467 -0.4149 -0.1948
 1117SOL    HW114813   1.960   0.862   2.346 -1.1393  0.4780 -3.5780
 1117SOL    HW214814   2.073   0.776   2.297  0.0117 -0.5352  0.3743
 1118SOL     OW14815   1.633   2.114  17.172  0.3697  0.2228 -0.3861
 1118SOL    HW114816   1.637   2.143  17.081  1.8739 -1.0669 -0.7291
 1118SOL    HW214817   1.586   2.177  17.226 -1.5189 -1.1275 -0.4419
 1119SOL     OW14818   1.578   0.330   1.632 -0.7105 -0.1652  0.5033
 1119SOL    HW114819   1.658   0.299   1.675 -0.0740  2.4112  1.1846
 1119SOL    HW214820   1.532   0.357   1.711 -2.0397 -1.0977  0.0438
 1120SOL     OW14821   4.219   4.268   1.621 -0.2025  0.2797  0.1146
 1120SOL    HW114822   4.238   4.180   1.590 -0.5547 -0.5220  2.2094
 1120SOL    HW214823   4.302   4.312   1.605  0.6093 -1.5576 -0.7177
 1121SOL     OW14824   0.371   1.833   3.722 -0.0902  0.6726 -0.2152
 1121SOL    HW114825   0.380   1.770   3.650  1.2030  1.0588 -0.3962
 1121SOL    HW214826   0.462   1.862   3.718 -0.7624  2.8613  0.3715
 1122SOL     OW14827   0.526   3.057   7.074 -0.0943  0.1184 -0.0572
 1122SOL    HW114828   0.552   3.018   7.157  2.1459 -1.1415 -1.3577
 1122SOL    HW214829   0.529   2.982   7.015 -0.4829 -0.6682  0.9068
 1123SOL     OW14830   1.253   1.917   5.564 -0.2252 -0.1347 -0.5548
 1123SOL    HW114831   1.245   1.972   5.487 -2.1603  1.6355  0.9266
 1123SOL    HW214832   1.316   1.966   5.617 -0.8167  1.2808 -1.1798
 1124SOL     OW14833   1.330   1.375   5.865 -0.5470 -0.3150 -0.1818
 1124SOL    HW114834   1.313   1.460   5.825  0.0593  0.4566  1.2167
 1124SOL    HW214835   1.363   1.338   5.784 -0.4989 -0.8531  0.0850
 1125SOL     OW14836   3.398   3.340   3.902 -0.2163 -0.0236  0.1584
 1125SOL    HW114837   3.472   3.373   3.953  1.2092 -0.8743 -1.3636
 1125SOL    HW214838   3.328   3.398   3.934  0.1094 -0.3764  1.5114
 1126SOL     OW14839   0.452   1.270  17.566 -0.0891  0.0895  0.3365
 1126SOL    HW114840   0.459   1.179  17.538  0.6511  0.4417 -0.6212
 1126SOL    HW214841   0.536   1.282  17.610  0.1901 -0.4926 -0.0376
 1127SOL     OW14842   3.689   2.389   3.420 -0.2161 -0.1713 -0.1781
 1127SOL    HW114843   3.708   2.439   3.499 -0.8483 -0.6828  0.2999
 1127SOL    HW214844   3.780   2.372   3.398 -0.3629 -0.5452 -0.4962
 1128SOL     OW14845   1.916   3.222  12.553  0.0413 -0.1937  0.1661
 1128SOL    HW114846   2.004   3.259  12.539 -1.0408  3.0868  1.9722
 1128SOL    HW214847   1.890   3.189  12.468  2.6318 -1.8907  0.0274
 1129SOL     OW14848   1.138   3.734   5.587 -0.6577  0.1212 -0.7271
 1129SOL    HW114849   1.042   3.727   5.582 -0.6124  0.7468 -2.5256
 1129SOL    HW214850   1.166   3.667   5.525 -0.5044 -0.7815  0.3307
 1130SOL     OW14851   4.570   4.706  16.730 -0.0926 -0.1083  0.1050
 1130SOL    HW114852   4.492   4.694  16.675 -1.0323 -2.2716  1.8840
 1130SOL    HW214853   4.534   4.683  16.816  0.3185 -1.9806 -0.2060
 1131SOL     OW14854   4.222   4.702   4.072 -0.3191  0.5956 -0.3385
 1131SOL    HW114855   4.212   0.033   3.995  1.0800  0.1074 -0.8498
 1131SOL    HW214856   4.136   4.658   4.070 -0.5823  1.0199  1.1793
 1132SOL     OW14857   1.735   3.025   6.554  0.0711 -0.2154 -0.0093
 1132SOL    HW114858   1.773   2.986   6.632 -1.6230  1.1450  1.5168
 1132SOL    HW214859   1.817   3.044   6.508 -0.4940  0.8731 -0.5921
 1133SOL     OW14860   4.579   4.518   0.581  0.5957  0.1074 -0.0250
 1133SOL    HW114861   4.529   4.585   0.536  0.6710 -0.0093 -0.2818
 1133SOL    HW214862   4.654   4.530   0.522  2.3867 -1.3417  1.9304
 1134SOL     OW14863   3.839   0.699   7.296  0.9138  0.0169 -0.0169
 1134SOL    HW114864   3.758   0.673   7.252  0.6712  1.8403 -0.6431
 1134SOL    HW214865   3.899   0.666   7.228  0.4618 -0.9430  0.0400
 1135SOL     OW14866   4.596   0.775   6.067  0.1336 -0.1240 -0.2143
 1135SOL    HW114867   4.608   0.695   6.016 -0.0428 -1.0889  1.2719
 1135SOL    HW214868   4.504   0.797   6.049 -0.5412 -1.1682  1.9480
 1136SOL     OW14869   4.481   2.570   7.879 -0.0027 -0.4421  0.3835
 1136SOL    HW114870   4.449   2.655   7.909  1.7447  0.1464  0.5582
 1136SOL    HW214871   4.415   2.557   7.811 -1.0444  0.1694  1.2602
 1137SOL     OW14872   0.837   0.025   5.231 -0.3476 -0.4336  0.0444
 1137SOL    HW114873   0.830   0.105   5.180 -0.8944 -0.8542 -0.5310
 1137SOL    HW214874   0.926   0.037   5.265 -0.4919 -0.8726  0.5766
 1138SOL     OW14875   4.320   2.310  15.455  0.0633  0.2361 -0.0788
 1138SOL    HW114876   4.308   2.215  15.458  0.2369  0.1940 -0.8711
 1138SOL    HW214877   4.377   2.319  15.379  2.6926  0.7697  1.9736
 1139SOL     OW14878   0.371   1.376   6.319  0.1061  0.4105  0.3799
 1139SOL    HW114879   0.337   1.294   6.285  0.4476  0.2010  0.5462
 1139SOL    HW214880   0.291   1.425   6.300  1.3041  2.3858  0.4237
 1140SOL     OW14881   2.759   2.717   9.714 -0.2248  0.7021 -0.9458
 1140SOL    HW114882   2.728   2.673   9.635 -0.4465  1.8721 -1.5122
 1140SOL    HW214883   2.833   2.770   9.683  1.4102 -0.0045  1.7899
 1141SOL     OW14884   1.605   4.013   9.642  0.3287  0.6104  0.4251
 1141SOL    HW114885   1.560   3.932   9.666 -1.7821  1.3852 -0.8819
 1141SOL    HW214886   1.621   4.003   9.548  1.8155  0.0945  0.7387
 1142SOL     OW14887   2.392   1.027  16.341  0.3337  0.1776 -0.4611
 1142SOL    HW114888   2.459   1.007  16.276 -1.2354  1.9042 -2.6292
 1142SOL    HW214889   2.347   0.943  16.349  0.5015  0.1971  0.6641
 1143SOL     OW14890   4.359   0.961   7.115  0.5185  0.5277  0.3436
 1143SOL    HW114891   4.406   1.022   7.172  1.9384  1.0967 -1.4453
 1143SOL    HW214892   4.318   0.900   7.176  1.1959 -0.9951 -0.7073
 1144SOL     OW14893   3.263   2.221  15.072  0.1180  0.6455  0.4924
 1144SOL    HW114894   3.178   2.257  15.047  0.4906 -0.4657 -2.3674
 1144SOL    HW214895   3.314   2.295  15.104  1.2718  0.0380  0.0638
 1145SOL     OW14896   1.378   0.024   2.733  0.1018 -0.3133  0.2482
 1145SOL    HW114897   1.400   0.050   2.822  0.7469  0.3518 -0.1071
 1145SOL    HW214898   1.307   0.083   2.707  0.7751  0.4048  0.0483
 1146SOL     OW14899   1.238   2.597  14.825 -0.0598 -0.3245 -0.0293
 1146SOL    HW114900   1.277   2.677  14.859 -0.3383  0.0109 -0.5015
 1146SOL    HW214901   1.146   2.601  14.852 -0.1809 -1.2375 -0.3027
 1147SOL     OW14902   3.711   0.494  14.162  0.1534 -0.1817  0.0505
 1147SOL    HW114903   3.792   0.544  14.177  0.0118  0.5080 -1.3853
 1147SOL    HW214904   3.724   0.464  14.072 -1.6242  0.0021 -0.2638
 1148SOL     OW14905   2.532   3.180   3.470  0.7211 -0.2363  0.1833
 1148SOL    HW114906   2.571   3.104   3.513  0.8138  0.4953  1.3638
 1148SOL    HW214907   2.443   3.182   3.505 -0.5583  0.9795 -3.1694
 1149SOL     OW14908   3.061   4.285   3.916  0.2144  0.3040  0.4299
 1149SOL    HW114909   2.982   4.261   3.867  0.8046  2.1559 -1.4067
 1149SOL    HW214910   3.136   4.243   3.873 -0.2370  1.7429 -1.7696
 1150SOL     OW14911   1.022   1.267   9.321 -0.0507 -0.5083  0.0765
 1150SOL    HW114912   0.971   1.200   9.366 -0.9442 -1.3675 -2.2146
 1150SOL    HW214913   1.105   1.221   9.308 -1.1598 -2.4937 -0.0159
 1151SOL     OW14914   3.590   3.626   1.454 -0.2878  0.0808 -0.3043
 1151SOL    HW114915   3.530   3.552   1.442 -0.9642  0.3600  1.4119
 1151SOL    HW214916   3.651   3.597   1.386 -0.5419  2.0870 -1.3769
 1152SOL     OW14917   1.121   2.171   5.034 -0.1628  0.2385  0.0123
 1152SOL    HW114918   1.118   2.188   4.940  0.5422  1.4445  0.2010
 1152SOL    HW214919   1.069   2.092   5.044 -0.0302  0.3206  1.4036
 1153SOL     OW14920   3.422   1.659  12.118 -0.4557  0.4747 -0.2274
 1153SOL    HW114921   3.450   1.705  12.197  0.8848 -1.0880  0.2116
 1153SOL    HW214922   3.468   1.576  12.133 -0.0679  0.6928 -0.2336
 1154SOL     OW14923   2.735   2.321   5.305  0.0141 -0.4113 -1.0818
 1154SOL    HW114924   2.720   2.414   5.288  1.4006  0.0019 -0.0183
 1154SOL    HW214925   2.830   2.328   5.306 -0.2295  2.3912  1.2647
 1155SOL     OW14926   3.053   3.907   4.163  0.2022 -0.1717 -0.4848
 1155SOL    HW114927   2.963   3.930   4.142 -0.3466 -0.4453  1.5319
 1155SOL    HW214928   3.041   3.873   4.252  1.4820  1.6587  0.3934
 1156SOL     OW14929   3.803   0.982   2.534 -0.0745 -0.0772 -0.1828
 1156SOL    HW114930   3.753   1.058   2.564 -0.8656 -0.2527 -1.0635
 1156SOL    HW214931   3.739   0.927   2.489  0.1854  0.7033 -1.5394
 1157SOL     OW14932   4.640   0.172  16.999 -0.1779 -0.2484 -0.0946
 1157SOL    HW114933   4.629   0.085  16.960 -2.7363  0.1683 -0.3144
 1157SOL    HW214934   4.684   0.213  16.924 -3.0042  2.0119 -0.5048
 1158SOL     OW14935   0.083   0.337   5.897 -0.5975  0.0038 -0.0207
 1158SOL    HW114936   0.154   0.347   5.834  0.1673 -1.8512  0.5679
 1158SOL    HW214937   0.102   0.250   5.931 -2.3024 -0.1324  0.5826
 1159SOL     OW14938   2.130   0.478   5.998  0.3090  0.0757  0.1325
 1159SOL    HW114939   2.175   0.506   5.919  2.9832 -2.2903  0.8056
 1159SOL    HW214940   2.118   0.383   5.995 -1.0318  0.1879  1.3308
 1160SOL     OW14941   3.666   2.114   7.172 -0.4050  0.0281  0.5163
 1160SOL    HW114942   3.676   2.020   7.187  1.1136  0.3811  1.6976
 1160SOL    HW214943   3.598   2.131   7.238 -1.4891  0.2367 -0.6473
 1161SOL     OW14944   2.295   2.581   8.426 -0.0665 -0.3370  0.1406
 1161SOL    HW114945   2.364   2.629   8.472 -1.6229 -0.0793  2.1885
 1161SOL    HW214946   2.347   2.564   8.347 -1.0512  0.6854 -0.7206
 1162SOL     OW14947   2.555   2.030   7.090 -0.0565  0.9709  0.6912
 1162SOL    HW114948   2.481   2.090   7.074 -1.3461 -1.2656 -1.6577
 1162SOL    HW214949   2.624   2.079   7.044 -1.5362  0.4962 -2.0380
 1163SOL     OW14950   4.061   0.442   6.507 -0.6475  0.2850  0.2230
 1163SOL    HW114951   3.978   0.445   6.554 -1.1468 -1.5030 -0.5491
 1163SOL    HW214952   4.083   0.353   6.533  1.4654  0.8326  0.3331
 1164SOL     OW14953   2.323   4.578   2.950 -0.1782  0.8759 -0.1123
 1164SOL    HW114954   2.365   4.646   2.897  0.4478 -0.0096 -0.7689
 1164SOL    HW214955   2.238   4.579   2.906  0.3782 -3.6236 -1.2708
 1165SOL     OW14956   0.592   2.795  13.356  0.7046 -0.9236 -0.5902
 1165SOL    HW114957   0.581   2.829  13.445  0.6086 -0.8169 -0.6436
 1165SOL    HW214958   0.504   2.807  13.322  0.4676  1.2254  0.7796
 1166SOL     OW14959   1.770   2.672  14.692  0.8295 -0.2975 -0.0041
 1166SOL    HW114960   1.719   2.692  14.770  0.6121  1.2694 -0.5597
 1166SOL    HW214961   1.766   2.758  14.650  0.6558 -0.9198 -1.2609
 1167SOL     OW14962   1.197   2.264   3.365  0.6167  0.4515  0.0552
 1167SOL    HW114963   1.134   2.315   3.314 -0.1636  0.7004  1.2753
 1167SOL    HW214964   1.247   2.328   3.414  2.7405  0.1509 -1.7305
 1168SOL     OW14965   3.046   3.252  11.844  0.3915 -0.5970  0.2126
 1168SOL    HW114966   3.046   3.175  11.787  0.8745 -1.0369  0.8074
 1168SOL    HW214967   2.965   3.250  11.896  0.4801 -0.2656  0.3671
 1169SOL     OW14968   1.249   3.984   0.337 -0.0804  0.0206 -0.6080
 1169SOL    HW114969   1.204   4.044   0.276 -0.2958 -0.9392 -1.3943
 1169SOL    HW214970   1.190   3.995   0.411  3.0397 -0.2761  1.9232
 1170SOL     OW14971   2.891   0.845   4.192 -1.2129 -0.3114  0.2275
 1170SOL    HW114972   2.986   0.846   4.199 -1.5283 -0.7903  4.2619
 1170SOL    HW214973   2.870   0.905   4.263  4.1675  0.6665  0.9549
 1171SOL     OW14974   0.967   4.170  16.535  0.2946  0.0953  0.3463
 1171SOL    HW114975   0.998   4.130  16.617  3.1983 -0.4557 -1.0038
 1171SOL    HW214976   1.029   4.243  16.524 -0.0142  0.5712  1.7629
 1172SOL     OW14977   4.636   2.063   3.454 -0.4400 -0.3139  0.4456
 1172SOL    HW114978   4.571   2.123   3.416 -1.0108  0.7790  3.1436
 1172SOL    HW214979   4.704   2.128   3.472 -2.1088  1.4692  0.3117
 1173SOL     OW14980   1.095   0.031   5.353 -0.0090  0.0802  0.0555
 1173SOL    HW114981   1.132   4.718   5.433  0.3387  0.7211  0.1968
 1173SOL    HW214982   1.166   0.091   5.330  0.8667 -1.4853 -1.3234
 1174SOL     OW14983   0.384   3.006  12.634 -0.1940 -0.0132 -0.1769
 1174SOL    HW114984   0.331   3.014  12.713 -0.3397  3.1361 -0.5865
 1174SOL    HW214985   0.415   3.094  12.615 -0.9959  0.0930 -0.9986
 1175SOL     OW14986   2.047   0.370  16.234 -0.3411  0.3452 -0.2360
 1175SOL    HW114987   2.016   0.454  16.199 -0.4527 -0.4321 -2.0117
 1175SOL    HW214988   2.068   0.392  16.325  0.3906 -5.1408  0.8982
 1176SOL     OW14989   1.755   1.202   0.025 -0.0579  0.0444 -0.4739
 1176SOL    HW114990   1.815   1.270  17.694 -0.4592  0.0894 -1.2127
 1176SOL    HW214991   1.691   1.196  17.651 -0.1407  1.0607 -0.4827
 1177SOL     OW14992   3.400   3.216   0.751  0.4141  0.3972 -0.0856
 1177SOL    HW114993   3.403   3.122   0.767  3.4143  0.9023  2.1664
 1177SOL    HW214994   3.410   3.220   0.656  0.1190  0.9687 -0.0933
 1178SOL     OW14995   3.415   1.918   0.433 -0.4095 -0.1311  0.0894
 1178SOL    HW114996   3.417   1.942   0.341 -0.3549  0.2565  0.1886
 1178SOL    HW214997   3.388   1.998   0.479 -0.3976 -1.2850  2.1266
 1179SOL     OW14998   2.515   4.174  10.305  0.3989 -0.2589  0.4652
 1179SOL    HW114999   2.492   4.181  10.212 -0.6347 -0.0318  0.7381
 1179SOL    HW215000   2.507   4.266  10.332 -0.2732 -0.2665  0.2994
 1180SOL     OW15001   0.324   2.099   8.444 -0.6533 -0.3238 -0.3629
 1180SOL    HW115002   0.324   2.028   8.509  1.0981  1.0021  1.0720
 1180SOL    HW215003   0.231   2.122   8.441  0.1566  2.9747 -0.4519
 1181SOL     OW15004   0.687   3.694  10.550  0.1343  0.1504  0.1411
 1181SOL    HW115005   0.595   3.716  10.562  0.5419  0.5977  2.3687
 1181SOL    HW215006   0.697   3.739  10.466 -1.9759  0.6965  0.1831
 1182SOL     OW15007   4.640   1.100   4.885 -0.0531  0.1458 -0.0318
 1182SOL    HW115008   4.711   1.108   4.821  1.2534 -1.1428  1.2448
 1182SOL    HW215009   4.648   1.007   4.905  0.2482 -0.3440 -2.3685
 1183SOL     OW15010   1.760   3.833  16.618  0.1459 -0.8762  0.3373
 1183SOL    HW115011   1.742   3.760  16.559 -0.5025 -0.8047  0.4427
 1183SOL    HW215012   1.674   3.869  16.642 -0.9092 -0.6557 -3.8609
 1184SOL     OW15013   1.340   4.286  16.898 -0.3763 -0.2910  0.1206
 1184SOL    HW115014   1.337   4.219  16.967  1.0749 -1.3635 -0.8666
 1184SOL    HW215015   1.272   4.348  16.926 -0.0275 -1.3386  3.3825
 1185SOL     OW15016   2.164   0.293   6.758 -0.0984 -0.5829  0.3826
 1185SOL    HW115017   2.095   0.347   6.719 -0.3380  0.6655  2.4642
 1185SOL    HW215018   2.134   0.207   6.731  2.3831 -0.5589 -2.4101
 1186SOL     OW15019   1.708   1.659   3.658 -0.2943 -0.3252 -0.1413
 1186SOL    HW115020   1.652   1.736   3.674  0.2328 -0.2703  1.4231
 1186SOL    HW215021   1.671   1.607   3.729  1.2515 -2.0916 -0.6392
 1187SOL     OW15022   0.016   1.824   8.081 -0.0482  0.0206 -0.2550
 1187SOL    HW115023   4.671   1.767   8.115  0.5462 -2.0619 -2.5777
 1187SOL    HW215024   0.039   1.777   8.002  0.7819  0.6472 -0.3857
 1188SOL     OW15025   3.583   2.067   4.361 -0.0510  0.4541  0.7587
 1188SOL    HW115026   3.660   2.046   4.308  0.2356  1.7651  0.6460
 1188SOL    HW215027   3.592   1.997   4.426 -0.3802 -1.3351 -1.1210
 1189SOL     OW15028   2.597   2.129  13.473  0.1543  0.2663  0.7934
 1189SOL    HW115029   2.634   2.217  13.479  0.9328  0.0478 -0.9390
 1189SOL    HW215030   2.668   2.079  13.512  0.7498  0.5189  0.0166
 1190SOL     OW15031   2.245   1.462   5.197 -0.1092 -0.4829  0.0896
 1190SOL    HW115032   2.213   1.411   5.271 -1.4328 -0.3958 -0.4335
 1190SOL    HW215033   2.320   1.406   5.174  0.6500  0.2395  0.7849
 1191SOL     OW15034   1.141   1.640  15.284  0.3752  0.2294 -0.4442
 1191SOL    HW115035   1.121   1.712  15.225  1.0634  1.3710  0.7233
 1191SOL    HW215036   1.086   1.660  15.359 -0.9178  0.7565 -1.5489
 1192SOL     OW15037   1.522   2.574   6.095 -0.1574  0.0646  1.0658
 1192SOL    HW115038   1.560   2.487   6.089  1.6748  1.0716 -1.9003
 1192SOL    HW215039   1.487   2.553   6.182 -0.4420 -0.3374  0.8524
 1193SOL     OW15040   3.416   2.737   2.983  0.3057  0.1424 -0.2004
 1193SOL    HW115041   3.432   2.819   2.936 -1.0669 -0.9148 -2.4704
 1193SOL    HW215042   3.489   2.728   3.044  0.5886  1.3052 -0.3662
 1194SOL     OW15043   1.619   0.498   3.105  0.3410 -0.1634  0.1339
 1194SOL    HW115044   1.620   0.403   3.111  1.5782 -0.1952 -0.4828
 1194SOL    HW215045   1.545   0.505   3.044 -0.8371  2.3083  1.8275
 1195SOL     OW15046   2.821   0.125  16.751 -0.7883 -0.1303 -0.8508
 1195SOL    HW115047   2.847   0.045  16.704 -0.8972 -1.1686  0.8352
 1195SOL    HW215048   2.745   0.156  16.702 -1.6993 -1.1592 -0.0882
 1196SOL     OW15049   1.087   4.258   3.689 -0.6513 -0.2939 -0.1262
 1196SOL    HW115050   1.119   4.169   3.674  1.5772  0.6687 -1.1082
 1196SOL    HW215051   1.086   4.285   3.597 -0.4952 -2.1863 -0.6748
 1197SOL     OW15052   3.347   4.443   4.816  0.3914 -0.5696 -0.3755
 1197SOL    HW115053   3.329   4.350   4.800 -0.7410 -0.3168 -0.5765
 1197SOL    HW215054   3.424   4.451   4.872  0.0948  0.7788 -0.1614
 1198SOL     OW15055   4.292   1.664   3.483 -0.2816  0.7988 -0.0368
 1198SOL    HW115056   4.292   1.760   3.488 -3.7995  0.8285 -0.4301
 1198SOL    HW215057   4.228   1.652   3.412  0.8273 -1.8669 -0.5514
 1199SOL     OW15058   3.228   0.741  10.754  0.0239 -0.0520 -0.0125
 1199SOL    HW115059   3.298   0.716  10.814  2.2758  0.2262 -2.5411
 1199SOL    HW215060   3.159   0.749  10.819  0.9853  1.1396  0.8547
 1200SOL     OW15061   0.963   0.179   6.941 -0.1176 -0.5720  0.1764
 1200SOL    HW115062   0.896   0.161   6.875 -0.3275  0.1920  0.1787
 1200SOL    HW215063   0.936   0.269   6.961  0.3670 -0.7854  1.8174
 1201SOL     OW15064   3.639   2.809   0.020  0.0024  0.5041  0.6370
 1201SOL    HW115065   3.643   2.748   0.093  2.1634  0.8203  0.7756
 1201SOL    HW215066   3.651   2.748  17.644 -0.5751 -0.2005  1.1319
 1202SOL     OW15067   3.015   2.466   5.749  0.1382  0.0027  0.1376
 1202SOL    HW115068   3.100   2.497   5.718  0.8506  0.6388  2.7410
 1202SOL    HW215069   3.031   2.374   5.729 -0.3918  0.1563 -1.0026
 1203SOL     OW15070   1.658   0.976   5.338  0.7715 -0.4349  0.9377
 1203SOL    HW115071   1.633   0.944   5.251 -0.7440  1.1471  0.8010
 1203SOL    HW215072   1.751   1.001   5.330  0.6718 -0.7583 -1.2782
 1204SOL     OW15073   3.684   0.518   0.120 -0.0582  0.5819  0.4123
 1204SOL    HW115074   3.635   0.436   0.123  0.0540  0.4504 -1.2327
 1204SOL    HW215075   3.731   0.507   0.203  0.9406 -0.3122 -0.2600
 1205SOL     OW15076   3.506   2.630  11.056 -0.3456  0.4484  0.8467
 1205SOL    HW115077   3.541   2.542  11.069 -1.1646 -0.0198 -0.1397
 1205SOL    HW215078   3.513   2.642  10.961  0.4075 -0.3781  0.8039
 1206SOL     OW15079   4.586   3.062   7.631 -0.7685  0.7452 -0.1908
 1206SOL    HW115080   4.611   3.025   7.716 -2.1548  0.4994  0.0956
 1206SOL    HW215081   4.554   3.145   7.666 -2.2614 -0.2668  0.8406
 1207SOL     OW15082   2.047   2.649   4.655 -0.3471  0.0670  0.1756
 1207SOL    HW115083   2.081   2.647   4.745 -1.3476  1.0819  0.5729
 1207SOL    HW215084   2.039   2.743   4.637 -0.3926  0.2034  0.9047
 1208SOL     OW15085   0.281   3.615  10.114 -0.3385  0.1704  0.1255
 1208SOL    HW115086   0.317   3.704  10.122 -0.5565  0.3962 -1.3885
 1208SOL    HW215087   0.335   3.558  10.169  0.7984 -0.5456 -1.7149
 1209SOL     OW15088   4.385   1.919   6.071  0.4721  1.0662 -0.7338
 1209SOL    HW115089   4.348   1.832   6.052  2.0383  0.3215 -0.3722
 1209SOL    HW215090   4.479   1.906   6.062  0.2170 -2.8747  2.4223
 1210SOL     OW15091   4.689   2.417  13.422  0.1879 -0.0456  0.9143
 1210SOL    HW115092   4.611   2.366  13.443 -0.6647 -0.2654 -2.7088
 1210SOL    HW215093   0.010   2.408  13.506  1.3621 -0.2625  0.2630
 1211SOL     OW15094   4.404   1.154   4.765  0.0462 -0.0470  0.0421
 1211SOL    HW115095   4.430   1.151   4.673 -0.5541 -1.0409 -0.0991
 1211SOL    HW215096   4.482   1.147   4.821 -2.2816 -0.9025  3.2048
 1212SOL     OW15097   3.251   1.922   5.628  0.0521  0.2596  0.6208
 1212SOL    HW115098   3.321   1.905   5.564 -0.5265  0.2649 -0.0167
 1212SOL    HW215099   3.178   1.935   5.568 -1.0071 -0.5580  1.7291
 1213SOL     OW15100   2.410   4.130   0.975 -0.1314 -0.4106 -0.3995
 1213SOL    HW115101   2.379   4.147   1.063  1.3217  1.6032 -0.2577
 1213SOL    HW215102   2.445   4.219   0.964 -1.9751  0.1142 -1.9443
 1214SOL     OW15103   4.081   1.665   3.276  0.1216 -0.3712 -0.1081
 1214SOL    HW115104   4.063   1.575   3.304  0.1586  0.3937  2.3445
 1214SOL    HW215105   4.114   1.645   3.188  2.5533  0.7759  0.5596
 1215SOL     OW15106   1.395   1.089  12.170 -0.0840 -0.0874 -0.2873
 1215SOL    HW115107   1.318   1.045  12.134  0.1568 -1.2898  0.6890
 1215SOL    HW215108   1.359   1.103  12.257  0.2324  1.2302 -0.3666
 1216SOL     OW15109   1.933   0.139   4.348 -0.7701 -0.3070  0.2514
 1216SOL    HW115110   1.850   0.122   4.392 -0.0704 -0.8688  1.3972
 1216SOL    HW215111   1.923   0.108   4.258 -1.6683  1.0833 -0.1247
 1217SOL     OW15112   4.205   3.004  16.384 -0.4357  0.9867 -0.0328
 1217SOL    HW115113   4.271   3.042  16.442 -0.4518  3.5759 -1.6937
 1217SOL    HW215114   4.210   3.073  16.317 -1.0995  1.1046  0.0461
 1218SOL     OW15115   3.540   0.585   5.514 -0.2239 -0.3594 -0.2620
 1218SOL    HW115116   3.476   0.540   5.569  2.7730 -1.0865  2.6116
 1218SOL    HW215117   3.601   0.513   5.495  0.7189  0.5742 -0.7900
 1219SOL     OW15118   2.803   2.907   0.367 -0.1223 -0.3335  0.2254
 1219SOL    HW115119   2.844   2.924   0.453 -1.1321  2.2749  0.1911
 1219SOL    HW215120   2.873   2.896   0.302  0.6431  1.8857  0.6531
 1220SOL     OW15121   0.678   3.134  13.246 -0.0441 -0.1283  0.4838
 1220SOL    HW115122   0.741   3.096  13.185  0.1906  0.3900  0.4031
 1220SOL    HW215123   0.601   3.080  13.225 -0.6277  1.0826 -0.4766
 1221SOL     OW15124   2.770   3.162   1.657 -0.3342  0.1881 -0.0753
 1221SOL    HW115125   2.833   3.095   1.681 -1.7280 -0.9586  0.4238
 1221SOL    HW215126   2.688   3.113   1.648  0.7952 -1.2812 -2.2706
 1222SOL     OW15127   0.749   2.938  12.870 -0.2258 -0.2592 -0.3612
 1222SOL    HW115128   0.834   2.899  12.851  1.0078  0.8036  2.9765
 1222SOL    HW215129   0.750   2.916  12.963 -0.4949 -0.1143 -0.3242
 1223SOL     OW15130   1.405   2.386   8.836  0.7618  0.2624 -0.1612
 1223SOL    HW115131   1.484   2.435   8.859  1.1323 -1.2282  1.8118
 1223SOL    HW215132   1.343   2.459   8.832  2.3255  1.5711 -0.4045
 1224SOL     OW15133   1.335   2.837  14.624 -0.6800 -0.0817  0.1683
 1224SOL    HW115134   1.337   2.830  14.719  0.8324  0.1425  0.1560
 1224SOL    HW215135   1.248   2.809  14.594 -0.7093 -0.7266  0.8427
 1225SOL     OW15136   0.201   0.493   6.497  0.0286 -0.4183 -0.5691
 1225SOL    HW115137   0.151   0.448   6.566 -1.2944 -2.0767 -2.6302
 1225SOL    HW215138   0.265   0.426   6.477  1.1977  0.3140  0.6904
 1226SOL     OW15139   4.580   4.210   4.340 -0.6171  0.3760 -0.1730
 1226SOL    HW115140   4.594   4.152   4.415 -2.0227  1.0600  0.6037
 1226SOL    HW215141   4.641   4.166   4.280 -0.8963  0.6257 -0.6396
 1227SOL     OW15142   0.395   4.466   6.750  0.2704 -0.5412 -0.1777
 1227SOL    HW115143   0.431   4.550   6.779 -2.1993  0.4315  0.0854
 1227SOL    HW215144   0.318   4.463   6.807  0.1218  1.1299 -0.2953
 1228SOL     OW15145   1.989   1.948   9.182  0.0691 -0.0013  0.2682
 1228SOL    HW115146   2.083   1.937   9.194 -0.1170 -0.5452  1.1679
 1228SOL    HW215147   1.962   1.856   9.185  2.6947 -0.7813 -0.0150
 1229SOL     OW15148   3.185   3.463   4.057 -0.1650 -0.2882 -0.0203
 1229SOL    HW115149   3.218   3.540   4.104 -0.5675  0.8213 -1.5406
 1229SOL    HW215150   3.112   3.438   4.113  1.9671 -0.7953  2.5604
 1230SOL     OW15151   1.863   2.161  17.624  0.0385 -0.1821 -0.6155
 1230SOL    HW115152   1.900   2.230  17.679  0.1691 -1.7457  1.2554
 1230SOL    HW215153   1.776   2.196  17.604  0.1804 -0.9214 -2.5133
 1231SOL     OW15154   4.661   3.159  17.241  0.4283 -0.1392  0.6426
 1231SOL    HW115155   4.578   3.195  17.273 -0.5746 -0.5935 -1.4277
 1231SOL    HW215156   4.716   3.233  17.267  1.1956 -0.8043  0.9094
 1232SOL     OW15157   4.273   0.211   2.283  0.3461  0.0768  0.1745
 1232SOL    HW115158   4.309   0.123   2.294  1.9202  0.6408 -0.5202
 1232SOL    HW215159   4.350   0.267   2.275  0.8233 -0.7994 -1.2248
 1233SOL     OW15160   0.234   3.016  11.481 -0.1645  0.6908  0.0364
 1233SOL    HW115161   0.285   2.982  11.407  1.4796 -0.0769  1.5257
 1233SOL    HW215162   0.168   2.948  11.493  0.9206 -0.6179 -1.4515
 1234SOL     OW15163   2.878   2.146   3.822 -0.7444 -0.0847 -0.4851
 1234SOL    HW115164   2.929   2.075   3.860  1.6260  1.9663  0.1602
 1234SOL    HW215165   2.790   2.127   3.854  0.2120 -1.4943  1.2592
 1235SOL     OW15166   1.831   1.617  14.483  0.3630 -0.0158  0.5105
 1235SOL    HW115167   1.892   1.600  14.555  1.1500 -1.2736 -0.4436
 1235SOL    HW215168   1.893   1.659  14.423 -1.1525  1.9384  0.3054
 1236SOL     OW15169   4.141   4.658   9.775 -0.2703  0.0145  0.3568
 1236SOL    HW115170   4.169   4.722   9.840 -2.9246 -0.9959  2.5248
 1236SOL    HW215171   4.216   4.599   9.775 -0.2037  0.0671 -3.2474
 1237SOL     OW15172   1.722   4.526   3.646 -0.2367 -0.1295 -0.1643
 1237SOL    HW115173   1.759   4.540   3.559 -2.6749 -0.9128 -1.3391
 1237SOL    HW215174   1.637   4.489   3.622  0.2738 -1.3262 -0.1402
 1238SOL     OW15175   4.121   4.672   7.648  0.0007 -0.6640 -0.0141
 1238SOL    HW115176   4.126   4.611   7.722 -1.8999  0.1567  0.7915
 1238SOL    HW215177   4.058   0.013   7.679 -1.5482 -2.9642  1.6517
 1239SOL     OW15178   3.025   4.460   7.647  0.5835  0.1364 -0.6110
 1239SOL    HW115179   3.118   4.456   7.668  0.8171 -0.0989 -1.6757
 1239SOL    HW215180   2.982   4.484   7.729  0.3216  2.3783 -1.4283
 1240SOL     OW15181   0.122   1.741  14.551 -0.6638  0.2987 -0.1296
 1240SOL    HW115182   0.170   1.734  14.633  1.0304 -2.9330 -1.4135
 1240SOL    HW215183   0.188   1.753  14.482  0.0342 -1.4801  0.2409
 1241SOL     OW15184   3.953   1.967   8.167  0.5375 -0.6214  0.0438
 1241SOL    HW115185   3.915   2.021   8.237 -3.2807  0.0172 -2.5273
 1241SOL    HW215186   4.027   1.926   8.211 -1.5207 -2.2054  2.0658
 1242SOL     OW15187   2.337   2.770   3.797  0.0240  0.4003 -0.1407
 1242SOL    HW115188   2.334   2.674   3.791 -1.2735  0.4870 -0.8818
 1242SOL    HW215189   2.425   2.784   3.832  0.2134  1.7020 -1.1243
 1243SOL     OW15190   0.205   3.947   9.084  0.2777 -0.6754  0.1994
 1243SOL    HW115191   0.170   3.883   9.023 -0.9301 -0.7650  0.9868
 1243SOL    HW215192   0.171   3.926   9.171  1.1130  1.7317  1.1199
 1244SOL     OW15193   1.411   3.933   7.618 -0.3114  0.0691 -0.0928
 1244SOL    HW115194   1.317   3.932   7.636 -0.3040  0.6233 -0.0037
 1244SOL    HW215195   1.437   3.945   7.710 -1.2725  0.4664  0.1275
 1245SOL     OW15196   0.306   4.229  16.948  0.0083  0.0900  0.0650
 1245SOL    HW115197   0.348   4.313  16.968  0.2645 -0.2427  0.9091
 1245SOL    HW215198   0.292   4.242  16.855 -2.7525 -0.8815  0.3430
 1246SOL     OW15199   0.456   1.746   7.799  0.5434 -0.0228 -0.3337
 1246SOL    HW115200   0.437   1.713   7.887  1.1879 -1.9683 -0.9238
 1246SOL    HW215201   0.548   1.769   7.807  0.3962 -0.5625  2.7530
 1247SOL     OW15202   1.494   2.282  10.263 -0.2673 -0.0254 -0.7180
 1247SOL    HW115203   1.578   2.243  10.286 -0.0989  1.3099  0.9337
 1247SOL    HW215204   1.528   2.368  10.238 -1.2307  0.2828 -0.9798
 1248SOL     OW15205   2.502   4.082   0.693  0.5067 -0.0138  0.5476
 1248SOL    HW115206   2.581   4.130   0.717  0.5359  0.7545 -1.0623
 1248SOL    HW215207   2.480   4.044   0.778 -1.9061  0.7390  0.2522
 1249SOL     OW15208   0.222   2.458   1.763  0.1877 -0.2801 -0.7322
 1249SOL    HW115209   0.307   2.494   1.790 -1.0451  2.7366 -0.8133
 1249SOL    HW215210   0.216   2.369   1.795  1.1602  0.6848  2.0666
 1250SOL     OW15211   2.874   0.756   9.045 -0.0170  0.6730  0.6272
 1250SOL    HW115212   2.888   0.848   9.064 -0.9357  1.1042 -0.7808
 1250SOL    HW215213   2.934   0.711   9.104  0.3376 -0.5158 -0.6190
 1251SOL     OW15214   4.630   1.220  12.065 -0.2101 -0.2618 -0.4143
 1251SOL    HW115215   4.650   1.174  12.147  0.4045 -0.3647 -0.6278
 1251SOL    HW215216   4.605   1.305  12.101  1.0435  0.4360 -1.2000
 1252SOL     OW15217   3.072   0.524  13.772 -0.3215  0.0502 -0.8365
 1252SOL    HW115218   3.009   0.460  13.739 -0.7197 -0.8002  1.5864
 1252SOL    HW215219   3.085   0.582  13.697  2.2313  0.1559 -0.3323
 1253SOL     OW15220   2.642   3.255   6.622 -0.7260 -0.2220  0.4291
 1253SOL    HW115221   2.628   3.281   6.531 -0.8654  0.1500  0.5580
 1253SOL    HW215222   2.732   3.223   6.614 -0.1917  1.5097 -0.2969
 1254SOL     OW15223   0.036   1.653   7.886 -0.1654  0.0847  0.2433
 1254SOL    HW115224   0.108   1.649   7.824 -1.5490 -3.0559 -1.1291
 1254SOL    HW215225   4.719   1.566   7.886  0.3208 -0.1329 -2.6197
 1255SOL     OW15226   4.485   1.824  11.110 -0.3992 -0.2829 -0.1307
 1255SOL    HW115227   4.454   1.734  11.109 -0.4125 -0.2753 -1.1227
 1255SOL    HW215228   4.569   1.810  11.064 -0.2899  1.0692 -0.3561
 1256SOL     OW15229   0.165   1.441   8.333 -0.3534  0.0721  0.3292
 1256SOL    HW115230   0.222   1.364   8.333  1.0258  1.0976  0.9556
 1256SOL    HW215231   0.211   1.499   8.273 -0.4497  1.4645  1.6159
 1257SOL     OW15232   1.892   1.594   9.501 -0.4571  0.0759 -0.0584
 1257SOL    HW115233   1.981   1.561   9.496  1.3915  4.9836  0.8364
 1257SOL    HW215234   1.847   1.516   9.469 -0.8074  0.5804 -0.7886
 1258SOL     OW15235   0.096   0.260  17.235 -0.0462 -0.3080 -0.1022
 1258SOL    HW115236   0.056   0.333  17.281  0.5092  0.0982 -0.2700
 1258SOL    HW215237   0.032   0.234  17.168 -2.1861  0.1972  1.7612
 1259SOL     OW15238   1.576   0.385  16.082 -0.2731  0.0266 -0.2867
 1259SOL    HW115239   1.665   0.351  16.082  0.2651  1.4720  2.6423
 1259SOL    HW215240   1.572   0.440  16.004  2.0774  0.7255  0.1081
 1260SOL     OW15241   4.705   4.536  10.705  0.2559 -0.2314 -0.3658
 1260SOL    HW115242   4.640   4.606  10.708  0.6704  0.1830 -0.9786
 1260SOL    HW215243   0.056   4.596  10.711 -1.9280  2.5852 -1.0571
 1261SOL     OW15244   2.973   1.499   6.577 -1.0116  0.0941 -0.7233
 1261SOL    HW115245   2.971   1.593   6.558  0.1023  0.4117  0.7020
 1261SOL    HW215246   3.014   1.458   6.502 -0.4933  2.8564 -1.9547
 1262SOL     OW15247   4.266   0.131  11.437 -0.1055  0.3994  0.1721
 1262SOL    HW115248   4.178   0.107  11.409  0.1210  0.2674 -0.4289
 1262SOL    HW215249   4.307   0.138  11.351 -0.9447 -0.4727 -0.2893
 1263SOL     OW15250   4.466   1.192   3.465  0.1160 -0.6247 -0.5665
 1263SOL    HW115251   4.395   1.238   3.511  0.2951  0.6176 -1.5103
 1263SOL    HW215252   4.423   1.107   3.457  0.3738 -1.0456  2.5046
 1264SOL     OW15253   4.253   2.630   5.635  0.1459 -0.1310 -0.7301
 1264SOL    HW115254   4.206   2.706   5.601  1.4867 -0.0579 -2.4487
 1264SOL    HW215255   4.248   2.580   5.554 -0.6807  1.5166 -1.6911
 1265SOL     OW15256   2.669   1.413   6.509  0.5779 -0.2934 -0.0349
 1265SOL    HW115257   2.579   1.383   6.523  0.2688  0.7489  0.2642
 1265SOL    HW215258   2.718   1.355   6.568  1.1509 -0.6234 -0.8379
 1266SOL     OW15259   2.336   2.933  14.858  0.6348 -0.5312 -0.7888
 1266SOL    HW115260   2.349   2.842  14.885  1.4467  0.5264  2.4407
 1266SOL    HW215261   2.242   2.933  14.839  0.7269  0.5891 -1.2301
 1267SOL     OW15262   0.828   0.272  15.431  0.5167  0.1385 -0.5849
 1267SOL    HW115263   0.768   0.226  15.372 -0.8211 -0.2051  1.0246
 1267SOL    HW215264   0.907   0.280  15.378  0.0501  2.2039 -0.9797
 1268SOL     OW15265   0.446   4.394   9.033  0.0197 -0.3068  0.0454
 1268SOL    HW115266   0.446   4.387   9.128 -0.8802  0.8156  0.1346
 1268SOL    HW215267   0.463   4.488   9.019  0.2385 -0.6601 -2.1362
 1269SOL     OW15268   3.434   0.799  14.322 -0.0202 -0.3585  0.2464
 1269SOL    HW115269   3.465   0.881  14.362  1.1684 -0.5219 -0.3394
 1269SOL    HW215270   3.493   0.734  14.359  2.0225  1.7600  0.7549
 1270SOL     OW15271   2.612   3.729   4.055  0.1223  0.5609 -0.1676
 1270SOL    HW115272   2.707   3.739   4.066  0.0816  0.2633  0.4476
 1270SOL    HW215273   2.583   3.801   4.110  0.0751  0.3945  0.0247
 1271SOL     OW15274   4.699   4.004   6.967  0.8366  0.1185 -0.3041
 1271SOL    HW115275   0.041   4.009   6.898  2.1472 -2.4624  0.7722
 1271SOL    HW215276   4.639   3.943   6.925 -1.0560  1.3166  0.6484
 1272SOL     OW15277   0.668   0.795   3.550 -0.3554 -0.6373  0.1543
 1272SOL    HW115278   0.656   0.730   3.620 -0.4436 -0.1553  0.5907
 1272SOL    HW215279   0.576   0.800   3.526 -0.4612  2.6649  1.1334
 1273SOL     OW15280   0.762   0.664   9.662  0.0303 -0.4820  0.1836
 1273SOL    HW115281   0.685   0.669   9.718 -0.0391  0.7429 -0.0125
 1273SOL    HW215282   0.829   0.716   9.707 -0.4650  0.7510 -0.4821
 1274SOL     OW15283   1.716   1.941   7.535 -0.0060  0.0508  0.2334
 1274SOL    HW115284   1.735   1.932   7.441  1.8115  3.6195  0.2765
 1274SOL    HW215285   1.808   1.937   7.562 -0.3804  2.1873  1.7904
 1275SOL     OW15286   3.301   3.555  17.680  0.7499 -0.1300 -0.0846
 1275SOL    HW115287   3.267   3.581   0.069 -0.1738 -0.2266 -0.4179
 1275SOL    HW215288   3.219   3.524  17.640 -0.6342  3.6158 -0.2326
 1276SOL     OW15289   4.428   1.578   7.587  0.8128 -0.1611 -0.1919
 1276SOL    HW115290   4.504   1.555   7.533 -1.5890 -1.9321 -2.7804
 1276SOL    HW215291   4.398   1.667   7.567 -1.4626 -1.3091 -1.7666
 1277SOL     OW15292   2.829   2.231   3.167  0.3297 -0.8429 -0.0066
 1277SOL    HW115293   2.866   2.247   3.080  0.6923 -0.5559  0.1979
 1277SOL    HW215294   2.799   2.321   3.184 -1.3893 -1.6797  1.4196
 1278SOL     OW15295   4.399   3.521  17.472  0.6879  0.2306  0.1665
 1278SOL    HW115296   4.318   3.572  17.459  1.1801  1.4846  2.0626
 1278SOL    HW215297   4.375   3.498  17.562  1.2340  1.5335  0.6484
 1279SOL     OW15298   0.954   3.156   6.350  0.4756  1.1410  0.5688
 1279SOL    HW115299   0.923   3.094   6.417  0.2548 -0.0498 -0.6316
 1279SOL    HW215300   0.995   3.232   6.392  0.7491  0.8850  0.7614
 1280SOL     OW15301   1.773   1.278  13.651 -0.7514 -0.2307  0.5666
 1280SOL    HW115302   1.845   1.301  13.709  1.9877 -1.5936 -2.2549
 1280SOL    HW215303   1.760   1.357  13.599 -0.0517  1.3839  2.8602
 1281SOL     OW15304   0.381   0.279   1.725  0.2004  0.2136  0.1689
 1281SOL    HW115305   0.340   0.301   1.808 -0.5571  0.1509 -0.1959
 1281SOL    HW215306   0.302   0.302   1.677 -0.1122  0.5909  0.8572
 1282SOL     OW15307   3.010   0.922   5.378 -0.2549 -0.5861 -0.1562
 1282SOL    HW115308   3.046   1.002   5.340  0.0105 -0.6988 -0.1395
 1282SOL    HW215309   2.947   0.962   5.438 -0.3022 -0.1974 -0.4661
 1283SOL     OW15310   0.442   2.239   2.266  0.1315  0.1796 -0.2680
 1283SOL    HW115311   0.408   2.257   2.178 -0.4687  0.3559 -0.0033
 1283SOL    HW215312   0.529   2.210   2.241 -0.2302 -0.7796 -0.3916
 1284SOL     OW15313   1.734   4.277  12.627 -0.1168 -0.3204 -0.4624
 1284SOL    HW115314   1.819   4.311  12.657 -0.5650 -1.4392  2.0489
 1284SOL    HW215315   1.732   4.183  12.643 -1.6596 -0.5655 -2.1376
 1285SOL     OW15316   0.113   3.282   7.565  0.2597  0.3613  0.3361
 1285SOL    HW115317   0.095   3.300   7.657  0.3927  0.3168  0.3702
 1285SOL    HW215318   0.047   3.214   7.547 -1.2395  1.1470  2.8372
 1286SOL     OW15319   2.899   0.281   5.967  0.3636  0.4678 -0.0195
 1286SOL    HW115320   2.866   0.321   6.048 -0.7874 -1.5445  0.5103
 1286SOL    HW215321   2.836   0.298   5.898  0.9147 -0.1358 -0.6694
 1287SOL     OW15322   2.929   4.189   5.982  0.0967 -0.5022  0.0648
 1287SOL    HW115323   3.006   4.192   5.925  0.2346 -0.1661  0.2636
 1287SOL    HW215324   2.970   4.134   6.049  1.7486 -2.3469 -2.4545
 1288SOL     OW15325   1.598   2.352   9.821 -0.5206  0.0640  0.0780
 1288SOL    HW115326   1.674   2.296   9.835  0.7672  1.2922 -2.0250
 1288SOL    HW215327   1.596   2.399   9.904  2.6180  0.5681 -0.1643
 1289SOL     OW15328   2.676   0.711  17.319 -0.2631 -0.7554  0.6153
 1289SOL    HW115329   2.599   0.767  17.318 -1.1829 -2.0740 -1.0710
 1289SOL    HW215330   2.749   0.764  17.352 -0.5709  0.8051 -1.2098
 1290SOL     OW15331   3.244   2.167  10.053 -0.1220 -0.2126  0.1542
 1290SOL    HW115332   3.332   2.144  10.083  0.0162  0.6098  0.3922
 1290SOL    HW215333   3.204   2.086  10.087  2.6370 -1.3859  0.6169
 1291SOL     OW15334   0.002   3.442   0.500 -0.0075 -0.0698 -0.2543
 1291SOL    HW115335   0.006   3.361   0.449  0.9505 -0.7638  0.9029
 1291SOL    HW215336   4.632   3.458   0.512  0.0760 -1.0484  1.8255
 1292SOL     OW15337   0.950   3.037   1.940  0.6159  0.4066  0.7266
 1292SOL    HW115338   0.909   3.093   1.875 -1.0185 -2.0173 -0.3320
 1292SOL    HW215339   0.964   2.959   1.887 -3.8526  0.9372 -1.2210
 1293SOL     OW15340   0.612   4.384   7.847  0.0360 -0.4109  0.2718
 1293SOL    HW115341   0.622   4.291   7.869  0.4948  0.0411  2.0087
 1293SOL    HW215342   0.555   4.407   7.921 -0.7691  0.3402 -0.5900
 1294SOL     OW15343   0.654   0.039   5.413  0.4409 -0.6236 -0.3304
 1294SOL    HW115344   0.704   4.714   5.479 -0.2336  0.7681  1.2126
 1294SOL    HW215345   0.718   0.046   5.342 -1.5116 -0.5198 -2.0821
 1295SOL     OW15346   0.217   3.036  12.838 -0.4014  0.1309  0.2876
 1295SOL    HW115347   0.132   3.077  12.853  0.0410  1.0348  0.2851
 1295SOL    HW215348   0.236   2.990  12.920 -2.2973 -0.2879  0.4863
 1296SOL     OW15349   1.348   3.064   2.384 -0.0680 -0.1024  0.0692
 1296SOL    HW115350   1.352   3.023   2.298 -0.8872 -2.2600  1.0590
 1296SOL    HW215351   1.316   3.153   2.368  0.8353  0.7745  3.0497
 1297SOL     OW15352   3.827   4.718   3.836 -0.5265  0.0616 -0.2444
 1297SOL    HW115353   3.904   4.682   3.792 -1.6421  0.1815 -2.3361
 1297SOL    HW215354   3.817   0.080   3.795 -1.0222 -0.7965 -1.9688
 1298SOL     OW15355   0.516   0.463   1.313  0.3806 -0.2628 -0.0250
 1298SOL    HW115356   0.575   0.472   1.238 -0.4089  0.9828 -0.4930
 1298SOL    HW215357   0.479   0.377   1.296  0.6549 -0.3004 -0.4243
 1299SOL     OW15358   2.088   4.219   3.554  0.4379 -0.1138  0.0849
 1299SOL    HW115359   2.182   4.226   3.572 -0.2029  0.3328  3.2457
 1299SOL    HW215360   2.063   4.171   3.632 -0.1914 -1.0079 -0.6729
 1300SOL     OW15361   4.061   0.925   8.420 -0.3246  0.7735  0.3474
 1300SOL    HW115362   3.977   0.878   8.421 -0.5112  1.1156  0.5953
 1300SOL    HW215363   4.124   0.853   8.415  1.3606  2.2569  0.2880
 1301SOL     OW15364   0.994   1.531  17.459 -0.2466 -0.2485 -0.2260
 1301SOL    HW115365   1.018   1.568  17.374 -0.9352  0.6218 -0.0390
 1301SOL    HW215366   0.913   1.578  17.474  0.5425  0.3050  2.3576
 1302SOL     OW15367   4.027   2.922   5.310 -0.0412 -0.0178 -0.3639
 1302SOL    HW115368   4.022   2.846   5.252 -2.1482 -0.6873  0.6783
 1302SOL    HW215369   4.102   2.900   5.365 -0.4995  0.7635  0.5801
 1303SOL     OW15370   2.531   2.823   6.051 -0.1308 -0.3130 -0.2979
 1303SOL    HW115371   2.574   2.867   6.124 -0.2081  0.3433 -0.6486
 1303SOL    HW215372   2.556   2.734   6.077  2.8006  0.7370  0.5448
 1304SOL     OW15373   3.990   3.148   9.910 -0.2268 -0.0717 -0.5363
 1304SOL    HW115374   3.994   3.067   9.961  1.8730  1.6151  2.0066
 1304SOL    HW215375   3.980   3.213   9.981 -1.8916 -0.6807 -0.2159
 1305SOL     OW15376   4.258   1.317   7.474 -0.0172 -0.3999 -0.1179
 1305SOL    HW115377   4.255   1.411   7.495 -0.4731 -0.2430 -0.9001
 1305SOL    HW215378   4.348   1.292   7.496  0.4648  0.4751 -1.0893
 1306SOL     OW15379   1.350   0.482   1.762  0.4487  0.1153 -0.4763
 1306SOL    HW115380   1.265   0.521   1.742  0.2156 -0.2706 -0.2400
 1306SOL    HW215381   1.385   0.532   1.836  0.3142 -0.3178 -0.1201
 1307SOL     OW15382   2.236   3.213   3.589 -0.3412  0.0778  0.2391
 1307SOL    HW115383   2.207   3.125   3.614  0.9991 -0.2460  0.6549
 1307SOL    HW215384   2.296   3.237   3.660  0.3804  1.3294 -0.7922
 1308SOL     OW15385   1.402   0.570   3.327 -0.4774 -0.4049 -0.1359
 1308SOL    HW115386   1.332   0.602   3.270  1.0733  2.2452 -0.5408
 1308SOL    HW215387   1.480   0.613   3.291 -1.0562 -1.0091 -2.0923
 1309SOL     OW15388   4.159   0.911  10.255  0.8457  0.8816  0.4412
 1309SOL    HW115389   4.123   0.971  10.190  1.5577  0.3005 -0.4951
 1309SOL    HW215390   4.177   0.833  10.202  1.0182  3.0987 -2.8226
 1310SOL     OW15391   3.168   3.713   5.143  0.5103 -0.2067  0.4506
 1310SOL    HW115392   3.197   3.638   5.091 -0.6300  0.4583 -1.1626
 1310SOL    HW215393   3.122   3.667   5.213 -0.9616  1.7509  0.7828
 1311SOL     OW15394   3.186   4.238   4.153  0.0115  0.1162 -0.3108
 1311SOL    HW115395   3.157   4.251   4.063 -0.6665  1.0686  0.0462
 1311SOL    HW215396   3.278   4.261   4.144  0.0475  0.0244 -0.1856
 1312SOL     OW15397   0.254   3.556   5.670  0.4601  0.2674  0.4216
 1312SOL    HW115398   0.271   3.464   5.649 -0.5334  0.2850 -0.4665
 1312SOL    HW215399   0.205   3.570   5.589 -2.3240 -1.0283  1.8965
 1313SOL     OW15400   0.087   0.845   2.051 -0.4584  0.3598  0.5722
 1313SOL    HW115401   0.005   0.824   2.006 -0.0778  0.8921 -0.3818
 1313SOL    HW215402   0.141   0.883   1.981  0.9157 -2.1296  0.2861
 1314SOL     OW15403   0.138   0.488  12.930 -0.6127  0.5929 -0.1214
 1314SOL    HW115404   0.227   0.458  12.944 -0.4984  0.1864 -1.7843
 1314SOL    HW215405   0.131   0.505  12.836 -0.2439  2.5745  0.2055
 1315SOL     OW15406   3.609   1.114   0.532 -0.6865 -0.4887  0.4030
 1315SOL    HW115407   3.659   1.192   0.507  0.2651 -0.8605  1.1415
 1315SOL    HW215408   3.573   1.086   0.448  0.3470  1.6554 -0.7573
 1316SOL     OW15409   4.140   3.485  12.719  0.4987  0.6312  0.1741
 1316SOL    HW115410   4.121   3.541  12.644 -0.1318 -1.2985 -1.0891
 1316SOL    HW215411   4.233   3.478  12.694  0.4627 -0.8910  0.4322
 1317SOL     OW15412   3.033   2.213   0.562  0.3614 -0.0987 -0.1430
 1317SOL    HW115413   3.031   2.175   0.474  0.6411 -1.7036  0.5376
 1317SOL    HW215414   3.127   2.201   0.576  0.4627 -0.4570 -1.1167
 1318SOL     OW15415   4.119   2.933   5.667  0.3079 -0.0253  0.0484
 1318SOL    HW115416   4.146   2.949   5.577 -1.2766 -0.0111 -0.4385
 1318SOL    HW215417   4.049   2.998   5.668  0.5326  0.2194 -0.3311
 1319SOL     OW15418   2.254   2.766   2.132  0.1258 -0.6752  0.2288
 1319SOL    HW115419   2.255   2.773   2.227  2.9068  1.9458  0.0013
 1319SOL    HW215420   2.347   2.757   2.112 -0.2911 -0.1214 -1.9407
 1320SOL     OW15421   0.652   2.406   3.467 -0.3903  0.4121  0.2525
 1320SOL    HW115422   0.727   2.353   3.439 -2.0320 -0.5579 -2.2677
 1320SOL    HW215423   0.592   2.336   3.494  1.6525 -1.0570  1.0325
 1321SOL     OW15424   2.985   4.155   2.122 -0.4844 -0.2251  0.2897
 1321SOL    HW115425   3.052   4.210   2.081 -1.4166  1.0663  0.5216
 1321SOL    HW215426   2.968   4.103   2.043 -0.7243 -1.6051  1.2680
 1322SOL     OW15427   1.557   4.041   6.173 -0.6596 -0.1537 -0.2291
 1322SOL    HW115428   1.582   4.003   6.257  3.7776  1.5880 -0.7876
 1322SOL    HW215429   1.589   4.131   6.178 -2.0433  0.2947  0.4475
 1323SOL     OW15430   1.446   3.477   7.269 -0.1540 -0.0907 -0.6223
 1323SOL    HW115431   1.420   3.387   7.249 -0.4376  0.3465 -2.2151
 1323SOL    HW215432   1.371   3.496   7.325 -0.7265  0.0303 -1.4304
 1324SOL     OW15433   4.611   0.776   4.709 -0.1979 -0.5363 -0.2296
 1324SOL    HW115434   4.694   0.815   4.681 -0.7914 -1.6504 -3.5226
 1324SOL    HW215435   4.629   0.682   4.699  1.5554 -0.1276 -0.9188
 1325SOL     OW15436   1.489   3.285   4.549  0.0530  0.0693  0.3206
 1325SOL    HW115437   1.555   3.237   4.599 -1.4449 -2.0369  0.2903
 1325SOL    HW215438   1.412   3.295   4.606 -1.5693 -2.7411 -1.4019
 1326SOL     OW15439   0.643   4.064   6.546  0.3433 -0.2258  0.0127
 1326SOL    HW115440   0.582   4.100   6.610 -1.6560 -1.7454 -0.9970
 1326SOL    HW215441   0.580   4.028   6.483 -0.6687  0.7504  0.4655
 1327SOL     OW15442   3.623   4.721   3.332 -0.2290  0.5300  0.1888
 1327SOL    HW115443   3.709   0.007   3.373  0.3715 -0.9919 -0.7280
 1327SOL    HW215444   3.642   4.702   3.241 -0.8020 -0.0759  0.1959
 1328SOL     OW15445   3.780   3.261   3.602 -0.2125  0.7924 -0.1792
 1328SOL    HW115446   3.802   3.289   3.513 -3.3189  1.1273 -0.8150
 1328SOL    HW215447   3.715   3.195   3.579 -0.9923  1.7529 -0.7007
 1329SOL     OW15448   3.185   2.162   3.322  0.2865  0.0125 -0.4971
 1329SOL    HW115449   3.262   2.202   3.282  1.3167  0.2841  1.7413
 1329SOL    HW215450   3.207   2.071   3.343  0.0753  0.1306  0.2329
 1330SOL     OW15451   3.095   0.374   3.591  0.0250 -0.2229 -0.6406
 1330SOL    HW115452   3.028   0.343   3.653 -0.1421  3.0409  0.8055
 1330SOL    HW215453   3.117   0.455   3.637 -0.3055  0.3468 -1.4916
 1331SOL     OW15454   4.125   3.919  14.675 -0.0991  0.4500  0.7067
 1331SOL    HW115455   4.041   3.882  14.703  0.4785 -1.5965 -0.2236
 1331SOL    HW215456   4.107   3.960  14.590  0.3187 -0.1586  0.3156
 1332SOL     OW15457   3.229   1.590  10.021 -0.2558 -0.4797 -0.3229
 1332SOL    HW115458   3.237   1.672  10.069 -0.3470 -0.1610 -0.8490
 1332SOL    HW215459   3.318   1.560  10.041  0.4403  0.0635 -2.5142
 1333SOL     OW15460   4.476   3.648   5.179 -0.3877  0.1304 -0.4376
 1333SOL    HW115461   4.571   3.662   5.184 -0.6424  1.6384  0.0779
 1333SOL    HW215462   4.438   3.723   5.225 -0.4804 -0.2038  0.0285
 1334SOL     OW15463   4.109   3.118   6.335 -0.6376 -0.5075 -0.1468
 1334SOL    HW115464   4.122   3.024   6.327  1.0673 -0.2994  0.2128
 1334SOL    HW215465   4.161   3.144   6.411 -0.3796 -0.1057 -0.4567
 1335SOL     OW15466   2.504   2.165  16.163  0.2742 -0.0967 -0.2159
 1335SOL    HW115467   2.454   2.179  16.083 -0.9692 -0.7011  0.4551
 1335SOL    HW215468   2.592   2.164  16.125  1.8376 -1.9350  3.4112
 1336SOL     OW15469   2.426   4.242   5.838  0.6694  0.1922 -0.2842
 1336SOL    HW115470   2.478   4.205   5.910  0.2414 -0.5377 -0.3488
 1336SOL    HW215471   2.461   4.331   5.840 -1.3218  0.9600  0.5724
 1337SOL     OW15472   2.610   2.534   0.161  0.1021 -0.1197 -0.8037
 1337SOL    HW115473   2.615   2.490   0.076 -0.7705  2.0037 -1.9631
 1337SOL    HW215474   2.534   2.591   0.148 -0.2976 -1.2380 -3.4407
 1338SOL     OW15475   0.696   3.434   6.489  0.1891  0.2906  0.7129
 1338SOL    HW115476   0.698   3.530   6.480 -3.9745  0.6478  3.5338
 1338SOL    HW215477   0.727   3.404   6.404  0.7289  1.3067  0.5537
 1339SOL     OW15478   1.349   3.710   4.615  0.2467  0.3548  0.3287
 1339SOL    HW115479   1.271   3.671   4.575  0.4808 -2.2103  2.3920
 1339SOL    HW215480   1.418   3.645   4.604  0.9639  1.1444  0.1587
 1340SOL     OW15481   3.082   3.710   4.831  0.5761 -0.8927  0.0498
 1340SOL    HW115482   3.028   3.669   4.764 -0.0050 -0.6448  0.3623
 1340SOL    HW215483   3.030   3.783   4.863 -0.0556 -0.2398 -2.4544
 1341SOL     OW15484   4.349   0.673   3.510 -0.3003 -0.6325  0.3557
 1341SOL    HW115485   4.426   0.640   3.464  0.8690 -1.2493  2.7252
 1341SOL    HW215486   4.295   0.595   3.500 -0.7682 -0.2164 -0.3503
 1342SOL     OW15487   1.632   0.836   7.414 -0.5487 -0.1183  0.5407
 1342SOL    HW115488   1.576   0.830   7.337 -1.1445 -0.9332  1.0351
 1342SOL    HW215489   1.715   0.866   7.376 -0.8212  2.1422  1.7580
 1343SOL     OW15490   1.154   0.405  16.928 -0.1289 -0.4020 -0.6316
 1343SOL    HW115491   1.062   0.430  16.916 -0.1944  0.3178  1.3229
 1343SOL    HW215492   1.150   0.380  17.020 -1.3593 -0.7926 -0.7918
 1344SOL     OW15493   0.955   1.663   7.942 -0.0060 -0.3897  0.2640
 1344SOL    HW115494   1.033   1.689   7.991 -0.5733  0.4802  0.7058
 1344SOL    HW215495   0.893   1.635   8.009 -2.2091  4.2065  0.2011
 1345SOL     OW15496   1.631   2.713   8.685  0.1877 -0.2399 -0.3468
 1345SOL    HW115497   1.697   2.684   8.622 -0.6485  1.9897 -2.2675
 1345SOL    HW215498   1.615   2.638   8.741  0.1763  0.1953  0.2247
 1346SOL     OW15499   1.763   0.900   2.686  0.0174 -0.1173 -0.7135
 1346SOL    HW115500   1.812   0.957   2.746 -1.7324  1.0091 -0.3639
 1346SOL    HW215501   1.762   0.820   2.738  2.1786  2.0273  2.6447
 1347SOL     OW15502   0.331   2.292   4.870  0.6683 -0.6265 -0.7468
 1347SOL    HW115503   0.300   2.282   4.960 -1.2304 -1.4196 -1.4889
 1347SOL    HW215504   0.284   2.368   4.836  1.2845  0.3409  0.5696
 1348SOL     OW15505   2.556   4.483  13.337  0.1574 -0.2761  0.3919
 1348SOL    HW115506   2.630   4.427  13.362 -0.9728 -1.6694  0.6420
 1348SOL    HW215507   2.516   4.427  13.271  0.1826 -0.7139  0.7482
 1349SOL     OW15508   2.407   1.403   7.810 -0.5771  0.2404 -0.4812
 1349SOL    HW115509   2.379   1.313   7.791  0.0403 -0.1304  0.3371
 1349SOL    HW215510   2.353   1.415   7.888  0.0473  0.1289 -0.0271
 1350SOL     OW15511   3.031   1.452  16.338 -0.8559  0.6583  0.0304
 1350SOL    HW115512   2.978   1.518  16.383 -0.4264  1.1424 -0.1765
 1350SOL    HW215513   3.008   1.458  16.245 -2.1408  1.0131  0.3764
 1351SOL     OW15514   2.900   3.288   8.916 -0.8325 -0.3532  0.3922
 1351SOL    HW115515   2.841   3.220   8.950 -1.3642 -1.2064 -2.2150
 1351SOL    HW215516   2.942   3.316   8.997 -1.3894  0.7870  0.2863
 1352SOL     OW15517   1.850   2.966   1.811 -0.4066  0.2338 -0.1905
 1352SOL    HW115518   1.903   2.947   1.733 -0.9650  0.4156 -0.6114
 1352SOL    HW215519   1.803   3.049   1.799  1.1529  1.2478  0.5916
 1353SOL     OW15520   0.848   1.576   7.714  0.3928 -0.0335  0.1735
 1353SOL    HW115521   0.822   1.664   7.689 -0.1751 -0.4027 -0.5485
 1353SOL    HW215522   0.912   1.593   7.783  1.8318 -2.5414 -0.5428
 1354SOL     OW15523   1.467   4.664   6.556 -0.1762  0.3563 -0.2136
 1354SOL    HW115524   1.435   4.580   6.524  4.7971 -0.8142 -2.1742
 1354SOL    HW215525   1.496   4.643   6.645  0.6911 -0.5396 -0.7046
 1355SOL     OW15526   0.583   0.516   4.147 -0.0025 -0.0996 -0.0145
 1355SOL    HW115527   0.632   0.563   4.078  0.4102 -2.5083 -1.3772
 1355SOL    HW215528   0.641   0.440   4.148  0.2735  0.0627 -2.6842
 1356SOL     OW15529   3.582   3.141   7.901  0.5979 -0.0622  0.0059
 1356SOL    HW115530   3.601   3.215   7.845 -2.6856  1.4373  0.8497
 1356SOL    HW215531   3.492   3.164   7.924  0.8020 -0.1475  0.8947
 1357SOL     OW15532   3.861   3.970   5.234  0.1468  0.2552  0.2156
 1357SOL    HW115533   3.841   3.877   5.221  0.7945  0.3314 -1.4272
 1357SOL    HW215534   3.907   3.969   5.150 -0.3605  1.1536 -0.0712
 1358SOL     OW15535   0.654   2.878  16.588 -0.3279 -0.0730  0.2149
 1358SOL    HW115536   0.647   2.966  16.551 -0.5818  0.4330  1.4899
 1358SOL    HW215537   0.649   2.826  16.507 -1.2933  2.4749 -1.3393
 1359SOL     OW15538   4.293   4.298   4.732  0.1015 -0.0100 -0.2216
 1359SOL    HW115539   4.316   4.218   4.685 -0.8655 -1.4641  1.7564
 1359SOL    HW215540   4.364   4.302   4.797  1.2593 -0.7714 -1.4435
 1360SOL     OW15541   0.813   0.742   4.632  0.1788 -0.4781 -0.5820
 1360SOL    HW115542   0.800   0.810   4.698  0.8976  0.1703 -1.0975
 1360SOL    HW215543   0.864   0.787   4.564 -0.7417  0.7819 -0.4521
 1361SOL     OW15544   1.738   0.817   7.069  0.0307 -0.0156  0.9393
 1361SOL    HW115545   1.682   0.740   7.063  1.0778 -0.7587  0.6763
 1361SOL    HW215546   1.820   0.768   7.061 -0.1730 -0.5669  2.2596
 1362SOL     OW15547   1.830   0.219   2.010  1.1158 -0.2440  0.3119
 1362SOL    HW115548   1.785   0.288   1.961 -0.9597 -2.0969 -0.4246
 1362SOL    HW215549   1.825   0.246   2.102  1.3277 -2.2609  0.9174
 1363SOL     OW15550   2.077   1.212   1.070  0.2254 -0.1339 -0.4512
 1363SOL    HW115551   1.990   1.181   1.047  0.1423  0.4097 -0.8639
 1363SOL    HW215552   2.123   1.128   1.061 -1.0716 -0.9050  0.0811
 1364SOL     OW15553   2.999   4.379   0.968 -0.3323  0.2240 -0.5584
 1364SOL    HW115554   3.066   4.384   0.899 -1.0077 -0.4373 -1.2694
 1364SOL    HW215555   2.916   4.389   0.921 -2.1631  0.0700  2.7057
 1365SOL     OW15556   1.037   0.800  11.127  0.9714 -0.3697  0.3366
 1365SOL    HW115557   0.943   0.820  11.131  0.8526 -0.7668 -0.5385
 1365SOL    HW215558   1.060   0.865  11.061  2.2213 -0.5248  0.6169
 1366SOL     OW15559   1.184   1.149   3.970  0.1577  0.2229 -0.1772
 1366SOL    HW115560   1.168   1.222   3.910 -1.7811 -0.7733 -0.8779
 1366SOL    HW215561   1.214   1.082   3.910 -0.9255  1.0951 -1.7113
 1367SOL     OW15562   4.122   1.409   7.212 -0.1929  0.3489  0.5090
 1367SOL    HW115563   4.084   1.344   7.271  0.1340  0.8702  1.3082
 1367SOL    HW215564   4.203   1.368   7.181 -0.1477  0.1278  0.9213
 1368SOL     OW15565   1.429   1.501   2.137  0.2536  0.7267 -0.8025
 1368SOL    HW115566   1.369   1.427   2.127  0.9746  0.2083 -1.3204
 1368SOL    HW215567   1.376   1.554   2.196 -0.1923  0.4360 -0.9371
 1369SOL     OW15568   2.656   3.014   4.553 -0.6685 -0.2185 -0.0444
 1369SOL    HW115569   2.563   3.035   4.559  0.7985  5.6339  1.5472
 1369SOL    HW215570   2.690   3.074   4.619  1.0780 -1.2690 -0.0010
 1370SOL     OW15571   0.345   2.755   2.253 -0.7809 -0.1266  0.4867
 1370SOL    HW115572   0.329   2.740   2.346 -0.1053 -0.0424  0.6195
 1370SOL    HW215573   0.257   2.785   2.229 -0.4756  0.6655  0.3419
 1371SOL     OW15574   3.039   0.805   8.386  0.1817  0.2599 -0.0358
 1371SOL    HW115575   3.115   0.811   8.328  0.7964  0.8686  0.8178
 1371SOL    HW215576   3.056   0.858   8.464  1.4591 -0.5295  0.2235
 1372SOL     OW15577   0.848   1.988  14.267  0.1586  0.7684 -0.2483
 1372SOL    HW115578   0.753   1.976  14.267  0.2398  0.1060 -0.5390
 1372SOL    HW215579   0.860   2.055  14.334  1.1150  0.4700 -0.1166
 1373SOL     OW15580   0.547   2.445   5.615 -0.3535  0.3066 -0.0060
 1373SOL    HW115581   0.638   2.416   5.608  0.2716  2.2429  0.1033
 1373SOL    HW215582   0.530   2.378   5.681 -0.4159 -1.8124 -2.1782
 1374SOL     OW15583   0.759   1.254  15.902 -0.6650  0.3592  0.0635
 1374SOL    HW115584   0.756   1.329  15.841 -0.6172 -1.0454 -1.6583
 1374SOL    HW215585   0.677   1.207  15.891 -0.2895 -0.0019 -1.3104
 1375SOL     OW15586   1.793   0.921   2.423 -0.1413  0.1708  0.0754
 1375SOL    HW115587   1.702   0.892   2.412  0.4434 -1.8421  0.4907
 1375SOL    HW215588   1.799   0.928   2.518 -1.0628 -1.3198  0.2432
 1376SOL     OW15589   3.271   3.470   5.571 -0.3017  0.6642  0.6540
 1376SOL    HW115590   3.236   3.381   5.578 -0.7592  0.8199  0.3837
 1376SOL    HW215591   3.251   3.518   5.651 -0.1702  0.6873  0.6724
 1377SOL     OW15592   3.276   0.994   7.515 -0.0411  0.6674 -0.7252
 1377SOL    HW115593   3.269   0.982   7.421  0.7178 -0.0277 -0.6906
 1377SOL    HW215594   3.370   0.980   7.531  0.0881  1.2947 -0.9524
 1378SOL     OW15595   3.002   3.605  12.196 -0.9525 -1.0301 -0.3053
 1378SOL    HW115596   2.957   3.674  12.146 -1.0560 -2.5083 -2.2414
 1378SOL    HW215597   2.945   3.530  12.179 -2.1995  0.0991 -1.1178
 1379SOL     OW15598   2.432   4.528   4.271  0.2282  0.3742 -0.4188
 1379SOL    HW115599   2.498   4.500   4.334 -1.3382  1.5351  1.7606
 1379SOL    HW215600   2.444   4.479   4.190  1.2438  3.0019 -1.8604
 1380SOL     OW15601   3.128   1.215   5.920 -0.0277  0.2114 -0.2591
 1380SOL    HW115602   3.195   1.279   5.944 -0.9844  1.4093 -0.7709
 1380SOL    HW215603   3.074   1.217   5.999  1.2042 -1.0749  0.6145
 1381SOL     OW15604   4.288   3.803   9.422  0.1261  0.1059 -0.3008
 1381SOL    HW115605   4.290   3.879   9.480 -1.0779  0.0067 -0.1290
 1381SOL    HW215606   4.359   3.746   9.452  1.3133  1.9250  0.3247
 1382SOL     OW15607   3.196   2.250   5.412  0.1340 -0.0875 -0.4552
 1382SOL    HW115608   3.218   2.290   5.327  1.5208  0.4156  0.1461
 1382SOL    HW215609   3.270   2.287   5.461  0.8409 -2.0962 -0.0220
 1383SOL     OW15610   3.290   1.759   4.213  0.3181  0.0743 -0.6331
 1383SOL    HW115611   3.370   1.733   4.169 -1.0472 -0.8047 -2.6269
 1383SOL    HW215612   3.310   1.841   4.257  0.6252 -0.5254  0.3516
 1384SOL     OW15613   4.242   0.469  11.246 -0.1731  0.4936 -0.0460
 1384SOL    HW115614   4.243   0.464  11.151 -0.0668 -2.2802  0.1047
 1384SOL    HW215615   4.333   0.441  11.260  0.3511  2.0524 -0.3052
 1385SOL     OW15616   4.671   0.928  13.501 -0.6629 -0.1998  0.7480
 1385SOL    HW115617   4.624   0.878  13.434 -0.0314 -0.7069  0.6889
 1385SOL    HW215618   0.009   0.968  13.441 -1.4900  1.1190  0.7680
 1386SOL     OW15619   4.618   1.081   4.113 -0.0994  0.2774  0.6017
 1386SOL    HW115620   4.617   1.040   4.026 -1.8199 -0.4119  0.9551
 1386SOL    HW215621   4.707   1.116   4.114 -0.4982  1.3144  0.0819
 1387SOL     OW15622   0.839   3.603   2.091 -0.5136  0.1828  0.3679
 1387SOL    HW115623   0.800   3.684   2.124 -0.5084  0.8914 -1.3927
 1387SOL    HW215624   0.784   3.589   2.014 -0.9147  0.0161  0.6848
 1388SOL     OW15625   3.022   4.000  15.281  0.7431  0.2370 -0.1179
 1388SOL    HW115626   2.993   4.053  15.207 -1.4473  0.4194  0.8796
 1388SOL    HW215627   3.021   3.913  15.242 -0.5994  0.5684 -0.8144
 1389SOL     OW15628   2.627   3.449   0.674 -0.1116 -0.5812  0.3036
 1389SOL    HW115629   2.622   3.488   0.587  0.1163  2.7382  1.7926
 1389SOL    HW215630   2.654   3.524   0.726  1.5054 -0.5712 -0.5636
 1390SOL     OW15631   1.196   1.544   2.366  0.2773 -0.8348 -0.2596
 1390SOL    HW115632   1.174   1.466   2.316  0.2799 -1.4814  0.7589
 1390SOL    HW215633   1.215   1.514   2.455  1.3434 -1.4157 -0.6854
 1391SOL     OW15634   3.124   1.511   7.937 -0.0439  0.1459 -0.6709
 1391SOL    HW115635   3.084   1.506   7.850 -2.0252  0.9062  0.1820
 1391SOL    HW215636   3.215   1.488   7.919 -0.1262 -1.8834  1.5398
 1392SOL     OW15637   2.614   2.136   1.910  0.2861  0.4547  0.2367
 1392SOL    HW115638   2.580   2.071   1.849  2.3644 -0.9734  0.5816
 1392SOL    HW215639   2.599   2.100   1.998  0.4427 -3.2008 -1.2472
 1393SOL     OW15640   4.181   0.475  14.877  0.1603 -0.4452 -0.3929
 1393SOL    HW115641   4.200   0.440  14.964 -2.7736 -0.1013  0.3752
 1393SOL    HW215642   4.136   0.397  14.844 -2.6516  1.2639 -0.5721
 1394SOL     OW15643   3.678   3.909   8.295 -0.3084  0.3806  0.2022
 1394SOL    HW115644   3.593   3.932   8.259  0.4343  1.0655 -1.1373
 1394SOL    HW215645   3.678   3.816   8.273  1.5634  0.7802 -1.5109
 1395SOL     OW15646   3.005   3.635   1.477 -0.3460 -0.6211 -0.3927
 1395SOL    HW115647   2.914   3.623   1.505 -0.3758 -0.3536 -0.3735
 1395SOL    HW215648   3.009   3.572   1.405  1.9171 -1.2719  0.3134
 1396SOL     OW15649   1.823   1.627   3.201 -0.2886  0.2413 -0.2956
 1396SOL    HW115650   1.863   1.635   3.287 -0.1344 -0.1830 -0.3253
 1396SOL    HW215651   1.845   1.713   3.165  1.7529 -0.2574 -0.2435
 1397SOL     OW15652   2.826   0.407  10.375 -0.1002 -0.3445  0.2594
 1397SOL    HW115653   2.770   0.331  10.359  0.3909 -0.3793 -1.2932
 1397SOL    HW215654   2.900   0.363  10.418  0.1000 -0.3640 -0.1048
 1398SOL     OW15655   3.145   1.144   2.212 -0.2005 -0.4085  0.4292
 1398SOL    HW115656   3.220   1.197   2.184  0.9488 -1.3281  1.7635
 1398SOL    HW215657   3.074   1.195   2.173  1.9711  1.4436 -1.1319
 1399SOL     OW15658   3.396   2.049  10.808  0.9529 -0.7683 -0.6380
 1399SOL    HW115659   3.466   1.985  10.805 -0.0882 -1.8454 -2.1319
 1399SOL    HW215660   3.322   1.989  10.804 -1.1767  1.7497  0.1927
 1400SOL     OW15661   3.955   2.424   3.747  0.5448  0.0673  0.6312
 1400SOL    HW115662   3.997   2.452   3.828  1.3419 -1.0083  0.5954
 1400SOL    HW215663   4.024   2.418   3.680 -0.1934 -2.9789  0.1529
 1401SOL     OW15664   1.116   3.474   2.419 -0.1203  0.0769  0.6613
 1401SOL    HW115665   1.070   3.551   2.454  0.7753 -0.0361  2.0842
 1401SOL    HW215666   1.093   3.396   2.469  0.8601  0.2138  1.3220
 1402SOL     OW15667   0.610   4.670   7.032 -0.3708  0.3446  0.2603
 1402SOL    HW115668   0.629   4.592   7.084 -2.4739 -1.9246 -2.3886
 1402SOL    HW215669   0.603   4.629   6.946 -0.9269  1.3605 -0.1725
 1403SOL     OW15670   0.260   1.493   3.289 -0.2749  0.0714  0.2461
 1403SOL    HW115671   0.235   1.480   3.380 -0.7224  0.7393  0.2217
 1403SOL    HW215672   0.177   1.457   3.256  0.2332 -1.6597  0.8616
 1404SOL     OW15673   0.449   0.881   4.549  0.7121 -0.4441 -0.0721
 1404SOL    HW115674   0.475   0.842   4.465  0.0793  0.6159 -0.7632
 1404SOL    HW215675   0.363   0.910   4.519  0.0286  0.0324  2.3540
 1405SOL     OW15676   2.071   0.271  14.045 -0.3970  0.6511  0.0929
 1405SOL    HW115677   2.010   0.219  14.097  0.9157 -0.4389  0.5438
 1405SOL    HW215678   2.022   0.300  13.968 -1.3825  1.6719  1.1219
 1406SOL     OW15679   2.712   0.719   4.435 -0.6994 -0.0539  0.5346
 1406SOL    HW115680   2.783   0.724   4.499 -0.1251  0.1137 -0.1249
 1406SOL    HW215681   2.667   0.800   4.460  0.2836  1.4121 -2.5060
 1407SOL     OW15682   4.051   3.080   4.613  0.3525 -0.6668  0.3115
 1407SOL    HW115683   4.043   3.117   4.525  1.7231  2.9477  1.6783
 1407SOL    HW215684   4.127   3.126   4.650 -0.0811  0.6528 -0.4135
 1408SOL     OW15685   2.444   3.982   8.578 -0.1267  0.4490  0.1587
 1408SOL    HW115686   2.407   3.899   8.609 -0.6722  1.5945  2.5657
 1408SOL    HW215687   2.377   4.046   8.599  0.7499  1.2613  0.4771
 1409SOL     OW15688   3.375   0.204   3.056  0.1475 -0.0988 -0.1720
 1409SOL    HW115689   3.402   0.190   3.147 -1.3784 -1.3508  0.0683
 1409SOL    HW215690   3.457   0.243   3.024 -0.2041 -0.0439 -0.9969
 1410SOL     OW15691   2.446   3.760   2.443  0.1536 -0.4232 -0.3577
 1410SOL    HW115692   2.378   3.776   2.509  0.3308  0.1272 -0.3042
 1410SOL    HW215693   2.412   3.694   2.384  0.8843 -0.5711 -0.6150
 1411SOL     OW15694   4.542   0.028   8.223  0.0180  0.2320 -0.6359
 1411SOL    HW115695   4.547   0.111   8.176 -1.6629  1.5162  1.4133
 1411SOL    HW215696   4.621   0.045   8.273  0.5607 -1.2701 -0.9693
 1412SOL     OW15697   2.017   2.394   9.968 -0.3982 -0.1549 -0.8074
 1412SOL    HW115698   2.065   2.456   9.913  0.6944 -0.5833 -0.3504
 1412SOL    HW215699   2.036   2.437  10.052  0.3038  0.6705 -1.3948
 1413SOL     OW15700   3.327   3.256  13.112 -0.1239 -0.4061 -0.2332
 1413SOL    HW115701   3.334   3.252  13.207  0.4178 -1.3292 -0.3046
 1413SOL    HW215702   3.232   3.257  13.099 -0.1985  1.1139  0.4265
 1414SOL     OW15703   3.881   4.340   6.805  0.3317 -0.3877 -0.2394
 1414SOL    HW115704   3.850   4.429   6.789 -0.3954 -0.1341  2.6698
 1414SOL    HW215705   3.886   4.300   6.718  1.7191 -1.6393  0.4311
 1415SOL     OW15706   1.413   3.617   8.804 -0.1081  0.3718 -0.5526
 1415SOL    HW115707   1.396   3.677   8.877 -1.7898  0.7211 -1.2527
 1415SOL    HW215708   1.327   3.577   8.795 -0.6674  0.5885  4.0295
 1416SOL     OW15709   2.065   0.527   0.479 -0.7256 -0.4190  0.2576
 1416SOL    HW115710   2.118   0.464   0.528  0.0061 -0.3908 -0.4997
 1416SOL    HW215711   2.106   0.511   0.394  1.0100 -1.5489  1.3042
 1417SOL     OW15712   4.692   4.715   7.088  0.5774  0.1717  0.0643
 1417SOL    HW115713   0.039   0.019   7.030 -0.8064  1.4473 -1.0168
 1417SOL    HW215714   4.618   4.692   7.031  0.0253  1.4624  0.2673
 1418SOL     OW15715   4.110   3.671   5.002  0.4818  0.4688 -0.1889
 1418SOL    HW115716   4.098   3.644   5.093 -1.6456 -1.6194 -1.0821
 1418SOL    HW215717   4.075   3.599   4.950  0.3020  0.9257 -0.6942
 1419SOL     OW15718   2.482   4.617   5.615 -0.0790 -0.0651  0.1565
 1419SOL    HW115719   2.509   4.570   5.694  1.8425  2.1180  0.7704
 1419SOL    HW215720   2.410   4.562   5.584 -0.1237 -0.6271  1.2559
 1420SOL     OW15721   1.632   2.845   8.937 -0.2544  0.0029  0.3552
 1420SOL    HW115722   1.726   2.863   8.932 -0.6400  1.9741  0.3929
 1420SOL    HW215723   1.629   2.766   8.882 -0.4063  0.7079 -0.6520
 1421SOL     OW15724   0.275   1.496  11.709  0.1911 -0.4700  0.3555
 1421SOL    HW115725   0.220   1.425  11.742  0.1078 -1.5908 -2.2029
 1421SOL    HW215726   0.361   1.470  11.742  1.0979  1.2479 -0.6738
 1422SOL     OW15727   3.925   4.181   8.251  0.0705 -0.6749 -0.3485
 1422SOL    HW115728   3.960   4.115   8.310  0.9599  0.5736  0.5308
 1422SOL    HW215729   3.958   4.155   8.165  2.2428 -0.3907  0.3965
 1423SOL     OW15730   3.116   4.129   6.844  0.0400  0.3269  0.0490
 1423SOL    HW115731   3.066   4.091   6.916  0.4022 -1.9058 -0.8716
 1423SOL    HW215732   3.051   4.134   6.774 -0.7180  1.9893  0.8798
 1424SOL     OW15733   3.320   0.578   6.544 -0.2954  0.5275 -0.0945
 1424SOL    HW115734   3.401   0.529   6.558 -0.7841  0.3767  2.1774
 1424SOL    HW215735   3.365   0.662   6.532 -1.8023  1.1719 -1.1593
 1425SOL     OW15736   0.701   0.485  15.859  0.1345  0.5369  0.2548
 1425SOL    HW115737   0.786   0.470  15.901 -0.2785 -0.9709  0.5572
 1425SOL    HW215738   0.707   0.575  15.825  0.6018 -1.0286 -3.8386
 1426SOL     OW15739   4.428   2.691   5.210  0.4029  0.2741 -0.5126
 1426SOL    HW115740   4.491   2.643   5.156  1.7149  1.8583 -0.4257
 1426SOL    HW215741   4.474   2.775   5.208  1.5268 -0.3329 -0.4161
 1427SOL     OW15742   3.770   1.361  11.436  0.1942 -0.1383 -0.8152
 1427SOL    HW115743   3.794   1.434  11.379 -0.8505  0.7480 -0.1362
 1427SOL    HW215744   3.807   1.398  11.516  0.1655 -0.8236 -0.4869
 1428SOL     OW15745   2.360   4.363   8.406 -0.1940 -0.0325 -0.0756
 1428SOL    HW115746   2.305   4.290   8.436  2.6731 -2.6261 -1.1226
 1428SOL    HW215747   2.394   4.385   8.493 -1.6666  3.7247 -0.4618
 1429SOL     OW15748   0.695   1.044   5.155 -0.0114  0.1172 -0.2847
 1429SOL    HW115749   0.754   1.088   5.093 -1.8207  0.5714 -1.7112
 1429SOL    HW215750   0.703   1.091   5.238 -1.4640 -1.4619  0.7455
 1430SOL     OW15751   2.404   0.109   4.349  0.1523 -1.1422 -0.1582
 1430SOL    HW115752   2.400   0.036   4.287 -1.4730 -1.2121  0.0144
 1430SOL    HW215753   2.496   0.125   4.366 -0.7671  2.2119  1.7803
 1431SOL     OW15754   2.070   2.402   9.653 -0.2453 -0.2729  0.0669
 1431SOL    HW115755   2.113   2.460   9.716  1.3004 -0.6454 -0.6449
 1431SOL    HW215756   2.028   2.457   9.587 -0.1384 -0.7428 -0.3969
 1432SOL     OW15757   4.426   0.264   3.976 -0.5342  0.1870 -0.3571
 1432SOL    HW115758   4.395   0.353   3.957 -0.5142  0.9582  3.1001
 1432SOL    HW215759   4.515   0.276   3.943  0.1391 -1.2737  0.9168
 1433SOL     OW15760   1.545   1.648   5.604 -0.1695  0.1938 -0.7959
 1433SOL    HW115761   1.552   1.707   5.680 -0.3034 -0.4625 -0.2773
 1433SOL    HW215762   1.637   1.656   5.580 -0.4760 -0.1811 -2.0824
 1434SOL     OW15763   3.430   2.703   4.491 -0.0423 -0.3160 -0.0042
 1434SOL    HW115764   3.351   2.650   4.481  0.5808 -0.7415 -2.6759
 1434SOL    HW215765   3.380   2.780   4.516  1.1464 -0.0567  1.5801
 1435SOL     OW15766   3.486   0.899  14.048 -0.0531 -0.2165  0.0852
 1435SOL    HW115767   3.550   0.895  14.119 -0.3145 -3.9348  0.0968
 1435SOL    HW215768   3.546   0.870  13.980  0.1215 -0.4723  0.3484
 1436SOL     OW15769   0.950   3.375   9.265  0.1027  0.5644  0.6395
 1436SOL    HW115770   0.889   3.407   9.332  0.3203  0.2334  0.9994
 1436SOL    HW215771   1.009   3.327   9.323  1.2308  1.4809  0.2393
 1437SOL     OW15772   3.307   2.910   6.338 -0.3632  0.5135 -0.0760
 1437SOL    HW115773   3.402   2.926   6.339 -0.3644  0.4953  0.2391
 1437SOL    HW215774   3.297   2.917   6.433 -0.5552  0.3115 -0.0827
 1438SOL     OW15775   3.012   0.057   6.415  0.5779 -0.0232 -0.6316
 1438SOL    HW115776   2.959   0.130   6.446  0.4667  0.2113 -1.3662
 1438SOL    HW215777   3.016   0.079   6.322 -0.9967 -4.7131 -1.8335
 1439SOL     OW15778   4.543   2.837   4.759 -0.1678  0.0404 -0.1622
 1439SOL    HW115779   4.575   2.788   4.835 -0.0028 -1.2042 -1.0406
 1439SOL    HW215780   4.481   2.895   4.804 -2.7025 -2.0129 -0.9681
 1440SOL     OW15781   3.108   2.549   8.519 -0.5791 -0.1421 -0.2198
 1440SOL    HW115782   3.153   2.533   8.602  0.8650 -0.4805 -1.0703
 1440SOL    HW215783   3.153   2.630   8.499 -1.4646  0.3874 -0.0501
 1441SOL     OW15784   1.084   4.343   3.431 -0.2455 -0.0235  0.1964
 1441SOL    HW115785   1.029   4.381   3.362  0.5592 -1.0400 -0.9877
 1441SOL    HW215786   1.170   4.378   3.409 -0.8638  0.2440 -1.7798
 1442SOL     OW15787   3.495   3.253  11.880  0.0628  0.2987  0.0414
 1442SOL    HW115788   3.531   3.312  11.947 -0.7390  1.0934 -0.2269
 1442SOL    HW215789   3.561   3.245  11.812  0.2689 -1.1992  0.4204
 1443SOL     OW15790   0.129   2.453  10.676 -0.2675 -0.2973  0.6583
 1443SOL    HW115791   0.134   2.365  10.715  0.7193  0.7801  2.9740
 1443SOL    HW215792   0.061   2.503  10.722 -2.1743 -0.1680 -2.2862
 1444SOL     OW15793   2.470   0.123   1.456  0.3750  0.8678  0.0553
 1444SOL    HW115794   2.534   0.185   1.489 -0.7944  1.4081  1.2937
 1444SOL    HW215795   2.501   0.038   1.485 -3.5159  0.2709  2.5282
 1445SOL     OW15796   1.527   3.447   5.543 -0.4823  0.6835  0.6249
 1445SOL    HW115797   1.573   3.368   5.570 -0.3759  1.3842  2.4537
 1445SOL    HW215798   1.511   3.491   5.626 -3.8715  0.8517 -0.1047
 1446SOL     OW15799   2.420   0.454   6.697 -0.0565 -0.1470  0.0315
 1446SOL    HW115800   2.337   0.469   6.742  0.3919 -0.5456  0.9830
 1446SOL    HW215801   2.407   0.501   6.614 -1.9747 -4.5997 -2.1428
 1447SOL     OW15802   4.666   1.910  11.977  0.2378  0.5790  0.2726
 1447SOL    HW115803   4.705   1.974  12.036 -1.0809  0.3892  1.3547
 1447SOL    HW215804   0.013   1.848  11.958 -1.0466 -1.6169  2.5148
 1448SOL     OW15805   4.464   2.993   5.646  0.3709 -0.2630 -0.4573
 1448SOL    HW115806   4.428   3.057   5.709  0.9471 -0.6696  0.2894
 1448SOL    HW215807   4.517   2.955   5.717 -2.3733 -0.1631  1.6474
 1449SOL     OW15808   3.532   4.133   9.645  0.4760 -0.1082  0.0737
 1449SOL    HW115809   3.473   4.058   9.646 -1.0268  1.0218 -2.9951
 1449SOL    HW215810   3.481   4.195   9.593 -3.7848 -1.0906  3.0826
 1450SOL     OW15811   1.445   1.702   6.808  0.3574  0.0707  0.4500
 1450SOL    HW115812   1.500   1.723   6.732 -0.9631 -0.5646 -0.6774
 1450SOL    HW215813   1.520   1.717   6.866 -0.0831 -2.0338  1.5484
 1451SOL     OW15814   0.823   3.621   4.657 -0.9872 -0.3811  0.5263
 1451SOL    HW115815   0.865   3.536   4.644  2.9049  1.1353  3.1474
 1451SOL    HW215816   0.813   3.624   4.752  0.9296  1.5330  0.6830
 1452SOL     OW15817   3.974   1.841   2.202 -0.3017  0.5015 -0.2956
 1452SOL    HW115818   3.891   1.804   2.173 -0.6187  1.7721 -0.9695
 1452SOL    HW215819   3.954   1.920   2.251 -1.1444  0.6707 -0.9232
 1453SOL     OW15820   2.434   1.267   5.140  0.3926  0.1892 -0.1585
 1453SOL    HW115821   2.427   1.257   5.045 -0.3000  1.3945 -0.2349
 1453SOL    HW215822   2.512   1.215   5.156  0.6788  0.5785 -0.2833
 1454SOL     OW15823   0.239   1.687   1.834  0.1739 -0.3557  0.0767
 1454SOL    HW115824   0.161   1.641   1.864  1.3977 -1.6611  1.2971
 1454SOL    HW215825   0.205   1.774   1.817 -0.4227 -0.8178 -1.0689
 1455SOL     OW15826   3.812   2.335   1.107 -0.5623  0.2954 -0.2320
 1455SOL    HW115827   3.770   2.404   1.158  1.4027  0.5478  1.0468
 1455SOL    HW215828   3.882   2.379   1.059  0.2312  0.3931  0.9995
 1456SOL     OW15829   3.023   2.503   9.172  0.2182 -0.0386 -0.2475
 1456SOL    HW115830   3.009   2.463   9.258 -0.7191  0.1740 -0.2982
 1456SOL    HW215831   2.993   2.430   9.119 -0.4967 -0.1716  0.3371
 1457SOL     OW15832   0.805   1.255   7.281 -0.1775  0.1966 -0.0302
 1457SOL    HW115833   0.787   1.345   7.308 -0.0575 -0.2380  1.4862
 1457SOL    HW215834   0.838   1.208   7.357 -0.9467  2.7211  1.8259
 1458SOL     OW15835   4.544   1.275   3.012  0.4054 -0.8157  0.1987
 1458SOL    HW115836   4.497   1.351   3.047 -0.1048 -0.8296 -0.4725
 1458SOL    HW215837   4.504   1.208   3.068  1.5750 -1.4468  0.2957
 1459SOL     OW15838   1.941   1.169   9.166  0.0370 -0.8113 -0.1220
 1459SOL    HW115839   1.955   1.230   9.093 -1.1511 -0.6703 -0.2370
 1459SOL    HW215840   2.027   1.163   9.206 -0.3442  0.4175  0.8898
 1460SOL     OW15841   2.917   1.510  16.892 -0.5412 -0.3968  0.4111
 1460SOL    HW115842   2.834   1.537  16.853 -1.2133 -0.3691  1.8510
 1460SOL    HW215843   2.963   1.593  16.884 -3.0418  0.9746  0.2589
 1461SOL     OW15844   4.399   2.341   8.616 -0.2918 -0.7413 -0.1719
 1461SOL    HW115845   4.364   2.286   8.686  2.0989 -1.7052  0.2863
 1461SOL    HW215846   4.410   2.283   8.541 -1.4031  1.2312 -1.8443
 1462SOL     OW15847   4.402   3.938   8.018 -0.4979 -0.0294  0.4660
 1462SOL    HW115848   4.374   3.892   7.939 -0.8502  0.9489  0.0210
 1462SOL    HW215849   4.413   3.867   8.081 -1.7562 -0.4941  0.1737
 1463SOL     OW15850   1.972   1.383  13.817  0.4738 -0.2178  0.7888
 1463SOL    HW115851   2.020   1.429  13.886 -0.5075 -0.6704  1.7640
 1463SOL    HW215852   2.048   1.362  13.763 -0.8741  0.3286 -1.3421
 1464SOL     OW15853   4.081   1.003   3.738  0.4115  0.3908  0.7643
 1464SOL    HW115854   4.169   1.024   3.770  0.2947  1.3581  0.4421
 1464SOL    HW215855   4.046   1.053   3.811  0.0158  2.0195 -0.5504
 1465SOL     OW15856   0.743   2.319   6.178 -0.3526 -0.1900  0.6194
 1465SOL    HW115857   0.763   2.409   6.201 -0.1552 -0.2544  0.6994
 1465SOL    HW215858   0.649   2.317   6.193 -0.1216  0.6151  2.0992
 1466SOL     OW15859   2.488   3.611   6.607 -0.1547  1.2694  0.2771
 1466SOL    HW115860   2.467   3.704   6.614 -0.0020  1.1955  1.6708
 1466SOL    HW215861   2.427   3.599   6.533 -0.4319 -3.8993  1.2902
 1467SOL     OW15862   1.380   1.321   4.937  0.3677 -0.4042  0.1058
 1467SOL    HW115863   1.318   1.375   4.985 -0.2864 -0.8395 -0.2550
 1467SOL    HW215864   1.429   1.283   5.010 -0.4257  1.1665  1.4289
 1468SOL     OW15865   4.047   4.168   8.695  0.1905 -0.0920 -0.1974
 1468SOL    HW115866   4.028   4.260   8.714  0.0417 -0.2107  0.2126
 1468SOL    HW215867   4.074   4.180   8.604  1.6371  0.5611  0.3220
 1469SOL     OW15868   1.262   4.705  15.773 -0.2782  0.0152  0.1886
 1469SOL    HW115869   1.329   0.043  15.802  0.3796  0.3131 -1.9787
 1469SOL    HW215870   1.253   0.003  15.680 -1.9980  1.7675  0.7857
 1470SOL     OW15871   2.188   0.283   3.132  0.4367 -0.3557 -0.1934
 1470SOL    HW115872   2.127   0.209   3.141 -0.8345  0.6279 -0.7021
 1470SOL    HW215873   2.232   0.268   3.049 -0.0375  0.6457 -0.6242
 1471SOL     OW15874   3.154   2.116   0.897  0.7326 -0.4190 -0.4727
 1471SOL    HW115875   3.163   2.208   0.870  1.8055 -1.0949 -2.3638
 1471SOL    HW215876   3.246   2.089   0.899  1.2259  1.2322 -0.9725
 1472SOL     OW15877   3.315   1.500   2.207 -0.4549  0.2522  0.2615
 1472SOL    HW115878   3.249   1.465   2.267  2.3045 -3.3850  1.1952
 1472SOL    HW215879   3.354   1.421   2.169  0.1634 -0.3784  2.2203
 1473SOL     OW15880   3.787   2.141   1.568 -0.0763 -0.2703 -0.0906
 1473SOL    HW115881   3.774   2.054   1.530  2.0307  0.0429 -1.5781
 1473SOL    HW215882   3.742   2.198   1.506 -0.0483  1.3471  1.3910
 1474SOL     OW15883   0.461   0.524   2.777 -0.2846  0.0246 -0.0703
 1474SOL    HW115884   0.388   0.539   2.718  0.9601 -1.2454 -1.9218
 1474SOL    HW215885   0.425   0.445   2.818 -0.8795  0.4988  0.3260
 1475SOL     OW15886   0.132   1.223   4.038 -0.1939 -0.2596  0.5543
 1475SOL    HW115887   0.158   1.314   4.023  0.6878 -0.4928  0.6424
 1475SOL    HW215888   0.220   1.187   4.029  0.2461  1.0882 -0.4995
 1476SOL     OW15889   0.076   0.708   5.813  0.5739  0.0328 -0.5620
 1476SOL    HW115890   4.718   0.663   5.835  0.4708  1.1470  1.3156
 1476SOL    HW215891   0.087   0.670   5.726 -2.0201 -2.7197  0.2894
 1477SOL     OW15892   1.516   1.477   2.404 -0.4319 -0.1282  0.2644
 1477SOL    HW115893   1.481   1.432   2.328  0.4024  1.3936 -1.0221
 1477SOL    HW215894   1.460   1.434   2.469  0.1559 -0.5433  0.5026
 1478SOL     OW15895   1.306   0.781  12.981  0.0997  0.4427  0.2682
 1478SOL    HW115896   1.312   0.712  13.047 -3.1194 -2.0347 -2.0509
 1478SOL    HW215897   1.337   0.860  13.026 -1.4028  1.0588  0.2274
 1479SOL     OW15898   0.268   2.660  12.698  0.5236 -0.3142 -0.4877
 1479SOL    HW115899   0.335   2.686  12.635 -0.0370  0.2309 -0.8602
 1479SOL    HW215900   0.292   2.569  12.714 -1.0646 -1.3259 -3.7509
 1480SOL     OW15901   4.458   0.507   9.646 -0.6477 -0.4783  0.3294
 1480SOL    HW115902   4.551   0.492   9.626 -0.1092  1.9441  1.0175
 1480SOL    HW215903   4.427   0.562   9.574 -0.3999  1.6843  1.9000
 1481SOL     OW15904   1.195   2.076  10.721 -0.7234 -0.0508 -0.2852
 1481SOL    HW115905   1.253   2.151  10.709 -0.2089 -0.4984 -0.6248
 1481SOL    HW215906   1.254   2.001  10.709 -2.9183 -1.5395 -1.7079
 1482SOL     OW15907   3.745   0.521   2.363 -0.4697  0.0475 -0.4282
 1482SOL    HW115908   3.675   0.573   2.321 -0.0059  1.6732  0.7959
 1482SOL    HW215909   3.725   0.532   2.456 -3.2512 -1.4708 -0.8425
 1483SOL     OW15910   1.480   0.669   7.220 -0.1876 -0.2926 -0.2506
 1483SOL    HW115911   1.403   0.673   7.276 -0.6996 -0.1094 -0.9730
 1483SOL    HW215912   1.501   0.580   7.248  0.5040 -0.8063 -2.4040
 1484SOL     OW15913   0.169   2.221  15.068 -0.4935  0.4132  0.4225
 1484SOL    HW115914   0.139   2.141  15.025 -0.0486 -0.1507  1.1494
 1484SOL    HW215915   0.109   2.282  15.026 -0.5986  2.1626  3.0828
 1485SOL     OW15916   1.790   0.578   2.295  0.6458  0.2496 -0.1843
 1485SOL    HW115917   1.770   0.484   2.298 -0.6470  0.5455  0.0737
 1485SOL    HW215918   1.837   0.587   2.378  3.0038 -0.8870 -1.3818
 1486SOL     OW15919   3.594   3.936   2.977 -0.3449  0.5056 -0.1058
 1486SOL    HW115920   3.689   3.929   2.981 -0.5566 -1.5068  1.4142
 1486SOL    HW215921   3.568   3.881   3.051 -1.1725  0.7369 -0.2297
 1487SOL     OW15922   0.600   2.733  16.371  0.1921 -0.3535 -0.0135
 1487SOL    HW115923   0.508   2.731  16.345  0.1752 -2.2733  0.1944
 1487SOL    HW215924   0.613   2.639  16.363  0.0648 -0.4073  0.4053
 1488SOL     OW15925   3.656   1.473   4.522 -0.0684  0.1238  0.3515
 1488SOL    HW115926   3.681   1.562   4.498  2.4230 -1.2985 -2.2496
 1488SOL    HW215927   3.741   1.430   4.531  0.0045  0.3552  0.7682
 1489SOL     OW15928   0.746   0.956   9.005  0.2724  0.3994  0.2042
 1489SOL    HW115929   0.654   0.934   8.990  0.7394 -0.2199 -1.7789
 1489SOL    HW215930   0.732   1.049   9.021 -0.1941 -0.1001  2.7290
 1490SOL     OW15931   1.501   2.369   5.501  0.3876  0.5860 -0.2346
 1490SOL    HW115932   1.519   2.287   5.455  1.7001  1.9893 -2.2595
 1490SOL    HW215933   1.584   2.416   5.486  0.2246  0.8154 -0.4194
 1491SOL     OW15934   3.062   2.701  14.079 -0.0464 -0.7524 -0.0043
 1491SOL    HW115935   3.063   2.782  14.029 -0.8239 -0.5340  0.3235
 1491SOL    HW215936   3.014   2.649  14.015  0.2713 -1.2053  0.1304
 1492SOL     OW15937   2.885   4.467   3.587  0.6226  0.2928 -0.8827
 1492SOL    HW115938   2.864   4.528   3.658  1.4719 -0.6528  0.1776
 1492SOL    HW215939   2.949   4.522   3.541 -0.9988  1.8567 -1.2486
 1493SOL     OW15940   0.274   1.699  13.391  0.8524  0.1816  0.0418
 1493SOL    HW115941   0.360   1.715  13.429  0.2537  0.2633  1.3903
 1493SOL    HW215942   0.261   1.777  13.338 -0.5065  1.7368  2.6347
 1494SOL     OW15943   0.122   1.733   5.045  0.2450  0.5182  0.2177
 1494SOL    HW115944   0.126   1.656   4.988 -0.4097 -0.8288  1.9912
 1494SOL    HW215945   0.028   1.742   5.063 -0.0117  0.5494 -1.1753
 1495SOL     OW15946   2.907   3.919   3.341 -0.1678 -0.3151 -0.5851
 1495SOL    HW115947   2.821   3.913   3.299 -0.2515 -2.1232 -0.1307
 1495SOL    HW215948   2.918   4.013   3.355 -0.0862 -0.6475  1.6966
 1496SOL     OW15949   2.771   0.147  14.854  0.4740 -0.2794  0.3875
 1496SOL    HW115950   2.741   0.197  14.778  1.7855 -0.5341 -0.3124
 1496SOL    HW215951   2.689   0.097  14.860 -0.3382  1.0570  0.4188
 1497SOL     OW15952   1.960   3.864   1.369  0.0895 -1.0188  0.0368
 1497SOL    HW115953   2.001   3.950   1.369 -0.9444 -0.5234 -0.7090
 1497SOL    HW215954   1.963   3.844   1.275  1.8674  0.6370 -0.2442
 1498SOL     OW15955   3.554   2.298   6.063 -0.1699  0.3823  0.1667
 1498SOL    HW115956   3.572   2.318   6.155 -0.8240  0.4190  0.2843
 1498SOL    HW215957   3.640   2.307   6.021 -1.3136  0.4933 -2.1540
 1499SOL     OW15958   2.523   4.592  10.614  0.3729 -0.2292 -0.3877
 1499SOL    HW115959   2.580   4.624  10.684  1.1993 -0.3897 -0.9825
 1499SOL    HW215960   2.438   4.608  10.654 -0.7300 -0.0549 -2.8008
 1500SOL     OW15961   0.505   0.022  10.910  0.0064 -0.1204  0.0144
 1500SOL    HW115962   0.589   0.047  10.949 -0.2709  1.1860 -0.2157
 1500SOL    HW215963   0.522   0.045  10.818  0.2227  1.2908  0.4064
 1501SOL     OW15964   0.417   1.305  14.585 -0.1611  0.1954 -0.0796
 1501SOL    HW115965   0.432   1.240  14.654 -0.1511 -0.1321 -0.3923
 1501SOL    HW215966   0.325   1.285  14.568 -0.5300  1.0243  0.9501
 1502SOL     OW15967   0.499   4.606  15.551  0.2253  0.3724  0.4394
 1502SOL    HW115968   0.443   4.647  15.616  0.8341  1.3643  0.3296
 1502SOL    HW215969   0.462   4.525  15.514  1.9735  0.8141 -2.3104
 1503SOL     OW15970   3.349   3.313   6.761 -0.8333 -0.6315 -0.9363
 1503SOL    HW115971   3.283   3.368   6.804 -0.2969 -0.5557 -0.2012
 1503SOL    HW215972   3.375   3.252   6.829  0.9052  0.1928 -0.8489
 1504SOL     OW15973   4.379   4.212   7.412  0.0190 -0.0047 -0.0784
 1504SOL    HW115974   4.309   4.148   7.427  3.8015 -4.3719 -0.9138
 1504SOL    HW215975   4.460   4.163   7.428  0.3997  0.3453 -0.9643
 1505SOL     OW15976   4.250   1.241  13.717  0.7254  0.3852  0.1283
 1505SOL    HW115977   4.256   1.146  13.725  2.5288  0.4697 -0.1604
 1505SOL    HW215978   4.232   1.249  13.624 -0.9413 -2.0933  0.2493
 1506SOL     OW15979   2.971   0.035   9.852 -0.2489  0.2628 -0.5143
 1506SOL    HW115980   2.954   4.686   9.913 -1.1071  0.3322 -0.6651
 1506SOL    HW215981   2.967   4.720   9.765 -0.3408 -0.6781 -0.0927
 1507SOL     OW15982   1.671   1.202  17.039 -0.3779  0.2979 -0.5441
 1507SOL    HW115983   1.731   1.277  17.036  1.0232 -0.7063  2.4877
 1507SOL    HW215984   1.726   1.129  17.010  1.5648  1.1998  0.8136
 1508SOL     OW15985   2.695   1.251   2.861  0.1070  0.7980  0.0268
 1508SOL    HW115986   2.724   1.203   2.783 -2.3125 -0.7047  0.0771
 1508SOL    HW215987   2.651   1.327   2.822 -1.2834 -0.2067 -0.3329
 1509SOL     OW15988   1.716   0.811   1.769  0.0270  0.1246  0.3021
 1509SOL    HW115989   1.630   0.827   1.809 -0.1384  0.5414 -0.2254
 1509SOL    HW215990   1.774   0.825   1.844 -0.5679  1.9384  0.4100
 1510SOL     OW15991   0.634   2.459   5.243 -0.1722  0.1501  0.1292
 1510SOL    HW115992   0.676   2.427   5.323 -1.0067 -0.7523  0.2119
 1510SOL    HW215993   0.691   2.419   5.178 -0.1951 -1.2358  0.9653
 1511SOL     OW15994   0.751   2.499   2.197 -0.2972 -0.2401  0.2751
 1511SOL    HW115995   0.775   2.406   2.193 -0.7280 -0.4074  1.6180
 1511SOL    HW215996   0.764   2.528   2.106  1.6235 -1.3522  0.2015
 1512SOL     OW15997   2.693   1.683   1.295  0.1736  0.4178  0.0758
 1512SOL    HW115998   2.695   1.678   1.390 -0.3846  3.6359  0.2604
 1512SOL    HW215999   2.787   1.674   1.275  0.1695  0.7366 -0.0834
 1513SOL     OW16000   2.513   1.908   9.450  0.7046  0.4016  0.0281
 1513SOL    HW116001   2.469   1.991   9.464  1.7806  0.9442  0.1666
 1513SOL    HW216002   2.542   1.889   9.539 -2.6527 -0.8441  0.8492
 1514SOL     OW16003   2.404   0.453  11.613  0.4647  0.0619  0.1620
 1514SOL    HW116004   2.333   0.497  11.566  0.9458  1.1380  0.4571
 1514SOL    HW216005   2.454   0.524  11.653  1.4258  0.1518 -1.1802
 1515SOL     OW16006   3.408   0.835   2.703 -0.1301  0.2009 -0.0433
 1515SOL    HW116007   3.403   0.931   2.700  0.8790  0.2938  1.5876
 1515SOL    HW216008   3.483   0.833   2.762 -0.0459  0.5701 -0.1391
 1516SOL     OW16009   3.611   0.456   3.214 -0.0129 -0.2617  0.1255
 1516SOL    HW116010   3.537   0.420   3.263 -0.2769 -2.9261 -2.2198
 1516SOL    HW216011   3.686   0.431   3.268  0.7458  0.0345 -0.7962
 1517SOL     OW16012   4.714   3.514   6.529  0.0130 -0.2300  0.4531
 1517SOL    HW116013   0.076   3.544   6.559  0.0000 -0.7052  0.9691
 1517SOL    HW216014   4.721   3.519   6.433  0.2383  1.4358  0.5481
 1518SOL     OW16015   2.087   2.611   7.558 -0.6550  0.2616  1.1576
 1518SOL    HW116016   2.142   2.684   7.586 -1.8052  1.1680  1.0645
 1518SOL    HW216017   2.115   2.538   7.614  2.7462  2.1642  1.9468
 1519SOL     OW16018   4.674   0.971   6.810 -0.2628 -0.5151 -0.2277
 1519SOL    HW116019   4.655   0.940   6.899 -1.3865  2.2506  0.4831
 1519SOL    HW216020   0.013   0.904   6.782  0.2708  0.7108 -1.9401
 1520SOL     OW16021   0.175   3.139   5.281  0.1759 -0.5144 -0.1238
 1520SOL    HW116022   0.096   3.130   5.334  0.8538 -1.7580  0.6620
 1520SOL    HW216023   0.147   3.135   5.189  0.1897  0.4370 -0.1666
 1521SOL     OW16024   1.194   1.597   4.819 -0.0530 -0.4381 -0.4120
 1521SOL    HW116025   1.191   1.520   4.762  0.3856  0.2010 -1.2790
 1521SOL    HW216026   1.103   1.627   4.814 -0.7942 -2.4561  0.6534
 1522SOL     OW16027   3.456   2.438  17.573  0.1797  0.2028  0.2074
 1522SOL    HW116028   3.381   2.474  17.525  0.5990  0.0861 -0.5335
 1522SOL    HW216029   3.532   2.487  17.539  0.3495 -0.7000 -0.7027
 1523SOL     OW16030   0.357   2.648   5.693  0.5014  0.3687  0.5378
 1523SOL    HW116031   0.295   2.643   5.620 -0.0271  1.5383  0.9141
 1523SOL    HW216032   0.433   2.597   5.663 -0.1954  0.6836 -1.7403
 1524SOL     OW16033   2.490   0.955   6.540  0.1542 -0.9466 -0.1686
 1524SOL    HW116034   2.553   0.962   6.612  0.2826 -0.4435 -0.3357
 1524SOL    HW216035   2.433   0.883   6.568  0.9430 -0.3844  2.9149
 1525SOL     OW16036   1.934   4.451   4.528  0.5602 -0.4869  0.2270
 1525SOL    HW116037   1.922   4.502   4.448 -1.6149 -0.9632  0.2576
 1525SOL    HW216038   1.991   4.379   4.501 -0.2733 -0.6960 -0.9788
 1526SOL     OW16039   0.133   0.002   2.157  0.2988 -0.7463 -0.2298
 1526SOL    HW116040   0.137   0.037   2.068 -1.0477 -0.5820 -0.2176
 1526SOL    HW216041   0.047   4.685   2.164  0.4060 -1.1707 -1.3176
 1527SOL     OW16042   2.473   0.318  12.435 -0.3878  0.0471 -0.3699
 1527SOL    HW116043   2.458   0.247  12.372  0.1943  0.6031 -1.1312
 1527SOL    HW216044   2.501   0.263  12.509 -1.9071 -1.9319 -1.2652
 1528SOL     OW16045   4.532   0.934   2.217 -0.4260  0.3301 -0.2669
 1528SOL    HW116046   4.504   1.022   2.194  1.1809  1.0323  0.4940
 1528SOL    HW216047   4.621   0.952   2.245 -0.5957  1.2006 -0.3018
 1529SOL     OW16048   0.576   0.208   5.947 -0.4380 -0.1717  0.4888
 1529SOL    HW116049   0.650   0.256   5.910 -0.3342  1.6507  3.0503
 1529SOL    HW216050   0.502   0.269   5.947 -0.9272 -0.7729 -0.0250
 1530SOL     OW16051   0.565   0.127   7.946  0.5034  0.1586 -0.2344
 1530SOL    HW116052   0.653   0.158   7.925 -0.5119  1.7339 -2.1713
 1530SOL    HW216053   0.557   0.064   7.874 -0.9030 -0.7594  0.7262
 1531SOL     OW16054   4.120   0.147   6.665 -0.0642 -0.1864  0.0258
 1531SOL    HW116055   4.087   0.118   6.750  0.8358 -1.8976 -0.2003
 1531SOL    HW216056   4.212   0.159   6.689  0.5169 -1.5571 -1.4899
 1532SOL     OW16057   2.666   0.569   6.391  0.3130 -0.1372  0.5798
 1532SOL    HW116058   2.619   0.532   6.466 -1.0903 -1.9593 -1.1775
 1532SOL    HW216059   2.657   0.663   6.401  0.0816 -0.2444  1.3813
 1533SOL     OW16060   4.191   0.620   8.453  0.6844  0.1944 -0.4578
 1533SOL    HW116061   4.201   0.579   8.367 -0.4835 -1.3617  0.1475
 1533SOL    HW216062   4.169   0.542   8.505 -1.2054  1.1960  0.2469
 1534SOL     OW16063   3.811   1.491   5.530 -0.4173  0.2947  0.0793
 1534SOL    HW116064   3.861   1.520   5.453  2.1425 -1.7650  0.9801
 1534SOL    HW216065   3.871   1.474   5.603 -0.0267  1.1589 -0.0388
 1535SOL     OW16066   2.703   4.197   8.651  0.0515 -0.1904 -0.0070
 1535SOL    HW116067   2.625   4.205   8.595  0.9768 -2.1396 -1.5571
 1535SOL    HW216068   2.712   4.102   8.649 -0.9115 -0.2849 -0.0880
 1536SOL     OW16069   1.554   3.496   1.014  0.1525 -0.1046  0.0730
 1536SOL    HW116070   1.559   3.567   0.950 -0.0492  0.9135  1.2001
 1536SOL    HW216071   1.592   3.542   1.089  2.5053 -0.4708 -0.9014
 1537SOL     OW16072   2.418   1.012   3.437  0.0661 -0.4837 -0.1484
 1537SOL    HW116073   2.485   1.080   3.435  0.0475 -0.5336 -2.2301
 1537SOL    HW216074   2.385   1.020   3.348 -1.0765  0.0676  0.3348
 1538SOL     OW16075   0.670   0.000   2.173 -0.3919  0.2379 -0.0505
 1538SOL    HW116076   0.734   0.008   2.102 -0.1158  0.5966  0.2322
 1538SOL    HW216077   0.590   0.015   2.123 -2.1445  0.2804  2.7300
 1539SOL     OW16078   3.616   0.548   1.505  0.4213 -0.3070 -0.4486
 1539SOL    HW116079   3.678   0.603   1.457  1.9678 -0.7572  1.0113
 1539SOL    HW216080   3.569   0.495   1.441  1.8344  0.6681 -2.2999
 1540SOL     OW16081   4.030   4.150  14.106 -0.2905 -0.5087  0.1614
 1540SOL    HW116082   4.006   4.094  14.032  2.3555 -1.1113 -0.2420
 1540SOL    HW216083   4.123   4.141  14.122 -0.6387 -2.6222  1.0462
 1541SOL     OW16084   3.242   0.896   7.004 -0.2075  0.2807  0.4041
 1541SOL    HW116085   3.215   0.952   7.076 -1.4888  1.2190 -0.7931
 1541SOL    HW216086   3.224   0.956   6.931 -0.6520  0.7838  0.9309
 1542SOL     OW16087   1.732   0.059   5.205  0.4497  0.0499  0.2606
 1542SOL    HW116088   1.710   4.716   5.141  0.6099 -1.2512  1.5746
 1542SOL    HW216089   1.751   0.013   5.287 -0.7902  0.0827  0.5624
 1543SOL     OW16090   0.315   1.280   9.962 -0.0924  0.2080  0.2732
 1543SOL    HW116091   0.229   1.300   9.926  1.3357  0.6045 -2.9793
 1543SOL    HW216092   0.302   1.189   9.988 -3.8117  0.8972  0.8350
 1544SOL     OW16093   1.710   3.227   6.053 -0.6045  0.3514  0.3044
 1544SOL    HW116094   1.752   3.312   6.066  1.5253 -0.2483 -2.6804
 1544SOL    HW216095   1.620   3.239   6.083  0.1725  2.5219  1.6932
 1545SOL     OW16096   3.195   3.226  12.110 -0.3705  0.3945  0.5204
 1545SOL    HW116097   3.166   3.205  12.021 -2.4568 -0.8780  1.4752
 1545SOL    HW216098   3.279   3.181  12.108 -0.0935  0.9771 -0.6532
 1546SOL     OW16099   4.491   3.223   9.042 -0.3001 -0.3458  0.3216
 1546SOL    HW116100   4.450   3.279   9.108 -2.2906 -0.7175 -0.5876
 1546SOL    HW216101   4.450   3.269   8.969  1.6033  3.0601  1.4123
 1547SOL     OW16102   0.688   4.580   1.298  0.7846  0.2354  0.4008
 1547SOL    HW116103   0.760   4.555   1.356  0.4037  0.1932  0.8590
 1547SOL    HW216104   0.684   4.504   1.241  2.4830  0.7103 -0.3779
 1548SOL     OW16105   1.202   0.420  17.660  0.2379 -0.2299  0.8284
 1548SOL    HW116106   1.297   0.420  17.665  0.1488  1.5128  2.5241
 1548SOL    HW216107   1.179   0.407  17.567 -3.4227  0.5437  1.6165
 1549SOL     OW16108   0.776   2.719   6.498 -0.1495  0.0499 -0.2042
 1549SOL    HW116109   0.852   2.777   6.505 -0.7295  0.6891  0.9152
 1549SOL    HW216110   0.709   2.784   6.479  1.5383  2.1013  0.7406
 1550SOL     OW16111   1.389   2.394   6.627  0.3370 -0.1457  0.6451
 1550SOL    HW116112   1.479   2.378   6.600  1.4014  0.8681  3.5654
 1550SOL    HW216113   1.369   2.304   6.654 -0.3356 -0.0896  0.3340
 1551SOL     OW16114   0.377   4.463  14.579 -0.1682  0.2697 -0.1250
 1551SOL    HW116115   0.424   4.481  14.661  0.4523 -1.4668 -0.0856
 1551SOL    HW216116   0.439   4.406  14.534 -1.1556 -0.1169 -0.9913
 1552SOL     OW16117   0.806   4.441   4.953  0.1068 -0.7813 -0.5648
 1552SOL    HW116118   0.788   4.516   4.895 -0.3261 -1.5757 -1.4641
 1552SOL    HW216119   0.898   4.464   4.969  0.2677 -2.5014  0.8755
 1553SOL     OW16120   3.816   1.932   5.037 -0.0736  0.2540 -0.3469
 1553SOL    HW116121   3.812   1.868   5.109 -0.3803 -0.1569 -0.7229
 1553SOL    HW216122   3.723   1.951   5.026  0.0332  0.8031 -0.2987
 1554SOL     OW16123   4.573   2.738   1.905 -0.1602 -0.4049 -0.2461
 1554SOL    HW116124   4.552   2.778   1.990  1.0794 -0.4163  0.0721
 1554SOL    HW216125   4.624   2.663   1.936  2.2382  0.2400 -2.6581
 1555SOL     OW16126   1.677   4.072   5.783  0.1626 -0.1307 -0.4739
 1555SOL    HW116127   1.596   4.070   5.833 -1.3041 -1.9806 -2.8750
 1555SOL    HW216128   1.749   4.100   5.838 -0.1841 -1.3076  0.5769
 1556SOL     OW16129   2.630   1.672   6.608  0.7016  0.4331  0.5867
 1556SOL    HW116130   2.571   1.714   6.545  0.6554  0.9372  0.9624
 1556SOL    HW216131   2.655   1.599   6.552 -2.1683  0.8419 -1.2351
 1557SOL     OW16132   3.468   2.773   1.745 -0.1326 -0.4212 -0.0841
 1557SOL    HW116133   3.409   2.827   1.798  0.0848  1.3129 -1.6158
 1557SOL    HW216134   3.411   2.737   1.677 -0.2744  0.9930 -0.7174
 1558SOL     OW16135   4.411   2.236   4.193  0.0132 -0.5066  0.2482
 1558SOL    HW116136   4.502   2.242   4.164  0.6592 -2.0373  1.9648
 1558SOL    HW216137   4.422   2.244   4.287 -0.0023 -1.3863  0.3249
 1559SOL     OW16138   3.530   0.795   5.830  0.6215 -0.0635 -0.4582
 1559SOL    HW116139   3.535   0.817   5.737 -0.8111  0.1715 -0.4672
 1559SOL    HW216140   3.482   0.872   5.857  0.1201  0.0437 -1.6578
 1560SOL     OW16141   0.722   4.531   3.857  0.2623  0.5079 -0.3201
 1560SOL    HW116142   0.741   4.500   3.769  3.4200  0.1441  0.4914
 1560SOL    HW216143   0.641   4.580   3.840  1.5879  3.0662  0.7650
 1561SOL     OW16144   3.449   0.989   4.977 -0.2292  0.1804  0.5447
 1561SOL    HW116145   3.419   0.900   4.955 -0.6642  0.4685 -0.0309
 1561SOL    HW216146   3.401   1.035   4.908  0.3247 -1.1212 -0.7211
 1562SOL     OW16147   1.098   4.636   1.231  0.1446 -0.6069 -0.1146
 1562SOL    HW116148   1.097   4.553   1.183 -1.4170 -1.2306  1.0000
 1562SOL    HW216149   1.113   4.595   1.316 -1.4106 -1.4521 -0.2438
 1563SOL     OW16150   1.820   3.300   8.641  0.4150 -0.1689  0.3677
 1563SOL    HW116151   1.778   3.240   8.703  0.2527  0.0847  0.5048
 1563SOL    HW216152   1.912   3.275   8.638  0.3144 -0.7179  2.3288
 1564SOL     OW16153   1.292   1.176   6.072 -0.1008 -0.0291  0.1378
 1564SOL    HW116154   1.339   1.235   6.132 -0.8680 -0.4014  1.0950
 1564SOL    HW216155   1.261   1.238   6.006  0.5855  0.8122  0.6151
 1565SOL     OW16156   2.116   2.929   9.070  0.4473  0.1026 -0.1185
 1565SOL    HW116157   2.204   2.962   9.054 -0.1950  0.2833 -3.2989
 1565SOL    HW216158   2.114   2.920   9.165 -2.5358  3.5296  0.1698
 1566SOL     OW16159   3.694   3.996   2.104  0.4981 -1.1048  0.3528
 1566SOL    HW116160   3.656   3.973   2.189 -1.0597  0.7959  0.1748
 1566SOL    HW216161   3.668   3.921   2.051  0.2625 -1.0003  0.3155
 1567SOL     OW16162   1.288   1.814   1.992 -0.5766 -0.3349 -0.1359
 1567SOL    HW116163   1.247   1.802   2.078  0.0853  0.0487  0.2385
 1567SOL    HW216164   1.380   1.788   1.999 -0.4131 -0.0648 -1.3157
 1568SOL     OW16165   4.058   0.019  15.036  0.3925 -0.1179  0.3059
 1568SOL    HW116166   4.074   4.711  14.947  0.2886 -0.4578  0.4097
 1568SOL    HW216167   3.963   0.017  15.050  0.3023  0.4864 -0.2109
 1569SOL     OW16168   2.436   3.541   8.692  0.2981 -0.3286 -0.2227
 1569SOL    HW116169   2.461   3.482   8.763 -1.9136 -0.2237  0.6390
 1569SOL    HW216170   2.516   3.592   8.676  0.6757  0.0351  2.7690
 1570SOL     OW16171   4.721   3.051   1.992  0.4856 -0.0340  0.2967
 1570SOL    HW116172   0.051   2.988   1.945  0.3835 -0.4048  0.6704
 1570SOL    HW216173   0.038   3.137   1.982 -1.2834  0.5956 -1.5008
 1571SOL     OW16174   2.712   1.177  16.631 -0.3457 -0.1419  0.4827
 1571SOL    HW116175   2.798   1.219  16.627 -0.5691  0.3171  0.4603
 1571SOL    HW216176   2.684   1.192  16.721 -1.3221 -0.4488  0.2312
 1572SOL     OW16177   3.520   2.016   3.234 -0.1553 -0.0410  0.8714
 1572SOL    HW116178   3.504   2.090   3.293  0.1580  0.6242  0.1107
 1572SOL    HW216179   3.486   2.052   3.152 -0.7606 -2.4690  0.0718
 1573SOL     OW16180   2.974   0.517   5.537 -0.8727 -0.6140  0.3719
 1573SOL    HW116181   2.957   0.610   5.551  2.8385 -0.0486  1.1521
 1573SOL    HW216182   2.961   0.498   5.630 -0.5925  0.9147  0.7205
 1574SOL     OW16183   4.396   4.068   4.672 -0.0224  0.2817  1.4456
 1574SOL    HW116184   4.481   4.045   4.635 -0.7731  1.8032 -1.2387
 1574SOL    HW216185   4.407   4.034   4.760  1.4576  0.5436  1.3787
 1575SOL     OW16186   1.397   4.369  11.332 -0.3464 -0.3940  0.2245
 1575SOL    HW116187   1.326   4.394  11.272  0.0208 -1.4685 -0.6560
 1575SOL    HW216188   1.406   4.458  11.367 -1.8293  0.1059 -0.6855
 1576SOL     OW16189   1.715   3.502   7.359  0.1315 -0.6440  0.3444
 1576SOL    HW116190   1.639   3.460   7.319 -0.0815 -1.4366  1.5694
 1576SOL    HW216191   1.678   3.562   7.424  2.0482  0.3900  0.4797
 1577SOL     OW16192   2.098   0.351   9.213  0.0356 -0.3968 -0.3801
 1577SOL    HW116193   2.027   0.331   9.153  0.1105  2.5563 -1.4850
 1577SOL    HW216194   2.123   0.438   9.181  0.7636 -0.3825  0.2137
 1578SOL     OW16195   4.254   3.224  16.214  0.0808 -0.1816 -0.2982
 1578SOL    HW116196   4.337   3.264  16.189  0.1827 -0.1990  0.0238
 1578SOL    HW216197   4.190   3.282  16.171 -0.4830 -0.7307 -0.2018
 1579SOL     OW16198   0.248   4.232  15.254 -0.2441  0.5751  0.1667
 1579SOL    HW116199   0.260   4.139  15.235 -1.9990  0.2846  0.4933
 1579SOL    HW216200   0.201   4.265  15.178 -0.7565  0.3267  0.3793
 1580SOL     OW16201   2.107   0.391  12.711 -0.1875 -0.1978 -0.2129
 1580SOL    HW116202   2.163   0.449  12.660  0.3627 -2.9426 -2.7019
 1580SOL    HW216203   2.100   0.318  12.650 -0.8714 -1.2803  1.1695
 1581SOL     OW16204   1.843   0.667   0.399  0.3962  0.0399  0.4550
 1581SOL    HW116205   1.921   0.615   0.418 -1.3718 -1.9247  2.2646
 1581SOL    HW216206   1.863   0.750   0.442 -0.0063  0.1563  0.4161
 1582SOL     OW16207   1.370   2.800   6.228  0.1744 -0.8406  0.2648
 1582SOL    HW116208   1.413   2.807   6.143 -0.6705 -1.0927 -0.1938
 1582SOL    HW216209   1.361   2.705   6.237 -0.0064 -0.9210 -0.7555
 1583SOL     OW16210   0.854   0.317  17.527 -0.1985  0.3160  0.8374
 1583SOL    HW116211   0.772   0.290  17.486 -0.1648 -0.3265  1.2027
 1583SOL    HW216212   0.877   0.238  17.576 -0.6109  0.1746  0.7982
 1584SOL     OW16213   3.151   0.834   3.873 -0.5382  0.3437 -0.3389
 1584SOL    HW116214   3.097   0.913   3.880 -0.4557  0.2561  1.3010
 1584SOL    HW216215   3.240   0.866   3.893 -0.7818 -0.0076  1.2805
 1585SOL     OW16216   2.535   3.804  14.914  0.4298 -0.1737 -0.7610
 1585SOL    HW116217   2.478   3.768  14.982  1.0215  1.7490  0.7412
 1585SOL    HW216218   2.491   3.767  14.837 -2.3514  1.6385 -0.0542
 1586SOL     OW16219   3.762   1.392   3.358 -0.2344  0.2778  0.2968
 1586SOL    HW116220   3.733   1.483   3.369 -3.0538 -0.3684 -1.8527
 1586SOL    HW216221   3.689   1.350   3.313  0.2203  0.0803 -0.2511
 1587SOL     OW16222   0.916   0.061   8.960 -0.0162 -0.1641  0.0369
 1587SOL    HW116223   0.876   0.099   9.038 -1.8130 -0.3721 -0.7804
 1587SOL    HW216224   0.853   4.714   8.947  1.9743 -1.8139 -0.7265
 1588SOL     OW16225   3.977   4.657  11.540  0.7483  0.4443 -0.0889
 1588SOL    HW116226   4.059   4.609  11.546  0.5863 -0.1955 -2.8770
 1588SOL    HW216227   4.008   0.023  11.535  0.6078  0.4088 -1.5279
 1589SOL     OW16228   3.550   1.369   0.213  0.4998 -0.4335 -0.1642
 1589SOL    HW116229   3.523   1.388   0.303 -1.6462  0.7120 -1.0604
 1589SOL    HW216230   3.605   1.291   0.221 -1.2184 -1.7794 -1.4756
 1590SOL     OW16231   1.699   0.166  16.341  0.1724 -0.1766 -0.0151
 1590SOL    HW116232   1.604   0.153  16.336 -0.0104  1.4933 -0.7709
 1590SOL    HW216233   1.726   0.196  16.254 -1.9776 -1.7622 -1.2372
 1591SOL     OW16234   0.747   0.191   3.481  0.3423 -0.3934 -0.2587
 1591SOL    HW116235   0.725   0.261   3.420 -4.1640 -1.0752  0.5865
 1591SOL    HW216236   0.657   0.186   3.514  0.6551 -2.2399  0.3172
 1592SOL     OW16237   0.485   4.159   3.646 -0.3279 -0.3281 -0.0160
 1592SOL    HW116238   0.507   4.202   3.563 -2.4828 -0.7466 -0.8094
 1592SOL    HW216239   0.568   4.142   3.691 -1.9101 -1.7132  2.3568
 1593SOL     OW16240   1.444   3.856   6.917  0.2806 -0.1833 -0.1594
 1593SOL    HW116241   1.385   3.926   6.888  2.0939  0.7293 -1.6559
 1593SOL    HW216242   1.509   3.907   6.966 -1.0599 -1.8879  3.3654
 1594SOL     OW16243   2.397   1.223  10.725  0.1724  0.0697  0.5322
 1594SOL    HW116244   2.489   1.236  10.749  0.7839  0.9782 -2.2414
 1594SOL    HW216245   2.406   1.172  10.644 -0.9655  0.0950  0.3842
 1595SOL     OW16246   3.944   4.378   5.578 -0.7373 -0.2862  0.1767
 1595SOL    HW116247   3.955   4.392   5.484  1.8090 -0.6027  0.4263
 1595SOL    HW216248   4.006   4.307   5.596 -0.7966 -0.6443 -0.9864
 1596SOL     OW16249   2.180   1.987   2.231  0.1920  0.2489  0.4056
 1596SOL    HW116250   2.144   1.983   2.142  0.8910  0.0641  0.1388
 1596SOL    HW216251   2.269   1.959   2.209  0.3641 -1.0103  2.7150
 1597SOL     OW16252   3.433   4.178   1.873 -0.0705 -0.5723  0.1721
 1597SOL    HW116253   3.499   4.168   1.804  2.0128  1.0366  1.9367
 1597SOL    HW216254   3.403   4.088   1.881  0.5910 -0.7972  0.1658
 1598SOL     OW16255   1.893   1.258  13.276 -0.3549  0.3908 -0.0019
 1598SOL    HW116256   1.913   1.234  13.186 -0.0949 -0.2488  0.2262
 1598SOL    HW216257   1.979   1.296  13.292 -0.4959  1.4014 -1.5945
 1599SOL     OW16258   4.534   0.230  14.795 -0.0866  0.2144 -0.1645
 1599SOL    HW116259   4.469   0.276  14.741 -0.4716  0.3421  0.3982
 1599SOL    HW216260   4.482   0.152  14.817  0.8686 -0.8774 -1.7980
 1600SOL     OW16261   0.424   3.564  14.849 -0.2259 -0.2439  0.2976
 1600SOL    HW116262   0.358   3.514  14.896 -2.5185  0.1949 -2.4541
 1600SOL    HW216263   0.506   3.516  14.858  0.6235  0.9150 -1.1406
 1601SOL     OW16264   4.138   1.225   5.325 -0.5569  0.4146  0.2346
 1601SOL    HW116265   4.197   1.299   5.313  0.7318 -0.1519  3.1061
 1601SOL    HW216266   4.168   1.183   5.245 -0.0224 -0.0917  0.7065
 1602SOL     OW16267   2.870   1.986  13.277  0.1785 -0.3938  0.4957
 1602SOL    HW116268   2.929   1.934  13.222  0.2644 -1.4909  1.6491
 1602SOL    HW216269   2.789   1.935  13.271 -0.2405  0.0919  2.1596
 1603SOL     OW16270   0.969   2.075   4.059  0.4278  0.1535  0.2914
 1603SOL    HW116271   1.033   2.064   4.129  1.3640 -1.9345 -0.9134
 1603SOL    HW216272   0.991   2.168   4.049 -0.8906  0.5254  0.8350
 1604SOL     OW16273   2.615   4.075   5.663 -0.1217 -0.2063  0.4547
 1604SOL    HW116274   2.636   4.162   5.698 -2.3315 -0.1721  1.6452
 1604SOL    HW216275   2.595   4.097   5.572 -0.3715 -1.3219  0.2468
 1605SOL     OW16276   2.850   2.171   0.759  0.1101 -0.2660 -0.4639
 1605SOL    HW116277   2.934   2.159   0.805  0.3527 -2.4588 -1.5058
 1605SOL    HW216278   2.875   2.200   0.672  0.5022 -0.4724 -0.4222
 1606SOL     OW16279   2.487   1.392   2.717  0.3615 -0.5238 -0.2437
 1606SOL    HW116280   2.475   1.328   2.647  0.0128 -1.7066  0.8971
 1606SOL    HW216281   2.394   1.411   2.730  0.6428 -0.0838  1.1022
 1607SOL     OW16282   0.122   3.336  10.073 -0.6613  0.6696  0.2624
 1607SOL    HW116283   0.179   3.406  10.105 -2.6666  2.0008  0.8882
 1607SOL    HW216284   0.044   3.381  10.041  0.1451  1.0263 -1.1801
 1608SOL     OW16285   1.607   0.574   1.465  0.6371  0.4306  0.1521
 1608SOL    HW116286   1.517   0.607   1.457  0.0867 -0.9239  0.8255
 1608SOL    HW216287   1.603   0.483   1.495  0.6682  0.6463  0.8119
 1609SOL     OW16288   3.036   1.852   6.194 -0.3905 -0.0703 -0.6712
 1609SOL    HW116289   3.085   1.926   6.232  0.8822 -2.3068  2.0013
 1609SOL    HW216290   3.011   1.893   6.111 -2.4938 -0.2792 -0.1453
 1610SOL     OW16291   2.417   2.829   5.258  0.0733 -0.0890  0.2512
 1610SOL    HW116292   2.438   2.798   5.346 -2.2710  0.6411  1.0492
 1610SOL    HW216293   2.341   2.884   5.276  0.6770  0.9994 -0.5199
 1611SOL     OW16294   1.077   2.561   7.292 -0.1841 -0.0993  0.4221
 1611SOL    HW116295   1.088   2.590   7.202  1.1872 -1.1761  0.2522
 1611SOL    HW216296   1.152   2.599   7.337 -0.0295  0.7729 -0.5876
 1612SOL     OW16297   2.058   4.193   0.475 -0.4226 -0.9084 -0.4661
 1612SOL    HW116298   1.973   4.155   0.497 -0.6395 -0.1747 -0.0477
 1612SOL    HW216299   2.118   4.135   0.521  1.3642 -0.5223 -2.2669
 1613SOL     OW16300   3.270   1.678   6.558  0.4639  0.4258  0.0260
 1613SOL    HW116301   3.273   1.768   6.590 -0.4085 -0.1120  1.5861
 1613SOL    HW216302   3.186   1.681   6.513  1.7804 -1.1267 -2.5426
 1614SOL     OW16303   1.328   0.921   8.694 -0.2272 -0.7934 -0.0470
 1614SOL    HW116304   1.267   0.855   8.661  0.8686 -1.1495 -1.3593
 1614SOL    HW216305   1.364   0.948   8.609 -1.3868  1.1227  0.0715
 1615SOL     OW16306   3.025   1.714   3.531 -0.4774 -0.0720 -0.1205
 1615SOL    HW116307   3.052   1.710   3.623  1.8670  3.8046 -0.5927
 1615SOL    HW216308   3.018   1.623   3.503 -0.2738 -0.2333  0.3394
 1616SOL     OW16309   1.375   1.712   3.125  0.2995 -0.0005 -0.8281
 1616SOL    HW116310   1.350   1.712   3.032 -1.5465 -3.1134 -0.3207
 1616SOL    HW216311   1.444   1.778   3.131  0.8048 -0.5369 -0.6693
 1617SOL     OW16312   2.062   3.188   4.263  0.5458  0.3680  0.4489
 1617SOL    HW116313   2.044   3.230   4.348 -1.4717  2.8534 -1.2234
 1617SOL    HW216314   1.991   3.215   4.205  0.6825 -1.6743 -0.6648
 1618SOL     OW16315   2.504   2.545   0.688 -0.3504 -0.1470 -0.0075
 1618SOL    HW116316   2.510   2.640   0.685 -2.5731 -0.0227 -0.7032
 1618SOL    HW216317   2.572   2.508   0.632 -0.3501 -4.0744  2.5170
 1619SOL     OW16318   4.250   0.685  10.103 -0.4091  1.0098  0.3635
 1619SOL    HW116319   4.296   0.661  10.023  1.5292  2.4650  1.0246
 1619SOL    HW216320   4.225   0.601  10.139  0.8255 -0.5542 -2.4344
 1620SOL     OW16321   2.666   2.485   4.965  0.6424  0.1690 -0.7573
 1620SOL    HW116322   2.663   2.502   5.060  0.6611 -2.1625 -0.3335
 1620SOL    HW216323   2.758   2.508   4.949  0.6818  1.5238  1.2680
 1621SOL     OW16324   2.056   1.639   3.950  0.4536 -0.4606 -0.2167
 1621SOL    HW116325   2.013   1.611   3.869 -1.5197  0.5900  0.4519
 1621SOL    HW216326   1.982   1.642   4.010  1.0691 -1.0890  0.5718
 1622SOL     OW16327   2.439   4.389  15.494 -0.4533 -0.4734 -0.3527
 1622SOL    HW116328   2.390   4.387  15.412 -0.4393 -2.0355 -0.3226
 1622SOL    HW216329   2.515   4.416  15.442 -0.9340 -0.2765 -0.9547
 1623SOL     OW16330   4.369   3.514  13.415  0.0801  0.1801 -0.6271
 1623SOL    HW116331   4.379   3.590  13.358 -2.6623  0.9139 -0.1189
 1623SOL    HW216332   4.415   3.451  13.360  1.0625  0.9369 -0.6679
 1624SOL     OW16333   0.088   2.001  11.689  0.4217 -0.0931  0.4002
 1624SOL    HW116334   0.131   1.940  11.750  0.6362  1.5513  1.9105
 1624SOL    HW216335   0.124   2.077  11.736 -0.7939  0.2234  0.8258
 1625SOL     OW16336   0.281   0.119   6.509  0.1743 -1.0943 -0.0521
 1625SOL    HW116337   0.336   0.139   6.584  0.2291 -1.6240  0.0528
 1625SOL    HW216338   0.192   0.140   6.539  0.4329 -0.3317  0.1831
 1626SOL     OW16339   3.285   0.337   4.158 -0.1341 -0.0703  0.5275
 1626SOL    HW116340   3.200   0.379   4.150 -0.3737 -0.6012  0.2900
 1626SOL    HW216341   3.285   0.295   4.071 -1.5445 -0.7577  0.8647
 1627SOL     OW16342   0.120   0.455   6.174  0.0072 -0.0569  0.2844
 1627SOL    HW116343   0.070   0.521   6.222  1.2968  1.3646 -0.3218
 1627SOL    HW216344   0.128   0.497   6.089  0.7454  1.1012  0.9299
 1628SOL     OW16345   4.577   3.846   7.729  0.2223 -0.5191 -0.2473
 1628SOL    HW116346   4.621   3.840   7.645 -0.9711 -0.6400 -0.8546
 1628SOL    HW216347   4.649   3.834   7.791 -0.6165  2.0808  1.2372
 1629SOL     OW16348   3.614   0.984  11.007 -0.2284 -0.1747  0.2126
 1629SOL    HW116349   3.554   0.937  11.065 -1.5583  1.2512 -0.0090
 1629SOL    HW216350   3.583   1.072  11.028 -1.2425 -0.2647 -0.8591
 1630SOL     OW16351   3.310   1.810   8.414 -0.3343 -0.5778  0.8626
 1630SOL    HW116352   3.296   1.764   8.496 -2.2421 -0.7697  0.4259
 1630SOL    HW216353   3.396   1.849   8.428  0.5364 -2.4049  0.6398
 1631SOL     OW16354   4.618   0.692   6.648  0.1486 -0.5366  0.1322
 1631SOL    HW116355   4.595   0.599   6.647 -0.7776 -0.3171  0.3672
 1631SOL    HW216356   4.531   0.732   6.637  0.5889  0.5538  0.6545
 1632SOL     OW16357   2.597   4.248   5.433  0.4768  0.0322 -0.1309
 1632SOL    HW116358   2.657   4.196   5.379  0.3635  0.0015 -0.2279
 1632SOL    HW216359   2.663   4.295   5.484  0.8738 -1.1181  0.4132
 1633SOL     OW16360   2.387   4.115  15.192 -0.1258 -0.0911 -0.3052
 1633SOL    HW116361   2.457   4.136  15.254 -0.1774  1.2073 -0.6966
 1633SOL    HW216362   2.434   4.111  15.109 -0.2438  2.5173 -0.4727
 1634SOL     OW16363   1.960   4.707   5.975 -0.8282 -0.2523  0.3011
 1634SOL    HW116364   1.905   4.671   6.045 -1.2769 -0.4702 -0.1626
 1634SOL    HW216365   2.032   4.645   5.962 -0.5398  0.3309 -0.9364
 1635SOL     OW16366   4.094   4.457   4.839  0.8606 -0.5637  0.0219
 1635SOL    HW116367   4.017   4.448   4.783 -0.9247  0.0470  2.3699
 1635SOL    HW216368   4.153   4.394   4.797  0.4468 -0.3301 -0.9021
 1636SOL     OW16369   3.357   1.259   2.118  0.5133  0.5864 -0.2953
 1636SOL    HW116370   3.394   1.189   2.172 -0.6870 -0.4449 -0.8122
 1636SOL    HW216371   3.387   1.241   2.029 -1.3471  2.6864 -1.3105
 1637SOL     OW16372   1.635   2.948  15.232 -0.4239 -0.2483  0.2469
 1637SOL    HW116373   1.686   2.970  15.310 -0.5561  2.5926 -0.4817
 1637SOL    HW216374   1.622   2.853  15.239  0.4677 -0.1618  2.9884
 1638SOL     OW16375   3.516   4.179   6.040  0.7139 -0.0860 -0.1745
 1638SOL    HW116376   3.608   4.170   6.062  0.4205 -3.3248 -0.1950
 1638SOL    HW216377   3.509   4.258   5.988 -1.6577 -0.2302 -0.0766
 1639SOL     OW16378   3.493   2.118  17.466 -0.1531  0.2833  0.0915
 1639SOL    HW116379   3.539   2.153  17.543  2.4414  0.0129 -1.3445
 1639SOL    HW216380   3.547   2.149  17.394  0.9194  2.1039  1.6730
 1640SOL     OW16381   1.711   2.682   2.796  0.2140  0.0391 -0.1990
 1640SOL    HW116382   1.680   2.602   2.755 -2.2773  0.8157  0.1613
 1640SOL    HW216383   1.660   2.748   2.750 -0.1306  0.4033  0.6929
 1641SOL     OW16384   1.296   1.700   9.605 -0.0945 -0.1541 -0.5379
 1641SOL    HW116385   1.287   1.675   9.697 -2.6222  2.7799  0.0432
 1641SOL    HW216386   1.237   1.636   9.565  0.2169 -0.5382 -0.3823
 1642SOL     OW16387   3.909   1.481   6.355  0.5615 -0.1559 -0.3762
 1642SOL    HW116388   3.826   1.464   6.309 -0.2977 -0.6360  1.3504
 1642SOL    HW216389   3.902   1.430   6.436  1.1470  0.4096  0.0264
 1643SOL     OW16390   1.899   2.355   6.115  0.7507  0.4722  0.1665
 1643SOL    HW116391   1.808   2.335   6.092  2.6888 -3.3862 -4.1735
 1643SOL    HW216392   1.895   2.450   6.125  1.9677  0.6008 -0.5743
 1644SOL     OW16393   2.182   3.467  12.748 -0.0328 -0.7385 -0.3178
 1644SOL    HW116394   2.176   3.401  12.679  0.2485  0.1719 -1.2065
 1644SOL    HW216395   2.262   3.514  12.725  0.2216 -2.0845 -2.1258
 1645SOL     OW16396   1.250   2.096   5.902 -0.4731 -0.2315  0.9330
 1645SOL    HW116397   1.328   2.078   5.849 -0.6269 -1.4658  1.1381
 1645SOL    HW216398   1.222   2.007   5.920 -0.6741  0.0638  2.0723
 1646SOL     OW16399   0.176   3.219   6.822 -0.4942 -0.4739 -0.1177
 1646SOL    HW116400   0.240   3.155   6.792  0.0719 -0.3948  0.9109
 1646SOL    HW216401   0.098   3.164   6.828  1.0542 -2.4980  1.3663
 1647SOL     OW16402   0.450   3.158  14.887 -0.2310  0.3387 -0.2889
 1647SOL    HW116403   0.546   3.157  14.897 -0.1389 -1.6031 -1.2958
 1647SOL    HW216404   0.453   3.151  14.791 -1.8484  0.6706 -0.3618
 1648SOL     OW16405   0.557   2.549   6.062 -0.0368 -1.0574  0.5428
 1648SOL    HW116406   0.619   2.578   6.129 -0.1931  0.8216 -0.1227
 1648SOL    HW216407   0.610   2.567   5.985 -2.6901  0.9680 -0.8276
 1649SOL     OW16408   2.510   0.385   0.742  0.0313  0.2328 -0.0006
 1649SOL    HW116409   2.482   0.323   0.809 -0.0087  2.5191  2.1229
 1649SOL    HW216410   2.603   0.363   0.731 -0.4643 -1.8838  0.0049
 1650SOL     OW16411   3.304   3.569   7.520 -0.1139 -0.7460  0.0539
 1650SOL    HW116412   3.305   3.590   7.426 -0.9758 -0.6068  0.0749
 1650SOL    HW216413   3.218   3.527   7.523 -0.3512 -0.4485 -2.4302
 1651SOL     OW16414   2.686   3.383   7.665  0.3621  0.0630  0.2610
 1651SOL    HW116415   2.630   3.442   7.715  1.4270  1.6051 -0.3695
 1651SOL    HW216416   2.769   3.428   7.647 -0.1508  1.3400  1.0853
 1652SOL     OW16417   1.976   1.159   3.058  0.2121 -0.6562  0.2019
 1652SOL    HW116418   2.008   1.234   3.108 -0.7072  0.4204 -0.8010
 1652SOL    HW216419   1.889   1.192   3.036  0.0397 -1.1551  0.1318
 1653SOL     OW16420   4.425   3.688   5.861 -0.8431 -0.0051  0.1225
 1653SOL    HW116421   4.417   3.648   5.948 -1.7695  2.7792  1.3400
 1653SOL    HW216422   4.502   3.649   5.821  0.7027  2.1041  1.0445
 1654SOL     OW16423   2.027   2.006  15.282 -0.0151  0.1460 -0.2725
 1654SOL    HW116424   1.945   2.037  15.245 -1.2183 -2.1455  0.4499
 1654SOL    HW216425   2.004   1.992  15.374  1.2898  0.9404  0.1746
 1655SOL     OW16426   1.268   1.948  12.796  0.1547 -0.4464 -0.2481
 1655SOL    HW116427   1.294   1.863  12.760  0.7695  0.1890 -1.2956
 1655SOL    HW216428   1.277   1.936  12.891 -0.5703  0.9877 -0.0017
 1656SOL     OW16429   4.038   3.219   1.782  0.5228 -0.9005  0.3116
 1656SOL    HW116430   3.995   3.192   1.701  0.3543 -0.0516  0.1248
 1656SOL    HW216431   4.125   3.223   1.744  0.9193 -0.8668  1.2368
 1657SOL     OW16432   0.365   1.610   9.338  0.3018  0.1715  0.3118
 1657SOL    HW116433   0.416   1.657   9.272 -1.3449  1.9433  0.2958
 1657SOL    HW216434   0.320   1.555   9.274  2.3503 -1.0871 -0.0484
 1658SOL     OW16435   4.343   2.980   4.849  0.3256  0.0360 -0.6521
 1658SOL    HW116436   4.335   3.048   4.916 -0.3771 -1.1136  0.4429
 1658SOL    HW216437   4.254   2.948   4.832  0.4598  0.5591 -2.3111
 1659SOL     OW16438   2.679   4.024  11.078  0.2816 -0.2932 -0.3247
 1659SOL    HW116439   2.646   3.959  11.139  0.9624  1.8175  2.2863
 1659SOL    HW216440   2.760   4.041  11.127 -0.3013 -1.3441  1.0076
 1660SOL     OW16441   3.769   0.213   4.731  0.7988 -0.0200 -0.1387
 1660SOL    HW116442   3.738   0.126   4.706 -0.1816 -0.0056  1.0150
 1660SOL    HW216443   3.766   0.197   4.826  1.6157  0.7797  0.0283
 1661SOL     OW16444   1.065   1.648   2.695 -0.1407  0.0155  0.3989
 1661SOL    HW116445   1.138   1.610   2.646 -0.8131  0.1171 -0.6703
 1661SOL    HW216446   0.993   1.587   2.678 -1.5572  1.5226  1.0093
 1662SOL     OW16447   0.072   3.367   3.966  1.0586 -0.0447  0.0600
 1662SOL    HW116448   0.057   3.455   3.931 -0.7720 -0.3340  0.1201
 1662SOL    HW216449   0.167   3.361   3.969  1.0893  0.6581  0.7134
 1663SOL     OW16450   3.383   2.252   1.965 -0.7616 -0.3936  0.3903
 1663SOL    HW116451   3.410   2.186   1.902 -0.5816  1.8613 -1.8901
 1663SOL    HW216452   3.448   2.322   1.958 -0.0808 -1.1045 -0.2929
 1664SOL     OW16453   2.576   4.543  12.510 -0.0114  0.2844  0.0217
 1664SOL    HW116454   2.655   4.511  12.554  0.7141  0.5978 -1.0660
 1664SOL    HW216455   2.516   4.538  12.584 -1.4911  0.6275 -1.1419
 1665SOL     OW16456   2.029   4.632   0.897  0.1031  0.3097  0.1778
 1665SOL    HW116457   2.084   4.619   0.974  0.8447 -0.4822 -0.4856
 1665SOL    HW216458   2.086   4.688   0.845  1.3134 -0.3170  0.8307
 1666SOL     OW16459   0.664   2.775   5.321  0.0456  0.1576  0.1191
 1666SOL    HW116460   0.694   2.735   5.403 -1.3979  0.6453  0.8757
 1666SOL    HW216461   0.696   2.863   5.340 -0.7994  0.0333  2.1068
 1667SOL     OW16462   1.695   1.627  12.911  0.0834 -0.1711  0.1885
 1667SOL    HW116463   1.784   1.607  12.941 -0.1266 -1.5625 -0.1132
 1667SOL    HW216464   1.663   1.541  12.882 -0.6972  0.0096  0.5296
 1668SOL     OW16465   2.935   4.209   3.268 -0.0072  0.2250 -0.2049
 1668SOL    HW116466   2.909   4.190   3.178  1.9281  0.5680 -0.8353
 1668SOL    HW216467   2.864   4.261   3.304  0.3259  1.1584 -0.9109
 1669SOL     OW16468   0.920   2.393   2.458 -0.0736  0.1389  0.0098
 1669SOL    HW116469   0.884   2.329   2.396 -0.9430 -1.0553  1.7392
 1669SOL    HW216470   0.878   2.464   2.410  0.0074  0.7410  0.8265
 1670SOL     OW16471   3.597   0.064   4.417  0.1776 -0.1570 -0.4702
 1670SOL    HW116472   3.682   0.026   4.439  0.1127  0.3607  0.6777
 1670SOL    HW216473   3.539   0.029   4.485  1.4471  2.0295  1.7140
 1671SOL     OW16474   3.332   2.819   7.636 -0.0847 -0.4276 -0.2748
 1671SOL    HW116475   3.272   2.887   7.668  1.7404  0.5697  1.0546
 1671SOL    HW216476   3.315   2.819   7.542 -2.5967 -0.6618  0.1782
 1672SOL     OW16477   3.188   2.687  16.241 -0.0367 -0.5110 -0.0153
 1672SOL    HW116478   3.284   2.685  16.233  0.1028 -0.6605  1.7424
 1672SOL    HW216479   3.166   2.603  16.201  0.2979  0.8074 -2.9541
 1673SOL     OW16480   3.931   0.246   6.007  0.4154  0.4067  0.2939
 1673SOL    HW116481   3.908   0.153   6.001 -0.5101  0.7584 -1.3668
 1673SOL    HW216482   3.965   0.243   6.097 -0.3328  2.3008  0.6383
 1674SOL     OW16483   2.471   3.740   2.075 -0.3021 -0.0338 -0.7123
 1674SOL    HW116484   2.539   3.788   2.122 -3.0676  3.1154  0.1230
 1674SOL    HW216485   2.427   3.689   2.143  0.6094 -2.1417 -1.7190
 1675SOL     OW16486   3.489   2.106   8.694 -0.4753 -0.2598 -1.0034
 1675SOL    HW116487   3.554   2.048   8.654 -2.0351 -0.7651 -2.8059
 1675SOL    HW216488   3.540   2.187   8.698 -2.8451  1.0948  1.5464
 1676SOL     OW16489   3.446   0.136   7.610  0.3566 -0.0573  0.2766
 1676SOL    HW116490   3.538   0.155   7.590  0.5938 -0.2456  1.1626
 1676SOL    HW216491   3.428   0.086   7.530 -0.6178  1.8971 -0.7081
 1677SOL     OW16492   0.853   0.237   7.435 -0.3570  0.0100 -0.3631
 1677SOL    HW116493   0.819   0.316   7.391 -0.0608 -0.9660 -2.3691
 1677SOL    HW216494   0.799   0.172   7.390  0.4313 -0.0635 -1.2166
 1678SOL     OW16495   1.468   3.394  14.309 -0.2914 -0.0604 -0.2079
 1678SOL    HW116496   1.507   3.399  14.397  1.6948  0.7840 -1.1452
 1678SOL    HW216497   1.545   3.372  14.256  1.6015  0.2414  2.3773
 1679SOL     OW16498   0.330   3.394   8.947  0.2673 -0.2473 -0.1339
 1679SOL    HW116499   0.309   3.410   9.039 -1.1622  0.4844 -0.5920
 1679SOL    HW216500   0.247   3.360   8.913 -0.4777  0.1256  1.2830
 1680SOL     OW16501   0.648   2.332   7.232 -0.7164 -0.1419 -0.0700
 1680SOL    HW116502   0.695   2.316   7.314 -1.5347 -3.5956 -0.2330
 1680SOL    HW216503   0.679   2.414   7.194 -0.5549 -0.8489 -1.4679
 1681SOL     OW16504   1.559   0.236   7.790 -0.1279  0.5279 -0.1792
 1681SOL    HW116505   1.537   0.329   7.791  1.0135  0.7794  1.1708
 1681SOL    HW216506   1.475   0.195   7.813  0.7075 -0.2157  1.5096
 1682SOL     OW16507   2.512   0.799  15.926  0.2776  0.7838 -0.0536
 1682SOL    HW116508   2.471   0.722  15.886  0.7562  0.7565 -0.4969
 1682SOL    HW216509   2.444   0.863  15.909  0.1894  0.8994  0.7430
 1683SOL     OW16510   0.398   4.449   5.892 -0.1297 -0.0763 -0.0462
 1683SOL    HW116511   0.404   4.524   5.833  0.5273 -0.1932 -0.1238
 1683SOL    HW216512   0.304   4.445   5.906 -0.3171  2.3593 -0.6204
 1684SOL     OW16513   3.662   0.393   0.674  0.4574 -0.0001 -0.3413
 1684SOL    HW116514   3.639   0.443   0.752 -4.0316  1.8760 -2.8137
 1684SOL    HW216515   3.721   0.332   0.717 -0.0562 -0.4536 -0.2763
 1685SOL     OW16516   4.551   0.972   1.396 -0.0738 -0.4819  0.4574
 1685SOL    HW116517   4.573   1.061   1.422 -0.6261 -0.6174  1.3901
 1685SOL    HW216518   4.625   0.964   1.335 -0.3773  0.5304 -0.0323
 1686SOL     OW16519   3.351   1.934   7.655 -0.5938 -0.6768 -0.3869
 1686SOL    HW116520   3.443   1.956   7.640 -0.5826  0.3797  1.2712
 1686SOL    HW216521   3.359   1.846   7.692 -0.7492 -0.8133 -0.6799
 1687SOL     OW16522   2.468   4.594   6.272 -0.2840 -0.5119  0.2948
 1687SOL    HW116523   2.471   4.682   6.310 -2.9272  1.0279 -3.0941
 1687SOL    HW216524   2.541   4.552   6.318 -0.9631 -0.1521  1.6962
 1688SOL     OW16525   1.249   4.550   7.433  0.0851  0.5077 -0.6641
 1688SOL    HW116526   1.319   4.490   7.458  0.3973  0.4932 -1.5617
 1688SOL    HW216527   1.204   4.496   7.368  1.4403 -0.2201 -1.0008
 1689SOL     OW16528   1.441   3.169   7.993  0.0000 -0.2878  0.4780
 1689SOL    HW116529   1.446   3.264   8.004  1.4545 -0.3347  0.1908
 1689SOL    HW216530   1.517   3.157   7.936  0.9780  1.8793  1.3306
 1690SOL     OW16531   1.001   1.188   2.253 -0.4520 -0.2012  0.2304
 1690SOL    HW116532   1.036   1.109   2.213  0.4917  2.2874 -3.7752
 1690SOL    HW216533   0.905   1.180   2.250 -0.4668 -0.3118  1.0017
 1691SOL     OW16534   4.053   1.853  15.235 -0.0819 -0.4462  0.7939
 1691SOL    HW116535   4.059   1.828  15.327 -0.8436 -3.6251 -0.0285
 1691SOL    HW216536   4.115   1.788  15.202  2.0225  0.7945  2.3068
 1692SOL     OW16537   2.820   3.539  10.708  0.9937 -0.0816 -0.1647
 1692SOL    HW116538   2.908   3.511  10.734  0.2219 -0.3258  2.1359
 1692SOL    HW216539   2.841   3.562  10.617  0.7598  0.5377 -0.0659
 1693SOL     OW16540   1.299   0.481   2.437 -0.3806  0.6244 -0.9000
 1693SOL    HW116541   1.280   0.545   2.369 -2.3236 -0.4798 -1.3837
 1693SOL    HW216542   1.280   0.399   2.391  1.1744  1.4839 -3.0533
 1694SOL     OW16543   4.203   3.671  15.763  0.1390 -0.4806  0.1262
 1694SOL    HW116544   4.208   3.684  15.668  1.3024 -1.2743  0.0821
 1694SOL    HW216545   4.179   3.762  15.777  2.1892  0.3430 -1.6754
 1695SOL     OW16546   3.678   2.301   5.802  0.1662 -0.1133  0.0172
 1695SOL    HW116547   3.683   2.206   5.814  1.0694 -0.0810 -0.0720
 1695SOL    HW216548   3.765   2.315   5.764  0.4017  3.8271  2.0476
 1696SOL     OW16549   0.444   4.065   7.639  0.6970 -0.2528 -0.4709
 1696SOL    HW116550   0.442   4.154   7.605  0.0106 -1.5181 -3.7385
 1696SOL    HW216551   0.492   4.025   7.567  0.3709 -2.4104  0.5009
 1697SOL     OW16552   3.878   4.667  15.420 -0.2559  0.1189 -0.0100
 1697SOL    HW116553   3.919   4.699  15.500 -0.1632 -1.2635  0.4922
 1697SOL    HW216554   3.788   4.667  15.450  0.6450 -0.4239  2.6822
 1698SOL     OW16555   4.118   3.401   2.466 -0.0737  0.5206  0.3328
 1698SOL    HW116556   4.145   3.491   2.452  0.2348  0.7896  2.5731
 1698SOL    HW216557   4.070   3.401   2.549  0.8039 -0.5007  0.8341
 1699SOL     OW16558   1.969   1.157   1.322 -0.0158 -0.6603 -0.2047
 1699SOL    HW116559   2.033   1.218   1.284 -0.8057 -0.1554 -0.7441
 1699SOL    HW216560   2.012   1.074   1.343 -0.2350  0.0435  3.0235
 1700SOL     OW16561   0.080   1.823   8.497 -0.3831  0.0856 -0.4302
 1700SOL    HW116562   0.108   1.773   8.574  1.7974  2.1532  0.1626
 1700SOL    HW216563   0.013   1.760   8.472 -0.8845  0.2450  0.4949
 1701SOL     OW16564   0.703   3.481   6.172  0.1270  0.7503  0.3241
 1701SOL    HW116565   0.686   3.418   6.102  1.4765  2.1039 -1.2260
 1701SOL    HW216566   0.718   3.563   6.126  0.7706  3.4357  5.2512
 1702SOL     OW16567   4.272   3.562   9.606  0.0757  0.0512 -0.0649
 1702SOL    HW116568   4.346   3.617   9.580  1.7408 -1.9520  0.5136
 1702SOL    HW216569   4.298   3.484   9.558 -1.1854 -0.7516  0.5675
 1703SOL     OW16570   3.528   4.080  16.155  0.0824  0.0598 -0.1157
 1703SOL    HW116571   3.477   4.161  16.158 -0.7112 -0.3924 -1.6479
 1703SOL    HW216572   3.507   4.045  16.069  3.2390 -0.8061 -0.5279
 1704SOL     OW16573   2.982   2.307   3.417  0.8944  0.9055  0.4684
 1704SOL    HW116574   2.922   2.336   3.349  1.0831  1.9669  0.7392
 1704SOL    HW216575   3.049   2.261   3.366  0.6007 -1.4965  2.3031
 1705SOL     OW16576   3.128   2.224  16.794  0.3630 -0.2413 -0.0249
 1705SOL    HW116577   3.191   2.289  16.762  0.6228  0.5430  2.1094
 1705SOL    HW216578   3.120   2.259  16.882 -3.5093 -0.6363 -0.2445
 1706SOL     OW16579   4.540   1.908   2.770  0.3720  0.3897  0.1012
 1706SOL    HW116580   4.610   1.914   2.835  2.5301  0.3951 -2.1973
 1706SOL    HW216581   4.515   1.817   2.783 -1.9513  0.6862 -2.2732
 1707SOL     OW16582   0.604   0.871  17.292 -0.5870  0.5409 -0.6414
 1707SOL    HW116583   0.687   0.829  17.311 -1.4678 -1.7718 -1.9752
 1707SOL    HW216584   0.618   0.959  17.256 -0.6104  1.3175  1.2546
 1708SOL     OW16585   2.424   3.455  17.071 -0.4287  0.4354  0.1223
 1708SOL    HW116586   2.406   3.441  16.978  0.5432  1.3940 -0.2151
 1708SOL    HW216587   2.491   3.522  17.059 -0.9478  0.9404  0.0186
 1709SOL     OW16588   1.016   0.629  15.531  0.5935  0.2466  0.0150
 1709SOL    HW116589   1.022   0.675  15.614  0.8796  0.1769  0.0341
 1709SOL    HW216590   0.924   0.635  15.506  0.3557  2.2111  1.3901
 1710SOL     OW16591   1.064   0.166  16.197 -0.0810  0.2761 -0.1263
 1710SOL    HW116592   1.086   0.154  16.105  2.4375  3.1396  0.0887
 1710SOL    HW216593   1.023   0.083  16.220  0.0584 -0.0444 -1.0501
 1711SOL     OW16594   2.967   3.688   8.076 -0.3236 -0.2660  0.4703
 1711SOL    HW116595   2.895   3.736   8.117  0.0089 -1.0072  1.9051
 1711SOL    HW216596   2.940   3.598   8.097 -4.3243  1.1355  1.3423
 1712SOL     OW16597   1.043   3.246   4.693  0.3325  0.0300  0.2050
 1712SOL    HW116598   1.136   3.270   4.691  0.0397  1.2364  1.0364
 1712SOL    HW216599   1.019   3.307   4.763 -0.2977 -0.8118  0.7339
 1713SOL     OW16600   1.815   3.876  10.931 -0.6094  0.1195 -0.4719
 1713SOL    HW116601   1.798   3.865  10.837 -0.3761 -0.0025 -0.4984
 1713SOL    HW216602   1.893   3.822  10.937 -1.2964 -1.4105 -4.7519
 1714SOL     OW16603   4.348   3.767   4.930  0.0894  0.1768 -0.2318
 1714SOL    HW116604   4.389   3.715   5.000  2.2444  0.3527 -1.3598
 1714SOL    HW216605   4.255   3.752   4.948 -0.4055  2.8764 -0.5375
 1715SOL     OW16606   0.543   4.227   2.120 -1.1644  0.1305  0.0383
 1715SOL    HW116607   0.565   4.251   2.030 -0.8723  0.0543  0.0898
 1715SOL    HW216608   0.594   4.147   2.132 -1.0498  0.1061 -0.6229
 1716SOL     OW16609   3.395   1.718  16.239  0.1923 -0.5009 -0.1756
 1716SOL    HW116610   3.356   1.805  16.242  0.4307 -0.4775  2.3429
 1716SOL    HW216611   3.417   1.713  16.146  0.2918  1.2885 -0.2393
 1717SOL     OW16612   3.491   3.988   5.412 -0.4116 -0.1483  0.2438
 1717SOL    HW116613   3.473   4.024   5.498  1.4066  0.6102  0.3093
 1717SOL    HW216614   3.585   3.975   5.426 -0.2973 -0.2046 -0.5793
 1718SOL     OW16615   1.573   2.723   2.293 -0.4828  0.0738  0.1730
 1718SOL    HW116616   1.550   2.776   2.217 -1.9635 -0.8537 -0.0278
 1718SOL    HW216617   1.663   2.748   2.315 -0.7578  0.9255  0.3395
 1719SOL     OW16618   0.109   3.549   2.998  0.1582  0.4981  0.6879
 1719SOL    HW116619   0.102   3.644   2.986 -2.2940  0.4930  2.0302
 1719SOL    HW216620   0.174   3.523   2.933  0.2998  0.8293  0.7003
 1720SOL     OW16621   3.155   2.784  10.862 -0.3262  0.7513  0.6162
 1720SOL    HW116622   3.181   2.696  10.835 -1.7884  1.0637 -1.8009
 1720SOL    HW216623   3.208   2.827  10.794 -2.6278 -1.3688 -2.4701
 1721SOL     OW16624   2.255   0.795   7.397  0.3702 -0.3440  0.1778
 1721SOL    HW116625   2.325   0.731   7.390  1.0768  0.5283 -0.7025
 1721SOL    HW216626   2.294   0.851   7.464 -2.5821  0.3493  1.3374
 1722SOL     OW16627   0.554   0.143   4.956  0.1117  0.0505 -0.3052
 1722SOL    HW116628   0.518   0.130   5.043 -2.1568 -0.5315 -1.3204
 1722SOL    HW216629   0.470   0.148   4.910 -0.0791  1.0070  0.1364
 1723SOL     OW16630   2.987   0.410   2.789  0.1825 -0.3343 -0.1977
 1723SOL    HW116631   2.993   0.377   2.699  0.7065 -0.5760 -0.0717
 1723SOL    HW216632   3.078   0.397   2.815  1.0514  1.4561 -2.2829
 1724SOL     OW16633   3.502   3.873   2.585  0.2065 -0.3771  0.0775
 1724SOL    HW116634   3.584   3.828   2.562  0.2375 -0.0629 -0.4232
 1724SOL    HW216635   3.488   3.827   2.667 -2.5484  0.3691  0.0130
 1725SOL     OW16636   4.320   3.569   7.757  0.3639 -0.1752 -0.3070
 1725SOL    HW116637   4.325   3.664   7.744  0.8994 -0.3013 -1.0799
 1725SOL    HW216638   4.412   3.552   7.778  0.0273 -0.2070  1.1294
 1726SOL     OW16639   4.133   1.524   7.765  0.0472  0.6399  0.3943
 1726SOL    HW116640   4.211   1.541   7.712  1.2940 -0.0972  2.0217
 1726SOL    HW216641   4.073   1.559   7.699  0.4867  0.7936  0.0720
 1727SOL     OW16642   3.687   1.827   7.158 -0.1754  0.0272  0.4920
 1727SOL    HW116643   3.728   1.741   7.170  1.9417  1.2376  2.0456
 1727SOL    HW216644   3.597   1.809   7.185  0.0520 -1.2184  0.4266
 1728SOL     OW16645   4.206   4.297   1.172  0.2273 -0.0905 -0.0174
 1728SOL    HW116646   4.115   4.306   1.142 -0.0541 -0.1097  0.8451
 1728SOL    HW216647   4.199   4.336   1.259 -0.9595 -1.8881  0.7145
 1729SOL     OW16648   0.045   3.260   0.195  0.0656  0.4156  0.0909
 1729SOL    HW116649   0.086   3.174   0.198 -0.4909  0.1498  0.1336
 1729SOL    HW216650   4.677   3.237   0.178  0.9270 -2.6090 -0.4336
 1730SOL     OW16651   2.339   4.165  13.325  0.4740  0.1490  0.2480
 1730SOL    HW116652   2.402   4.205  13.265 -0.7989  1.3318 -0.2736
 1730SOL    HW216653   2.277   4.127  13.264  1.5460  1.0050 -1.3828
 1731SOL     OW16654   1.726   1.471   4.430 -0.1298  0.4127 -0.3007
 1731SOL    HW116655   1.742   1.387   4.387  0.6822 -0.8538  2.4516
 1731SOL    HW216656   1.816   1.485   4.460  0.3739 -2.6734 -0.3661
 1732SOL     OW16657   2.115   2.785   5.177 -0.2007  0.5069  0.0651
 1732SOL    HW116658   2.109   2.717   5.245  3.0565  1.2034  1.0486
 1732SOL    HW216659   2.111   2.863   5.233 -0.1766  1.0179 -0.6473
 1733SOL     OW16660   4.199   1.535   8.228 -0.2489  0.7736  0.2111
 1733SOL    HW116661   4.262   1.561   8.161  0.0093  0.7366  0.4417
 1733SOL    HW216662   4.170   1.450   8.196 -0.0883  0.6162  0.4880
 1734SOL     OW16663   1.978   3.848  16.387 -0.6484 -0.0107  0.2724
 1734SOL    HW116664   1.914   3.813  16.449 -2.4310  0.4117 -1.3057
 1734SOL    HW216665   1.953   3.812  16.302  0.7173  0.2113 -0.2127
 1735SOL     OW16666   0.738   1.308  15.512  0.6408  0.0141  0.2950
 1735SOL    HW116667   0.796   1.234  15.525 -0.6354 -1.2667 -1.2616
 1735SOL    HW216668   0.755   1.330  15.420 -2.3422  0.5273 -0.1331
 1736SOL     OW16669   0.973   3.872   7.857  0.1640 -0.2515  0.0942
 1736SOL    HW116670   0.894   3.893   7.907 -0.9804  0.5704 -2.0559
 1736SOL    HW216671   1.037   3.919   7.911 -0.0526  1.1268 -0.8190
 1737SOL     OW16672   1.799   2.715   3.943  0.5528 -0.2418  0.0061
 1737SOL    HW116673   1.715   2.691   3.904  0.4225  0.7603 -0.3076
 1737SOL    HW216674   1.856   2.687   3.871  0.0807  1.4555 -1.0024
 1738SOL     OW16675   2.851   4.234   5.183  0.5540  0.0751 -0.1128
 1738SOL    HW116676   2.939   4.197   5.174  0.8012  0.9218 -1.2259
 1738SOL    HW216677   2.793   4.168   5.222 -0.2600  2.1666  2.1579
 1739SOL     OW16678   1.416   2.538   7.945  0.2239  0.3466 -0.2893
 1739SOL    HW116679   1.434   2.460   7.892 -0.4294 -1.2987  1.8868
 1739SOL    HW216680   1.320   2.535   7.949  0.2403  2.7873  1.8673
 1740SOL     OW16681   1.190   1.138   8.199  0.2220 -0.6422  0.6283
 1740SOL    HW116682   1.164   1.141   8.107  2.7340  2.0794  0.0265
 1740SOL    HW216683   1.269   1.084   8.194  0.4341 -0.2289 -0.5472
 1741SOL     OW16684   4.273   0.982   6.844  0.3101  0.5402 -0.3376
 1741SOL    HW116685   4.193   1.020   6.880 -0.8706  0.1169 -2.5017
 1741SOL    HW216686   4.323   0.966   6.923 -1.5734  1.2100  0.9982
 1742SOL     OW16687   4.519   0.981  14.883  0.1530 -0.6796  1.3154
 1742SOL    HW116688   4.611   1.009  14.883  0.1188 -0.6571 -1.7927
 1742SOL    HW216689   4.537   0.888  14.899  0.8652 -0.6365  0.7553
 1743SOL     OW16690   0.388   2.344  14.934 -0.2114 -0.3764  0.2462
 1743SOL    HW116691   0.436   2.310  15.009 -0.8980 -2.8602 -0.4431
 1743SOL    HW216692   0.316   2.282  14.945  0.5629 -1.5353 -1.2476
 1744SOL     OW16693   4.167   4.483   3.911  0.3997 -0.2827  0.6446
 1744SOL    HW116694   4.213   4.518   3.834 -0.1660 -0.0363  0.4225
 1744SOL    HW216695   4.242   4.444   3.955  0.9857 -0.1568 -0.2319
 1745SOL     OW16696   1.461   3.148  10.606  0.3083  0.0165 -0.2742
 1745SOL    HW116697   1.507   3.070  10.573  0.5450  1.4384 -3.2888
 1745SOL    HW216698   1.498   3.221  10.557  1.6731  0.4176  1.3357
 1746SOL     OW16699   1.241   1.376   2.867  0.2445 -0.0653  0.3679
 1746SOL    HW116700   1.146   1.373   2.879  0.3857 -1.7423  1.0729
 1746SOL    HW216701   1.287   1.384   2.951  0.4317  1.4255  0.1271
 1747SOL     OW16702   2.919   3.098  15.661  0.5517  0.3708 -0.2327
 1747SOL    HW116703   2.903   3.191  15.644 -3.0673 -0.7077 -2.8489
 1747SOL    HW216704   2.943   3.102  15.753  1.5489 -2.2030 -0.3837
 1748SOL     OW16705   1.085   0.101  10.492  0.0583 -0.1620 -0.5730
 1748SOL    HW116706   1.024   0.135  10.426  0.2746 -1.2625 -1.3559
 1748SOL    HW216707   1.037   0.109  10.574  0.1620 -2.5353 -0.2799
 1749SOL     OW16708   2.209   3.258   0.920  0.1275 -0.6232  0.3135
 1749SOL    HW116709   2.144   3.327   0.907  0.2279 -1.4181 -4.5647
 1749SOL    HW216710   2.259   3.272   0.839 -2.3820  2.5687 -0.6877
 1750SOL     OW16711   1.800   2.833  14.252  0.5645 -0.0384 -0.1794
 1750SOL    HW116712   1.894   2.823  14.265  1.0511  3.4145 -1.3264
 1750SOL    HW216713   1.797   2.844  14.157 -0.6108 -0.7520 -0.2319
 1751SOL     OW16714   2.736   2.624   6.890 -0.2569  0.3759  0.5725
 1751SOL    HW116715   2.753   2.690   6.957 -1.4276  0.1485  1.0994
 1751SOL    HW216716   2.645   2.640   6.866 -0.8763  0.7259  3.1093
 1752SOL     OW16717   0.810   4.277   4.164  1.2698 -0.3754  0.8698
 1752SOL    HW116718   0.844   4.360   4.198 -0.3545  0.8153 -0.4165
 1752SOL    HW216719   0.866   4.270   4.087 -3.0220  0.8960 -2.3121
 1753SOL     OW16720   2.331   0.778   1.454  0.5820 -0.5452 -0.4652
 1753SOL    HW116721   2.307   0.688   1.435 -0.8902  0.3124 -2.7512
 1753SOL    HW216722   2.394   0.803   1.386  0.0337 -0.4904 -0.9621
 1754SOL     OW16723   3.082   3.379   9.125  0.1645 -0.2475 -0.2265
 1754SOL    HW116724   3.148   3.419   9.068  0.7967  2.1035  2.1941
 1754SOL    HW216725   3.124   3.295   9.142 -0.5263 -0.5124  0.1700
 1755SOL     OW16726   1.800   2.698   7.263  0.5240  0.1610 -0.0154
 1755SOL    HW116727   1.725   2.683   7.206  1.4459 -0.0259 -1.1701
 1755SOL    HW216728   1.866   2.690   7.195 -0.2278  2.7271 -1.0424
 1756SOL     OW16729   3.758   3.508   1.259  0.1895  0.3031 -0.3993
 1756SOL    HW116730   3.754   3.529   1.166  0.6183 -1.0000 -0.7206
 1756SOL    HW216731   3.775   3.415   1.241  0.1521  0.4935 -1.3630
 1757SOL     OW16732   1.186   2.580   1.272  0.4741  0.0957 -0.2104
 1757SOL    HW116733   1.115   2.538   1.320  0.5386 -0.6777 -0.7978
 1757SOL    HW216734   1.262   2.570   1.330  1.5550  1.8944 -1.2740
 1758SOL     OW16735   2.500   3.119   4.186  0.4501  0.0052  0.1338
 1758SOL    HW116736   2.507   3.118   4.091 -1.7698  0.5211 -0.0254
 1758SOL    HW216737   2.411   3.085   4.198  0.1354  0.1521 -1.8776
 1759SOL     OW16738   0.871   4.122   4.648 -0.3897  0.8374  0.0462
 1759SOL    HW116739   0.776   4.124   4.656 -0.2528 -1.1568  1.8556
 1759SOL    HW216740   0.874   4.215   4.623 -1.5360  1.4588  2.2099
 1760SOL     OW16741   1.419   3.836   5.338  0.5722  0.3712 -0.3637
 1760SOL    HW116742   1.408   3.931   5.337 -1.8381  0.1159  1.6426
 1760SOL    HW216743   1.338   3.806   5.295  0.4619  1.1684 -0.7120
 1761SOL     OW16744   1.517   1.502   1.725 -0.2177  0.4783  0.3632
 1761SOL    HW116745   1.554   1.560   1.792  1.5207 -0.6392  0.3994
 1761SOL    HW216746   1.430   1.486   1.760  0.3737 -3.2473  0.1839
 1762SOL     OW16747   3.988   4.545   4.491 -0.1444 -0.3199  0.1480
 1762SOL    HW116748   3.988   4.627   4.541 -2.1617  0.1457 -0.6502
 1762SOL    HW216749   3.920   4.560   4.426 -1.0274  0.3729  1.2401
 1763SOL     OW16750   0.703   3.425  13.041  0.3077 -0.2846 -0.3063
 1763SOL    HW116751   0.634   3.358  13.038  0.2984 -0.2175 -1.4905
 1763SOL    HW216752   0.676   3.473  12.963  2.2325 -1.3461 -1.6337
 1764SOL     OW16753   4.542   1.605   3.516 -0.1398 -0.1350 -0.2874
 1764SOL    HW116754   4.449   1.610   3.494 -0.0461 -1.5468 -1.0833
 1764SOL    HW216755   4.528   1.596   3.610 -1.4417  1.5779 -0.3240
 1765SOL     OW16756   1.922   0.341   3.622  0.2323  0.0221  0.2721
 1765SOL    HW116757   1.853   0.313   3.563  1.1911 -2.7866  0.4861
 1765SOL    HW216758   1.992   0.375   3.565  0.6270 -0.1931  0.6228
 1766SOL     OW16759   0.240   3.363   5.008  0.5270 -0.3593  0.2355
 1766SOL    HW116760   0.250   3.268   5.018 -0.6083 -0.5346 -0.2428
 1766SOL    HW216761   0.312   3.377   4.947  0.6204 -0.1800  0.3892
 1767SOL     OW16762   0.105   4.625  16.850  0.6743 -0.6054 -0.1512
 1767SOL    HW116763   0.092   4.715  16.821  0.5599 -1.0737 -1.5611
 1767SOL    HW216764   0.029   4.581  16.813  1.1589 -1.7449  0.2034
 1768SOL     OW16765   3.456   1.941   1.482 -0.5952  0.1448 -0.8254
 1768SOL    HW116766   3.454   2.024   1.529  0.6066 -0.3968  0.1822
 1768SOL    HW216767   3.383   1.958   1.422  0.0072  0.4050 -1.4898
 1769SOL     OW16768   3.814   3.526   8.081 -0.4839 -0.2165 -0.4588
 1769SOL    HW116769   3.903   3.497   8.062 -0.0898  2.4086 -2.6172
 1769SOL    HW216770   3.765   3.481   8.013  1.7046 -1.1876 -1.3945
 1770SOL     OW16771   2.392   3.957   7.724  0.2091 -0.0257 -0.2260
 1770SOL    HW116772   2.456   3.925   7.788  1.0920  1.1728 -0.5069
 1770SOL    HW216773   2.461   3.988   7.664 -1.6137 -0.0393 -2.3105
 1771SOL     OW16774   0.277   2.800   6.662 -0.3561  0.2467 -0.4110
 1771SOL    HW116775   0.341   2.785   6.732 -1.5132  0.7577  0.7597
 1771SOL    HW216776   0.199   2.771   6.710  0.4295 -3.5998 -1.4277
 1772SOL     OW16777   2.336   3.969  12.673 -0.2399  0.1764 -0.0667
 1772SOL    HW116778   2.353   4.028  12.600 -1.5656  2.0649  1.1419
 1772SOL    HW216779   2.413   3.914  12.663 -0.5651 -0.2463 -0.2746
 1773SOL     OW16780   1.930   0.632  13.933  0.2658 -0.0915 -0.2709
 1773SOL    HW116781   1.927   0.691  13.858  1.9250 -0.4745 -0.6306
 1773SOL    HW216782   2.023   0.633  13.952  0.3427 -0.3910 -0.6174
 1774SOL     OW16783   4.362   3.040   8.298 -0.0615  0.0474 -0.8431
 1774SOL    HW116784   4.285   3.040   8.241  0.2601  0.4178 -1.2856
 1774SOL    HW216785   4.329   3.115   8.347 -1.4310 -0.4186 -1.0495
 1775SOL     OW16786   1.790   2.204   8.929 -0.2435 -0.2163 -0.2785
 1775SOL    HW116787   1.753   2.287   8.958 -0.0090 -0.6456  1.2693
 1775SOL    HW216788   1.882   2.191   8.952 -0.0273  2.1837  0.2425
 1776SOL     OW16789   4.111   1.893  15.943 -0.3779 -0.0736 -0.5967
 1776SOL    HW116790   4.141   1.806  15.918  2.3094  1.0979 -1.3927
 1776SOL    HW216791   4.121   1.950  15.867 -2.1599  0.5789 -0.3436
 1777SOL     OW16792   3.467   3.539  11.810  0.1199 -0.5901 -0.3640
 1777SOL    HW116793   3.408   3.472  11.776 -1.3328  0.4109  0.1529
 1777SOL    HW216794   3.419   3.617  11.780 -0.7304 -0.5567  1.0537
 1778SOL     OW16795   0.796   1.976  10.846  0.0289  0.1929 -0.0840
 1778SOL    HW116796   0.836   1.933  10.923  0.5122 -2.6474 -1.9087
 1778SOL    HW216797   0.834   2.064  10.845  0.8894 -0.1523  1.0630
 1779SOL     OW16798   2.210   3.817   2.576 -0.3140 -0.4748  0.4307
 1779SOL    HW116799   2.215   3.795   2.669  0.1858  0.4161  0.6178
 1779SOL    HW216800   2.178   3.740   2.530  1.3415 -0.8114 -0.1449
 1780SOL     OW16801   0.521   4.272  16.408 -0.0127 -0.2420 -0.4819
 1780SOL    HW116802   0.438   4.320  16.414 -1.5664 -2.9797  0.1383
 1780SOL    HW216803   0.512   4.242  16.318 -0.1105  0.7669 -0.8042
 1781SOL     OW16804   2.466   2.419   3.157 -0.0440 -0.2446  0.1603
 1781SOL    HW116805   2.526   2.431   3.083  3.9890  1.0948  3.6337
 1781SOL    HW216806   2.448   2.509   3.183  2.3111  0.0029  0.9697
 1782SOL     OW16807   2.192   1.372   2.873 -0.3330  0.1604 -0.4299
 1782SOL    HW116808   2.146   1.383   2.790  0.3319 -1.3660 -0.9862
 1782SOL    HW216809   2.241   1.295   2.845 -1.6695 -0.6214 -0.6378
 1783SOL     OW16810   1.097   3.504   2.153 -0.8308 -0.0132  0.1069
 1783SOL    HW116811   1.109   3.502   2.248  0.5446 -1.1904 -0.0965
 1783SOL    HW216812   1.008   3.539   2.148 -0.6061  0.7095  1.1800
 1784SOL     OW16813   2.804   4.497   6.628  0.3252  0.0945  0.1058
 1784SOL    HW116814   2.786   4.524   6.718 -0.1096  0.1916 -0.0107
 1784SOL    HW216815   2.898   4.480   6.626  0.0868 -1.1384 -0.6209
 1785SOL     OW16816   1.656   0.659  17.662  0.2573 -0.2282 -0.8119
 1785SOL    HW116817   1.670   0.689   0.055 -1.8403  0.9264 -0.8806
 1785SOL    HW216818   1.676   0.741  17.617  0.4095  0.1217 -0.1026
 1786SOL     OW16819   2.864   1.780   2.354 -0.0451  0.4184 -0.3609
 1786SOL    HW116820   2.782   1.828   2.356  0.1116  0.6066  1.2767
 1786SOL    HW216821   2.922   1.847   2.317  1.9922 -1.7977 -1.2278
 1787SOL     OW16822   0.885   0.200  10.691 -0.7343  0.1164 -0.1919
 1787SOL    HW116823   0.805   0.188  10.639 -0.6149  1.4218 -0.6807
 1787SOL    HW216824   0.879   0.135  10.761 -0.7504  2.4019  1.9289
 1788SOL     OW16825   0.520   2.164  17.434 -0.1804  0.7748  0.6247
 1788SOL    HW116826   0.466   2.149  17.512  1.3849  3.4479  2.2147
 1788SOL    HW216827   0.563   2.079  17.437 -1.0398  0.3505  0.8510
 1789SOL     OW16828   3.746   1.704   4.430  0.4200  0.0534 -0.0451
 1789SOL    HW116829   3.693   1.767   4.478  0.6938  0.6727 -0.5592
 1789SOL    HW216830   3.836   1.728   4.449  0.6167 -1.8204  1.3952
 1790SOL     OW16831   2.256   2.059   5.331 -0.1640 -0.4445  0.1526
 1790SOL    HW116832   2.340   2.105   5.329  0.1135 -1.0605 -2.1981
 1790SOL    HW216833   2.272   2.013   5.414  1.8550 -0.0298  0.0025
 1791SOL     OW16834   1.644   2.343   4.670 -0.3921  0.1614 -0.2608
 1791SOL    HW116835   1.707   2.410   4.698 -1.9513  1.0840  1.0237
 1791SOL    HW216836   1.704   2.314   4.601 -0.6188 -0.0853 -0.3543
 1792SOL     OW16837   3.278   2.500   8.240 -0.8527 -0.0496  0.1988
 1792SOL    HW116838   3.239   2.558   8.306 -2.1258 -0.8463  0.1605
 1792SOL    HW216839   3.308   2.436   8.303 -0.0275  1.0506  0.9258
 1793SOL     OW16840   0.471   1.024   3.783  0.0542  0.4842  0.3371
 1793SOL    HW116841   0.473   1.069   3.699  0.0195 -2.4219 -1.2390
 1793SOL    HW216842   0.564   1.032   3.804  0.3527 -0.5547 -0.5991
 1794SOL     OW16843   4.183   1.047  12.422  0.0637 -0.2052 -0.5070
 1794SOL    HW116844   4.151   0.989  12.491  2.3734 -1.3321 -0.3844
 1794SOL    HW216845   4.100   1.093  12.407 -0.5196 -0.7376  1.0726
 1795SOL     OW16846   1.205   1.720   3.764 -0.1376 -0.7054 -0.3607
 1795SOL    HW116847   1.121   1.765   3.774  1.1177  1.3165  1.0710
 1795SOL    HW216848   1.207   1.713   3.669 -0.9300 -0.0720 -0.4259
 1796SOL     OW16849   2.829   3.790   6.967  0.5251  0.3455  0.0009
 1796SOL    HW116850   2.832   3.699   6.997 -0.1138  0.2088 -0.3391
 1796SOL    HW216851   2.874   3.782   6.883 -2.8667 -0.6579 -1.7252
 1797SOL     OW16852   3.597   0.175   5.830  0.2414 -0.3559  0.3533
 1797SOL    HW116853   3.650   0.149   5.755 -0.4701 -0.9622  0.0572
 1797SOL    HW216854   3.649   0.139   5.901  0.4058  1.3703  1.0961
 1798SOL     OW16855   0.147   1.966   2.407  0.1078 -0.4811  0.2482
 1798SOL    HW116856   0.227   1.944   2.362  0.1416 -0.0859  0.1152
 1798SOL    HW216857   0.174   2.040   2.463 -2.0515  0.0313  0.6341
 1799SOL     OW16858   3.242   2.611  17.142  0.1781  0.8660  0.4818
 1799SOL    HW116859   3.196   2.541  17.095 -1.4450  1.8154  0.6744
 1799SOL    HW216860   3.216   2.694  17.103  1.2973  0.9584 -0.0616
 1800SOL     OW16861   2.425   2.337   5.495 -0.4804 -0.0387 -0.1831
 1800SOL    HW116862   2.492   2.279   5.532 -0.4105 -0.1677 -0.5098
 1800SOL    HW216863   2.358   2.338   5.564 -0.7586 -0.1743 -0.4516
 1801SOL     OW16864   2.145   2.738   7.871  0.3755  0.2539  0.5573
 1801SOL    HW116865   2.087   2.685   7.927 -2.7386  2.1820 -0.8708
 1801SOL    HW216866   2.217   2.760   7.930 -0.7730 -0.9642  2.4459
 1802SOL     OW16867   3.088   4.015   6.505  0.1603  0.2706 -0.3275
 1802SOL    HW116868   3.018   3.973   6.455 -1.4571  0.8859  1.4096
 1802SOL    HW216869   3.041   4.095   6.529  1.6753  0.6902  1.1836
 1803SOL     OW16870   0.222   2.524  13.168 -0.0769 -0.0177 -1.2243
 1803SOL    HW116871   0.194   2.434  13.188  2.1020 -0.0894  1.4491
 1803SOL    HW216872   0.313   2.529  13.197 -0.2655  0.7104 -0.7698
 1804SOL     OW16873   3.117   4.453   6.578  0.3423 -0.6039  0.0265
 1804SOL    HW116874   3.078   4.453   6.490 -0.1877  0.0735  0.2600
 1804SOL    HW216875   3.177   4.527   6.571  1.0158 -1.0936  0.6449
 1805SOL     OW16876   0.830   0.766   2.562  0.3961  0.4836 -0.2701
 1805SOL    HW116877   0.781   0.697   2.517 -0.0048  2.0911 -2.2715
 1805SOL    HW216878   0.794   0.759   2.650  0.3703  2.1291 -0.1599
 1806SOL     OW16879   3.878   3.260   8.890  0.1532 -0.0687  0.0118
 1806SOL    HW116880   3.941   3.308   8.837  0.3794  0.1671  0.4943
 1806SOL    HW216881   3.939   3.208   8.942  2.5590 -0.0671 -2.8328
 1807SOL     OW16882   0.048   0.020   1.338  0.0515  0.0822 -0.5484
 1807SOL    HW116883   0.009   4.672   1.288 -0.7394  0.0491  0.1180
 1807SOL    HW216884   0.026   0.095   1.284 -1.2797 -0.7420 -1.1583
 1808SOL     OW16885   0.693   4.428  14.629  0.0422 -0.4586 -0.3639
 1808SOL    HW116886   0.646   4.511  14.637 -0.6965 -0.6934 -2.2074
 1808SOL    HW216887   0.641   4.385  14.561  1.5490 -2.0317 -0.5215
 1809SOL     OW16888   2.051   3.287  13.431 -0.0540 -0.2896  0.4058
 1809SOL    HW116889   2.022   3.207  13.386 -1.9592  1.0474 -0.7350
 1809SOL    HW216890   2.078   3.339  13.356  0.0878 -2.9378 -1.3827
 1810SOL     OW16891   4.597   0.734  14.945  0.9611 -0.0148 -0.1569
 1810SOL    HW116892   4.546   0.661  14.910 -1.2752  0.8075  1.4304
 1810SOL    HW216893   4.680   0.722  14.899  1.0015 -1.1356  0.2057
 1811SOL     OW16894   3.744   3.246   4.591 -0.2065 -0.2909  0.1826
 1811SOL    HW116895   3.838   3.239   4.576  0.1185  1.0648  1.5847
 1811SOL    HW216896   3.718   3.163   4.550  0.3179  0.1279 -0.9967
 1812SOL     OW16897   3.144   2.061  11.967 -0.0969 -0.3242 -0.0022
 1812SOL    HW116898   3.206   2.044  11.896  0.2971  2.0621 -0.2461
 1812SOL    HW216899   3.074   2.108  11.921  0.3282  2.2095  1.8991
 1813SOL     OW16900   0.914   3.626  15.693  1.0536 -0.9148  0.0491
 1813SOL    HW116901   0.952   3.569  15.625 -0.2116  2.0968 -3.2031
 1813SOL    HW216902   0.882   3.702  15.644  0.8846 -0.4187  0.9329
 1814SOL     OW16903   2.826   4.283  16.579  0.1819  0.6749 -0.4947
 1814SOL    HW116904   2.757   4.276  16.513 -0.1246 -0.3860 -0.0673
 1814SOL    HW216905   2.825   4.196  16.620 -2.3931  1.3145  0.7814
 1815SOL     OW16906   2.136   1.899   3.717  0.1328 -0.4453 -0.3553
 1815SOL    HW116907   2.098   1.814   3.696 -1.0871  0.4689 -1.9269
 1815SOL    HW216908   2.060   1.944   3.754  0.6015  0.1012 -0.0511
 1816SOL     OW16909   4.652   3.327   2.378 -0.4026  0.6424 -0.3143
 1816SOL    HW116910   4.591   3.286   2.318 -0.8969  0.7323  0.1299
 1816SOL    HW216911   4.597   3.394   2.417 -2.3903 -1.4006  0.3732
 1817SOL     OW16912   1.035   3.051  10.796  0.1398 -0.4693 -0.1140
 1817SOL    HW116913   1.026   3.021  10.887 -2.4078 -0.2865 -0.3135
 1817SOL    HW216914   1.124   3.087  10.793 -0.0797  0.2235  1.8831
 1818SOL     OW16915   2.879   0.623   8.519 -0.1477 -0.1621 -0.4384
 1818SOL    HW116916   2.963   0.657   8.487  0.4317 -0.9148  0.2890
 1818SOL    HW216917   2.830   0.702   8.541  0.0659 -0.2903  0.4803
 1819SOL     OW16918   0.805   0.091   2.865 -0.1864  0.2695  0.0372
 1819SOL    HW116919   0.784   0.087   2.772 -1.3167 -0.0763  0.3124
 1819SOL    HW216920   0.746   0.162   2.890 -0.1267  0.7608 -1.2103
 1820SOL     OW16921   3.522   0.454  17.490 -0.1071 -0.4800  0.4131
 1820SOL    HW116922   3.557   0.380  17.539 -0.2303  0.1509  1.4543
 1820SOL    HW216923   3.607   0.497  17.476 -0.6031 -0.1717 -1.6600
 1821SOL     OW16924   3.999   0.995   2.336  0.1765 -0.4251 -0.2052
 1821SOL    HW116925   3.943   1.016   2.411  2.4342 -0.3507  1.4959
 1821SOL    HW216926   3.941   0.927   2.302 -0.6126  1.1842 -2.0496
 1822SOL     OW16927   1.581   3.077   3.741 -0.3181 -0.0850  0.2028
 1822SOL    HW116928   1.516   3.066   3.811 -0.6086 -0.1184 -0.0716
 1822SOL    HW216929   1.536   3.034   3.668 -2.4926  1.0130  0.8883
 1823SOL     OW16930   3.346   0.313   1.033  0.3337 -0.0815 -0.2070
 1823SOL    HW116931   3.275   0.269   1.081  0.9855  0.4359  1.2234
 1823SOL    HW216932   3.354   0.400   1.071  1.5957 -0.1481 -0.3391
 1824SOL     OW16933   1.446   0.417   7.331 -0.1624 -0.0688 -0.1293
 1824SOL    HW116934   1.525   0.380   7.371  0.5063 -0.0381 -1.3969
 1824SOL    HW216935   1.385   0.424   7.404 -2.1569 -0.5060 -1.7500
 1825SOL     OW16936   1.937   1.065   4.171  0.1454  0.0176  0.4795
 1825SOL    HW116937   1.877   0.990   4.176 -2.2212  1.9529  1.4438
 1825SOL    HW216938   1.959   1.065   4.078 -4.6805  1.2654 -0.6629
 1826SOL     OW16939   0.929   0.267  12.294 -0.1742 -0.2376  0.1392
 1826SOL    HW116940   1.002   0.325  12.317 -0.7082 -0.1723  1.6933
 1826SOL    HW216941   0.975   0.212  12.231  0.9971  0.6583  0.2123
 1827SOL     OW16942   0.085   3.487   5.191  0.1995  0.0591  0.2380
 1827SOL    HW116943   0.158   3.445   5.144 -1.4574 -0.9594 -1.4184
 1827SOL    HW216944   0.119   3.482   5.280 -2.2594 -1.1977  1.0946
 1828SOL     OW16945   1.145   4.365   9.859 -0.0193 -0.0654  0.2833
 1828SOL    HW116946   1.114   4.453   9.882 -1.1414 -0.4846  0.3515
 1828SOL    HW216947   1.183   4.385   9.774 -1.0696 -0.2901 -0.2321
 1829SOL     OW16948   0.251   2.218   0.908  0.0394 -0.1731 -0.3537
 1829SOL    HW116949   0.205   2.220   0.824 -0.4851  1.9301 -0.0130
 1829SOL    HW216950   0.237   2.131   0.946 -2.1190 -0.0868 -0.9328
 1830SOL     OW16951   2.408   0.107   6.395  0.0234  0.2252  0.4001
 1830SOL    HW116952   2.327   0.143   6.359  0.4969  0.2470 -0.6747
 1830SOL    HW216953   2.475   0.166   6.360 -0.4289  0.3024 -0.3328
 1831SOL     OW16954   2.019   0.520   7.525 -0.2061  0.1627  0.0779
 1831SOL    HW116955   2.040   0.429   7.547  0.4615  0.5642  1.1027
 1831SOL    HW216956   1.924   0.520   7.533 -0.3290  2.8421 -1.4943
 1832SOL     OW16957   2.058   3.419   8.077 -0.3327 -0.1075 -0.0986
 1832SOL    HW116958   2.121   3.475   8.032 -1.0413  1.1694  0.5019
 1832SOL    HW216959   2.040   3.463   8.160  0.4356  2.5183 -1.3520
 1833SOL     OW16960   0.433   1.530   8.600 -0.3325  0.3369  0.2853
 1833SOL    HW116961   0.397   1.618   8.595  2.3608  1.3630 -1.4794
 1833SOL    HW216962   0.513   1.538   8.652 -1.1484 -0.7993  1.7173
 1834SOL     OW16963   4.406   3.972   3.566  0.4759  0.1223 -0.1287
 1834SOL    HW116964   4.361   3.921   3.633 -1.9661  1.5140 -0.7275
 1834SOL    HW216965   4.333   4.005   3.512 -0.9833 -0.5049  1.4951
 1835SOL     OW16966   0.268   3.616  11.366  0.2295  0.2177  0.1377
 1835SOL    HW116967   0.340   3.644  11.422  1.1352  0.1208 -0.9815
 1835SOL    HW216968   0.227   3.703  11.365  0.8812  0.5378  0.8613
 1836SOL     OW16969   1.589   3.618   5.338  0.1192 -0.6556  0.3173
 1836SOL    HW116970   1.535   3.694   5.360  2.6401  1.0346  0.7101
 1836SOL    HW216971   1.580   3.574   5.422 -1.8852 -1.3012 -0.2502
 1837SOL     OW16972   0.701   3.698   6.944 -0.1609 -0.3286 -0.0665
 1837SOL    HW116973   0.635   3.746   6.894 -0.8246 -0.6815  0.4547
 1837SOL    HW216974   0.660   3.612   6.952 -1.7747  0.7638  3.6120
 1838SOL     OW16975   2.518   4.499  15.981  0.1324  0.1614  0.0740
 1838SOL    HW116976   2.485   4.586  15.960 -1.8390 -0.3523  1.1111
 1838SOL    HW216977   2.588   4.499  15.915  0.6751 -0.3062  0.6545
 1839SOL     OW16978   2.133   3.596   3.850  0.4969  0.1405 -0.1981
 1839SOL    HW116979   2.159   3.515   3.895  0.6080  0.0222 -0.4749
 1839SOL    HW216980   2.179   3.660   3.905  1.5206 -1.3994  0.7423
 1840SOL     OW16981   4.102   2.336   7.324  0.0490 -0.4025  0.0112
 1840SOL    HW116982   4.057   2.289   7.394 -0.8462 -0.8323 -0.8530
 1840SOL    HW216983   4.101   2.271   7.254  1.2358 -0.3954 -0.0257
 1841SOL     OW16984   1.819   2.201   9.861  0.2656 -0.3587 -0.2663
 1841SOL    HW116985   1.845   2.135   9.925 -0.3761  0.9557  1.3573
 1841SOL    HW216986   1.873   2.276   9.884 -0.8048 -0.2498  1.8262
 1842SOL     OW16987   0.380   2.427   7.230  0.1291  0.2458  0.9024
 1842SOL    HW116988   0.464   2.384   7.214 -1.6244 -1.6518 -3.1868
 1842SOL    HW216989   0.323   2.404   7.157  1.7970  0.3335 -0.4178
 1843SOL     OW16990   2.305   3.892   4.926  0.7762  0.1959 -0.3979
 1843SOL    HW116991   2.324   3.977   4.965 -0.4973  0.7510 -1.0058
 1843SOL    HW216992   2.355   3.890   4.845  0.9528 -2.7387 -0.2214
 1844SOL     OW16993   2.147   4.393   6.610 -0.3841  0.3152  0.1752
 1844SOL    HW116994   2.238   4.423   6.603 -0.7954  1.4808 -0.2106
 1844SOL    HW216995   2.146   4.360   6.700 -0.5954 -0.5621 -0.1540
 1845SOL     OW16996   2.652   0.350  11.593 -0.1234 -0.3352 -0.0845
 1845SOL    HW116997   2.563   0.385  11.595  0.1259  0.2731  0.5401
 1845SOL    HW216998   2.621   0.260  11.594 -1.1437  0.0217  1.0341
 1846SOL     OW16999   1.148   3.097   1.003 -0.1483 -0.4516  0.0553
 1846SOL    HW117000   1.054   3.103   0.992  0.4250  1.8672 -3.5340
 1846SOL    HW217001   1.153   3.092   1.098  1.7444 -0.0349 -0.0126
 1847SOL     OW17002   0.740   0.087   7.228 -0.0192 -0.5963 -0.2698
 1847SOL    HW117003   0.695   0.069   7.146  0.3109 -0.7942 -0.4079
 1847SOL    HW217004   0.793   0.008   7.229  0.4553 -0.2936 -1.9326
 1848SOL     OW17005   4.497   4.502   3.104  0.6533  0.5612 -0.4155
 1848SOL    HW117006   4.557   4.477   3.033 -0.9897  0.5910 -1.8085
 1848SOL    HW217007   4.514   4.436   3.172  1.4180  0.2356 -0.9259
 1849SOL     OW17008   4.211   1.826  17.316 -0.3546  0.1527 -0.0365
 1849SOL    HW117009   4.169   1.861  17.238  0.5711 -1.5484 -1.2803
 1849SOL    HW217010   4.227   1.735  17.291  0.6112  0.3891 -0.2724
 1850SOL     OW17011   1.798   2.447   9.335  0.2156 -0.0282 -0.1278
 1850SOL    HW117012   1.868   2.512   9.344 -0.1741  0.3756 -0.0020
 1850SOL    HW217013   1.847   2.365   9.332 -1.1041 -0.8288  0.4364
 1851SOL     OW17014   1.873   2.263   4.518 -0.7532 -0.5052 -0.3643
 1851SOL    HW117015   1.834   2.257   4.430 -1.0822  0.2412 -0.2621
 1851SOL    HW217016   1.950   2.312   4.489 -0.6851 -1.5596 -1.9799
 1852SOL     OW17017   2.128   2.106  16.096  0.3766  0.1564 -0.0245
 1852SOL    HW117018   2.096   2.194  16.116  2.0742  0.8177 -0.1569
 1852SOL    HW217019   2.219   2.132  16.079  1.3404 -2.3593  1.2586
 1853SOL     OW17020   0.298   3.156   4.347  0.1737  0.4173  0.3646
 1853SOL    HW117021   0.252   3.155   4.431  0.3763 -1.4668  0.4437
 1853SOL    HW217022   0.301   3.250   4.328  4.4235 -0.0925 -1.4916
 1854SOL     OW17023   4.461   2.294   1.633  0.0949  0.1084 -0.4509
 1854SOL    HW117024   4.520   2.338   1.573  0.0926  1.2119  0.3732
 1854SOL    HW217025   4.521   2.290   1.708 -1.1385 -0.2922  0.5192
 1855SOL     OW17026   0.687   3.924  16.461 -0.1602 -0.6199  0.2322
 1855SOL    HW117027   0.719   3.969  16.539 -0.4874 -0.5256  0.3111
 1855SOL    HW217028   0.761   3.935  16.401 -1.4273  0.4494 -1.1455
 1856SOL     OW17029   4.502   0.336  12.099 -0.2545 -0.2529 -0.4172
 1856SOL    HW117030   4.482   0.246  12.128 -0.6480 -0.3599 -1.0242
 1856SOL    HW217031   4.415   0.376  12.100  0.1191  0.5560  0.0983
 1857SOL     OW17032   4.346   0.011   4.307 -0.8000  0.1586 -0.0526
 1857SOL    HW117033   4.310   4.717   4.220 -1.6102 -1.2456  0.5677
 1857SOL    HW217034   4.327   0.105   4.320  0.1049  0.4497 -0.8651
 1858SOL     OW17035   0.935   1.636   2.956 -0.3916  0.1101  0.2765
 1858SOL    HW117036   0.950   1.564   2.895 -0.6399 -0.0909  0.4562
 1858SOL    HW217037   0.990   1.609   3.029 -0.7955  0.4932  0.7222
 1859SOL     OW17038   1.185   0.620   4.956  0.2632  0.3497  0.0189
 1859SOL    HW117039   1.261   0.669   4.988  0.0652  0.5085  0.2456
 1859SOL    HW217040   1.179   0.550   5.020  0.3839 -0.2819 -0.6663
 1860SOL     OW17041   0.722   0.391   7.732 -0.3047 -0.1349 -0.2125
 1860SOL    HW117042   0.754   0.443   7.658 -0.5414  0.2665 -0.0329
 1860SOL    HW217043   0.654   0.351   7.679 -0.9318  1.2409 -0.4437
 1861SOL     OW17044   1.365   3.069   5.837 -0.4147  0.0257 -0.2806
 1861SOL    HW117045   1.455   3.065   5.805 -0.2678  2.2137 -0.1381
 1861SOL    HW217046   1.376   3.016   5.916 -0.3515  1.3722  0.6206
 1862SOL     OW17047   2.815   1.875  14.712  0.1716 -0.4066 -0.0116
 1862SOL    HW117048   2.756   1.874  14.636  0.0862  0.1519  0.0490
 1862SOL    HW217049   2.765   1.940  14.762  0.9587  0.7399 -0.7111
 1863SOL     OW17050   0.553   3.275   0.848  0.0093  0.0336  0.0856
 1863SOL    HW117051   0.623   3.212   0.830 -0.0466  0.1652 -0.5734
 1863SOL    HW217052   0.526   3.254   0.938 -0.0769  1.1311  0.3234
 1864SOL     OW17053   4.068   2.599  16.805 -0.0253 -0.9193 -0.2526
 1864SOL    HW117054   4.069   2.513  16.847 -2.2417 -2.0189 -2.4528
 1864SOL    HW217055   3.986   2.631  16.844  2.4374  1.3970  3.0511
 1865SOL     OW17056   0.497   1.381  11.828  0.0309  0.0803  0.1758
 1865SOL    HW117057   0.482   1.287  11.836 -3.3574  0.6003  0.0947
 1865SOL    HW217058   0.574   1.389  11.884  2.5841 -0.7974 -3.2504
 1866SOL     OW17059   3.850   0.463   8.768  0.2391  0.3835  0.1442
 1866SOL    HW117060   3.823   0.422   8.686  0.9254  1.2010 -0.4795
 1866SOL    HW217061   3.765   0.444   8.810  1.6156 -0.5726  2.5044
 1867SOL     OW17062   3.395   2.875   8.712  0.0375  0.3856  0.2317
 1867SOL    HW117063   3.397   2.791   8.759 -1.9505 -0.0189 -0.4383
 1867SOL    HW217064   3.455   2.930   8.762  1.7910  0.1713 -1.6280
 1868SOL     OW17065   0.960   2.026   7.768 -0.3644 -0.4221  0.2901
 1868SOL    HW117066   0.991   1.993   7.852 -0.0136  1.5909  0.9428
 1868SOL    HW217067   0.998   2.113   7.782  1.2416 -1.0792  0.0920
 1869SOL     OW17068   0.249   0.662   6.029  0.0498 -0.2021  0.0252
 1869SOL    HW117069   0.172   0.688   5.978  0.6012  1.0557 -0.1672
 1869SOL    HW217070   0.293   0.747   6.043  0.4672 -0.2522 -1.0486
 1870SOL     OW17071   2.749   0.855   8.483  0.5588 -0.2233 -0.2043
 1870SOL    HW117072   2.770   0.910   8.559 -0.1267  0.3619 -0.4386
 1870SOL    HW217073   2.774   0.916   8.413  0.9371  1.1139  1.0982
 1871SOL     OW17074   1.369   2.721   2.729  0.2280  0.1492 -0.2564
 1871SOL    HW117075   1.314   2.736   2.651 -0.3317  2.3168  0.5462
 1871SOL    HW217076   1.452   2.712   2.683  0.0898 -2.6444  0.0717
 1872SOL     OW17077   4.304   1.980   9.316  0.5212  0.4294  0.0841
 1872SOL    HW117078   4.227   2.003   9.368  0.7096 -1.0413  1.0121
 1872SOL    HW217079   4.373   2.029   9.362 -0.2754  1.6760 -0.0369
 1873SOL     OW17080   1.402   3.673  14.293 -0.2239  0.6473 -0.0524
 1873SOL    HW117081   1.422   3.585  14.325  0.8608  0.6272 -0.7794
 1873SOL    HW217082   1.326   3.699  14.344 -2.1175 -1.2352 -1.8653
 1874SOL     OW17083   3.888   2.314  16.073 -0.1943  0.3803 -0.1613
 1874SOL    HW117084   3.879   2.409  16.083  0.1347  0.1744  2.0136
 1874SOL    HW217085   3.941   2.306  15.993  1.2040 -0.0174  0.8142
 1875SOL     OW17086   2.177   1.311  13.172  0.6313 -0.3316 -0.0683
 1875SOL    HW117087   2.161   1.228  13.126  0.2155 -0.0183 -0.4909
 1875SOL    HW217088   2.249   1.336  13.115 -0.1215  2.4429  0.1840
 1876SOL     OW17089   1.031   3.859   6.885 -0.0329  0.6067 -0.5127
 1876SOL    HW117090   0.985   3.912   6.951 -2.0386 -0.6942 -0.8745
 1876SOL    HW217091   0.979   3.888   6.810 -0.7335 -1.0795 -0.6620
 1877SOL     OW17092   1.411   3.986   4.639  0.5210 -0.1571  0.2103
 1877SOL    HW117093   1.397   3.892   4.632 -2.0909  0.0194  3.0023
 1877SOL    HW217094   1.325   4.010   4.604  2.3392  2.5929 -2.3769
 1878SOL     OW17095   4.344   1.418   3.940  0.3584  0.3514 -0.1910
 1878SOL    HW117096   4.340   1.465   4.023  0.4852  0.8311 -0.4522
 1878SOL    HW217097   4.254   1.390   3.922  0.1301 -1.2215  3.3850
 1879SOL     OW17098   2.261   1.018   2.236  0.2684 -0.4917 -0.2438
 1879SOL    HW117099   2.174   0.981   2.256 -0.6514  0.3721 -2.7286
 1879SOL    HW217100   2.320   0.958   2.283 -0.4829 -1.1473 -0.1246
 1880SOL     OW17101   0.165   2.683   5.186 -0.4951  0.4895 -0.4114
 1880SOL    HW117102   0.102   2.727   5.129 -1.6395 -1.4596 -0.6579
 1880SOL    HW217103   0.175   2.599   5.142  0.3414  0.5319 -0.2925
 1881SOL     OW17104   1.008   0.427   2.526  0.0767  0.3663 -0.4381
 1881SOL    HW117105   0.974   0.515   2.510 -0.7080 -0.3022 -2.3851
 1881SOL    HW217106   0.939   0.376   2.568 -1.2145  4.3817  2.2624
 1882SOL     OW17107   3.044   3.957   3.037 -0.1439  0.1385 -0.2001
 1882SOL    HW117108   3.121   3.956   3.094 -0.1230 -1.0265 -0.2623
 1882SOL    HW217109   3.049   4.046   3.003  0.8944  0.2602  0.2692
 1883SOL     OW17110   1.878   3.385  14.470  0.1460 -0.0817 -0.4463
 1883SOL    HW117111   1.856   3.455  14.532  0.4610 -1.7930  1.5992
 1883SOL    HW217112   1.857   3.433  14.390  1.2216 -1.6806 -1.6844
 1884SOL     OW17113   2.634   2.181   5.598 -0.2695  0.4669 -0.0672
 1884SOL    HW117114   2.703   2.234   5.558  0.1204  2.7697  3.6894
 1884SOL    HW217115   2.650   2.104   5.544 -1.4927 -0.2794  0.6347
 1885SOL     OW17116   4.672   3.689   3.369 -0.1928  0.0422  0.0250
 1885SOL    HW117117   0.032   3.644   3.372 -1.1400 -1.6660  0.7414
 1885SOL    HW217118   4.623   3.620   3.413  2.1075 -1.6812 -0.1558
 1886SOL     OW17119   1.099   0.193   7.980 -0.1219  0.5487 -0.0018
 1886SOL    HW117120   1.080   0.099   7.986  1.3407  0.1132 -2.2388
 1886SOL    HW217121   1.181   0.201   8.029 -0.7642  2.2646  0.7995
 1887SOL     OW17122   3.970   1.584   7.571  0.1498 -0.0119 -0.3495
 1887SOL    HW117123   3.907   1.516   7.549 -2.0199  2.2705 -1.1510
 1887SOL    HW217124   3.911   1.658   7.578 -0.3112 -0.5465  1.4856
 1888SOL     OW17125   4.153   3.574   9.283  0.0931 -0.6565 -0.5865
 1888SOL    HW117126   4.237   3.613   9.306 -0.0491 -0.1643 -0.8853
 1888SOL    HW217127   4.093   3.641   9.316 -0.7253 -1.7336  0.1056
 1889SOL     OW17128   3.574   3.990   3.558  0.0038 -0.3797 -0.1939
 1889SOL    HW117129   3.659   3.947   3.558  0.7515  1.0681 -0.1531
 1889SOL    HW217130   3.548   3.966   3.647  0.6485 -0.7177 -0.0977
 1890SOL     OW17131   0.295   4.649   6.294 -0.2914 -0.0841  0.1702
 1890SOL    HW117132   0.306   4.711   6.366  0.1761 -0.4280  0.3985
 1890SOL    HW217133   0.222   4.692   6.250  1.1012  1.9950 -0.1203
 1891SOL     OW17134   3.601   3.887   6.181 -0.4646  0.0537  0.3382
 1891SOL    HW117135   3.608   3.868   6.274  1.2652 -5.2650 -0.8914
 1891SOL    HW217136   3.674   3.945   6.157  0.6370 -1.0298  1.0522
 1892SOL     OW17137   0.958   4.501  11.609 -0.6330  0.6443  0.4414
 1892SOL    HW117138   0.887   4.444  11.581 -0.0083  0.1933 -0.2111
 1892SOL    HW217139   1.029   4.443  11.638 -2.1594 -1.8413 -0.8461
 1893SOL     OW17140   3.505   3.492   8.870  0.1602 -0.0206  0.3162
 1893SOL    HW117141   3.567   3.481   8.798  0.7481 -2.1746  1.1736
 1893SOL    HW217142   3.556   3.454   8.942 -0.1793  0.6920  0.9282
 1894SOL     OW17143   0.360   1.569   2.330 -1.1190  0.5633 -0.3248
 1894SOL    HW117144   0.346   1.500   2.395 -2.8509  0.9983 -0.2275
 1894SOL    HW217145   0.411   1.637   2.374 -2.1246  3.6406 -3.8378
 1895SOL     OW17146   2.486   2.556   9.057  0.0381 -0.1541  0.4126
 1895SOL    HW117147   2.396   2.534   9.034 -0.0110  0.4556  0.0057
 1895SOL    HW217148   2.492   2.651   9.047  0.8243 -0.4505 -2.0474
 1896SOL     OW17149   1.777   3.359   7.600 -0.0881  0.2178 -0.6190
 1896SOL    HW117150   1.797   3.444   7.638 -2.3735  1.3676 -1.9850
 1896SOL    HW217151   1.735   3.399   7.524  0.6026 -1.9590 -2.1535
 1897SOL     OW17152   3.136   0.481  15.038 -0.2049 -0.3740 -0.0670
 1897SOL    HW117153   3.158   0.395  15.075 -0.3005  0.0473  0.9615
 1897SOL    HW217154   3.042   0.468  15.029 -0.2961  0.1208  0.2008
 1898SOL     OW17155   0.648   1.707  10.197 -0.3249 -0.4606 -0.0623
 1898SOL    HW117156   0.704   1.784  10.188 -1.1624  0.3087  1.2672
 1898SOL    HW217157   0.688   1.658  10.125  0.1564 -0.2742  0.0822
 1899SOL     OW17158   3.567   2.878   9.668  0.1985  0.0301  0.8482
 1899SOL    HW117159   3.656   2.861   9.699  0.1496  0.0163  0.9797
 1899SOL    HW217160   3.518   2.825   9.731 -0.9888 -1.6567 -1.4900
 1900SOL     OW17161   0.079   2.886   4.213 -0.5136  0.3677  0.2094
 1900SOL    HW117162   0.091   2.980   4.221 -0.4346  0.5450 -2.0024
 1900SOL    HW217163   4.710   2.881   4.236  0.0286 -0.8125  2.1119
 1901SOL     OW17164   0.004   3.959   3.378 -0.1387 -0.3019  0.2099
 1901SOL    HW117165   4.686   3.873   3.368  1.4412 -0.7819 -2.3028
 1901SOL    HW217166   4.676   4.007   3.313  0.8804 -0.2891 -0.5837
 1902SOL     OW17167   0.130   4.183   7.202  0.2427  0.4546  0.0049
 1902SOL    HW117168   0.097   4.156   7.288  3.0036  0.6326  1.1518
 1902SOL    HW217169   0.059   4.233   7.162 -1.6890 -1.8842  0.5056
 1903SOL     OW17170   2.947   3.863  10.465  0.4976 -0.0859 -0.3096
 1903SOL    HW117171   2.903   3.869  10.380  0.5317 -0.2153 -0.3368
 1903SOL    HW217172   2.940   3.768  10.475 -1.3621  0.3848  2.6472
 1904SOL     OW17173   2.129   3.734   6.616 -0.4277  0.1253  0.4472
 1904SOL    HW117174   2.178   3.775   6.687  0.3403  0.0068 -0.0074
 1904SOL    HW217175   2.036   3.741   6.636 -0.1974  1.1868  1.0992
 1905SOL     OW17176   0.365   1.284   4.521 -0.3582 -0.6385  0.6004
 1905SOL    HW117177   0.389   1.350   4.457  0.4795 -2.9516 -1.4871
 1905SOL    HW217178   0.292   1.236   4.481 -0.8320  0.1464  0.5385
 1906SOL     OW17179   3.433   4.062  10.241 -0.6373  0.5696  0.1342
 1906SOL    HW117180   3.514   4.110  10.225 -0.6189  0.5225  0.0866
 1906SOL    HW217181   3.373   4.137  10.239 -1.3600  0.0348  1.3679
 1907SOL     OW17182   1.318   0.111   8.491  0.4747 -0.1903 -0.1357
 1907SOL    HW117183   1.261   0.034   8.501  0.0576 -0.0364 -1.2751
 1907SOL    HW217184   1.254   0.178   8.513  1.8884  0.4927  1.8538
 1908SOL     OW17185   0.554   1.556   2.123  0.1109 -0.3884 -0.2397
 1908SOL    HW117186   0.596   1.641   2.130  0.1735 -0.3274 -1.4286
 1908SOL    HW217187   0.488   1.557   2.193  0.0344  0.8514 -0.3370
 1909SOL     OW17188   2.550   1.167   4.140  0.3694  0.2487  0.1003
 1909SOL    HW117189   2.508   1.086   4.112  2.4510 -0.6851 -0.3336
 1909SOL    HW217190   2.619   1.165   4.073 -0.9180 -0.0929 -1.2172
 1910SOL     OW17191   3.039   0.906   7.993  0.3817  0.1040  0.4043
 1910SOL    HW117192   3.059   0.831   7.936  0.0987  0.2628  0.0987
 1910SOL    HW217193   2.951   0.875   8.014  0.4182  0.1156  0.5675
 1911SOL     OW17194   2.274   2.851   8.334  0.0814 -0.8805  0.3610
 1911SOL    HW117195   2.196   2.801   8.311  0.0453 -1.2965  1.4305
 1911SOL    HW217196   2.317   2.783   8.385 -2.6573 -1.5030  1.8385
 1912SOL     OW17197   4.181   4.303   7.067 -0.2691 -0.1903 -0.4417
 1912SOL    HW117198   4.167   4.334   6.977 -1.4968  1.8494  0.4450
 1912SOL    HW217199   4.210   4.385   7.106 -0.8504  0.4432 -1.3252
 1913SOL     OW17200   2.313   3.342  12.995  0.6731  0.7472 -0.1390
 1913SOL    HW117201   2.321   3.283  13.070  0.4064  0.1870 -0.5451
 1913SOL    HW217202   2.403   3.371  12.990  0.3089  1.7316 -0.9028
 1914SOL     OW17203   1.073   2.647  10.902 -0.2795  0.4534  0.5461
 1914SOL    HW117204   1.021   2.634  10.982 -1.8925  2.3694 -0.1815
 1914SOL    HW217205   1.108   2.559  10.890  0.8647  0.8372  1.1254
 1915SOL     OW17206   1.273   4.347   7.773  0.2012 -0.1815  0.0078
 1915SOL    HW117207   1.190   4.367   7.729 -0.4837  0.2820  1.4929
 1915SOL    HW217208   1.255   4.376   7.863 -1.1635 -2.2078  0.3950
 1916SOL     OW17209   0.511   3.102   2.677  0.8584  0.0722 -0.1574
 1916SOL    HW117210   0.454   3.155   2.621 -0.9629 -1.4382  0.2836
 1916SOL    HW217211   0.559   3.041   2.620 -2.0925 -0.8100 -1.6964
 1917SOL     OW17212   1.487   0.861   2.946  0.1766 -0.5015 -0.7553
 1917SOL    HW117213   1.581   0.846   2.943  0.0900 -1.1007 -0.5668
 1917SOL    HW217214   1.480   0.878   3.040  1.3797 -0.0292 -0.7550
 1918SOL     OW17215   0.708   0.599  16.972  0.0533 -0.1606  0.1288
 1918SOL    HW117216   0.749   0.685  16.979 -0.7484  0.1338  1.2511
 1918SOL    HW217217   0.777   0.554  16.923 -0.2362 -0.8777  0.3802
 1919SOL     OW17218   2.787   0.040  10.569  0.1883 -0.0742  0.4200
 1919SOL    HW117219   2.760   0.060  10.479 -0.1670 -0.5644  0.4178
 1919SOL    HW217220   2.722   0.095  10.612 -1.7225 -1.8119 -0.2328
 1920SOL     OW17221   4.034   3.114   1.418  0.1525 -0.7511  0.2876
 1920SOL    HW117222   4.097   3.062   1.468  0.9929 -1.0166 -1.0395
 1920SOL    HW217223   3.961   3.111   1.479  0.0017  0.5719  0.1694
 1921SOL     OW17224   4.200   2.335   3.473  0.0289 -0.8295  0.6352
 1921SOL    HW117225   4.167   2.297   3.555  1.0865 -0.7004  1.1276
 1921SOL    HW217226   4.291   2.304   3.465  0.2671 -0.0385  0.2611
 1922SOL     OW17227   0.275   3.057   1.162 -0.1126 -0.4193 -0.0388
 1922SOL    HW117228   0.315   2.973   1.139  0.3799 -0.2522  0.2259
 1922SOL    HW217229   0.339   3.117   1.124  0.7864 -0.1666  1.8673
 1923SOL     OW17230   3.221   0.235  16.202  0.4360 -0.0462  0.7332
 1923SOL    HW117231   3.226   0.243  16.297 -0.1992  0.3907  0.7222
 1923SOL    HW217232   3.202   0.326  16.182 -0.1677 -0.4156 -0.3719
 1924SOL     OW17233   4.049   0.320   5.751  0.2236 -0.6730  0.2667
 1924SOL    HW117234   4.037   0.415   5.746 -2.9674 -1.0885  0.0840
 1924SOL    HW217235   4.034   0.307   5.845  1.7109  1.4384  0.7910
 1925SOL     OW17236   4.220   2.763   8.146 -0.7880  0.2536 -0.4846
 1925SOL    HW117237   4.173   2.786   8.225  0.7014  0.1997  0.4237
 1925SOL    HW217238   4.153   2.707   8.108  1.6628 -3.5995  0.8143
 1926SOL     OW17239   3.382   1.941   7.156  0.1147 -0.0636  0.7820
 1926SOL    HW117240   3.351   1.851   7.163  0.4190 -0.2672 -0.4738
 1926SOL    HW217241   3.442   1.944   7.081 -0.0404 -0.5245  0.6415
 1927SOL     OW17242   1.943   2.199   7.227  0.5133 -0.3324 -0.5435
 1927SOL    HW117243   1.861   2.247   7.221  0.3658 -0.1655  2.7768
 1927SOL    HW217244   1.963   2.237   7.313 -2.0182  0.3079 -0.2315
 1928SOL     OW17245   2.950   2.965   1.731  0.1796 -0.5230 -0.6082
 1928SOL    HW117246   2.969   2.921   1.814 -0.3744 -1.0532 -0.7660
 1928SOL    HW217247   2.945   2.888   1.674 -2.3210 -1.1939  0.5402
 1929SOL     OW17248   0.661   1.313   2.867 -0.1178  1.0577  0.1308
 1929SOL    HW117249   0.635   1.405   2.868  0.4299  1.2226 -0.3936
 1929SOL    HW217250   0.615   1.282   2.945 -0.1119  1.7413  0.4060
 1930SOL     OW17251   4.119   0.738   3.334  0.5024  0.4427 -0.3338
 1930SOL    HW117252   4.192   0.762   3.391  1.0675  0.5785 -1.1205
 1930SOL    HW217253   4.154   0.688   3.259  0.6448  0.0767 -0.0253
 1931SOL     OW17254   3.132   2.867   9.587 -0.6214 -0.2614  0.3630
 1931SOL    HW117255   3.182   2.920   9.649  1.0875 -1.3735 -0.0663
 1931SOL    HW217256   3.189   2.879   9.511  0.5981 -1.4750  1.0781
 1932SOL     OW17257   4.694   3.272   5.745  0.3548 -0.2651  0.1092
 1932SOL    HW117258   4.707   3.177   5.755  1.2669 -0.0821  0.6500
 1932SOL    HW217259   4.605   3.284   5.712  0.2704  0.0849  0.4718
 1933SOL     OW17260   3.146   3.898   7.585 -0.4077  0.2635 -0.2856
 1933SOL    HW117261   3.052   3.915   7.592 -0.1861  1.0077  0.8980
 1933SOL    HW217262   3.146   3.804   7.607 -0.3525  0.5731  1.0263
 1934SOL     OW17263   2.731   1.909   6.847  0.2107 -0.5766  0.4368
 1934SOL    HW117264   2.786   1.832   6.833 -2.1735 -2.1344 -0.3624
 1934SOL    HW217265   2.794   1.953   6.903  1.8987 -0.0231 -1.8946
 1935SOL     OW17266   4.614   2.562  17.540 -0.5762 -0.3700 -0.1261
 1935SOL    HW117267   4.548   2.605  17.486 -0.1026 -1.4103 -1.5381
 1935SOL    HW217268   4.689   2.611  17.507  0.0482 -1.2949 -0.0839
 1936SOL     OW17269   1.024   2.917  12.825 -0.5675 -0.0663 -0.0855
 1936SOL    HW117270   1.076   2.858  12.771  2.4251  3.4845 -1.1239
 1936SOL    HW217271   1.024   2.994  12.768  1.1907  0.6804  0.9300
 1937SOL     OW17272   1.997   3.089   6.483 -0.6210 -0.0984  0.5216
 1937SOL    HW117273   2.062   3.042   6.536 -0.7982 -0.6636  0.2288
 1937SOL    HW217274   1.987   3.178   6.517 -1.7352 -0.0382  0.0419
 1938SOL     OW17275   2.959   4.158   4.298  0.4413 -0.5238  0.0708
 1938SOL    HW117276   3.037   4.174   4.245 -0.7460  2.5438 -0.7493
 1938SOL    HW217277   2.920   4.103   4.230 -0.7441 -0.2722  0.5417
 1939SOL     OW17278   1.655   2.390   8.328 -0.6741  0.0575 -0.1889
 1939SOL    HW117279   1.563   2.412   8.312 -1.1052 -1.5529  0.1250
 1939SOL    HW217280   1.629   2.320   8.388  1.1291 -1.1977 -0.8895
 1940SOL     OW17281   0.425   0.472   2.431  0.0361 -0.3467 -0.1078
 1940SOL    HW117282   0.470   0.391   2.455  1.0208  0.1420 -0.2992
 1940SOL    HW217283   0.360   0.477   2.501  0.2133 -0.4680  0.0650
 1941SOL     OW17284   4.101   4.119   7.238  0.1093  0.2401  0.1297
 1941SOL    HW117285   4.024   4.076   7.201 -0.0515  0.9461 -0.3589
 1941SOL    HW217286   4.105   4.198   7.185 -0.3926 -1.8219 -2.9878
 1942SOL     OW17287   1.704   2.720   4.220 -0.2990  0.2975  0.7236
 1942SOL    HW117288   1.697   2.731   4.125  3.3160 -2.3392  0.1519
 1942SOL    HW217289   1.776   2.780   4.235  0.8250 -1.5818  2.8352
 1943SOL     OW17290   0.402   0.009   4.213 -0.2235 -1.2786  0.2213
 1943SOL    HW117291   0.334   0.062   4.172  1.2383  0.1960 -0.3026
 1943SOL    HW217292   0.390   4.647   4.172 -2.4252 -1.1057  0.5504
 1944SOL     OW17293   2.445   2.620   6.250  0.2496  0.1351  0.0156
 1944SOL    HW117294   2.520   2.652   6.301  0.3582  1.8188 -1.1962
 1944SOL    HW217295   2.393   2.696   6.225 -1.5585 -0.9911  0.4130
 1945SOL     OW17296   2.038   0.040   6.657  0.4204 -0.3790 -0.3223
 1945SOL    HW117297   2.103   0.000   6.716  0.6020  0.2900 -0.0663
 1945SOL    HW217298   1.953   0.026   6.699  0.0778 -0.0858 -0.9225
 1946SOL     OW17299   4.614   1.684   3.259 -0.8771 -0.4671 -0.1574
 1946SOL    HW117300   4.583   1.663   3.347 -0.8106  2.0298  0.4571
 1946SOL    HW217301   4.629   1.601   3.215 -0.2906  0.3186 -1.4498
 1947SOL     OW17302   3.820   3.940  10.621 -0.0069 -0.1549  0.2184
 1947SOL    HW117303   3.757   3.922  10.550  0.3781 -0.4730 -0.0408
 1947SOL    HW217304   3.756   3.975  10.683  0.4169  0.1621  0.4784
 1948SOL     OW17305   2.464   1.533   5.827 -0.1755 -0.4241 -0.3485
 1948SOL    HW117306   2.549   1.545   5.868  0.4868 -0.8690 -1.6138
 1948SOL    HW217307   2.407   1.592   5.877 -0.6325 -1.2170  0.0626
 1949SOL     OW17308   3.963   0.337   7.607  0.3755 -0.3587 -0.4024
 1949SOL    HW117309   4.051   0.316   7.575  1.2320 -0.4125  1.9217
 1949SOL    HW217310   3.975   0.428   7.632  0.2212  0.1536 -2.2114
 1950SOL     OW17311   0.013   1.348   7.532 -0.5391 -0.1307 -0.2760
 1950SOL    HW117312   4.665   1.379   7.477 -0.2546 -0.4599 -0.8296
 1950SOL    HW217313   0.091   1.396   7.502  0.3089 -2.0992 -1.1614
 1951SOL     OW17314   1.275   0.883   2.747  0.0627 -0.5887 -0.0263
 1951SOL    HW117315   1.354   0.853   2.792  0.6634  2.3667  0.8675
 1951SOL    HW217316   1.310   0.947   2.685 -0.1306 -0.2237  0.2421
 1952SOL     OW17317   4.425   4.156  16.336  0.4452  0.5305 -0.0546
 1952SOL    HW117318   4.366   4.164  16.411 -0.4417  1.1665 -0.8040
 1952SOL    HW217319   4.439   4.061  16.334 -0.2806  0.4200  0.0448
 1953SOL     OW17320   4.378   1.868   6.393  0.1764 -0.1981  0.1258
 1953SOL    HW117321   4.297   1.863   6.445  0.1923 -3.2249 -0.1145
 1953SOL    HW217322   4.332   1.869   6.309  2.8764  2.9663 -1.2993
 1954SOL     OW17323   1.384   4.084   5.288  0.3182 -0.0756 -0.3169
 1954SOL    HW117324   1.401   4.124   5.203 -0.3713  2.2542  0.6468
 1954SOL    HW217325   1.325   4.152   5.319  0.0118  0.2379 -1.6209
 1955SOL     OW17326   3.303   3.903  13.842 -0.2586  0.6491  0.1215
 1955SOL    HW117327   3.233   3.845  13.811 -0.3192  0.9592 -0.3191
 1955SOL    HW217328   3.297   3.971  13.775 -1.3784  0.8549  0.4313
 1956SOL     OW17329   3.098   3.682  12.995  0.2690  0.1832 -0.8400
 1956SOL    HW117330   3.148   3.616  13.043 -0.3997 -1.2286 -2.0965
 1956SOL    HW217331   3.170   3.745  12.990  0.8836 -0.5871 -1.7056
 1957SOL     OW17332   0.881   4.104   0.226 -0.3090  0.0079 -0.4199
 1957SOL    HW117333   0.873   4.071   0.137  1.4750 -1.8252  0.1068
 1957SOL    HW217334   0.825   4.042   0.272 -1.4591 -0.1505 -2.0346
 1958SOL     OW17335   2.879   2.931   9.584  0.5472  0.5097  0.0341
 1958SOL    HW117336   2.971   2.908   9.592  0.5017  1.0239  2.0653
 1958SOL    HW217337   2.874   2.966   9.673 -0.2047 -0.3543  0.3316
 1959SOL     OW17338   2.716   4.642  17.406  0.6155  0.2009  0.2635
 1959SOL    HW117339   2.701   4.553  17.437  0.8505 -0.0541 -0.3680
 1959SOL    HW217340   2.731   4.696  17.484 -0.7440  1.8234 -0.5913
 1960SOL     OW17341   4.710   0.096   8.753 -0.5345  0.0821 -0.2463
 1960SOL    HW117342   4.668   0.170   8.796 -0.5731  0.4915 -0.9824
 1960SOL    HW217343   0.073   0.135   8.741 -0.4076 -0.8401 -2.4823
 1961SOL     OW17344   0.472   2.922   2.913  0.3037 -0.0875 -0.5266
 1961SOL    HW117345   0.496   2.975   2.836  1.2244  0.6533  0.2699
 1961SOL    HW217346   0.398   2.870   2.882  1.0145 -1.0539 -0.5724
 1962SOL     OW17347   4.609   1.056  13.739 -0.0492  0.3245  0.3154
 1962SOL    HW117348   4.520   1.022  13.742  0.2448 -0.6529 -1.6285
 1962SOL    HW217349   4.637   1.007  13.661  0.9307  2.8325 -0.9293
 1963SOL     OW17350   2.045   2.207   5.265 -0.3371  0.1109 -0.6675
 1963SOL    HW117351   2.034   2.189   5.172 -0.3107 -1.6339 -0.3334
 1963SOL    HW217352   2.125   2.159   5.288  0.6523  1.6784 -0.8828
 1964SOL     OW17353   3.297   0.405  15.670  0.3229 -0.2763 -0.1242
 1964SOL    HW117354   3.258   0.346  15.606  1.9330  0.4024 -1.7471
 1964SOL    HW217355   3.320   0.483  15.620  1.9148 -0.1462  0.8141
 1965SOL     OW17356   1.347   0.824   5.061 -0.4035 -0.6411 -1.0285
 1965SOL    HW117357   1.379   0.805   5.149 -0.5232  2.8557 -0.2325
 1965SOL    HW217358   1.277   0.888   5.076  0.4008 -0.4919  2.1876
 1966SOL     OW17359   4.113   3.955   3.980 -0.3905 -0.3490 -0.3588
 1966SOL    HW117360   4.087   4.034   3.932 -1.7975 -0.4637  0.2163
 1966SOL    HW217361   4.033   3.948   4.031 -0.3299  1.1770 -0.0316
 1967SOL     OW17362   0.482   0.064  14.849 -0.2098 -0.1396 -0.4632
 1967SOL    HW117363   0.511   0.123  14.919 -0.3562 -0.6306  0.0090
 1967SOL    HW217364   0.436   0.120  14.786  1.5739  0.2389 -1.4530
 1968SOL     OW17365   2.640   3.171  13.381  0.5628 -0.3611  0.2332
 1968SOL    HW117366   2.622   3.099  13.320 -0.9487  0.2919 -0.0903
 1968SOL    HW217367   2.569   3.232  13.361 -0.9193 -1.4548  2.1334
 1969SOL     OW17368   0.769   3.877  11.152  0.5184  0.2019 -0.2435
 1969SOL    HW117369   0.775   3.935  11.228 -0.2502  1.3934 -1.0922
 1969SOL    HW217370   0.676   3.891  11.133  0.3209  1.2735  1.4684
 1970SOL     OW17371   0.480   1.748  13.039  0.4852  0.1811  0.4024
 1970SOL    HW117372   0.532   1.820  13.003  1.1550 -1.7289 -2.5263
 1970SOL    HW217373   0.417   1.794  13.093  0.9510  0.2952  0.8430
 1971SOL     OW17374   4.711   2.801   5.623 -0.7933  0.1563 -0.1720
 1971SOL    HW117375   0.024   2.768   5.705 -1.7106  0.9010  0.5366
 1971SOL    HW217376   4.682   2.726   5.572 -0.0768  1.3382 -2.2982
 1972SOL     OW17377   2.403   0.444   3.871  0.8963 -0.2889  0.1081
 1972SOL    HW117378   2.349   0.497   3.811 -1.0412 -1.1911  1.0417
 1972SOL    HW217379   2.483   0.495   3.885  0.6987  0.0441  0.0440
 1973SOL     OW17380   1.809   1.547  12.602 -0.4908 -0.0778  0.3383
 1973SOL    HW117381   1.848   1.479  12.658 -1.3405 -1.6893 -1.0095
 1973SOL    HW217382   1.884   1.579  12.551  0.4632 -1.6800  0.7319
 1974SOL     OW17383   2.767   0.387   7.102 -0.3454  0.1399  0.7818
 1974SOL    HW117384   2.688   0.397   7.049  0.8834  0.2502 -1.0672
 1974SOL    HW217385   2.800   0.314   7.049 -0.9992  1.0108 -0.8419
 1975SOL     OW17386   3.224   2.772   1.557 -0.6109  0.4864 -0.8762
 1975SOL    HW117387   3.142   2.793   1.512 -1.9872 -2.0201  0.4538
 1975SOL    HW217388   3.264   2.853   1.527  3.1256 -0.9722  0.1721
 1976SOL     OW17389   2.976   3.435   1.284 -0.6046  0.0572  0.1953
 1976SOL    HW117390   2.980   3.479   1.199  0.1760  0.4076  0.4170
 1976SOL    HW217391   2.886   3.403   1.289 -0.6674 -0.3562 -3.5561
 1977SOL     OW17392   2.669   0.214   4.386 -0.0446 -0.1004  0.5544
 1977SOL    HW117393   2.718   0.266   4.323 -0.1275  0.1177  0.6699
 1977SOL    HW217394   2.731   0.143   4.403  0.5831  0.6006  1.1545
 1978SOL     OW17395   0.255   0.712  13.541  0.6797 -0.9608  0.1830
 1978SOL    HW117396   0.232   0.702  13.634  1.2785  0.4175  0.4707
 1978SOL    HW217397   0.228   0.625  13.510  0.7086 -0.3164 -1.6109
 1979SOL     OW17398   3.879   1.775   8.699 -0.2877  0.3294  0.3795
 1979SOL    HW117399   3.929   1.798   8.778  0.8068 -2.3634  0.4617
 1979SOL    HW217400   3.842   1.694   8.734  1.8321 -1.7085 -2.1126
 1980SOL     OW17401   1.561   0.917   8.959 -0.1794 -0.4580 -0.5743
 1980SOL    HW117402   1.650   0.931   8.992 -0.2504  0.6780 -0.8519
 1980SOL    HW217403   1.507   0.877   9.027  1.1870  1.6555  1.7714
 1981SOL     OW17404   3.804   4.027  16.883 -0.0622  0.3384  0.1471
 1981SOL    HW117405   3.776   4.049  16.972  0.2839  3.3365 -0.4635
 1981SOL    HW217406   3.718   3.994  16.858 -0.4729 -0.2701  2.3921
 1982SOL     OW17407   2.730   2.360   6.754 -0.0653 -0.7073 -0.1875
 1982SOL    HW117408   2.673   2.403   6.690 -1.1345 -0.7865  0.7036
 1982SOL    HW217409   2.738   2.429   6.821  1.5326 -0.2959 -0.8195
 1983SOL     OW17410   0.792   2.132   7.086 -0.3534 -0.5111 -0.2581
 1983SOL    HW117411   0.759   2.210   7.130  0.1763  0.2327 -1.2057
 1983SOL    HW217412   0.850   2.106   7.157  0.1194 -0.5900 -0.6754
 1984SOL     OW17413   1.883   3.760   4.299  0.0922  0.3581  0.2123
 1984SOL    HW117414   1.863   3.723   4.385 -1.8227 -2.3158 -1.3821
 1984SOL    HW217415   1.906   3.686   4.244 -0.3188  0.4108 -0.0341
 1985SOL     OW17416   2.263   3.018   4.244  0.2202 -0.4396  0.1206
 1985SOL    HW117417   2.194   3.083   4.258  0.0310 -0.4995 -0.4973
 1985SOL    HW217418   2.235   2.993   4.155  0.9714  2.4301 -0.9251
 1986SOL     OW17419   1.846   1.046   6.955  0.2456 -0.0851 -0.0420
 1986SOL    HW117420   1.932   1.048   6.996  0.2237 -1.1532  0.0604
 1986SOL    HW217421   1.811   0.963   6.986  0.7090  0.4826  1.9517
 1987SOL     OW17422   3.711   1.155   8.460  0.5246 -0.2349 -0.1903
 1987SOL    HW117423   3.697   1.238   8.506 -1.3570 -0.3390 -0.5804
 1987SOL    HW217424   3.633   1.105   8.484  0.2056  1.0438  1.4680
 1988SOL     OW17425   2.103   0.663  11.836 -0.0550 -0.5530 -0.0953
 1988SOL    HW117426   2.166   0.665  11.908 -0.8258 -0.1087  0.5601
 1988SOL    HW217427   2.155   0.699  11.764 -1.0102  1.2812  0.1378
 1989SOL     OW17428   3.629   4.180  12.044  0.4624 -0.1002  0.3133
 1989SOL    HW117429   3.541   4.215  12.060 -0.0556 -1.2733  0.0072
 1989SOL    HW217430   3.649   4.121  12.117  3.3788  0.2365 -0.2229
 1990SOL     OW17431   3.431   2.233   5.691  0.0532  0.5494  0.1421
 1990SOL    HW117432   3.471   2.253   5.776  0.5056  4.5316 -1.0054
 1990SOL    HW217433   3.490   2.167   5.654 -2.8713  0.0344 -3.6235
 1991SOL     OW17434   0.091   0.803  14.727  0.4454 -0.0166  0.1628
 1991SOL    HW117435   0.063   0.885  14.685  0.0695 -0.0229  0.4018
 1991SOL    HW217436   0.068   0.735  14.664 -0.9156 -0.7982  1.5052
 1992SOL     OW17437   0.414   4.710   3.290 -0.2479  0.0468 -0.1274
 1992SOL    HW117438   0.425   0.072   3.249  1.8155  1.0338  2.4829
 1992SOL    HW217439   0.333   4.688   3.244 -0.8729  0.8929  0.5628
 1993SOL     OW17440   1.449   2.541   4.960  0.0408  0.5854  0.4441
 1993SOL    HW117441   1.408   2.517   4.877  0.8500  1.3500 -0.1840
 1993SOL    HW217442   1.418   2.468   5.015 -0.1914 -0.2347 -0.7729
 1994SOL     OW17443   2.880   1.143   6.454  0.5489  0.0041  0.1475
 1994SOL    HW117444   2.973   1.128   6.437  0.6299  1.6786 -0.9854
 1994SOL    HW217445   2.897   1.171   6.544  2.2767  0.5136 -0.3249
 1995SOL     OW17446   3.701   3.611  16.644  0.2235 -0.1967  0.2228
 1995SOL    HW117447   3.635   3.564  16.592 -1.0230  3.7692 -1.7473
 1995SOL    HW217448   3.772   3.558  16.607  0.9975  0.9078  0.1275
 1996SOL     OW17449   3.965   3.168  13.913  0.4305 -0.2366 -0.1614
 1996SOL    HW117450   3.931   3.171  14.003  0.8700  3.1963 -0.1323
 1996SOL    HW217451   3.930   3.084  13.882 -0.3194  1.2909 -3.3490
 1997SOL     OW17452   0.895   3.452   4.384 -0.3248  0.1407 -0.1852
 1997SOL    HW117453   0.926   3.488   4.301  0.8773 -0.3679  0.0489
 1997SOL    HW217454   0.804   3.431   4.363 -0.2136 -1.5312  0.9971
 1998SOL     OW17455   3.833   2.508  11.820  0.7295 -0.2223 -0.3901
 1998SOL    HW117456   3.855   2.551  11.903  1.1327 -1.1826  0.0075
 1998SOL    HW217457   3.805   2.424  11.858  1.6889  0.1962  1.2561
 1999SOL     OW17458   4.485   1.433   8.725 -0.0690  0.0072  0.5720
 1999SOL    HW117459   4.460   1.394   8.641 -0.0600 -0.5635  0.8349
 1999SOL    HW217460   4.462   1.524   8.707 -0.3949 -0.4760 -1.4363
 2000SOL     OW17461   0.222   3.557  10.451 -0.2618 -0.6285 -0.0004
 2000SOL    HW117462   0.156   3.625  10.443  0.0735 -0.5390 -2.0657
 2000SOL    HW217463   0.188   3.495  10.515 -0.6719  0.5458  0.8996
 2001SOL     OW17464   2.656   2.723  13.943 -0.1899 -0.1478 -1.0283
 2001SOL    HW117465   2.625   2.634  13.929  0.6255 -0.4663 -0.7842
 2001SOL    HW217466   2.750   2.708  13.944  0.1345  1.7300 -2.3168
 2002SOL     OW17467   4.599   0.548   5.929 -0.2224 -0.5981 -0.2200
 2002SOL    HW117468   4.668   0.482   5.914  1.5987  1.1613  0.3919
 2002SOL    HW217469   4.521   0.495   5.912  0.1314 -0.4466 -2.3631
 2003SOL     OW17470   4.450   3.299   5.565 -0.4042  0.5775  0.1156
 2003SOL    HW117471   4.503   3.373   5.536  0.6995  0.4815  1.9194
 2003SOL    HW217472   4.364   3.341   5.569 -0.0740  1.3924 -1.1809
 2004SOL     OW17473   1.239   3.568   9.441 -0.1653  0.6915 -0.4217
 2004SOL    HW117474   1.195   3.608   9.516  1.0894  0.6748  0.3319
 2004SOL    HW217475   1.200   3.481   9.441 -1.6695  1.3741  0.1285
 2005SOL     OW17476   4.544   3.620   6.946  0.2574 -0.1324  0.7234
 2005SOL    HW117477   4.605   3.551   6.973 -0.4907 -0.9114  0.4005
 2005SOL    HW217478   4.517   3.586   6.861 -0.3207  0.6035  0.6158
 2006SOL     OW17479   4.041   3.229   4.378 -0.3085 -0.4053  0.2845
 2006SOL    HW117480   4.114   3.239   4.317 -0.3753 -0.2206  0.2358
 2006SOL    HW217481   3.980   3.301   4.362 -0.8366 -0.7034  0.9469
 2007SOL     OW17482   4.326   0.717   4.644  0.5847  0.2065  0.0283
 2007SOL    HW117483   4.408   0.766   4.637  1.6025 -1.4895 -0.0046
 2007SOL    HW217484   4.285   0.731   4.558  2.3087  1.2484 -0.6408
 2008SOL     OW17485   3.216   4.183   3.704 -0.2354  0.0557  0.5279
 2008SOL    HW117486   3.182   4.203   3.616 -2.3782  1.3517  1.6653
 2008SOL    HW217487   3.221   4.087   3.710  0.2494  0.1101  0.9385
 2009SOL     OW17488   4.620   0.554   3.498  0.5269 -0.2119  0.1760
 2009SOL    HW117489   4.663   0.613   3.559  1.3486 -2.0608  1.3803
 2009SOL    HW217490   4.691   0.493   3.478 -0.1454 -0.7301 -0.6186
 2010SOL     OW17491   3.023   0.126   6.147  0.3453  0.3535 -0.5344
 2010SOL    HW117492   2.975   0.164   6.073  0.4883 -1.2711 -1.4590
 2010SOL    HW217493   3.115   0.131   6.122  0.4935 -1.4198 -0.3189
 2011SOL     OW17494   3.284   2.796  14.306  0.3340  0.0097 -0.1860
 2011SOL    HW117495   3.270   2.701  14.311  0.2416 -0.0872 -2.2970
 2011SOL    HW217496   3.192   2.822  14.299  0.7211  1.0496 -1.3755
 2012SOL     OW17497   4.274   0.751   8.747 -0.1711 -0.0286 -0.1862
 2012SOL    HW117498   4.264   0.846   8.746  0.3774  0.0312  0.1002
 2012SOL    HW217499   4.179   0.742   8.757 -0.1816  0.7686  0.4066
 2013SOL     OW17500   0.955   1.350   7.840  0.0635  0.1764 -0.0014
 2013SOL    HW117501   0.920   1.411   7.775 -0.1715 -0.6562 -0.6396
 2013SOL    HW217502   0.875   1.297   7.837  1.1831 -1.5784  1.3760
 2014SOL     OW17503   1.362   2.732   7.639 -0.1776  0.2807 -0.3972
 2014SOL    HW117504   1.320   2.755   7.721 -1.9846  3.3095 -2.2044
 2014SOL    HW217505   1.451   2.761   7.657 -0.0997  0.3208 -0.8388
 2015SOL     OW17506   1.402   4.160  10.969  0.2332 -0.2707  0.3003
 2015SOL    HW117507   1.449   4.144  10.887 -0.2149 -0.7415  0.1420
 2015SOL    HW217508   1.367   4.073  10.987  1.5965 -0.2438  3.0886
 2016SOL     OW17509   2.866   2.864  10.588  0.0879 -0.1778 -0.3656
 2016SOL    HW117510   2.828   2.830  10.669  1.8683 -0.0883  0.5050
 2016SOL    HW217511   2.932   2.925  10.621 -1.1497  0.6519  0.5869
 2017SOL     OW17512   3.445   0.781   0.350 -0.2611 -0.2285  0.2154
 2017SOL    HW117513   3.531   0.808   0.317 -0.8144  0.8169 -0.3746
 2017SOL    HW217514   3.394   0.862   0.345 -0.3918 -0.4178 -1.5711
 2018SOL     OW17515   3.810   4.262   0.870  0.0934 -0.4139 -0.2427
 2018SOL    HW117516   3.821   4.322   0.944 -0.5381 -0.2256 -0.2981
 2018SOL    HW217517   3.726   4.294   0.836 -0.0714 -1.1553 -0.5383
 2019SOL     OW17518   0.158   4.130   5.543 -0.1291  0.5912  0.4503
 2019SOL    HW117519   0.175   4.151   5.451 -1.4942 -2.7338 -0.5446
 2019SOL    HW217520   0.199   4.046   5.560  1.2206  1.1908  0.1463
 2020SOL     OW17521   4.245   2.347   2.146  0.0987  0.0192 -0.1952
 2020SOL    HW117522   4.288   2.285   2.206 -0.2934 -1.5417 -1.5528
 2020SOL    HW217523   4.299   2.419   2.178  0.1484  0.9577 -2.4622
 2021SOL     OW17524   2.125   4.053   7.931  0.0015  0.1250 -0.1623
 2021SOL    HW117525   2.096   4.069   8.021  0.1859  0.6222 -0.1912
 2021SOL    HW217526   2.176   4.132   7.914 -0.5431  0.0639 -2.0667
 2022SOL     OW17527   3.593   3.934  10.809 -0.5661 -0.3250  0.2792
 2022SOL    HW117528   3.530   3.882  10.858  2.4970 -1.2488  3.2485
 2022SOL    HW217529   3.535   3.993  10.760 -0.2344 -1.0341 -0.9832
 2023SOL     OW17530   3.436   1.512   3.502 -0.8773  0.5315  0.1176
 2023SOL    HW117531   3.348   1.487   3.472 -0.1043 -0.6542 -1.2182
 2023SOL    HW217532   3.452   1.471   3.587 -0.2238  0.7230  0.0902
 2024SOL     OW17533   3.549   0.728   3.171  0.5616  0.2824 -0.2256
 2024SOL    HW117534   3.524   0.781   3.246 -0.6050  0.5457 -0.8122
 2024SOL    HW217535   3.622   0.685   3.216 -1.1209 -0.2575  1.9502
 2025SOL     OW17536   2.810   1.417   7.041  0.9267 -0.3274  0.1009
 2025SOL    HW117537   2.817   1.480   6.970 -0.7087  0.7031  0.8749
 2025SOL    HW217538   2.838   1.476   7.111 -0.1241  0.3489 -0.0523
 2026SOL     OW17539   0.657   2.081  10.581 -0.4217  0.5102  0.4067
 2026SOL    HW117540   0.641   2.142  10.509  4.7483 -0.6837 -1.7072
 2026SOL    HW217541   0.747   2.100  10.607  1.0510 -1.8165 -2.8675
 2027SOL     OW17542   4.251   3.997  14.935 -0.0680  0.1753  0.1396
 2027SOL    HW117543   4.209   3.936  14.875  1.4214  0.8826 -1.6417
 2027SOL    HW217544   4.261   4.074  14.878 -1.0571  0.5733  0.5193
 2028SOL     OW17545   0.974   3.001   3.897  0.7074  0.6987 -0.3231
 2028SOL    HW117546   1.013   3.064   3.958  2.2071  0.5196 -1.1021
 2028SOL    HW217547   0.893   2.976   3.941  0.8666 -0.1370 -0.4929
 2029SOL     OW17548   4.553   0.927  17.491 -0.0793 -0.1120 -0.1713
 2029SOL    HW117549   4.507   0.960  17.569 -0.0827  0.3707 -0.3764
 2029SOL    HW217550   4.537   1.000  17.431  0.6934  1.3348  1.3824
 2030SOL     OW17551   2.982   3.770   8.958  0.3562 -0.1011 -0.0643
 2030SOL    HW117552   2.995   3.742   8.868  1.5211  1.3502 -0.3524
 2030SOL    HW217553   3.073   3.794   8.976  0.1649  0.7876 -0.2492
 2031SOL     OW17554   1.899   3.415   5.428 -0.4073 -0.6578  0.0572
 2031SOL    HW117555   1.856   3.358   5.492 -0.5630  0.7203  1.1665
 2031SOL    HW217556   1.840   3.399   5.354 -0.3637 -1.4036  0.1844
 2032SOL     OW17557   1.986   2.683   2.136  0.0387 -0.4153  0.3713
 2032SOL    HW117558   1.949   2.740   2.204  2.2116 -1.0976  2.1079
 2032SOL    HW217559   2.064   2.738   2.129 -0.9456  1.0953  1.1425
 2033SOL     OW17560   2.980   1.952   2.618  0.1258  0.0116 -0.1646
 2033SOL    HW117561   2.981   1.871   2.669 -0.5361  0.7042  0.9504
 2033SOL    HW217562   2.889   1.963   2.589  0.1927  0.3792 -0.2360
 2034SOL     OW17563   1.129   3.048   7.537 -0.0790  0.2236 -0.4734
 2034SOL    HW117564   1.084   3.094   7.608 -0.6816  0.2538 -0.8717
 2034SOL    HW217565   1.219   3.041   7.570 -1.0179  1.5233  2.4080
 2035SOL     OW17566   1.465   0.873   6.440  0.1483  0.1481  0.3999
 2035SOL    HW117567   1.429   0.879   6.529 -1.9388  0.1019 -0.4391
 2035SOL    HW217568   1.390   0.839   6.391  0.5069  2.3865 -1.7068
 2036SOL     OW17569   1.256   3.625  11.722  0.1282  0.1936  0.7620
 2036SOL    HW117570   1.325   3.594  11.781 -1.1969  0.1988  2.3217
 2036SOL    HW217571   1.171   3.591  11.751 -0.0047 -1.3771 -1.5224
 2037SOL     OW17572   2.603   2.443  16.160 -0.2699 -0.0698  0.1827
 2037SOL    HW117573   2.527   2.385  16.154 -0.1413 -0.5061  3.0078
 2037SOL    HW217574   2.673   2.393  16.119  1.0653  0.9072  1.2618
 2038SOL     OW17575   0.336   3.042   3.377  0.5830  0.3086 -0.2351
 2038SOL    HW117576   0.397   3.115   3.362  1.8808 -0.6830  0.1881
 2038SOL    HW217577   0.389   2.972   3.338  0.8638 -0.9546  2.4488
 2039SOL     OW17578   1.506   4.425   3.895  0.1555 -0.3350  0.3042
 2039SOL    HW117579   1.567   4.352   3.882  0.9458  0.7501 -1.8586
 2039SOL    HW217580   1.461   4.444   3.813 -1.7366  0.3383  1.5084
 2040SOL     OW17581   1.576   3.083   6.830 -0.1847  0.1782 -0.7042
 2040SOL    HW117582   1.598   3.173   6.806 -2.3461  0.4900 -1.4584
 2040SOL    HW217583   1.576   3.082   6.926 -1.8861  0.5775 -0.7059
 2041SOL     OW17584   1.647   1.281   8.562  0.2823 -0.1999  0.3398
 2041SOL    HW117585   1.593   1.274   8.483  0.2966 -0.5050  0.3581
 2041SOL    HW217586   1.616   1.203   8.609 -2.0199  0.7116  0.3183
 2042SOL     OW17587   0.525   0.573  15.262 -0.1789  0.2932 -0.1770
 2042SOL    HW117588   0.592   0.593  15.197 -1.7920 -1.3646 -2.3523
 2042SOL    HW217589   0.448   0.563  15.205 -1.1573 -0.6748  1.2957
 2043SOL     OW17590   2.481   4.173  10.945  0.4113  0.0946 -0.1814
 2043SOL    HW117591   2.541   4.119  10.996 -0.1824 -1.8879 -1.5840
 2043SOL    HW217592   2.539   4.183  10.870  1.3077 -0.3495  0.4535
 2044SOL     OW17593   4.309   3.248   8.431  0.3755 -0.6129 -0.4263
 2044SOL    HW117594   4.342   3.335   8.408  2.0166 -1.5729 -1.6314
 2044SOL    HW217595   4.231   3.273   8.482  1.6367  0.4616  1.0055
 2045SOL     OW17596   2.386   4.296   0.561  0.5801  0.5991  0.5420
 2045SOL    HW117597   2.336   4.339   0.630  1.0860  0.6895  0.8520
 2045SOL    HW217598   2.435   4.235   0.616 -0.2812 -2.3157 -1.9335
 2046SOL     OW17599   1.409   1.627  15.386 -0.5089 -0.3357 -0.2850
 2046SOL    HW117600   1.369   1.672  15.461 -1.3048  0.5903 -1.2674
 2046SOL    HW217601   1.336   1.606  15.328  0.6121 -0.2463 -1.7156
 2047SOL     OW17602   4.593   3.098   2.574 -0.1481  0.1061  0.4141
 2047SOL    HW117603   4.629   3.186   2.586 -1.4843  0.3878  2.2627
 2047SOL    HW217604   4.659   3.047   2.527  0.5196  1.1565  0.2158
 2048SOL     OW17605   3.336   2.076  11.760 -0.7793 -0.3133 -0.0532
 2048SOL    HW117606   3.293   2.041  11.682  0.2577 -0.6473 -0.4772
 2048SOL    HW217607   3.313   2.169  11.760  0.6538  0.0447  0.3161
 2049SOL     OW17608   0.170   4.154   3.476 -0.1833  0.4837 -0.0738
 2049SOL    HW117609   0.207   4.185   3.393  0.2281  3.2116  1.1013
 2049SOL    HW217610   0.116   4.085   3.438 -1.1086  2.2996 -2.0738
 2050SOL     OW17611   0.129   0.181  15.781 -0.4344  0.8230  0.4583
 2050SOL    HW117612   0.043   0.220  15.763 -1.1519 -1.7732 -1.6635
 2050SOL    HW217613   0.132   0.206  15.873 -0.0198 -2.5197  1.3300
 2051SOL     OW17614   4.186   4.125   5.270  0.0520 -0.1900  0.2781
 2051SOL    HW117615   4.117   4.145   5.206 -0.6367 -0.6699  0.8749
 2051SOL    HW217616   4.134   4.078   5.335 -0.4281 -1.4915 -1.0413
 2052SOL     OW17617   2.579   4.447  12.019  0.1637 -0.3755  0.0106
 2052SOL    HW117618   2.495   4.430  11.976 -0.5215  0.2095  1.1336
 2052SOL    HW217619   2.573   4.519  12.081 -0.3450  0.1142 -0.6131
 2053SOL     OW17620   1.103   2.774   8.227 -0.2576 -0.4045  0.3301
 2053SOL    HW117621   1.182   2.822   8.249 -2.2200  2.1595  1.7622
 2053SOL    HW217622   1.134   2.684   8.216 -0.3439 -0.0538 -2.8546
 2054SOL     OW17623   2.900   2.775   5.839 -0.4010  0.6809 -0.5692
 2054SOL    HW117624   2.925   2.692   5.880  0.9230  0.8596 -1.0102
 2054SOL    HW217625   2.913   2.833   5.914  0.9328 -1.4736  0.8739
 2055SOL     OW17626   4.501   0.456   6.567  0.3794 -0.1277  0.4130
 2055SOL    HW117627   4.559   0.388   6.533  0.4602 -0.8230  1.9700
 2055SOL    HW217628   4.473   0.491   6.482 -2.7978 -0.2404  1.3802
 2056SOL     OW17629   2.794   2.773  14.275  0.2424  0.0922 -0.2373
 2056SOL    HW117630   2.753   2.847  14.230  0.1441  0.8340  1.0624
 2056SOL    HW217631   2.760   2.691  14.241  1.6629  0.2560 -2.1005
 2057SOL     OW17632   1.142   2.932   4.454 -0.3302  0.9049 -0.2488
 2057SOL    HW117633   1.058   2.950   4.496  0.0524  0.3103  0.7778
 2057SOL    HW217634   1.196   2.901   4.526  2.1051  1.4198 -1.8299
 2058SOL     OW17635   3.604   0.244   0.091 -0.3142  0.3377 -0.3224
 2058SOL    HW117636   3.516   0.218   0.117  0.8619 -2.0528  1.3402
 2058SOL    HW217637   3.646   0.252   0.177  0.0469 -0.7574 -0.3935
 2059SOL     OW17638   0.610   3.682  16.500  0.0411  0.4141 -0.3866
 2059SOL    HW117639   0.703   3.678  16.478 -0.3372  0.9589 -2.0669
 2059SOL    HW217640   0.603   3.777  16.498 -1.6067  0.3117  0.4809
 2060SOL     OW17641   3.332   4.266  12.159 -0.6186 -0.1295  0.1843
 2060SOL    HW117642   3.368   4.336  12.213  0.2077 -1.5361  1.4766
 2060SOL    HW217643   3.264   4.311  12.110 -1.5609  1.8474  3.2956
 2061SOL     OW17644   2.627   0.015   2.995  0.3377 -0.1201  0.0108
 2061SOL    HW117645   2.548   0.018   2.941 -0.4516  2.7303  1.3161
 2061SOL    HW217646   2.675   4.670   2.948 -2.9158 -2.9477  0.7713
 2062SOL     OW17647   0.805   0.896   6.837 -0.4275  0.2708  0.2159
 2062SOL    HW117648   0.734   0.933   6.784 -1.5233  1.5472  2.5821
 2062SOL    HW217649   0.830   0.824   6.779 -0.5197  0.4010  0.0151
 2063SOL     OW17650   2.438   4.711   4.882  0.1595  1.1302  0.1746
 2063SOL    HW117651   2.372   0.017   4.944 -0.5757  0.2098 -0.1638
 2063SOL    HW217652   2.472   4.649   4.946 -1.0533 -0.9280 -1.1497
 2064SOL     OW17653   3.460   3.133   6.970  0.4803 -0.5957 -0.3495
 2064SOL    HW117654   3.532   3.105   6.913  0.5295 -0.5496 -0.3095
 2064SOL    HW217655   3.507   3.156   7.050  0.6878  0.9325 -0.9087
 2065SOL     OW17656   1.257   1.082  12.407  0.2454 -0.1241 -0.2102
 2065SOL    HW117657   1.168   1.112  12.387 -0.0218 -0.1734  0.8989
 2065SOL    HW217658   1.236   0.989  12.407 -0.5934  0.0743  0.6704
 2066SOL     OW17659   1.953   3.181  15.239  0.4843 -0.4885  0.2577
 2066SOL    HW117660   1.992   3.186  15.326  0.0876 -1.5139  0.4880
 2066SOL    HW217661   1.961   3.087  15.230  1.4369 -0.3421 -0.3997
 2067SOL     OW17662   2.162   4.581   4.350 -0.0174 -0.2421 -0.8210
 2067SOL    HW117663   2.184   4.659   4.402  3.3126 -0.1592 -2.3851
 2067SOL    HW217664   2.247   4.544   4.325  0.2248  1.3981 -2.4294
 2068SOL     OW17665   0.994   1.233  17.234  0.1063  0.1030 -0.0351
 2068SOL    HW117666   0.950   1.149  17.250 -0.7074  0.6295  0.4817
 2068SOL    HW217667   1.033   1.222  17.147  0.7834 -0.7864  0.3714
 2069SOL     OW17668   0.135   1.018  11.763  0.0640  0.2843 -0.0579
 2069SOL    HW117669   0.150   1.017  11.668 -0.1106  1.7365 -0.0885
 2069SOL    HW217670   0.041   1.037  11.768  0.4879  2.9599 -2.5066
 2070SOL     OW17671   2.146   1.518   9.448 -0.0297 -0.6510 -0.7667
 2070SOL    HW117672   2.174   1.452   9.385  0.3031  0.9659 -2.3089
 2070SOL    HW217673   2.223   1.574   9.455 -1.3950  1.2573 -0.9651
 2071SOL     OW17674   1.999   2.701   7.063  0.0503 -0.3281  0.1643
 2071SOL    HW117675   2.064   2.659   7.119  0.6970  1.2521  0.5911
 2071SOL    HW217676   2.018   2.655   6.981 -0.0607 -0.9013  0.4597
 2072SOL     OW17677   1.975   3.979   8.602 -0.0541  0.1809  0.2598
 2072SOL    HW117678   1.998   3.904   8.547  0.8314  0.0075  0.8574
 2072SOL    HW217679   2.047   3.984   8.666 -0.9025  0.1742  1.2192
 2073SOL     OW17680   3.512   1.383   5.200  0.7245  0.1412 -0.0876
 2073SOL    HW117681   3.471   1.366   5.285  0.0084 -1.7735 -0.8222
 2073SOL    HW217682   3.579   1.315   5.203  0.8055  0.3043  1.4412
 2074SOL     OW17683   0.229   4.132   4.510 -0.1889 -0.1337  0.0462
 2074SOL    HW117684   0.291   4.193   4.469  0.4815 -0.1762  1.0079
 2074SOL    HW217685   0.231   4.067   4.440  1.4300 -0.3981  0.3504
 2075SOL     OW17686   2.796   1.445   3.346 -0.2509  0.8952  0.7156
 2075SOL    HW117687   2.782   1.397   3.264  3.2016 -2.1543  1.8643
 2075SOL    HW217688   2.760   1.532   3.331 -0.0498  0.7948 -0.3321
 2076SOL     OW17689   3.589   3.003   4.480 -0.3399 -0.2697  0.2199
 2076SOL    HW117690   3.616   2.988   4.389 -3.1011 -0.6085 -0.5272
 2076SOL    HW217691   3.497   2.976   4.476 -0.0322 -1.3810  0.4473
 2077SOL     OW17692   4.513   2.239   9.537 -0.0065  0.0646 -0.0086
 2077SOL    HW117693   4.574   2.205   9.603  1.2587  1.4955 -0.4451
 2077SOL    HW217694   4.432   2.244   9.588 -0.6301 -1.1115 -0.9058
 2078SOL     OW17695   4.471   4.395   1.566 -0.4357  0.5505 -0.2343
 2078SOL    HW117696   4.466   4.490   1.550 -0.0033  0.8940  1.7463
 2078SOL    HW217697   4.542   4.384   1.628  0.4567 -0.2153 -1.3930
 2079SOL     OW17698   0.104   0.775  13.216 -0.2546 -0.0088  0.0463
 2079SOL    HW117699   0.038   0.747  13.280 -1.0447  0.9293 -0.3661
 2079SOL    HW217700   0.062   0.755  13.132 -1.0640  0.0713  0.4381
 2080SOL     OW17701   0.193   1.971   4.965  0.3827  0.5591  0.3988
 2080SOL    HW117702   0.107   2.001   4.996  0.9915  2.4284  0.2429
 2080SOL    HW217703   0.170   1.879   4.980  0.3319  0.4848 -0.1269
 2081SOL     OW17704   2.342   2.064   6.587 -1.0271  0.8134 -0.0561
 2081SOL    HW117705   2.404   2.061   6.515 -1.2059 -3.2994 -0.0581
 2081SOL    HW217706   2.393   2.045   6.666 -1.7086 -0.7466  0.0130
 2082SOL     OW17707   1.065   2.189   5.683 -0.4620  0.2059  0.2052
 2082SOL    HW117708   1.126   2.147   5.743 -0.3512 -1.9822 -1.4052
 2082SOL    HW217709   0.997   2.211   5.746 -0.6153  0.6860 -0.1258
 2083SOL     OW17710   3.000   2.504  11.908 -0.0823  0.0360  0.2744
 2083SOL    HW117711   2.930   2.540  11.854  0.2641  1.8157  0.9933
 2083SOL    HW217712   3.024   2.425  11.859 -0.4478 -0.8451  1.5056
 2084SOL     OW17713   4.422   1.541  17.383 -0.0726 -0.2315  0.0291
 2084SOL    HW117714   4.330   1.529  17.361 -0.0798 -1.6802  0.8618
 2084SOL    HW217715   4.466   1.514  17.303 -0.2684 -1.5726  0.3806
 2085SOL     OW17716   3.326   2.581   3.740 -0.5123 -0.8184  0.1155
 2085SOL    HW117717   3.309   2.662   3.692  1.8892 -1.0961 -1.1950
 2085SOL    HW217718   3.299   2.519   3.672  0.0688 -1.9731  0.9198
 2086SOL     OW17719   3.353   2.031   2.207 -0.2090 -0.5066 -0.6776
 2086SOL    HW117720   3.437   2.048   2.164 -0.4570  0.9886 -0.5824
 2086SOL    HW217721   3.340   1.937   2.192 -0.9631 -0.5156  0.0552
 2087SOL     OW17722   0.237   0.221   8.791 -0.2893  0.1480  0.8433
 2087SOL    HW117723   0.297   0.232   8.717 -1.8181 -0.8075 -0.5224
 2087SOL    HW217724   0.261   0.295   8.846  1.7323  0.2751 -0.2193
 2088SOL     OW17725   0.868   2.371  15.994  0.5853  0.8548 -0.1723
 2088SOL    HW117726   0.803   2.327  15.939 -0.6013 -0.2219  2.0551
 2088SOL    HW217727   0.935   2.408  15.937  0.6107 -0.5485 -1.0435
 2089SOL     OW17728   1.562   3.376   6.925 -0.0659  0.1510 -0.6144
 2089SOL    HW117729   1.473   3.342   6.921  0.4296 -1.5628  2.4070
 2089SOL    HW217730   1.548   3.458   6.879  0.3089  0.0999 -0.8178
 2090SOL     OW17731   1.964   0.577   2.530  0.7844  0.0866 -0.1775
 2090SOL    HW117732   1.909   0.599   2.606 -1.5205  0.6454 -2.0118
 2090SOL    HW217733   2.010   0.500   2.563 -0.2698  0.3634  1.9642
 2091SOL     OW17734   2.414   1.115  11.602 -0.1857 -0.1158  0.3365
 2091SOL    HW117735   2.319   1.119  11.592 -0.1520 -3.2432 -1.3201
 2091SOL    HW217736   2.422   1.076  11.689 -0.6095 -1.2881 -0.1532
 2092SOL     OW17737   4.102   0.046   8.195 -0.7379 -0.1374 -0.1392
 2092SOL    HW117738   4.053   0.121   8.159 -1.4244  0.0063  1.0934
 2092SOL    HW217739   4.159   0.020   8.122  2.6591 -0.1143  2.5097
 2093SOL     OW17740   2.583   2.569  12.777  0.2345  0.1489  0.0033
 2093SOL    HW117741   2.603   2.630  12.706 -0.1898  0.6210  0.2970
 2093SOL    HW217742   2.599   2.481  12.742  2.5054  0.6931 -0.3185
 2094SOL     OW17743   1.443   1.018   8.452  0.1577 -0.3464  0.4472
 2094SOL    HW117744   1.500   0.963   8.398 -0.7871 -1.1194  0.2394
 2094SOL    HW217745   1.466   1.107   8.424 -1.6153  0.7942  2.5908
 2095SOL     OW17746   0.229   2.787   8.664 -0.1785  0.1867  0.3120
 2095SOL    HW117747   0.313   2.806   8.621 -0.4424 -1.8887 -1.0876
 2095SOL    HW217748   0.269   2.759   8.747 -0.4322  1.7147  0.9556
 2096SOL     OW17749   3.450   2.882   4.812 -0.1653  0.0860 -0.4027
 2096SOL    HW117750   3.358   2.909   4.816 -0.5518 -0.9238 -2.4528
 2096SOL    HW217751   3.500   2.956   4.846 -0.4191  0.0040  0.1428
 2097SOL     OW17752   0.159   3.962   6.787  0.6302 -0.0390 -0.2094
 2097SOL    HW117753   0.172   3.868   6.792  1.3569 -0.0696 -3.0666
 2097SOL    HW217754   0.127   3.968   6.698 -2.8803  1.9288  1.1773
 2098SOL     OW17755   3.851   3.260  10.734  0.0565 -0.0961 -0.0511
 2098SOL    HW117756   3.813   3.308  10.808 -2.5130 -0.2633 -1.2707
 2098SOL    HW217757   3.818   3.172  10.750 -2.6157  0.9162  0.0794
 2099SOL     OW17758   4.079   3.063   7.003  0.3928 -0.0754 -0.5882
 2099SOL    HW117759   4.038   2.977   7.019 -2.6781  1.2837 -1.0716
 2099SOL    HW217760   4.125   3.083   7.085 -2.0731 -1.0425  1.0505
 2100SOL     OW17761   3.452   3.097   1.719  0.3631  0.0007 -0.2651
 2100SOL    HW117762   3.447   3.051   1.636  2.2554 -2.0026  0.7232
 2100SOL    HW217763   3.381   3.053   1.765  0.5225  0.1408  0.1205
 2101SOL     OW17764   4.386   0.826   6.624  0.0028  0.7331  0.5890
 2101SOL    HW117765   4.352   0.867   6.704  1.4348  0.7724  1.1887
 2101SOL    HW217766   4.314   0.764   6.618 -1.1295  2.0134  1.0639
 2102SOL     OW17767   1.703   0.705  14.676  0.6410  0.2938  0.0345
 2102SOL    HW117768   1.707   0.643  14.748  2.1631 -0.2967 -0.5741
 2102SOL    HW217769   1.618   0.680  14.640  0.5205  0.4185  0.2341
 2103SOL     OW17770   3.546   0.438  14.598 -0.0491  0.2394  0.0116
 2103SOL    HW117771   3.629   0.400  14.626 -1.6679 -2.4615  1.1784
 2103SOL    HW217772   3.481   0.413  14.665 -1.3406  0.3855 -1.1886
 2104SOL     OW17773   2.255   1.247   6.325  0.5947  0.2933  0.0666
 2104SOL    HW117774   2.209   1.169   6.355 -0.5180  0.9025 -0.0747
 2104SOL    HW217775   2.184   1.293   6.280  1.2788  0.9957 -0.3163
 2105SOL     OW17776   1.033   0.934   9.102  0.4095 -0.2372  0.0020
 2105SOL    HW117777   0.941   0.937   9.074  0.5312 -1.1473 -0.4970
 2105SOL    HW217778   1.084   0.983   9.037 -0.4077 -0.6756 -0.9752
 2106SOL     OW17779   2.151   4.396  15.936 -0.2400  0.5567 -0.1821
 2106SOL    HW117780   2.206   4.438  15.870 -0.2899  2.0181  0.7087
 2106SOL    HW217781   2.112   4.325  15.885 -3.9317  3.2696 -1.2156
 2107SOL     OW17782   4.117   2.820   6.330  0.2447 -0.1159 -0.0023
 2107SOL    HW117783   4.142   2.769   6.252  1.6743 -2.2175  1.8324
 2107SOL    HW217784   4.146   2.756   6.395 -1.3157  0.1517  0.9388
 2108SOL     OW17785   4.455   3.775   1.524  0.1887 -0.3610 -0.3575
 2108SOL    HW117786   4.475   3.761   1.617 -0.0987 -0.9482 -0.3864
 2108SOL    HW217787   4.508   3.714   1.472  2.9928  0.5682  1.4128
 2109SOL     OW17788   1.178   0.297   5.882  0.1646  0.0598  0.1792
 2109SOL    HW117789   1.257   0.309   5.829  0.1045 -1.2294 -0.1978
 2109SOL    HW217790   1.199   0.240   5.956 -1.6578  1.4707  1.7850
 2110SOL     OW17791   4.461   4.034  12.322  0.2378 -0.0927 -0.5969
 2110SOL    HW117792   4.499   4.121  12.306  1.9167 -0.5143  1.2043
 2110SOL    HW217793   4.493   4.013  12.409  0.4848 -0.3604 -0.7522
 2111SOL     OW17794   0.212   1.735   6.795 -0.0558 -0.0461  0.3440
 2111SOL    HW117795   0.250   1.777   6.872 -0.5279 -1.8913  1.5836
 2111SOL    HW217796   0.291   1.691   6.763  0.6433  0.9797  0.6513
 2112SOL     OW17797   2.672   1.734   3.682 -0.5234  0.1269  0.9740
 2112SOL    HW117798   2.657   1.640   3.691 -1.7333  0.3988  1.8080
 2112SOL    HW217799   2.638   1.768   3.765  1.5689  1.0424  1.4594
 2113SOL     OW17800   0.708   4.313  13.098 -0.6569  1.0695 -0.0634
 2113SOL    HW117801   0.788   4.268  13.070  1.1730  4.1112  0.3423
 2113SOL    HW217802   0.745   4.399  13.116  0.1346  0.6088  0.5018
 2114SOL     OW17803   2.936   3.133   3.296  0.4014 -0.3689 -0.6456
 2114SOL    HW117804   3.028   3.123   3.319 -0.2040 -0.5859  1.6986
 2114SOL    HW217805   2.940   3.166   3.206 -3.6893  1.7650 -0.0598
 2115SOL     OW17806   2.830   1.525  15.703 -0.6172  0.5599  0.2136
 2115SOL    HW117807   2.904   1.575  15.670  0.3776 -0.5074  0.8500
 2115SOL    HW217808   2.808   1.471  15.627  0.6182  1.8100 -1.0333
 2116SOL     OW17809   3.677   3.134   6.809 -0.3918 -0.8908 -0.4160
 2116SOL    HW117810   3.699   3.121   6.717  1.6741 -0.3382 -0.0147
 2116SOL    HW217811   3.743   3.195   6.843  0.0360 -0.5287 -1.9073
 2117SOL     OW17812   0.678   4.493  11.074  0.4665  0.0482  0.2138
 2117SOL    HW117813   0.763   4.449  11.062  1.2919  0.8663  3.0141
 2117SOL    HW217814   0.626   4.447  11.008  1.1377  2.3519 -1.9651
 2118SOL     OW17815   2.918   2.551   2.232 -0.9422 -0.1104  0.5628
 2118SOL    HW117816   2.921   2.460   2.259 -1.3013 -1.0499 -2.5751
 2118SOL    HW217817   2.854   2.544   2.161 -0.5343 -0.5091  0.2415
 2119SOL     OW17818   0.131   0.721   8.918 -0.2777  0.0634 -0.2449
 2119SOL    HW117819   0.167   0.684   8.837 -0.9635  0.4867 -0.7465
 2119SOL    HW217820   0.072   0.649   8.940  0.4579 -0.1876  0.8699
 2120SOL     OW17821   4.705   2.837   6.985  0.2627  0.5811  0.3836
 2120SOL    HW117822   4.655   2.824   7.065 -2.4756  1.1094 -1.2215
 2120SOL    HW217823   0.058   2.876   7.025  0.5487 -2.5478  2.9112
 2121SOL     OW17824   1.517   4.238   8.242  0.1083  0.2978 -0.0686
 2121SOL    HW117825   1.539   4.199   8.158 -0.3815  0.7144 -0.3870
 2121SOL    HW217826   1.528   4.331   8.225  0.8244 -0.0402 -1.4576
 2122SOL     OW17827   0.539   2.460  17.056 -0.0112 -0.2062 -0.2918
 2122SOL    HW117828   0.563   2.542  17.099  0.5380  0.0602 -1.0890
 2122SOL    HW217829   0.449   2.471  17.025  0.7919  2.2829 -1.7596
 2123SOL     OW17830   0.458   2.092  17.076  0.3081 -0.1389  0.3651
 2123SOL    HW117831   0.366   2.077  17.053  0.3232  3.1202 -1.8504
 2123SOL    HW217832   0.508   2.043  17.010 -0.3133  0.9068 -0.8911
 2124SOL     OW17833   4.454   4.425   5.712  0.2069  0.4565 -0.1073
 2124SOL    HW117834   4.371   4.471   5.699 -0.0226  0.2111  0.4856
 2124SOL    HW217835   4.459   4.366   5.636 -0.8531  2.3212 -1.6284
 2125SOL     OW17836   3.340   1.396   5.984 -0.2818 -0.3115  0.1377
 2125SOL    HW117837   3.305   1.465   6.040 -0.7613  1.1183 -1.9056
 2125SOL    HW217838   3.429   1.421   5.961  0.2375 -0.5321  1.8973
 2126SOL     OW17839   0.986   2.220   3.569  0.1660  0.6254 -0.6552
 2126SOL    HW117840   1.072   2.261   3.560  0.7321 -0.5428 -0.6231
 2126SOL    HW217841   0.968   2.217   3.475  1.7379 -0.9999 -0.9222
 2127SOL     OW17842   2.382   1.803   2.472 -0.6864  0.2249 -0.2172
 2127SOL    HW117843   2.459   1.758   2.507  0.1915  1.8011 -0.1343
 2127SOL    HW217844   2.391   1.775   2.381 -0.5846 -1.3174  0.2633
 2128SOL     OW17845   2.710   4.116   2.124 -0.2359 -0.1755  0.0156
 2128SOL    HW117846   2.648   4.162   2.181 -1.1639 -2.3596  0.7671
 2128SOL    HW217847   2.794   4.144   2.161  0.6509  0.1340 -2.2323
 2129SOL     OW17848   3.446   3.378   2.514  0.3747 -0.3329  0.3034
 2129SOL    HW117849   3.516   3.423   2.560 -1.6913  0.6908  2.4484
 2129SOL    HW217850   3.487   3.374   2.428  0.3707 -0.3230  0.3010
 2130SOL     OW17851   4.235   4.412  11.302  0.7511  0.6643 -0.1382
 2130SOL    HW117852   4.159   4.407  11.360  1.4827  1.7023  0.9206
 2130SOL    HW217853   4.311   4.402  11.359  0.4041  0.3544  0.2622
 2131SOL     OW17854   1.959   0.376   7.027  0.5381  0.1441  0.2301
 2131SOL    HW117855   1.986   0.359   6.937  0.7158 -4.3714  1.1552
 2131SOL    HW217856   1.986   0.301   7.080 -1.1648  0.9774  2.2462
 2132SOL     OW17857   3.969   3.908   8.631  0.1805 -0.1807  0.1048
 2132SOL    HW117858   3.889   3.943   8.593  0.0508  0.0520  0.6038
 2132SOL    HW217859   3.997   3.980   8.687  0.0088  2.4822 -3.2593
 2133SOL     OW17860   2.629   2.002   8.671 -0.5356  0.0938 -0.0606
 2133SOL    HW117861   2.685   1.955   8.609  0.8779  2.9596 -0.9853
 2133SOL    HW217862   2.677   1.992   8.754  0.1711 -1.2259 -0.6405
 2134SOL     OW17863   3.193   4.467   8.335 -0.2313 -0.0595  0.1107
 2134SOL    HW117864   3.150   4.388   8.366 -0.6203 -0.0264 -0.3434
 2134SOL    HW217865   3.214   4.433   8.248 -1.0486  1.6444 -0.7479
 2135SOL     OW17866   2.844   2.003   8.887 -0.0627 -0.4248  0.3332
 2135SOL    HW117867   2.910   1.935   8.901  2.3882  1.5241 -1.8255
 2135SOL    HW217868   2.822   2.034   8.975  0.6008 -2.0368  1.0780
 2136SOL     OW17869   0.672   2.496  12.705  0.3442  0.2734  0.5169
 2136SOL    HW117870   0.738   2.565  12.696 -0.3301  0.6542 -1.5835
 2136SOL    HW217871   0.715   2.421  12.662 -0.1085  0.1074  0.3574
 2137SOL     OW17872   3.157   1.146   6.419 -0.1474 -0.5171  0.7485
 2137SOL    HW117873   3.179   1.238   6.403 -2.3828  0.2659  2.1071
 2137SOL    HW217874   3.167   1.097   6.337  1.6265  2.6927 -0.9250
 2138SOL     OW17875   2.685   3.505  12.741  0.0892  0.1015 -0.2016
 2138SOL    HW117876   2.677   3.457  12.658 -0.6740  0.4635 -0.3391
 2138SOL    HW217877   2.779   3.494  12.753 -0.1948  0.3462  2.1175
 2139SOL     OW17878   3.422   3.408   5.990 -0.6315  0.1491 -0.0110
 2139SOL    HW117879   3.464   3.479   6.039 -0.1678 -1.2902  1.6932
 2139SOL    HW217880   3.488   3.408   5.921  0.0856  0.7168  0.6719
 2140SOL     OW17881   1.010   0.933  16.791 -0.0325  0.0994 -0.6043
 2140SOL    HW117882   0.956   0.937  16.712 -0.5616 -0.4647 -0.2652
 2140SOL    HW217883   0.987   1.021  16.822 -2.9096  0.1539 -2.9198
 2141SOL     OW17884   4.558   4.529   6.933 -0.0143 -0.0678  0.1513
 2141SOL    HW117885   4.587   4.460   6.992  1.0923  1.8034  1.8394
 2141SOL    HW217886   4.529   4.473   6.861 -1.0133  1.8217 -0.9222
 2142SOL     OW17887   4.491   3.301   4.073  0.4685  0.3722 -0.3263
 2142SOL    HW117888   4.578   3.260   4.078  0.1769 -0.2990 -0.6650
 2142SOL    HW217889   4.459   3.247   4.001  0.9096  0.6304 -0.7200
 2143SOL     OW17890   1.478   1.572   0.986  0.3024  0.1725  0.4037
 2143SOL    HW117891   1.491   1.663   0.959  0.2135  0.2157  0.5062
 2143SOL    HW217892   1.463   1.534   0.899 -1.3487  0.3726  0.5985
 2144SOL     OW17893   1.595   0.126   0.383 -0.1568 -0.0819 -0.1868
 2144SOL    HW117894   1.642   0.208   0.364 -0.9250  0.6858  1.2147
 2144SOL    HW217895   1.535   0.132   0.309  1.9979  1.8422 -1.7823
 2145SOL     OW17896   2.233   4.491   6.191 -0.1264  0.3489 -0.0498
 2145SOL    HW117897   2.275   4.565   6.236  0.8478  0.2329 -0.7726
 2145SOL    HW217898   2.295   4.419   6.189  1.8582  2.0438  0.3139
 2146SOL     OW17899   3.114   2.581   4.781 -0.4101  0.1481 -0.4385
 2146SOL    HW117900   3.136   2.488   4.790  1.3384  0.6924  0.7463
 2146SOL    HW217901   3.116   2.607   4.689  2.5016 -0.7697 -0.6209
 2147SOL     OW17902   1.619   2.283  16.946  0.3706 -0.6985  0.1340
 2147SOL    HW117903   1.699   2.336  16.947 -0.4034  0.5031 -1.6839
 2147SOL    HW217904   1.546   2.342  16.965 -2.0413 -2.2296 -4.4008
 2148SOL     OW17905   0.120   1.027  10.319 -0.0218  0.0615 -0.0078
 2148SOL    HW117906   0.105   1.075  10.237 -1.0983  0.3246  0.3324
 2148SOL    HW217907   0.033   1.043  10.358  0.4346 -0.2184  1.1124
 2149SOL     OW17908   0.282   1.296   8.679  0.0559  0.4213 -0.3122
 2149SOL    HW117909   0.350   1.362   8.666  0.9054 -0.4406 -0.2652
 2149SOL    HW217910   0.202   1.348   8.674  0.1115  0.5982  0.5766
 2150SOL     OW17911   1.104   3.634  15.908  0.1711 -0.3256  0.2930
 2150SOL    HW117912   1.020   3.635  15.864  0.9989  0.0650 -1.2738
 2150SOL    HW217913   1.084   3.688  15.984 -2.6769  1.4456 -1.7097
 2151SOL     OW17914   1.671   3.840  11.466  0.4387  0.1374  0.0108
 2151SOL    HW117915   1.613   3.916  11.469 -1.3449 -1.1611 -1.6244
 2151SOL    HW217916   1.703   3.853  11.377  2.0588 -2.8310  0.1805
 2152SOL     OW17917   2.363   3.332   5.520 -0.1398 -0.9138 -0.0225
 2152SOL    HW117918   2.403   3.303   5.602  1.7050 -0.2043 -0.6740
 2152SOL    HW217919   2.417   3.410   5.504 -0.2140 -0.6748  0.9136
 2153SOL     OW17920   3.915   0.235   4.218 -0.2740  0.2629  0.2390
 2153SOL    HW117921   3.823   0.219   4.195 -0.3521 -0.6593  1.2021
 2153SOL    HW217922   3.959   0.223   4.134  0.4728  0.3089  0.6299
 2154SOL     OW17923   4.275   1.954  10.642  0.7046 -0.2070 -0.7882
 2154SOL    HW117924   4.227   2.033  10.667 -0.4769 -0.4894 -2.1431
 2154SOL    HW217925   4.364   1.967  10.675  0.9710 -2.6630 -0.5205
 2155SOL     OW17926   0.307   2.726   4.213 -0.2108 -0.4368 -0.5608
 2155SOL    HW117927   0.229   2.781   4.201  0.8068  0.7421 -1.8343
 2155SOL    HW217928   0.289   2.667   4.139 -0.4885 -0.3521 -0.5620
 2156SOL     OW17929   2.283   0.431   2.384  0.1455  0.6192 -0.2484
 2156SOL    HW117930   2.303   0.418   2.477  0.1822  1.3552 -0.1534
 2156SOL    HW217931   2.216   0.364   2.369 -1.0630  2.2835 -2.2293
 2157SOL     OW17932   2.552   2.948   1.435 -0.6427  0.1623 -0.0377
 2157SOL    HW117933   2.580   2.960   1.526  1.2301  0.0317 -0.5790
 2157SOL    HW217934   2.564   2.854   1.423 -0.0345  0.4744 -1.8989
 2158SOL     OW17935   2.607   3.405   8.867 -0.4275 -0.3882  0.2581
 2158SOL    HW117936   2.599   3.417   8.962  1.4803 -0.3214  0.4103
 2158SOL    HW217937   2.685   3.461   8.861 -0.5969 -0.0059  1.5013
 2159SOL     OW17938   0.643   1.918   3.689  0.1196  0.0697  0.0820
 2159SOL    HW117939   0.652   1.841   3.634  0.0299  1.5678 -2.0417
 2159SOL    HW217940   0.711   1.980   3.662 -1.0533  0.2442 -2.4502
 2160SOL     OW17941   3.789   1.444   3.943 -0.2712  0.3862 -0.1003
 2160SOL    HW117942   3.839   1.524   3.927 -1.3750  1.3347  1.2377
 2160SOL    HW217943   3.767   1.453   4.035  2.1032  2.2240  0.2848
 2161SOL     OW17944   1.184   4.616   9.212  0.1546  0.4379  0.8820
 2161SOL    HW117945   1.144   4.703   9.213 -0.2457  0.2668 -0.3720
 2161SOL    HW217946   1.107   4.559   9.216  1.5227 -1.3810  1.4746
 2162SOL     OW17947   3.364   3.941  11.078 -0.9256 -0.5578  0.6735
 2162SOL    HW117948   3.389   3.879  11.010 -0.4569  0.8264 -0.4254
 2162SOL    HW217949   3.452   3.975  11.097 -1.2399  1.1266 -0.8367
 2163SOL     OW17950   0.914   4.093   8.516  0.3042  0.1157 -0.4426
 2163SOL    HW117951   0.834   4.114   8.563  1.0704  0.4032  0.7417
 2163SOL    HW217952   0.970   4.150   8.569  0.0000 -0.0289  0.0340
 2164SOL     OW17953   3.306   0.252  17.239 -0.7741 -0.0796 -0.2619
 2164SOL    HW117954   3.369   0.323  17.251  0.4072 -1.1631 -0.0487
 2164SOL    HW217955   3.341   0.188  17.300  0.2178  0.7154  0.0043
 2165SOL     OW17956   2.267   2.388   0.528  0.1622 -0.1514 -0.5520
 2165SOL    HW117957   2.317   2.456   0.482 -0.4688  0.6798 -0.0028
 2165SOL    HW217958   2.339   2.339   0.569 -0.1859  0.7085  1.0717
 2166SOL     OW17959   2.011   0.707   7.338  0.3396  0.1060  0.7283
 2166SOL    HW117960   2.025   0.632   7.396  1.4141  0.5206  0.9984
 2166SOL    HW217961   2.103   0.732   7.345  0.7131 -1.9183  2.9167
 2167SOL     OW17962   4.389   4.379   4.010  0.4374 -0.2863  0.4095
 2167SOL    HW117963   4.436   4.462   4.014 -0.2573  0.2308 -2.4674
 2167SOL    HW217964   4.379   4.368   4.104  0.2893 -0.6156  0.3571
 2168SOL     OW17965   1.341   1.940  10.244  0.5117  0.5006 -0.8316
 2168SOL    HW117966   1.427   1.968  10.277 -0.4471  2.4126 -0.0187
 2168SOL    HW217967   1.367   1.897  10.162 -0.2776 -0.3473 -0.6379
 2169SOL     OW17968   1.984   3.421   0.247 -0.3849  0.1303  0.6990
 2169SOL    HW117969   1.954   3.473   0.173 -0.9218 -0.7355  0.3094
 2169SOL    HW217970   1.922   3.348   0.245  0.7645 -0.8723  0.8693
 2170SOL     OW17971   3.634   1.333   1.704 -0.6866  0.4752 -1.1324
 2170SOL    HW117972   3.663   1.416   1.741  2.6502 -1.6795  1.0680
 2170SOL    HW217973   3.719   1.291   1.690 -0.6140  0.1930  0.1021
 2171SOL     OW17974   3.567   1.865   4.575 -0.7488  0.3414  0.3972
 2171SOL    HW117975   3.572   1.844   4.669 -2.5236  1.2360  0.6806
 2171SOL    HW217976   3.478   1.831   4.573 -0.3202 -0.6873 -1.3151
 2172SOL     OW17977   4.198   1.761   2.085  0.2338  0.1941  0.2281
 2172SOL    HW117978   4.121   1.807   2.118  1.3315  1.7430  0.6290
 2172SOL    HW217979   4.251   1.832   2.049  0.2725  0.0642  0.0301
 2173SOL     OW17980   2.533   2.753   7.142 -0.1065  0.2841 -0.2079
 2173SOL    HW117981   2.526   2.843   7.174  3.0487  0.4843 -0.0650
 2173SOL    HW217982   2.627   2.738   7.150  0.1114  1.2144 -0.9844
 2174SOL     OW17983   4.474   3.234   8.017  0.1088  0.0157 -0.1315
 2174SOL    HW117984   4.427   3.234   8.100  2.8308 -3.0244  1.4555
 2174SOL    HW217985   4.529   3.309   8.037  0.4488 -0.7500  1.8257
 2175SOL     OW17986   1.206   3.180   3.159 -0.0854 -0.2402  0.2924
 2175SOL    HW117987   1.166   3.231   3.089  1.1761  0.7641  0.3186
 2175SOL    HW217988   1.228   3.253   3.217 -0.6987 -1.2839  1.8520
 2176SOL     OW17989   0.741   0.962   8.606 -0.5117 -0.0615  0.6029
 2176SOL    HW117990   0.781   0.993   8.525 -0.4998 -0.8537  0.3000
 2176SOL    HW217991   0.689   1.039   8.630  1.0034  0.9643  0.5755
 2177SOL     OW17992   1.350   3.302  13.034  0.5213 -0.6902 -0.2326
 2177SOL    HW117993   1.408   3.227  13.024  1.9790  0.0108  2.8313
 2177SOL    HW217994   1.389   3.372  12.981 -2.1696  1.6023  0.7672
 2178SOL     OW17995   0.790   0.587   6.741  0.2550 -0.5934 -0.1037
 2178SOL    HW117996   0.843   0.548   6.672  4.3740  3.4632  0.7249
 2178SOL    HW217997   0.709   0.610   6.695  1.5297  3.1753 -0.4620
 2179SOL     OW17998   3.652   1.239   2.358 -0.5977  0.3862  0.4535
 2179SOL    HW117999   3.670   1.333   2.359  1.5508 -0.0273  0.4257
 2179SOL    HW218000   3.644   1.224   2.452 -0.2150  2.0181  0.7539
 2180SOL     OW18001   1.543   1.276  12.064  0.0996  0.6083 -0.0930
 2180SOL    HW118002   1.499   1.194  12.087  2.3171  0.0242  2.0578
 2180SOL    HW218003   1.486   1.313  11.996 -0.5901 -0.2793 -0.0021
 2181SOL     OW18004   0.708   4.063   3.782 -0.4497  0.2312 -0.2082
 2181SOL    HW118005   0.791   4.026   3.811  0.1158  0.9342 -0.9324
 2181SOL    HW218006   0.635   4.015   3.822  1.8944 -1.9433  1.4170
 2182SOL     OW18007   4.682   4.554   3.373  0.0960  0.4382  0.4134
 2182SOL    HW118008   4.705   4.497   3.446 -0.9584  0.7141  0.9619
 2182SOL    HW218009   4.648   4.495   3.305  0.9414  1.4843 -0.9079
 2183SOL     OW18010   3.376   0.745  15.197  0.2857 -0.1496 -0.0110
 2183SOL    HW118011   3.288   0.785  15.199  0.4337  0.1743  0.0406
 2183SOL    HW218012   3.426   0.826  15.206  0.9072 -0.4622 -0.6893
 2184SOL     OW18013   0.630   0.289   5.267 -0.3937  0.0821  0.4338
 2184SOL    HW118014   0.548   0.309   5.222  1.3795 -3.3213 -4.2238
 2184SOL    HW218015   0.591   0.215   5.314 -3.8678  1.1542 -0.7851
 2185SOL     OW18016   4.149   4.666   9.237 -0.0815 -0.2038 -0.4003
 2185SOL    HW118017   4.057   4.662   9.265 -0.6120  0.3417 -2.0769
 2185SOL    HW218018   4.150   0.034   9.210  1.9492 -0.7051 -1.9902
 2186SOL     OW18019   2.297   0.098  13.630  0.1310 -0.0229 -0.3176
 2186SOL    HW118020   2.204   0.078  13.619  0.3853 -2.3108  1.6658
 2186SOL    HW218021   2.329   0.094  13.540  0.6276 -1.7405 -0.0612
 2187SOL     OW18022   4.375   2.182   0.723 -0.0192  0.0232 -0.5386
 2187SOL    HW118023   4.418   2.120   0.664 -1.0116 -0.7510 -0.4531
 2187SOL    HW218024   4.311   2.227   0.667  1.9460  2.3639 -0.8888
 2188SOL     OW18025   2.154   1.031  16.743 -0.3692  0.5613 -0.5181
 2188SOL    HW118026   2.199   1.067  16.667 -0.8379  0.8189 -0.6772
 2188SOL    HW218027   2.216   0.960  16.756 -3.1792 -1.7820  0.0899
 2189SOL     OW18028   4.323   2.183   6.031 -0.3550  0.3607 -0.3495
 2189SOL    HW118029   4.358   2.096   6.049  0.4763  0.7863  0.0993
 2189SOL    HW218030   4.402   2.238   6.036 -1.8961  2.6851 -1.2350
 2190SOL     OW18031   1.496   1.237   8.342  0.4948 -0.5049 -0.4660
 2190SOL    HW118032   1.543   1.316   8.315 -0.5929 -0.0831 -1.1185
 2190SOL    HW218033   1.407   1.244   8.308 -0.5813 -1.7280  2.0647
 2191SOL     OW18034   4.717   2.466   2.356 -0.1608  0.2527 -0.3932
 2191SOL    HW118035   0.084   2.439   2.342 -0.4357 -1.6685  1.5818
 2191SOL    HW218036   0.002   2.561   2.365 -3.5817  0.4046  1.0575
 2192SOL     OW18037   4.324   0.803   5.933 -0.1388 -0.9089 -0.1972
 2192SOL    HW118038   4.321   0.884   5.985 -0.5756 -0.5881 -0.7131
 2192SOL    HW218039   4.230   0.800   5.916  0.2034 -1.1733 -1.9992
 2193SOL     OW18040   4.227   3.109   5.244 -0.0216  0.5998 -0.4238
 2193SOL    HW118041   4.320   3.121   5.222 -0.2185  2.4111 -0.3278
 2193SOL    HW218042   4.246   3.025   5.285 -1.3817  0.2848 -0.4360
 2194SOL     OW18043   4.484   4.263  11.732 -0.4182  0.5838 -0.3728
 2194SOL    HW118044   4.421   4.245  11.662 -1.2688 -0.6865  0.6992
 2194SOL    HW218045   4.469   4.190  11.793  1.9300 -0.1392 -0.6593
 2195SOL     OW18046   2.843   3.876   7.343  0.5065  0.5317 -0.7376
 2195SOL    HW118047   2.756   3.837   7.342  1.2938 -1.2000 -1.2197
 2195SOL    HW218048   2.904   3.802   7.337 -0.3795 -0.3114  0.6227
 2196SOL     OW18049   1.665   0.623  14.037 -0.5996 -0.0720 -0.0194
 2196SOL    HW118050   1.754   0.639  14.005  0.4260 -1.8601  1.8815
 2196SOL    HW218051   1.625   0.700  13.998 -0.4335  2.1364  4.2530
 2197SOL     OW18052   0.059   3.801   4.473  0.1383  0.0881  0.4029
 2197SOL    HW118053   0.091   3.711   4.478 -0.6573 -0.3179 -2.0444
 2197SOL    HW218054   0.132   3.846   4.432  0.7252 -0.8860  0.3739
 2198SOL     OW18055   0.208   2.865   4.608 -0.0698  0.1772  0.5779
 2198SOL    HW118056   0.201   2.773   4.582 -1.8923  0.5239 -0.1155
 2198SOL    HW218057   0.121   2.901   4.597  0.0022  0.2162  0.1422
 2199SOL     OW18058   0.921   4.708  14.633  0.3777  0.0971 -0.3018
 2199SOL    HW118059   0.864   4.690  14.708 -1.7240 -0.5520 -2.0421
 2199SOL    HW218060   0.928   0.079  14.631  1.9050 -0.0031  0.3901
 2200SOL     OW18061   3.562   3.614   2.259 -0.6035 -0.1052 -0.6855
 2200SOL    HW118062   3.595   3.526   2.279  1.6218  1.0260  0.6522
 2200SOL    HW218063   3.516   3.598   2.177  1.6738  0.1197 -1.9979
 2201SOL     OW18064   3.414   2.726   2.610 -0.6016  0.0196  0.1108
 2201SOL    HW118065   3.507   2.710   2.627 -0.2886  3.5383  1.5283
 2201SOL    HW218066   3.388   2.637   2.584  1.8860 -0.9136  0.7955
 2202SOL     OW18067   3.425   1.770   9.740  0.2063  0.0546  0.1936
 2202SOL    HW118068   3.520   1.767   9.749  0.2824 -0.3225 -0.6875
 2202SOL    HW218069   3.411   1.708   9.668 -0.4697  1.3607 -0.8124
 2203SOL     OW18070   2.827   2.412   2.797  0.3772  0.0763 -0.4048
 2203SOL    HW118071   2.873   2.486   2.837 -1.4852  0.1648  1.5283
 2203SOL    HW218072   2.894   2.379   2.737 -0.7955 -0.2738 -1.5400
 2204SOL     OW18073   0.414   2.851   5.129  0.3779 -0.0811  0.9712
 2204SOL    HW118074   0.467   2.852   5.208  1.4169  2.1835  0.2408
 2204SOL    HW218075   0.350   2.788   5.163 -1.7327  0.8588 -1.2405
 2205SOL     OW18076   0.392   0.654   3.917  0.1288  0.0647  0.6614
 2205SOL    HW118077   0.353   0.566   3.922 -0.0597  0.1086 -0.0765
 2205SOL    HW218078   0.447   0.659   3.839  0.7156 -1.2838  0.9937
 2206SOL     OW18079   2.328   2.688   1.729  0.0178 -0.7264  0.2517
 2206SOL    HW118080   2.238   2.656   1.743 -0.1153 -0.1534  0.7095
 2206SOL    HW218081   2.314   2.747   1.655 -0.0719  1.4235  1.9891
 2207SOL     OW18082   4.104   3.094   6.731  0.3841 -0.4081 -0.4822
 2207SOL    HW118083   4.116   3.000   6.715  0.3707 -0.3243 -0.9990
 2207SOL    HW218084   4.123   3.097   6.824 -0.8516  1.2756 -0.2997
 2208SOL     OW18085   3.482   3.702  10.566  0.1188 -0.2816  0.5420
 2208SOL    HW118086   3.474   3.694  10.661  0.5571  0.4837  0.6447
 2208SOL    HW218087   3.395   3.733  10.540  0.7657 -0.0054 -1.3220
 2209SOL     OW18088   2.777   2.775   3.203  0.5433  0.4710 -0.4667
 2209SOL    HW118089   2.793   2.805   3.293 -0.5712  1.2883 -0.5409
 2209SOL    HW218090   2.790   2.856   3.156  1.9912 -0.8742 -2.3793
 2210SOL     OW18091   2.863   2.260   1.449  0.3373 -0.5380 -0.2374
 2210SOL    HW118092   2.771   2.280   1.463  0.6997 -0.0927  1.5286
 2210SOL    HW218093   2.855   2.166   1.440 -0.5272 -0.5195  0.3972
 2211SOL     OW18094   0.258   1.923   5.927 -0.6237  0.6968 -0.4156
 2211SOL    HW118095   0.225   2.003   5.886  1.0831  1.6203  0.0111
 2211SOL    HW218096   0.304   1.963   6.000 -0.4085  1.5472 -1.0223
 2212SOL     OW18097   4.061   4.061  15.995 -0.0905 -0.0103 -0.4603
 2212SOL    HW118098   3.981   4.068  16.048 -1.1065 -1.1852 -1.8260
 2212SOL    HW218099   4.114   4.047  16.073  0.0911 -1.7691 -0.9081
 2213SOL     OW18100   2.353   2.028   3.953  0.4689 -0.4202 -0.4219
 2213SOL    HW118101   2.304   1.950   3.978 -0.0466  0.0082 -0.0954
 2213SOL    HW218102   2.360   2.012   3.859 -0.3816  0.6201 -0.6609
 2214SOL     OW18103   2.375   3.733   8.406 -0.1890  0.5930 -0.2738
 2214SOL    HW118104   2.335   3.765   8.487 -2.6068 -1.9629 -0.4610
 2214SOL    HW218105   2.337   3.788   8.338 -1.3596 -0.6979 -0.6641
 2215SOL     OW18106   3.981   0.242  17.157  0.0546  0.7421  0.1039
 2215SOL    HW118107   3.892   0.245  17.193 -0.4994  2.2912 -1.4029
 2215SOL    HW218108   4.004   0.334  17.151  0.0807  0.8486  1.9155
 2216SOL     OW18109   0.987   2.151  13.420  0.5533 -0.0323 -0.1214
 2216SOL    HW118110   0.899   2.179  13.393  0.4146 -0.8838 -0.5371
 2216SOL    HW218111   1.029   2.223  13.372  0.4540  0.1783  0.1090
 2217SOL     OW18112   4.025   0.061   8.707 -0.7991  0.3730 -0.4844
 2217SOL    HW118113   3.998   0.054   8.798  2.1803 -1.3048  0.2543
 2217SOL    HW218114   4.012   4.692   8.685  0.2252 -0.2509  1.6037
 2218SOL     OW18115   2.292   0.656  12.049  0.4437 -0.4682  0.6316
 2218SOL    HW118116   2.311   0.585  12.109  1.3932 -0.7042  0.0351
 2218SOL    HW218117   2.301   0.731  12.108 -0.8254  1.0848 -1.1313
 2219SOL     OW18118   2.077   1.408   6.747  0.4237  0.1278  0.4790
 2219SOL    HW118119   2.146   1.463   6.784  1.4105 -1.6333  1.2643
 2219SOL    HW218120   2.047   1.449   6.666  1.8331 -0.1918 -0.1873
 2220SOL     OW18121   1.908   2.199   9.310 -0.2197 -0.2468  0.1453
 2220SOL    HW118122   1.890   2.179   9.402  0.2208 -0.6058  0.1536
 2220SOL    HW218123   1.955   2.119   9.286 -2.9115 -1.9878  0.6349
 2221SOL     OW18124   3.745   4.718   0.987 -0.1946  0.7581 -0.2458
 2221SOL    HW118125   3.814   4.716   1.053 -1.0456 -2.3184  0.5387
 2221SOL    HW218126   3.678   4.674   1.039  0.9709 -2.0597 -1.0896
 2222SOL     OW18127   1.714   1.527   1.112 -0.6983  0.1262 -0.7871
 2222SOL    HW118128   1.628   1.568   1.097 -0.7747  0.6687  1.0838
 2222SOL    HW218129   1.717   1.484   1.027 -2.3928  0.7315 -1.1535
 2223SOL     OW18130   0.164   1.278  15.390 -0.6560 -0.1021  0.7522
 2223SOL    HW118131   0.175   1.289  15.484  2.0443 -0.4471  0.4705
 2223SOL    HW218132   0.239   1.326  15.357  0.0346 -2.3474 -0.8971
 2224SOL     OW18133   4.313   3.457  15.893 -0.5287  0.5479  0.5755
 2224SOL    HW118134   4.284   3.530  15.839 -2.1039 -0.5496 -0.0568
 2224SOL    HW218135   4.232   3.414  15.919 -0.6515  1.0384  0.9977
 2225SOL     OW18136   3.664   2.288   2.107 -0.1461  0.2223 -0.0275
 2225SOL    HW118137   3.658   2.192   2.117  2.3349  0.1698  0.8108
 2225SOL    HW218138   3.695   2.320   2.191  1.8133  0.7665 -0.9549
 2226SOL     OW18139   1.175   1.364  15.243  0.4669 -0.4067  0.5935
 2226SOL    HW118140   1.112   1.373  15.314 -0.8087 -3.4994 -0.1073
 2226SOL    HW218141   1.200   1.455  15.227  0.4401 -0.1265  2.1794
 2227SOL     OW18142   2.699   3.683   2.551 -0.4728  0.5555  0.1048
 2227SOL    HW118143   2.768   3.746   2.530  2.0306 -1.1997  3.1169
 2227SOL    HW218144   2.627   3.732   2.512 -2.6148 -2.2972  0.4544
 2228SOL     OW18145   0.022   1.101  12.627  0.3700  0.2567 -0.4239
 2228SOL    HW118146   0.020   1.017  12.673 -1.9919  0.3094 -0.3902
 2228SOL    HW218147   0.097   1.137  12.674  1.6052 -3.2825  0.3470
 2229SOL     OW18148   4.334   2.078   4.568 -0.0621 -0.2849 -0.0632
 2229SOL    HW118149   4.326   2.171   4.548  0.2264  0.0060  1.1420
 2229SOL    HW218150   4.410   2.051   4.517  0.2386 -2.2537  1.4194
 2230SOL     OW18151   0.163   4.220   9.148 -0.0997 -0.1898 -0.3045
 2230SOL    HW118152   0.201   4.133   9.136 -2.2412 -0.9353 -1.6488
 2230SOL    HW218153   0.174   4.232   9.243 -1.3998 -2.0022  0.0931
 2231SOL     OW18154   1.170   1.451   5.052  0.7925  0.4920 -0.4749
 2231SOL    HW118155   1.174   1.515   4.982  1.3437  0.0007 -0.8991
 2231SOL    HW218156   1.097   1.480   5.106  0.5317  0.6393 -0.9120
 2232SOL     OW18157   2.263   1.692   6.000 -0.1829  0.2421  0.0770
 2232SOL    HW118158   2.215   1.622   6.046 -1.4934  2.2441  1.7845
 2232SOL    HW218159   2.204   1.768   6.006 -0.1967  0.2846 -0.6745
 2233SOL     OW18160   3.597   1.835  10.830 -0.8768  0.1392  0.1771
 2233SOL    HW118161   3.525   1.786  10.867  0.8370 -3.4775 -1.2702
 2233SOL    HW218162   3.670   1.809  10.886  2.1072  3.1266 -2.2870
 2234SOL     OW18163   3.964   0.300   0.028  0.1677 -0.7341 -0.3775
 2234SOL    HW118164   4.052   0.281   0.063  0.3025 -1.9296 -1.3618
 2234SOL    HW218165   3.948   0.393   0.043 -2.9567 -1.1870 -0.9515
 2235SOL     OW18166   3.672   0.642   7.733  0.2476  0.1771  0.0154
 2235SOL    HW118167   3.652   0.552   7.760  0.8249  0.1885  0.4563
 2235SOL    HW218168   3.591   0.691   7.751  0.1277 -0.2408  0.5898
 2236SOL     OW18169   1.998   0.941   5.026  0.1038 -0.5627 -0.3930
 2236SOL    HW118170   2.068   0.995   5.062 -0.5256 -0.7459  1.0794
 2236SOL    HW218171   1.954   1.000   4.964  2.0101  0.0792 -1.1142
 2237SOL     OW18172   3.268   3.788  17.412 -0.3131  0.4314 -0.3084
 2237SOL    HW118173   3.189   3.738  17.432  1.1705  0.4307  5.4665
 2237SOL    HW218174   3.232   3.874  17.433 -1.0143 -0.0044  0.2954
 2238SOL     OW18175   3.461   4.301   8.463  0.4883  0.1017  0.5949
 2238SOL    HW118176   3.435   4.385   8.501 -0.2298  0.7481 -1.3170
 2238SOL    HW218177   3.557   4.310   8.463  0.4329  0.6991  0.4910
 2239SOL     OW18178   2.458   0.121   5.912  0.3873  0.2216 -0.0804
 2239SOL    HW118179   2.483   0.036   5.949  1.3073  0.5376  0.0398
 2239SOL    HW218180   2.369   0.116   5.879  0.7745 -1.9289 -0.7847
 2240SOL     OW18181   1.199   4.641   2.346  0.5656 -0.1260  0.1881
 2240SOL    HW118182   1.262   4.701   2.308  1.1293 -1.2856 -0.6863
 2240SOL    HW218183   1.242   4.607   2.424  1.3196  0.8536  0.2059
 2241SOL     OW18184   2.857   1.991   1.379 -0.4840 -0.2322  0.1411
 2241SOL    HW118185   2.808   1.941   1.444 -0.9818 -2.0163 -1.6018
 2241SOL    HW218186   2.820   1.942   1.305  0.2096 -2.2428  1.1198
 2242SOL     OW18187   1.760   0.126  13.330 -0.1196  0.3020  0.0517
 2242SOL    HW118188   1.765   0.203  13.274 -1.7687  0.8261  0.6351
 2242SOL    HW218189   1.737   0.176  13.408 -1.0423  2.0549 -1.3663
 2243SOL     OW18190   4.107   2.029   5.149  0.5047 -0.2511 -0.5024
 2243SOL    HW118191   4.082   1.961   5.212 -1.3950  0.1656 -0.8087
 2243SOL    HW218192   4.025   2.073   5.126 -0.1017  0.5934  3.2050
 2244SOL     OW18193   2.741   4.082  10.398 -0.3003 -0.8098 -0.2276
 2244SOL    HW118194   2.656   4.122  10.382  0.4236  0.3756 -1.1127
 2244SOL    HW218195   2.795   4.130  10.336  0.3540 -0.0287  0.9314
 2245SOL     OW18196   2.441   2.535   5.302  0.3252  0.3761  0.2786
 2245SOL    HW118197   2.436   2.468   5.371 -0.2047  1.6730  1.5151
 2245SOL    HW218198   2.515   2.585   5.336 -0.0999  0.7453  0.6644
 2246SOL     OW18199   4.499   3.757   4.396  0.5348 -0.2938  0.0357
 2246SOL    HW118200   4.586   3.789   4.372  0.2935  0.6132  0.3534
 2246SOL    HW218201   4.483   3.773   4.489  0.3109  1.1021 -0.2372
 2247SOL     OW18202   0.066   0.476   0.520  0.1800  0.7020  0.2708
 2247SOL    HW118203   0.115   0.528   0.583  2.7158 -0.9413 -0.3422
 2247SOL    HW218204   0.089   0.391   0.558 -1.3389 -0.3973 -1.2936
 2248SOL     OW18205   0.837   0.883   6.074  0.4730 -0.1081 -0.9508
 2248SOL    HW118206   0.747   0.882   6.041 -0.0996  4.0316  0.4704
 2248SOL    HW218207   0.856   0.789   6.072  1.6288  0.1443 -1.4507
 2249SOL     OW18208   3.080   2.261   2.367 -0.8761  0.0407 -0.0541
 2249SOL    HW118209   3.124   2.299   2.291 -0.7749 -0.3563 -0.1966
 2249SOL    HW218210   3.100   2.167   2.372 -0.0890  0.1390 -1.4777
 2250SOL     OW18211   0.863   2.879   7.147 -0.0012 -0.3418  0.0243
 2250SOL    HW118212   0.925   2.873   7.075 -0.9381  0.3120 -0.8490
 2250SOL    HW218213   0.925   2.900   7.216 -0.5102  1.0071  0.0781
 2251SOL     OW18214   3.177   0.754   5.219  0.4623 -0.1682  0.0152
 2251SOL    HW118215   3.208   0.672   5.257 -2.8587 -1.2334  0.4734
 2251SOL    HW218216   3.133   0.805   5.286  2.0416  2.0712 -0.6591
 2252SOL     OW18217   1.515   2.423   2.692  0.1197 -0.0466 -0.3265
 2252SOL    HW118218   1.586   2.387   2.745  0.1037 -0.1419 -0.3706
 2252SOL    HW218219   1.559   2.446   2.611  0.2707 -0.2107 -0.2912
 2253SOL     OW18220   2.197   1.104   0.119 -0.5038 -0.2124  0.4689
 2253SOL    HW118221   2.198   1.168   0.190 -1.3824  0.9524 -0.5635
 2253SOL    HW218222   2.270   1.137   0.067 -0.5671  0.0084  0.5194
 2254SOL     OW18223   1.986   0.721   7.716  0.4686 -0.2549  0.4026
 2254SOL    HW118224   2.073   0.697   7.748  0.6163  0.9247  0.8838
 2254SOL    HW218225   1.999   0.691   7.626  2.3428  1.2186  0.1670
 2255SOL     OW18226   1.228   4.334   5.889  0.3225 -0.6045  0.5088
 2255SOL    HW118227   1.205   4.308   5.978  2.6664 -1.2453  0.9349
 2255SOL    HW218228   1.323   4.321   5.891  0.6429  2.2908  3.4504
 2256SOL     OW18229   1.617   2.325   3.609  0.0107 -0.1230 -0.3682
 2256SOL    HW118230   1.603   2.297   3.700 -0.7512  2.7594  0.3895
 2256SOL    HW218231   1.712   2.321   3.605 -0.0527 -2.0439 -0.0994
 2257SOL     OW18232   0.116   1.735   2.639  0.7450 -0.5938  0.2707
 2257SOL    HW118233   0.155   1.822   2.649  0.0396 -0.4825  2.0453
 2257SOL    HW218234   0.077   1.730   2.551 -0.7382  1.7537  0.8011
 2258SOL     OW18235   1.091   2.638   8.633 -0.3401 -0.1454  0.1702
 2258SOL    HW118236   1.153   2.606   8.568  0.7479 -1.4326  1.8555
 2258SOL    HW218237   1.144   2.608   8.706  2.8827  0.6445 -1.8223
 2259SOL     OW18238   4.058   2.723   7.044  0.3510 -0.2238  0.1726
 2259SOL    HW118239   4.038   2.664   7.117 -1.7943  0.1496 -0.0956
 2259SOL    HW218240   3.979   2.776   7.034 -0.0635 -0.7787  0.5087
 2260SOL     OW18241   1.809   1.280   8.270  0.0300  0.2320  0.2056
 2260SOL    HW118242   1.794   1.185   8.270  0.3892  0.1749 -1.7404
 2260SOL    HW218243   1.839   1.277   8.179 -1.4702  1.7064 -0.3242
 2261SOL     OW18244   0.594   3.482   5.293  0.1683 -0.3325 -0.4809
 2261SOL    HW118245   0.614   3.509   5.383  1.4828 -1.2695 -0.4827
 2261SOL    HW218246   0.506   3.450   5.314  0.3695 -0.6779 -0.1482
 2262SOL     OW18247   4.553   3.767   4.131 -0.2288  0.3865  0.2226
 2262SOL    HW118248   4.552   3.782   4.226 -0.6300 -1.4654  0.5136
 2262SOL    HW218249   4.486   3.698   4.131 -0.1268  0.2882  1.9361
 2263SOL     OW18250   4.265   0.195   8.839  0.3650 -0.1811 -0.1148
 2263SOL    HW118251   4.194   0.162   8.784  0.4836  0.2385 -0.5155
 2263SOL    HW218252   4.338   0.163   8.786 -1.0824 -1.4689 -1.3549
 2264SOL     OW18253   2.587   2.531   5.713 -0.3267  0.2671 -0.0103
 2264SOL    HW118254   2.569   2.625   5.721  1.1182  0.3687  2.1630
 2264SOL    HW218255   2.668   2.542   5.664 -0.2850  2.6082  0.5639
 2265SOL     OW18256   4.183   0.459  12.433  0.6326 -0.4469 -0.2910
 2265SOL    HW118257   4.200   0.476  12.341  0.7642 -2.4579 -0.6475
 2265SOL    HW218258   4.271   0.448  12.468  0.2951  0.2524  0.7721
 2266SOL     OW18259   0.499   4.444  17.007 -0.0348 -0.4213  0.3722
 2266SOL    HW118260   0.552   4.410  16.935 -3.3702 -1.8323 -1.3997
 2266SOL    HW218261   0.494   4.534  16.975 -2.3126 -0.0172  1.8794
 2267SOL     OW18262   0.266   4.354  10.730 -0.1027 -0.8786  0.3193
 2267SOL    HW118263   0.191   4.301  10.703  0.4048 -1.0489 -0.7418
 2267SOL    HW218264   0.302   4.406  10.658 -1.4506 -0.4844 -0.0588
 2268SOL     OW18265   2.194   3.792   5.472  0.0847  1.0738  0.0117
 2268SOL    HW118266   2.151   3.836   5.399  0.2144  2.4640  0.7905
 2268SOL    HW218267   2.168   3.699   5.469 -0.9422  1.2656  2.5091
 2269SOL     OW18268   3.101   4.510   5.224 -0.5768 -0.6947  0.0822
 2269SOL    HW118269   3.123   4.433   5.171 -0.5209 -0.9544  0.4893
 2269SOL    HW218270   3.035   4.557   5.173  0.3545  1.2963  0.7250
 2270SOL     OW18271   4.227   4.573   5.060  0.1072  0.0605  0.0963
 2270SOL    HW118272   4.173   4.556   4.983  1.0033  2.1076 -1.0000
 2270SOL    HW218273   4.161   4.547   5.125 -1.1968  0.5496 -1.0379
 2271SOL     OW18274   2.435   2.930   7.367 -0.0533  0.1021  0.0036
 2271SOL    HW118275   2.390   2.995   7.421 -1.2119 -0.3504 -0.4124
 2271SOL    HW218276   2.449   2.858   7.428 -1.8424  0.5952  1.0196
 2272SOL     OW18277   0.636   1.458   7.449 -0.0695  0.2941  0.3901
 2272SOL    HW118278   0.580   1.385   7.423  2.1126 -0.6474 -1.6330
 2272SOL    HW218279   0.585   1.535   7.422  2.3021  2.0064  0.7683
 2273SOL     OW18280   2.058   3.761   8.484 -0.0772  0.6826  0.6168
 2273SOL    HW118281   1.983   3.712   8.518  1.6764 -3.4194 -1.4810
 2273SOL    HW218282   2.124   3.695   8.504 -1.0670 -1.0477 -1.6998
 2274SOL     OW18283   3.185   4.495   3.250  0.3193  0.5479 -0.1232
 2274SOL    HW118284   3.110   4.494   3.309 -0.2889  0.6053 -0.8982
 2274SOL    HW218285   3.259   4.524   3.303 -0.9303 -0.1531  1.9837
 2275SOL     OW18286   0.582   3.526  10.073 -0.4456 -0.1589  0.2939
 2275SOL    HW118287   0.525   3.493  10.142  0.7986  0.0886  1.4347
 2275SOL    HW218288   0.658   3.560  10.120  0.1130 -0.9747 -0.0329
 2276SOL     OW18289   2.569   3.789   7.246 -0.1301  0.1237  0.5557
 2276SOL    HW118290   2.579   3.786   7.151  0.0730  1.6010  0.5184
 2276SOL    HW218291   2.474   3.781   7.251 -0.3076  1.7847 -0.0520
 2277SOL     OW18292   4.000   2.409  17.026 -0.3334 -0.4634 -0.3117
 2277SOL    HW118293   3.907   2.430  17.014 -0.1936  0.6394  0.5008
 2277SOL    HW218294   4.025   2.487  17.075  1.6003 -2.1800  1.4154
 2278SOL     OW18295   1.386   2.475   3.018  0.0109 -0.3569 -0.0576
 2278SOL    HW118296   1.343   2.403   3.064 -0.1168  0.2099  0.7082
 2278SOL    HW218297   1.460   2.501   3.072  1.7293  0.7523 -2.9061
 2279SOL     OW18298   3.698   0.650   0.551  0.0906  0.5875 -0.1554
 2279SOL    HW118299   3.696   0.571   0.606  1.8140 -0.3428 -1.4078
 2279SOL    HW218300   3.785   0.687   0.567  0.3119  0.6227 -1.4133
 2280SOL     OW18301   4.105   4.329   4.327 -0.4346  0.3075 -0.0878
 2280SOL    HW118302   4.191   4.360   4.300 -1.5294  1.7625 -1.8623
 2280SOL    HW218303   4.104   4.367   4.415  0.2296 -0.7094  0.3570
 2281SOL     OW18304   3.090   4.574   7.423  0.3944 -0.5357  0.4635
 2281SOL    HW118305   3.073   4.515   7.497  0.8261 -1.2134  0.0244
 2281SOL    HW218306   3.034   4.650   7.436 -0.2549 -0.8781 -0.3552
 2282SOL     OW18307   3.676   3.771   9.737 -0.1095  0.2455 -0.4522
 2282SOL    HW118308   3.594   3.736   9.774 -0.2226 -0.0454 -0.9708
 2282SOL    HW218309   3.725   3.801   9.813 -0.5257  1.3445 -0.6223
 2283SOL     OW18310   3.422   3.895   8.227 -0.4501  0.1730  0.2185
 2283SOL    HW118311   3.363   3.820   8.231  2.2400 -1.9392  0.2875
 2283SOL    HW218312   3.381   3.949   8.295  2.0351  0.7432  1.2758
 2284SOL     OW18313   0.321   2.030   5.422  0.0756 -0.2258  0.1095
 2284SOL    HW118314   0.349   2.051   5.333  0.6337  2.2400  0.8664
 2284SOL    HW218315   0.238   1.986   5.404 -1.1874  1.3709  2.0245
 2285SOL     OW18316   0.581   0.897  13.635 -0.4392 -0.5119  0.2541
 2285SOL    HW118317   0.501   0.930  13.595 -0.3050 -1.4850 -0.8053
 2285SOL    HW218318   0.615   0.861  13.554 -1.2951  1.3206 -0.9098
 2286SOL     OW18319   2.936   2.883   1.428 -0.7871  0.2488  0.1271
 2286SOL    HW118320   2.854   2.891   1.380 -1.5764 -1.4001  1.2074
 2286SOL    HW218321   2.945   2.788   1.423  2.8189  0.7338 -2.5176
 2287SOL     OW18322   2.990   2.828   0.177 -0.7359 -0.1030 -0.1355
 2287SOL    HW118323   3.062   2.861   0.122 -0.5940 -0.3044 -0.0708
 2287SOL    HW218324   3.007   2.735   0.188 -1.9197 -0.4625 -1.3398
 2288SOL     OW18325   3.563   4.664   1.411  0.1956  0.3961  0.5131
 2288SOL    HW118326   3.605   4.646   1.495 -0.3261 -0.9223  0.4971
 2288SOL    HW218327   3.521   0.024   1.431 -2.4006 -0.1675 -2.4642
 2289SOL     OW18328   3.103   3.163   3.657 -0.0284  0.6444  0.2378
 2289SOL    HW118329   3.071   3.073   3.667  0.6626  0.6366  2.4042
 2289SOL    HW218330   3.115   3.192   3.748  1.3107  0.0896  0.2433
 2290SOL     OW18331   0.516   0.034   1.704 -0.3009  0.1013 -0.0400
 2290SOL    HW118332   0.493   0.126   1.702 -3.0113 -0.5922 -0.9052
 2290SOL    HW218333   0.469   4.714   1.632  0.4266 -0.9301  0.1015
 2291SOL     OW18334   3.158   4.199  15.680 -0.0781 -0.0208 -0.7689
 2291SOL    HW118335   3.249   4.200  15.649  0.6002  0.3121  1.2483
 2291SOL    HW218336   3.119   4.206  15.593 -0.5210  2.4415 -0.3651
 2292SOL     OW18337   4.541   4.486   9.549 -0.2373 -0.3054 -0.0992
 2292SOL    HW118338   4.462   4.440   9.520  0.3620  1.7049 -4.9736
 2292SOL    HW218339   4.552   4.539   9.470 -0.3683 -0.3679 -0.1587
 2293SOL     OW18340   0.145   1.396   2.902 -0.3185 -0.0993 -0.2258
 2293SOL    HW118341   0.210   1.432   2.842 -0.6727  0.3183 -0.3601
 2293SOL    HW218342   0.083   1.469   2.905 -0.6945 -0.4450  0.6319
 2294SOL     OW18343   0.151   1.940   4.178  1.0436  0.2057 -1.0995
 2294SOL    HW118344   0.178   2.029   4.157  0.6309 -0.0496 -2.6900
 2294SOL    HW218345   0.127   1.957   4.269  1.2622 -0.7802 -0.8527
 2295SOL     OW18346   4.656   0.935   9.451 -0.5980 -0.2361 -0.1416
 2295SOL    HW118347   4.685   1.025   9.437 -1.1496 -0.0762 -0.2411
 2295SOL    HW218348   4.663   0.892   9.365  1.3751  1.0136 -0.6000
 2296SOL     OW18349   1.737   3.522  13.489  0.4516 -0.4042  0.2940
 2296SOL    HW118350   1.763   3.541  13.579  0.2343  1.2313  0.0010
 2296SOL    HW218351   1.657   3.575  13.485  0.4874 -0.2507  1.9392
 2297SOL     OW18352   3.942   0.676   3.710 -0.6670  0.2467  0.0007
 2297SOL    HW118353   3.880   0.632   3.769 -1.2249  1.1442  0.1014
 2297SOL    HW218354   4.014   0.697   3.770 -0.3724 -0.2840 -0.1687
 2298SOL     OW18355   3.771   1.029   7.777 -0.1365  0.2112 -0.0406
 2298SOL    HW118356   3.798   1.102   7.832 -0.2328  0.5945 -0.4982
 2298SOL    HW218357   3.710   0.986   7.837 -0.7732  2.2228  0.7523
 2299SOL     OW18358   1.650   2.588  17.069  0.8469  0.3904  0.5732
 2299SOL    HW118359   1.611   2.675  17.080 -1.1280 -0.1708 -1.8760
 2299SOL    HW218360   1.712   2.575  17.140 -0.0837 -1.0516  1.1183
 2300SOL     OW18361   3.865   4.343   4.238  0.2487  0.3262 -0.0281
 2300SOL    HW118362   3.951   4.337   4.279 -1.1377  0.2478  2.8760
 2300SOL    HW218363   3.842   4.436   4.242 -0.0069  0.2942 -0.7601
 2301SOL     OW18364   1.153   2.463   9.937  0.1899 -0.7268 -0.1144
 2301SOL    HW118365   1.064   2.429   9.931 -0.3927  1.0879 -1.8684
 2301SOL    HW218366   1.196   2.413   9.868  1.4966  0.3737 -0.0938
 2302SOL     OW18367   1.652   1.113  14.559  0.1078 -0.2704 -0.1216
 2302SOL    HW118368   1.629   1.040  14.616  0.7101 -0.2848  0.1041
 2302SOL    HW218369   1.645   1.190  14.615 -2.0300  1.4383 -2.7600
 2303SOL     OW18370   4.138   3.071   3.029  0.2564  0.2662 -0.3429
 2303SOL    HW118371   4.106   3.032   3.111 -2.4037  0.4571 -1.2799
 2303SOL    HW218372   4.089   3.153   3.031  2.2153  1.3797  1.6804
 2304SOL     OW18373   1.312   0.872   5.773 -0.3230 -0.0143 -0.3674
 2304SOL    HW118374   1.263   0.893   5.693  1.0708 -0.0408 -1.2321
 2304SOL    HW218375   1.242   0.887   5.836  0.2518  0.5868  0.1262
 2305SOL     OW18376   1.932   4.116   5.439 -0.1554 -0.2223  0.0680
 2305SOL    HW118377   1.999   4.049   5.429 -0.9899 -1.0394 -0.0717
 2305SOL    HW218378   1.858   4.087   5.386  0.6613 -1.7560 -0.2464
 2306SOL     OW18379   2.600   4.063  16.967 -0.9351 -0.3688  0.2946
 2306SOL    HW118380   2.528   4.125  16.954  0.6281  1.3373 -0.1600
 2306SOL    HW218381   2.598   4.008  16.889  1.4825  2.6783 -1.9125
 2307SOL     OW18382   1.224   0.059  14.975 -0.2774  0.4275  0.2544
 2307SOL    HW118383   1.211   0.154  14.973  0.2568  0.4460 -2.1637
 2307SOL    HW218384   1.312   0.058  14.938 -0.0271 -0.2917  0.8733
 2308SOL     OW18385   3.016   1.545  14.876  0.4464 -0.1506 -0.6309
 2308SOL    HW118386   2.993   1.470  14.821  2.6386 -2.2635  1.2905
 2308SOL    HW218387   3.070   1.517  14.951 -0.9540  1.8668  1.1508
 2309SOL     OW18388   0.151   1.687   8.708  0.2734 -0.5637 -0.6205
 2309SOL    HW118389   0.220   1.674   8.773  0.9546  1.6535 -0.9213
 2309SOL    HW218390   0.104   1.603   8.708 -1.4055  0.3786 -0.9497
 2310SOL     OW18391   2.117   2.846  14.249  0.2004 -0.7329 -0.0960
 2310SOL    HW118392   2.206   2.824  14.274 -0.1440 -0.1754  1.6282
 2310SOL    HW218393   2.130   2.841  14.154  1.4085  1.1755 -0.0495
 2311SOL     OW18394   1.334   0.078   3.427  0.6327 -0.4569 -0.4983
 2311SOL    HW118395   1.323   0.145   3.495 -0.4769  0.5357 -1.6600
 2311SOL    HW218396   1.260   0.025   3.458  0.5824 -0.3613 -0.4523
 2312SOL     OW18397   1.524   4.609   8.548  0.1034 -0.1434  0.5908
 2312SOL    HW118398   1.500   4.520   8.573  1.2018 -0.9962 -1.4093
 2312SOL    HW218399   1.444   4.641   8.507  1.2235  2.4957  0.4111
 2313SOL     OW18400   3.342   4.059   8.427 -0.3033 -0.3135  0.5831
 2313SOL    HW118401   3.387   4.144   8.432 -0.0680 -0.4336  0.5168
 2313SOL    HW218402   3.255   4.099   8.430  0.7372  1.9778  0.0955
 2314SOL     OW18403   0.866   0.273  10.383  0.2610 -0.3772  0.1659
 2314SOL    HW118404   0.930   0.322  10.332 -2.0905  2.4070 -0.0516
 2314SOL    HW218405   0.802   0.343  10.397 -1.1355 -1.4663 -0.7696
 2315SOL     OW18406   0.843   2.129   1.463 -0.1275 -0.0631  0.7451
 2315SOL    HW118407   0.915   2.121   1.525  0.8205  0.2224 -0.3257
 2315SOL    HW218408   0.868   2.053   1.410 -2.6774 -1.2845  1.2603
 2316SOL     OW18409   3.255   0.157   3.936 -0.2577  0.3354 -0.1829
 2316SOL    HW118410   3.161   0.173   3.922 -0.1524 -2.0476 -3.7313
 2316SOL    HW218411   3.265   0.063   3.920  1.1693  0.6280 -1.0398
 2317SOL     OW18412   3.402   1.491   0.017 -0.8616  0.5815 -0.0260
 2317SOL    HW118413   3.449   1.573   0.033 -0.1664 -0.0776  1.3421
 2317SOL    HW218414   3.459   1.429   0.063 -1.5139 -0.3309 -0.4439
 2318SOL     OW18415   0.050   1.013  11.484  0.0642 -0.2884  0.2587
 2318SOL    HW118416   0.073   1.063  11.406 -0.6284 -0.9924 -0.3904
 2318SOL    HW218417   4.696   0.971  11.448 -0.1480  0.0419  0.3307
 2319SOL     OW18418   2.966   1.697   5.842 -0.1660 -0.0147 -0.5454
 2319SOL    HW118419   2.928   1.661   5.761  0.7242  0.4577 -1.1719
 2319SOL    HW218420   3.051   1.658   5.820  0.2991  0.5851  0.2216
 2320SOL     OW18421   3.540   0.944   7.540  0.3911 -0.4869  0.1015
 2320SOL    HW118422   3.597   0.932   7.616  0.0178 -0.5763  0.3647
 2320SOL    HW218423   3.546   0.855   7.507  1.4798 -0.4082  0.0681
 2321SOL     OW18424   0.659   0.653   9.417 -0.5656 -0.1414  0.6464
 2321SOL    HW118425   0.713   0.657   9.496 -0.6725  2.0273  0.5907
 2321SOL    HW218426   0.659   0.745   9.393 -1.1618 -0.1367  0.6522
 2322SOL     OW18427   1.299   3.103   6.509 -0.4042 -0.0694 -0.1071
 2322SOL    HW118428   1.368   3.038   6.500  0.1375  0.4854  0.0280
 2322SOL    HW218429   1.341   3.178   6.467  0.3318 -0.2401  0.3275
 2323SOL     OW18430   2.082   2.926  14.748  0.1553  0.1331  0.2848
 2323SOL    HW118431   2.011   2.955  14.805 -0.6812 -2.9131  0.8248
 2323SOL    HW218432   2.058   2.833  14.745 -1.2766  0.5176 -0.8236
 2324SOL     OW18433   1.550   0.661   6.755  0.4273 -0.2996 -0.3224
 2324SOL    HW118434   1.640   0.685   6.731  0.0557  1.5606  0.1548
 2324SOL    HW218435   1.550   0.620   6.841  2.5104  1.4677  0.5321
 2325SOL     OW18436   0.182   2.206   2.085 -0.6196 -0.5650 -0.0468
 2325SOL    HW118437   0.165   2.201   1.990 -1.3568  0.5918  0.0351
 2325SOL    HW218438   0.146   2.292   2.103  0.8495  0.5189 -2.3178
 2326SOL     OW18439   3.941   2.289   3.401  0.1386  0.2031 -0.8086
 2326SOL    HW118440   4.027   2.330   3.401 -0.4795  1.4896  0.5596
 2326SOL    HW218441   3.962   2.206   3.443 -2.4066  0.0539  0.1728
 2327SOL     OW18442   2.016   1.971   3.467  0.1925 -0.0344 -0.0696
 2327SOL    HW118443   2.058   1.940   3.547  1.5990 -0.3144 -0.9226
 2327SOL    HW218444   2.095   1.985   3.417 -0.7427 -3.3543 -2.4649
 2328SOL     OW18445   1.429   2.527   6.344 -0.4985 -0.5449  0.4238
 2328SOL    HW118446   1.518   2.493   6.335 -0.1447  0.1399  1.3295
 2328SOL    HW218447   1.403   2.504   6.434 -0.3735 -0.5896  0.4485
 2329SOL     OW18448   4.671   3.314  12.206 -0.3244 -0.4786 -0.6547
 2329SOL    HW118449   4.586   3.281  12.232 -1.0913  0.9524 -1.3605
 2329SOL    HW218450   0.020   3.255  12.229  1.3143  2.3098  1.2940
 2330SOL     OW18451   1.017   3.016   6.902  0.0851 -0.3620 -0.2748
 2330SOL    HW118452   1.005   2.949   6.835 -0.2460 -1.7020  1.1243
 2330SOL    HW218453   1.062   3.082   6.850 -1.6895  0.1763 -1.1278
 2331SOL     OW18454   0.617   0.074   7.671  0.3434  0.4924  0.1718
 2331SOL    HW118455   0.713   0.068   7.671  0.4073  1.4997  0.9138
 2331SOL    HW218456   0.595   0.125   7.593 -3.3014 -1.0512  0.1974
 2332SOL     OW18457   2.168   1.122  15.477 -0.5097 -0.3487  0.2563
 2332SOL    HW118458   2.091   1.110  15.421 -0.5535  0.6140  0.1121
 2332SOL    HW218459   2.213   1.198  15.438 -0.2400 -0.8897 -0.4887
 2333SOL     OW18460   1.768   1.149   1.547  0.2425  0.0765  0.0764
 2333SOL    HW118461   1.821   1.147   1.468 -2.6539 -0.2712 -1.8731
 2333SOL    HW218462   1.697   1.196   1.504  0.4473 -0.7378 -1.1745
 2334SOL     OW18463   1.156   1.504   6.108 -0.4892 -0.0213 -0.1032
 2334SOL    HW118464   1.206   1.485   6.028 -0.4528 -0.5308  0.0417
 2334SOL    HW218465   1.175   1.596   6.125 -0.9830  0.2485 -0.9800
 2335SOL     OW18466   2.246   1.400   4.814 -0.3407  0.3553 -0.3644
 2335SOL    HW118467   2.286   1.317   4.841 -0.9956  0.7537  1.8349
 2335SOL    HW218468   2.234   1.385   4.720 -1.5738 -1.8432  0.1389
 2336SOL     OW18469   3.041   4.076   6.199  0.4412 -0.3754  0.1105
 2336SOL    HW118470   3.135   4.091   6.204  0.2554  0.4869  0.8908
 2336SOL    HW218471   3.041   3.983   6.221  0.4176 -0.4470 -0.1940
 2337SOL     OW18472   0.917   1.084   3.689 -0.6268  0.1478 -0.2153
 2337SOL    HW118473   0.937   1.009   3.632  0.5042 -1.4113  2.2429
 2337SOL    HW218474   0.978   1.150   3.658 -0.9660 -0.1764 -1.6036
 2338SOL     OW18475   3.240   3.934  12.594  0.2513 -0.0632 -0.7170
 2338SOL    HW118476   3.312   3.871  12.605  0.0593  0.0029  0.9089
 2338SOL    HW218477   3.204   3.909  12.509 -0.5097  0.3965 -0.5242
 2339SOL     OW18478   1.096   0.858   7.680  0.3233 -0.3646 -0.1865
 2339SOL    HW118479   1.075   0.773   7.718 -3.5239  0.6958  0.0971
 2339SOL    HW218480   1.047   0.858   7.598  0.7724  0.7931 -0.4552
 2340SOL     OW18481   3.626   3.132   7.247 -0.1205 -0.3507 -0.4152
 2340SOL    HW118482   3.602   3.067   7.313  1.8158 -0.8050 -0.1657
 2340SOL    HW218483   3.721   3.131   7.237  0.0941  1.1132  1.5276
 2341SOL     OW18484   0.564   0.733   4.334 -0.2330  0.5293 -0.5986
 2341SOL    HW118485   0.558   0.649   4.290 -1.1575 -0.1780  0.8794
 2341SOL    HW218486   0.647   0.739   4.380 -1.8024 -0.3408  2.3722
 2342SOL     OW18487   1.023   3.161  15.082  0.3393 -0.0057  0.3820
 2342SOL    HW118488   1.069   3.110  15.015  0.2474  0.7414 -0.2573
 2342SOL    HW218489   1.089   3.151  15.151  1.0649 -0.0523 -0.3135
 2343SOL     OW18490   0.758   2.829   4.072 -0.3231 -0.1251 -0.1854
 2343SOL    HW118491   0.761   2.858   4.164  0.9255 -0.0118 -0.2570
 2343SOL    HW218492   0.667   2.844   4.050  0.1201  1.5438 -0.8940
 2344SOL     OW18493   4.151   2.303   8.190  0.3454  0.8438 -0.1023
 2344SOL    HW118494   4.082   2.245   8.157 -0.4876  1.3308  0.7560
 2344SOL    HW218495   4.221   2.255   8.146  0.7011  0.2558  1.1046
 2345SOL     OW18496   0.941   1.071   6.552 -0.0108 -0.4304 -0.2639
 2345SOL    HW118497   1.014   1.090   6.492  0.9086 -1.5041  0.5044
 2345SOL    HW218498   0.908   1.159   6.568 -1.4940 -1.1950  0.8764
 2346SOL     OW18499   1.666   0.273  12.758 -0.4124  0.5225 -0.2135
 2346SOL    HW118500   1.738   0.211  12.765  0.3106  1.3004 -0.7634
 2346SOL    HW218501   1.600   0.244  12.822  0.3684  0.7463  0.6977
 2347SOL     OW18502   4.325   4.528   8.732  0.3234 -0.2018 -0.4872
 2347SOL    HW118503   4.300   4.526   8.824 -2.5280 -1.4040 -1.2821
 2347SOL    HW218504   4.238   4.504   8.698  0.0079 -1.6324  1.3333
 2348SOL     OW18505   1.512   1.124   6.821  0.5201 -0.1166  0.5666
 2348SOL    HW118506   1.541   1.039   6.787  0.7709  0.6041 -1.0679
 2348SOL    HW218507   1.431   1.102   6.866  0.4542 -2.1697 -0.5482
 2349SOL     OW18508   0.361   3.571   1.137 -0.0322 -1.0695 -0.5667
 2349SOL    HW118509   0.386   3.494   1.187  0.5590  0.9187  2.1789
 2349SOL    HW218510   0.448   3.609   1.121 -0.8758  1.6347  1.3944
 2350SOL     OW18511   2.163   0.597   3.126 -1.0160  0.7431 -0.1353
 2350SOL    HW118512   2.253   0.628   3.114  0.2496 -3.0026 -0.1904
 2350SOL    HW218513   2.173   0.502   3.132 -0.2454  0.8249 -0.1216
 2351SOL     OW18514   3.260   4.316   7.278  0.6092  0.1856 -0.8497
 2351SOL    HW118515   3.347   4.354   7.271  0.9463  0.1524  3.5540
 2351SOL    HW218516   3.237   4.325   7.185  1.2428 -0.1428 -1.0417
 2352SOL     OW18517   3.974   1.471   7.976  0.7679  0.1223 -0.1429
 2352SOL    HW118518   3.952   1.562   7.997  1.9422  0.6472 -1.2035
 2352SOL    HW218519   4.035   1.493   7.905 -0.0518  0.2350 -0.8102
 2353SOL     OW18520   0.154   4.554   7.853  0.1794 -0.1625  0.1021
 2353SOL    HW118521   0.101   4.543   7.932  0.8386 -3.9019  0.0330
 2353SOL    HW218522   0.156   4.649   7.838  1.9295 -0.2332 -0.0989
 2354SOL     OW18523   2.709   1.637   4.635  0.0811  0.1308  0.1790
 2354SOL    HW118524   2.784   1.590   4.671  1.0590  0.9559 -0.8025
 2354SOL    HW218525   2.734   1.723   4.666  0.0826  1.1262 -2.6095
 2355SOL     OW18526   3.329   2.835   7.958  0.3326 -0.7727 -0.7052
 2355SOL    HW118527   3.272   2.869   7.889  0.7277  0.7239 -0.3114
 2355SOL    HW218528   3.277   2.757   7.974 -1.0160  0.2331 -0.1415
 2356SOL     OW18529   2.499   2.689   1.959 -0.0342 -0.5678  0.3275
 2356SOL    HW118530   2.500   2.784   1.970 -1.4298 -0.6044  0.6747
 2356SOL    HW218531   2.418   2.669   1.913 -0.4568 -1.4993  1.4886
 2357SOL     OW18532   0.629   2.180   5.710 -0.2619 -0.4857  0.2906
 2357SOL    HW118533   0.590   2.109   5.658 -0.8258  0.9977 -1.2783
 2357SOL    HW218534   0.633   2.135   5.795  0.0154 -1.2715 -0.1361
 2358SOL     OW18535   1.344   2.172  10.039 -0.6624 -0.5178 -0.1336
 2358SOL    HW118536   1.371   2.247  10.091  0.4323  0.6874 -2.4443
 2358SOL    HW218537   1.345   2.102  10.104  3.2165  0.1084  0.4534
 2359SOL     OW18538   0.139   2.329   5.203  0.7971  0.2436  0.3074
 2359SOL    HW118539   0.232   2.346   5.188  0.8801  0.5363  1.1288
 2359SOL    HW218540   0.096   2.321   5.118  0.8351 -0.4734  0.3489
 2360SOL     OW18541   3.151   2.455   6.199  0.0714  0.2300  0.6297
 2360SOL    HW118542   3.217   2.426   6.262  2.9568 -0.4320 -2.6401
 2360SOL    HW218543   3.154   2.548   6.219  0.0839  0.6603 -1.3673
 2361SOL     OW18544   4.311   2.022   5.696  0.3170 -0.3474 -0.2651
 2361SOL    HW118545   4.403   2.046   5.702  0.2844  0.7537 -4.3020
 2361SOL    HW218546   4.268   2.100   5.661 -0.2933 -0.1468  0.9018
 2362SOL     OW18547   3.711   1.162   0.228 -0.4867  0.0529  0.0018
 2362SOL    HW118548   3.716   1.070   0.257  0.4078 -0.8440 -2.9752
 2362SOL    HW218549   3.806   1.171   0.228 -0.5051  0.1883 -1.3983
 2363SOL     OW18550   3.983   0.385   9.111  0.1829  0.0062 -0.2275
 2363SOL    HW118551   3.966   0.295   9.083 -0.7025 -0.0770  0.6291
 2363SOL    HW218552   3.966   0.421   9.024  2.4515 -1.6664 -1.4015
 2364SOL     OW18553   3.595   3.240   7.624 -0.3760 -0.1993  0.2431
 2364SOL    HW118554   3.647   3.222   7.546  0.7230  1.2265  0.6503
 2364SOL    HW218555   3.537   3.303   7.582  2.9089  1.6045 -1.5059
 2365SOL     OW18556   0.928   1.547   1.784  0.2178 -0.1181  0.2079
 2365SOL    HW118557   0.978   1.579   1.710 -2.6379  2.6840 -0.4934
 2365SOL    HW218558   0.854   1.607   1.786  0.8546  0.6085  2.2034
 2366SOL     OW18559   3.140   3.155   1.707 -0.0828 -0.5686  0.2001
 2366SOL    HW118560   3.103   3.169   1.620 -1.4246  0.1662  0.8827
 2366SOL    HW218561   3.079   3.095   1.751 -1.1109 -0.6966 -1.3892
 2367SOL     OW18562   1.107   0.918   7.217 -0.0601 -0.0912 -0.8222
 2367SOL    HW118563   1.123   1.006   7.183 -0.0061 -0.0648 -0.7294
 2367SOL    HW218564   1.197   0.901   7.243 -0.0483 -1.5127 -1.7793
 2368SOL     OW18565   4.134   1.240   8.931  0.2787 -0.8509 -0.0244
 2368SOL    HW118566   4.216   1.199   8.904  0.3434 -0.3854 -0.5313
 2368SOL    HW218567   4.140   1.221   9.025 -0.4161  0.4500  0.2846
 2369SOL     OW18568   3.427   4.033  15.903  0.4344  0.2537  0.0608
 2369SOL    HW118569   3.413   3.939  15.893 -0.5927  0.4155 -0.0464
 2369SOL    HW218570   3.480   4.035  15.823  1.0762 -0.2299  0.4748
 2370SOL     OW18571   3.175   1.413   6.320  0.0918  0.5297  0.5226
 2370SOL    HW118572   3.139   1.477   6.259 -0.4275 -0.9563 -0.7598
 2370SOL    HW218573   3.269   1.430   6.317  0.1522  0.3481  1.4386
 2371SOL     OW18574   0.793   4.612   6.115  0.4799 -0.0689 -0.5563
 2371SOL    HW118575   0.809   4.665   6.036  2.2075  0.0277 -0.1510
 2371SOL    HW218576   0.699   4.623   6.130  0.4672  0.4682 -1.0355
 2372SOL     OW18577   4.045   2.663   1.990 -0.5002 -0.0542 -0.3602
 2372SOL    HW118578   4.115   2.669   2.056  0.7062 -2.5251 -1.3981
 2372SOL    HW218579   4.041   2.748   1.947  1.4828  0.2017 -0.0177
 2373SOL     OW18580   2.229   1.594   6.416  0.1133  0.3109  0.2158
 2373SOL    HW118581   2.217   1.685   6.445 -1.7283  0.7206 -1.8156
 2373SOL    HW218582   2.140   1.562   6.426  0.4792 -0.4255  1.0727
 2374SOL     OW18583   2.922   1.119   9.419 -0.0956 -0.3397  0.0361
 2374SOL    HW118584   2.837   1.156   9.441 -0.0132  1.4346 -2.7237
 2374SOL    HW218585   2.961   1.108   9.506 -2.2068 -0.8240  0.9360
 2375SOL     OW18586   3.943   3.006   8.572  0.6278 -0.1883 -0.0495
 2375SOL    HW118587   4.005   3.058   8.622  0.6030  1.0948 -1.3603
 2375SOL    HW218588   3.933   2.927   8.625  0.9495 -1.4724 -1.8751
 2376SOL     OW18589   3.900   0.007   4.944 -0.1881  0.0402 -0.5709
 2376SOL    HW118590   3.888   4.650   4.993 -0.7979 -0.8632 -2.1978
 2376SOL    HW218591   3.815   0.046   4.965 -0.2719 -0.3101 -0.2577
 2377SOL     OW18592   0.396   0.975   8.060  0.3732  0.1056 -0.2914
 2377SOL    HW118593   0.351   0.912   8.116  0.4392  0.3089 -0.0128
 2377SOL    HW218594   0.458   0.921   8.010 -0.3685 -1.4653  0.4885
 2378SOL     OW18595   0.180   4.690   0.483  0.1135 -0.0130 -0.2269
 2378SOL    HW118596   0.153   0.028   0.414  1.9440 -1.1014 -1.9120
 2378SOL    HW218597   0.221   4.629   0.422  1.2755  2.7516 -2.2130
 2379SOL     OW18598   1.265   0.290   6.488 -0.0685 -0.2306 -0.3487
 2379SOL    HW118599   1.238   0.248   6.570  0.3647  1.6515  0.7445
 2379SOL    HW218600   1.325   0.355   6.523 -1.8008 -0.0033  2.2096
 2380SOL     OW18601   3.690   3.405  10.563 -0.2533 -0.0460 -0.2795
 2380SOL    HW118602   3.741   3.360  10.629 -1.5633 -1.2476 -0.0887
 2380SOL    HW218603   3.701   3.498  10.585 -1.8757 -0.5604  2.7522
 2381SOL     OW18604   2.630   2.803   3.821  0.3327  0.1515  0.3116
 2381SOL    HW118605   2.597   2.770   3.905  1.8609  0.5228  1.0632
 2381SOL    HW218606   2.703   2.751   3.789 -0.0015 -0.2735  0.2441
 2382SOL     OW18607   1.097   2.849   2.716  0.3936 -0.1073  0.1419
 2382SOL    HW118608   1.157   2.866   2.643 -0.2461  0.2675 -0.2923
 2382SOL    HW218609   1.120   2.924   2.771  0.3025 -1.2309  1.7464
 2383SOL     OW18610   2.601   0.892  14.445 -0.3659 -0.0569 -0.3520
 2383SOL    HW118611   2.561   0.819  14.397 -1.9084  0.4368  0.1957
 2383SOL    HW218612   2.630   0.842  14.521  1.2664 -1.6492 -1.9949
 2384SOL     OW18613   1.670   2.260   8.072  0.4462  0.0880 -0.2407
 2384SOL    HW118614   1.681   2.343   8.119  0.3747 -0.3881  0.6097
 2384SOL    HW218615   1.759   2.258   8.037  1.8102 -1.5828  3.3096
 2385SOL     OW18616   0.036   2.983   6.768  0.1547 -0.2455  0.4639
 2385SOL    HW118617   4.666   2.977   6.751  0.3956 -1.6083 -0.3566
 2385SOL    HW218618   0.042   2.932   6.849 -3.2146 -0.1931  0.7367
 2386SOL     OW18619   4.326   1.195   8.102  0.5979 -0.4342 -0.1719
 2386SOL    HW118620   4.281   1.204   8.186  1.9290  1.6664  0.3261
 2386SOL    HW218621   4.249   1.160   8.057  1.4033 -1.9414 -0.3686
 2387SOL     OW18622   3.765   1.257   6.049  0.7133  0.7276  0.4721
 2387SOL    HW118623   3.703   1.330   6.043 -0.4584 -0.1160  2.6411
 2387SOL    HW218624   3.733   1.207   6.123  2.5146  0.6155  1.1827
 2388SOL     OW18625   3.281   2.114  17.304 -0.7921  0.7030 -0.3878
 2388SOL    HW118626   3.352   2.123  17.367 -1.8521  0.8860  0.7897
 2388SOL    HW218627   3.204   2.103  17.359  1.8358 -0.0935  3.1268
 2389SOL     OW18628   0.952   1.166   5.079  0.1935 -0.1328 -0.1885
 2389SOL    HW118629   0.990   1.189   4.994  1.0402 -1.1813 -0.0839
 2389SOL    HW218630   1.005   1.087   5.093  1.4850  0.2838 -2.6148
 2390SOL     OW18631   4.277   4.076   9.891 -0.0901  0.2219 -0.2175
 2390SOL    HW118632   4.252   4.023   9.968 -1.2769 -0.2718 -0.9406
 2390SOL    HW218633   4.258   4.017   9.818 -1.0915 -1.4890  1.3786
 2391SOL     OW18634   4.170   2.380   0.606  0.3498 -0.0839 -0.3666
 2391SOL    HW118635   4.144   2.323   0.533  0.1103  0.3898 -0.6499
 2391SOL    HW218636   4.176   2.462   0.557  2.5123 -0.2100 -0.3158
 2392SOL     OW18637   2.050   3.491  13.208 -0.4844  0.3571  0.1531
 2392SOL    HW118638   2.113   3.545  13.256  0.0749  0.5164 -0.7568
 2392SOL    HW218639   1.970   3.533  13.238 -1.0816 -0.2468 -0.6069
 2393SOL     OW18640   4.669   0.680  12.948  0.3054  0.2195 -0.1992
 2393SOL    HW118641   4.621   0.637  13.018 -0.2229  0.0886 -0.6378
 2393SOL    HW218642   0.007   0.608  12.931 -1.0144 -1.2329  1.1863
 2394SOL     OW18643   4.692   2.244  16.581 -0.7423 -0.2098 -0.4918
 2394SOL    HW118644   4.630   2.318  16.576  1.9016  2.0181 -0.4252
 2394SOL    HW218645   4.669   2.200  16.663  0.4542  1.1345  0.5574
 2395SOL     OW18646   1.997   3.244   2.696 -0.2701 -0.3308 -0.2822
 2395SOL    HW118647   1.999   3.153   2.724 -0.2054 -0.1749  0.2063
 2395SOL    HW218648   1.955   3.237   2.610  1.1197  1.1615 -1.0940
 2396SOL     OW18649   1.481   3.780   9.728  0.1573  0.6588 -0.5143
 2396SOL    HW118650   1.556   3.803   9.783  1.0649 -0.0749 -1.4405
 2396SOL    HW218651   1.423   3.720   9.775 -1.9463 -1.3583 -5.7733
 2397SOL     OW18652   0.609   2.698  17.188 -0.4753  0.2858  0.3370
 2397SOL    HW118653   0.688   2.695  17.242 -0.6888 -0.2718  0.6268
 2397SOL    HW218654   0.610   2.789  17.161 -0.9501  0.0870 -0.3575
 2398SOL     OW18655   4.541   4.204   7.991  0.4282  0.2048  0.3240
 2398SOL    HW118656   4.524   4.117   7.956 -0.6893 -0.3568  2.2511
 2398SOL    HW218657   4.494   4.264   7.934 -2.8923 -0.5888  2.2329
 2399SOL     OW18658   3.200   0.657  11.235 -0.3275 -0.2667 -0.2479
 2399SOL    HW118659   3.120   0.646  11.286 -2.1705  2.3360 -2.5758
 2399SOL    HW218660   3.240   0.572  11.248 -0.4025 -0.0049  1.7229
 2400SOL     OW18661   4.331   1.296   7.092  0.0766  0.0637 -0.1442
 2400SOL    HW118662   4.401   1.360   7.084  0.4514 -0.2210  0.8388
 2400SOL    HW218663   4.374   1.214   7.067  3.5408  1.8194  0.1194
 2401SOL     OW18664   1.665   0.736  12.560  0.4676  0.5382  0.1675
 2401SOL    HW118665   1.647   0.703  12.648 -0.7892 -1.3244 -0.7968
 2401SOL    HW218666   1.676   0.654  12.513  0.5728 -1.0709  2.9724
 2402SOL     OW18667   3.489   3.890   8.688 -0.3371 -0.2671  0.0512
 2402SOL    HW118668   3.445   3.809   8.665  1.5248 -1.0679 -0.6490
 2402SOL    HW218669   3.421   3.954   8.666 -0.1058 -0.5586 -1.5571
 2403SOL     OW18670   4.399   3.552   4.071  0.2959 -0.2488  0.6201
 2403SOL    HW118671   4.443   3.467   4.073  0.9819  0.0867 -0.2350
 2403SOL    HW218672   4.363   3.555   3.982  0.0625 -0.4684  0.7063
 2404SOL     OW18673   4.476   0.028   2.836 -0.4214 -0.5825  0.6149
 2404SOL    HW118674   4.516   4.689   2.776 -0.5515  0.5539 -0.6759
 2404SOL    HW218675   4.548   0.090   2.844  0.4069 -1.6867  1.6267
 2405SOL     OW18676   1.458   1.727   0.662  0.2586 -0.2939  0.3552
 2405SOL    HW118677   1.464   1.741   0.756  0.8709  2.1711 -0.0464
 2405SOL    HW218678   1.508   1.803   0.632  2.7571 -0.8444  3.1744
 2406SOL     OW18679   0.423   1.114  11.899  0.0069  0.4725  0.1160
 2406SOL    HW118680   0.362   1.152  11.962  0.4179 -1.0873  1.4534
 2406SOL    HW218681   0.374   1.051  11.847  0.0521 -0.9074  1.7476
 2407SOL     OW18682   1.608   1.832   2.609 -0.6688 -1.0623 -0.1878
 2407SOL    HW118683   1.542   1.901   2.613  0.4855  0.1977 -2.7174
 2407SOL    HW218684   1.591   1.815   2.517 -2.0814  1.4221 -0.3860
 2408SOL     OW18685   0.153   3.074  15.875 -0.0326 -0.0066  0.5725
 2408SOL    HW118686   0.101   3.154  15.866  1.5183  0.9695  0.2448
 2408SOL    HW218687   0.097   3.010  15.919  2.7148 -1.5491  1.8284
 2409SOL     OW18688   4.141   1.120   3.423  0.0262  0.5696  0.0692
 2409SOL    HW118689   4.101   1.120   3.510 -0.3225  2.1814 -0.0935
 2409SOL    HW218690   4.192   1.039   3.426  1.0093  1.1939  0.1167
 2410SOL     OW18691   2.447   2.225   6.073  0.5342  0.7948  0.1037
 2410SOL    HW118692   2.408   2.312   6.066 -1.6197 -0.1357  0.6327
 2410SOL    HW218693   2.540   2.247   6.074  1.1212 -1.7458  1.0854
 2411SOL     OW18694   3.220   3.354  12.363  0.5762 -0.6037 -0.5268
 2411SOL    HW118695   3.214   3.306  12.280  1.2629  0.0863 -0.9863
 2411SOL    HW218696   3.311   3.333  12.383  0.4666 -1.4664 -0.9262
 2412SOL     OW18697   3.280   2.664   9.061 -0.3340  0.0565  0.1598
 2412SOL    HW118698   3.352   2.609   9.031 -2.0230  0.7114 -5.1350
 2412SOL    HW218699   3.209   2.603   9.083  0.2837 -0.3926  0.9011
 2413SOL     OW18700   1.344   3.964   7.887 -0.7069  0.6892 -0.3687
 2413SOL    HW118701   1.267   4.007   7.925  0.5237  2.1051  0.5070
 2413SOL    HW218702   1.305   3.876   7.884  2.4208 -0.6686 -1.7907
 2414SOL     OW18703   3.790   1.159   4.278 -0.5921  0.3657  0.0881
 2414SOL    HW118704   3.799   1.076   4.325 -0.3606  1.1256  1.4037
 2414SOL    HW218705   3.880   1.188   4.267 -0.6495  0.5559  0.1169
 2415SOL     OW18706   1.933   4.190   4.700  0.2074 -0.2080  0.3036
 2415SOL    HW118707   1.974   4.195   4.614  1.6805 -0.5525  0.9934
 2415SOL    HW218708   1.951   4.100   4.725 -0.4945 -0.1179  1.1220
 2416SOL     OW18709   0.342   4.282   7.913 -0.0001  0.4414  0.4982
 2416SOL    HW118710   0.342   4.356   7.853  1.7669  1.2527  1.5011
 2416SOL    HW218711   0.257   4.245   7.892  0.2393 -1.4239  2.8236
 2417SOL     OW18712   1.363   4.516   8.775  0.0315 -0.0859 -0.3814
 2417SOL    HW118713   1.324   4.603   8.787  0.8310  0.4059 -1.2943
 2417SOL    HW218714   1.372   4.483   8.865  0.5929 -0.2883 -0.5139
 2418SOL     OW18715   3.249   3.509   4.981 -0.0439 -0.9402  0.2185
 2418SOL    HW118716   3.184   3.515   4.911 -0.3444  0.1906  0.5872
 2418SOL    HW218717   3.324   3.533   4.927  1.4485 -1.8214  1.9079
 2419SOL     OW18718   0.715   4.342   2.302 -0.0930 -0.3233  0.1125
 2419SOL    HW118719   0.802   4.312   2.276  0.0899  1.6995 -1.5363
 2419SOL    HW218720   0.665   4.319   2.223  0.0060  0.4335 -0.1672
 2420SOL     OW18721   2.061   4.053   1.002  0.2325  0.7270  0.1627
 2420SOL    HW118722   2.105   3.981   0.957 -0.6914 -0.2642  0.8524
 2420SOL    HW218723   2.111   4.075   1.080  2.2492  0.5065 -1.0558
 2421SOL     OW18724   3.646   3.224   8.769 -0.3484 -0.1537 -0.1073
 2421SOL    HW118725   3.684   3.217   8.681 -1.5032  3.3788 -0.9012
 2421SOL    HW218726   3.721   3.243   8.825 -0.9216  1.2488  0.2037
 2422SOL     OW18727   1.070   2.018   6.920  0.0742  0.2668 -0.1546
 2422SOL    HW118728   1.093   1.980   6.835 -1.0349  1.2740 -0.8989
 2422SOL    HW218729   1.056   1.943   6.978 -0.2722  1.7375  1.6309
 2423SOL     OW18730   0.903   0.481  16.824 -0.1506 -0.1112 -0.4724
 2423SOL    HW118731   0.856   0.425  16.762  0.0920 -1.3941  0.5160
 2423SOL    HW218732   0.955   0.534  16.763 -0.1760  0.0608 -0.3450
 2424SOL     OW18733   3.659   1.060   9.546  0.4277 -0.2194 -0.3489
 2424SOL    HW118734   3.754   1.071   9.543  0.3857 -0.1385 -1.3077
 2424SOL    HW218735   3.623   1.107   9.471  3.1228 -0.4846 -1.8394
 2425SOL     OW18736   1.270   1.978   2.860 -0.0108  0.3197  0.1418
 2425SOL    HW118737   1.284   1.886   2.884 -0.5587  0.5575  1.3998
 2425SOL    HW218738   1.340   1.988   2.796  1.1695 -1.1503  1.1880
 2426SOL     OW18739   2.265   3.144   7.422 -0.1037  0.1222  0.5993
 2426SOL    HW118740   2.172   3.168   7.431 -0.3339 -0.7502  0.5590
 2426SOL    HW218741   2.275   3.169   7.330  1.3365 -2.3540  0.0789
 2427SOL     OW18742   3.159   3.364  13.773 -0.6825 -0.5458 -0.7576
 2427SOL    HW118743   3.118   3.413  13.702  0.9095 -0.0842 -1.3691
 2427SOL    HW218744   3.153   3.432  13.840 -2.1589 -0.1387 -1.3137
 2428SOL     OW18745   3.424   3.321   4.430  0.0653  0.3435  0.5604
 2428SOL    HW118746   3.462   3.409   4.424 -0.2369  0.4528  0.2412
 2428SOL    HW218747   3.458   3.278   4.351 -0.7796 -0.0068  0.3870
 2429SOL     OW18748   2.773   3.689  17.352 -0.1770 -0.2448 -0.5157
 2429SOL    HW118749   2.713   3.717  17.283 -0.5002  0.8955  0.2214
 2429SOL    HW218750   2.718   3.687  17.430 -0.2206 -2.1907 -0.5855
 2430SOL     OW18751   3.545   0.190   2.443 -0.4991  0.1515  0.5159
 2430SOL    HW118752   3.633   0.161   2.417 -1.7523 -1.7075 -1.6292
 2430SOL    HW218753   3.530   0.132   2.517 -0.3522 -1.1744 -0.4947
 2431SOL     OW18754   3.014   0.409   4.016 -0.2264 -0.0736 -0.4227
 2431SOL    HW118755   2.989   0.357   3.939 -1.1939  1.8345 -1.3756
 2431SOL    HW218756   3.049   0.488   3.977 -0.2316 -0.3404 -0.9627
 2432SOL     OW18757   3.480   3.886   3.779 -0.0972  0.2546  0.3477
 2432SOL    HW118758   3.385   3.895   3.780 -0.0436  1.0021 -1.4646
 2432SOL    HW218759   3.500   3.924   3.864  2.0153  1.2945 -0.6163
 2433SOL     OW18760   3.356   1.233   5.412  0.2640  0.2219 -0.5368
 2433SOL    HW118761   3.401   1.151   5.390 -0.2190 -0.1101 -0.2929
 2433SOL    HW218762   3.427   1.270   5.464 -0.6410  0.0714  0.7985
 2434SOL     OW18763   4.449   3.775   4.673  0.1676 -0.2599 -0.6419
 2434SOL    HW118764   4.535   3.773   4.715 -0.1021  1.0738 -0.0420
 2434SOL    HW218765   4.397   3.758   4.751 -1.6215 -0.3417 -1.8492
 2435SOL     OW18766   1.673   3.149   5.796  0.2574 -0.5454 -0.1769
 2435SOL    HW118767   1.692   3.147   5.890 -2.4427  0.4502  0.3889
 2435SOL    HW218768   1.605   3.216   5.803 -0.4236 -1.3535  1.0582
 2436SOL     OW18769   4.563   4.126  13.615 -0.1556 -0.4641  0.0434
 2436SOL    HW118770   4.556   4.139  13.710  2.5866 -0.7259  0.2919
 2436SOL    HW218771   4.655   4.100  13.613 -0.5387 -1.7882 -0.4526
 2437SOL     OW18772   1.366   0.059   3.847  0.0145 -0.7229 -0.2005
 2437SOL    HW118773   1.351   0.000   3.774 -0.8597  1.8027 -2.0526
 2437SOL    HW218774   1.291   0.119   3.845  0.2124 -0.4290  0.8004
 2438SOL     OW18775   0.775   0.153   8.557 -0.0163 -0.3474  0.0346
 2438SOL    HW118776   0.839   0.088   8.586  1.0773  0.8545  0.3214
 2438SOL    HW218777   0.719   0.152   8.634  1.8437  0.1641  1.3789
 2439SOL     OW18778   1.137   4.446   4.992 -0.5640 -0.0057 -0.2105
 2439SOL    HW118779   1.131   4.352   5.008  0.6262  0.1825  1.3187
 2439SOL    HW218780   1.111   4.474   5.079  0.3494  0.9943 -0.2627
 2440SOL     OW18781   2.325   0.083   3.692  0.8584  0.4736  0.0365
 2440SOL    HW118782   2.350   0.135   3.617 -1.3441  1.5693  0.0734
 2440SOL    HW218783   2.332   4.714   3.668 -0.1750  0.1352  1.0512
 2441SOL     OW18784   0.529   2.087   6.259  0.1233  0.3878 -0.5008
 2441SOL    HW118785   0.514   2.157   6.324  3.4457 -1.4481  2.2457
 2441SOL    HW218786   0.458   2.112   6.200  0.6940  0.9601 -0.9417
 2442SOL     OW18787   0.710   1.749   4.995 -0.0366 -0.2958  0.4064
 2442SOL    HW118788   0.646   1.768   5.063 -1.4161 -1.0819 -0.6760
 2442SOL    HW218789   0.654   1.736   4.918  0.5814  2.3446 -0.4966
 2443SOL     OW18790   1.108   2.294   8.996 -0.6062  0.1171  0.0415
 2443SOL    HW118791   1.103   2.219   9.054 -0.5897  1.0727  1.2914
 2443SOL    HW218792   1.203   2.305   9.003 -0.5277 -0.8661  0.4439
 2444SOL     OW18793   4.356   2.789   2.432 -0.5862 -0.4588  0.4522
 2444SOL    HW118794   4.326   2.839   2.508  0.3384 -1.3693  1.4191
 2444SOL    HW218795   4.451   2.806   2.429 -0.7950  0.5040 -0.8727
 2445SOL     OW18796   1.877   2.814  15.429 -0.3094  0.5691  0.5448
 2445SOL    HW118797   1.865   2.845  15.519 -0.1357  0.6128  0.5522
 2445SOL    HW218798   1.871   2.719  15.429 -0.7149  0.5923 -1.0493
 2446SOL     OW18799   3.176   4.224   3.436  0.4361 -0.0381 -0.2211
 2446SOL    HW118800   3.235   4.271   3.377  0.4838  2.3543  1.7190
 2446SOL    HW218801   3.092   4.208   3.392  0.8329 -0.3920 -0.8453
 2447SOL     OW18802   0.405   4.324   6.309 -0.4830 -0.6577 -0.8499
 2447SOL    HW118803   0.458   4.401   6.287 -2.2367  0.7450 -0.1429
 2447SOL    HW218804   0.325   4.341   6.261 -1.1248 -1.7047 -0.1293
 2448SOL     OW18805   1.962   0.383   6.274 -0.5416  0.0294 -0.1806
 2448SOL    HW118806   2.042   0.435   6.269  1.5156 -3.1158  0.1227
 2448SOL    HW218807   1.915   0.422   6.347  0.5340 -0.0992  0.5877
 2449SOL     OW18808   1.121   3.807  15.298 -0.2369  0.0804  0.2799
 2449SOL    HW118809   1.105   3.744  15.228  0.4773 -0.7628  0.8742
 2449SOL    HW218810   1.167   3.756  15.365 -0.1480 -1.6841 -1.1181
 2450SOL     OW18811   0.754   1.366   2.477  0.1806  0.1663  0.1443
 2450SOL    HW118812   0.770   1.294   2.416 -0.9452  1.1611 -1.3266
 2450SOL    HW218813   0.665   1.337   2.496 -0.3480  1.6719 -0.0470
 2451SOL     OW18814   2.928   1.271   2.108  0.6325 -0.1272 -0.1443
 2451SOL    HW118815   2.991   1.316   2.051 -1.1272  0.3095 -1.7646
 2451SOL    HW218816   2.885   1.350   2.141 -2.3564 -1.2866 -1.2497
 2452SOL     OW18817   2.609   1.456   9.547  0.4272 -0.3422  0.2497
 2452SOL    HW118818   2.615   1.367   9.513 -1.3319 -0.7290  0.9813
 2452SOL    HW218819   2.580   1.439   9.636 -0.9673 -2.5890 -0.6270
 2453SOL     OW18820   1.032   0.547   2.089 -0.6433  0.4260  0.4080
 2453SOL    HW118821   1.113   0.498   2.074  0.1175  1.7579  0.2676
 2453SOL    HW218822   1.067   0.608   2.153  2.0532 -0.1191 -0.5466
 2454SOL     OW18823   3.222   2.495   7.311  0.2679 -0.2461 -0.2914
 2454SOL    HW118824   3.223   2.400   7.321  2.0787 -0.0578  1.4047
 2454SOL    HW218825   3.207   2.526   7.401  0.3576 -1.6435  0.2089
 2455SOL     OW18826   3.381   3.574   7.766 -0.1874 -0.3901  0.6820
 2455SOL    HW118827   3.303   3.614   7.806  2.1574 -0.1577  5.0594
 2455SOL    HW218828   3.352   3.570   7.675  0.0351  0.7788  0.5584
 2456SOL     OW18829   0.546   4.150  11.184  0.4052 -0.2220 -0.3238
 2456SOL    HW118830   0.484   4.111  11.245  0.0268 -0.2758 -0.7408
 2456SOL    HW218831   0.551   4.076  11.123  2.1674 -1.6571  1.5590
 2457SOL     OW18832   3.283   2.390  12.907  0.3896  0.5457  0.1397
 2457SOL    HW118833   3.248   2.303  12.891  1.1638  0.3735 -0.5707
 2457SOL    HW218834   3.274   2.438  12.824  1.3855  0.2726 -0.1215
 2458SOL     OW18835   0.385   4.643  11.229 -0.1366  0.0046  0.4220
 2458SOL    HW118836   0.360   4.554  11.203  0.0417 -0.3939  1.6297
 2458SOL    HW218837   0.474   4.630  11.261 -0.5797 -1.7292  0.9834
 2459SOL     OW18838   3.823   1.082   0.721 -0.0900  0.4499 -1.1729
 2459SOL    HW118839   3.786   1.094   0.633  0.9404 -0.0482 -1.6868
 2459SOL    HW218840   3.849   1.170   0.749  0.6673  0.1029 -0.7767
 2460SOL     OW18841   1.501   1.085  12.980 -0.3024  0.4015 -0.7795
 2460SOL    HW118842   1.590   1.081  12.945 -0.2521 -0.6831 -0.5074
 2460SOL    HW218843   1.505   1.024  13.053  0.3006  1.4757  0.1007
 2461SOL     OW18844   3.715   4.029   6.897 -0.1411  0.0009 -0.0208
 2461SOL    HW118845   3.785   4.035   6.832  1.0216 -0.0085  1.2112
 2461SOL    HW218846   3.655   4.092   6.856 -1.4277 -1.5603 -0.5445
 2462SOL     OW18847   2.360   0.302  16.492  0.5206 -0.3922  0.0753
 2462SOL    HW118848   2.454   0.281  16.487  0.7990  0.6360  1.0120
 2462SOL    HW218849   2.334   0.215  16.462 -1.3028 -0.3734  1.5899
 2463SOL     OW18850   2.608   1.178  16.888 -0.0088 -0.5269  0.0596
 2463SOL    HW118851   2.666   1.228  16.945  1.3146 -0.1532 -1.6420
 2463SOL    HW218852   2.588   1.103  16.945 -0.9777  0.3112  0.8491
 2464SOL     OW18853   1.885   3.577   8.597 -0.2997 -0.3769 -0.1996
 2464SOL    HW118854   1.842   3.493   8.579 -1.1776 -0.1883  1.0068
 2464SOL    HW218855   1.897   3.555   8.690  0.5242  0.7862 -0.0333
 2465SOL     OW18856   4.398   4.336   0.218 -0.0383 -0.1270  0.1666
 2465SOL    HW118857   4.470   4.397   0.235  0.1822  0.0580 -1.4108
 2465SOL    HW218858   4.374   4.300   0.303  0.7898  1.8039  1.2248
 2466SOL     OW18859   3.291   2.939  10.068 -0.1939 -1.0614 -0.3455
 2466SOL    HW118860   3.206   2.921  10.108  0.5173 -0.4769  1.4192
 2466SOL    HW218861   3.322   3.021  10.107  1.0822 -2.3229  1.3144
 2467SOL     OW18862   2.725   0.609   4.186 -0.1906 -0.1616 -0.5662
 2467SOL    HW118863   2.703   0.643   4.273 -1.4938 -3.9809  0.6432
 2467SOL    HW218864   2.770   0.685   4.150 -1.2201  0.3476 -0.7822
 2468SOL     OW18865   1.290   3.115  11.079 -0.3384 -0.3474 -0.2690
 2468SOL    HW118866   1.333   3.118  10.993 -0.5877 -1.4184 -0.4339
 2468SOL    HW218867   1.198   3.128  11.054  0.0688 -0.5365 -1.8702
 2469SOL     OW18868   1.318   0.006   4.329 -0.2149 -0.0039 -0.4670
 2469SOL    HW118869   1.300   4.649   4.377  0.0647  1.0254  1.3551
 2469SOL    HW218870   1.405   4.709   4.293 -0.3900 -3.0024  0.8733
 2470SOL     OW18871   1.127   0.827   2.036  0.2877  1.0302 -0.2417
 2470SOL    HW118872   1.177   0.874   1.969  1.5549  0.2579  0.1580
 2470SOL    HW218873   1.042   0.868   2.021 -0.2227 -0.0515 -0.2819
 2471SOL     OW18874   0.144   4.678  13.183  0.6581 -0.1522  0.0091
 2471SOL    HW118875   0.225   4.707  13.225  0.7357  1.7661 -1.4895
 2471SOL    HW218876   0.159   4.585  13.165  0.0575 -0.1252 -0.6149
 2472SOL     OW18877   0.338   0.531  16.158  0.1706 -0.0711  0.4223
 2472SOL    HW118878   0.343   0.477  16.237 -0.5048 -0.4592  0.2007
 2472SOL    HW218879   0.411   0.490  16.112  1.1540  0.6548  1.3444
 2473SOL     OW18880   4.579   0.169   4.216  1.1153  0.0224 -0.1844
 2473SOL    HW118881   4.514   0.181   4.148  0.8087 -1.5490 -0.1680
 2473SOL    HW218882   4.600   0.261   4.231 -1.6360  0.3627  1.6031
 2474SOL     OW18883   4.456   1.132   6.676  0.1794 -0.3469 -0.0070
 2474SOL    HW118884   4.365   1.111   6.696 -0.0380  1.0415  0.4950
 2474SOL    HW218885   4.502   1.090   6.748 -1.8207 -0.9293  0.9090
 2475SOL     OW18886   0.870   0.768   3.078 -0.0696  0.3657  0.0829
 2475SOL    HW118887   0.831   0.855   3.091 -0.6016 -0.1324  1.8223
 2475SOL    HW218888   0.921   0.788   3.000 -1.2218  1.8003 -0.3084
 2476SOL     OW18889   4.041   0.171   5.135 -0.2166  0.5700 -0.0269
 2476SOL    HW118890   4.002   0.099   5.085  1.0125  1.3335 -2.0618
 2476SOL    HW218891   4.101   0.202   5.068 -0.3211  1.0259  0.0928
 2477SOL     OW18892   1.369   4.461   6.383  0.8913  0.2051  0.5489
 2477SOL    HW118893   1.423   4.382   6.381  0.4217 -0.1231  0.7913
 2477SOL    HW218894   1.375   4.495   6.293  0.0685 -0.1175  0.3669
 2478SOL     OW18895   3.108   3.263   7.078 -0.1975 -0.0680 -0.7023
 2478SOL    HW118896   3.145   3.224   7.157  1.3013  0.7400 -0.9883
 2478SOL    HW218897   3.069   3.344   7.111  2.2907  1.6007 -1.8256
 2479SOL     OW18898   3.938   1.066   3.185  0.2572  0.2533  0.3376
 2479SOL    HW118899   3.984   1.112   3.115  0.6212  0.0319  0.4269
 2479SOL    HW218900   4.002   1.073   3.256  0.9739 -0.0424 -0.2786
 2480SOL     OW18901   2.005   2.250   2.312 -0.1280 -0.3119 -0.0492
 2480SOL    HW118902   1.993   2.247   2.407 -0.4322  1.2802 -0.0543
 2480SOL    HW218903   2.078   2.188   2.309  0.8889  0.8548  0.9766
 2481SOL     OW18904   2.721   3.066  14.406  0.1275 -0.0746  0.4166
 2481SOL    HW118905   2.804   3.098  14.372  1.2684 -0.9284  2.4382
 2481SOL    HW218906   2.662   3.047  14.333 -1.0273 -0.2087  1.3747
 2482SOL     OW18907   3.029   3.033   2.552 -0.0690 -1.1769  0.0082
 2482SOL    HW118908   3.067   3.120   2.538  0.0940 -1.3774 -0.7740
 2482SOL    HW218909   3.101   2.994   2.601  1.7952 -1.2060 -2.8000
 2483SOL     OW18910   0.470   4.606   7.458  0.3291  0.7351  0.7684
 2483SOL    HW118911   0.555   4.648   7.474  1.0423 -0.4734  0.1160
 2483SOL    HW218912   0.451   4.631   7.368  0.8905  0.3935  0.5565
 2484SOL     OW18913   0.870   4.521   3.305 -0.3796  0.0923  0.0310
 2484SOL    HW118914   0.957   4.552   3.281  0.1292  1.0241  3.0498
 2484SOL    HW218915   0.826   4.606   3.300  1.7184  1.2166  0.6529
 2485SOL     OW18916   0.014   2.994   8.749 -0.1806 -0.7955 -0.1640
 2485SOL    HW118917   0.097   3.010   8.705  0.9551  0.9841  2.5929
 2485SOL    HW218918   0.048   2.980   8.838  1.2172  0.0658 -0.5533
 2486SOL     OW18919   2.777   1.409   7.404 -0.0765 -1.0566  0.5171
 2486SOL    HW118920   2.696   1.438   7.362  1.5441 -0.5788 -2.3027
 2486SOL    HW218921   2.816   1.487   7.442 -1.2809  0.0269 -0.4668
 2487SOL     OW18922   2.779   0.273   8.283  0.2834  0.3198 -0.1383
 2487SOL    HW118923   2.867   0.306   8.265  0.9972 -0.9654  0.9904
 2487SOL    HW218924   2.734   0.314   8.210  0.3816  1.4200  0.4172
 2488SOL     OW18925   0.031   4.155   9.414 -0.1446 -0.1933  0.4156
 2488SOL    HW118926   0.025   4.238   9.461 -1.0346 -1.0897  1.9182
 2488SOL    HW218927   4.678   4.109   9.448  0.3408 -0.8484  0.6243
 2489SOL     OW18928   3.610   1.811  12.269  0.0962  0.3471  0.1421
 2489SOL    HW118929   3.692   1.770  12.297 -0.0302  0.8535  1.2883
 2489SOL    HW218930   3.637   1.864  12.194 -0.2062 -0.2397 -0.3806
 2490SOL     OW18931   4.091   1.117   7.936 -0.7231  0.1206  0.4389
 2490SOL    HW118932   4.017   1.176   7.918  0.2819  0.8447 -1.2941
 2490SOL    HW218933   4.125   1.118   7.846  0.7768  0.0199  1.0076
 2491SOL     OW18934   3.848   2.600   0.796 -0.1887  0.3408 -0.0496
 2491SOL    HW118935   3.890   2.610   0.881 -0.7719 -1.4025  0.4323
 2491SOL    HW218936   3.834   2.693   0.778 -0.0015  0.2753 -0.5436
 2492SOL     OW18937   3.386   0.333   5.371  0.2869  0.0881  0.1203
 2492SOL    HW118938   3.465   0.293   5.408  0.3044 -0.0779 -0.0935
 2492SOL    HW218939   3.319   0.267   5.391  1.2128 -1.9090 -3.3164
 2493SOL     OW18940   1.579   3.694   0.814 -0.1011  0.2780  0.1825
 2493SOL    HW118941   1.669   3.697   0.780 -0.7539 -0.0183 -1.5968
 2493SOL    HW218942   1.520   3.689   0.738 -2.2860  0.1373  1.9020
 2494SOL     OW18943   2.414   1.794   3.784 -0.0378 -0.1674  0.0073
 2494SOL    HW118944   2.327   1.770   3.751 -0.6765 -0.0028  1.5550
 2494SOL    HW218945   2.425   1.735   3.858 -0.7117  0.7533  0.8458
 2495SOL     OW18946   3.855   0.678   8.463  0.5837  0.1959  0.0020
 2495SOL    HW118947   3.859   0.664   8.368  0.4703 -0.3506  0.0747
 2495SOL    HW218948   3.811   0.598   8.493  2.1428 -0.1299  1.4022
 2496SOL     OW18949   2.830   3.779   3.828 -0.5438  0.1058  0.1171
 2496SOL    HW118950   2.918   3.742   3.836 -0.3858 -0.0789 -2.5496
 2496SOL    HW218951   2.834   3.767   3.733  0.3377  1.8702 -0.0615
 2497SOL     OW18952   2.620   3.310  17.581  0.0839 -0.1831  0.1991
 2497SOL    HW118953   2.638   3.216  17.571 -0.1299 -0.2972  0.8627
 2497SOL    HW218954   2.550   3.314  17.647  1.3935 -1.2300  1.6693
 2498SOL     OW18955   1.408   3.775   8.495 -0.1156 -0.8390  0.1265
 2498SOL    HW118956   1.333   3.794   8.438  0.1499  1.4745  0.5756
 2498SOL    HW218957   1.382   3.821   8.575  1.6503 -0.8507  0.7133
 2499SOL     OW18958   0.730   0.852   2.070 -0.3257 -0.1369  0.2260
 2499SOL    HW118959   0.761   0.824   2.156 -0.2604 -1.8360 -0.3473
 2499SOL    HW218960   0.790   0.922   2.042  1.5452 -1.0827  1.8264
 2500SOL     OW18961   1.943   4.357   7.760  0.6259 -0.0212  0.2913
 2500SOL    HW118962   2.028   4.339   7.800 -0.5014 -0.0549  2.7140
 2500SOL    HW218963   1.907   4.269   7.769  0.5310 -0.1653 -1.5962
 2501SOL     OW18964   4.246   0.929   1.385 -0.4529  0.3399 -0.2672
 2501SOL    HW118965   4.206   0.996   1.441 -1.8936 -0.0850 -0.7758
 2501SOL    HW218966   4.340   0.946   1.388 -0.6316  1.4779 -1.1984
 2502SOL     OW18967   4.525   0.968  11.333 -0.3547 -0.3159 -0.3233
 2502SOL    HW118968   4.530   0.889  11.279 -0.5342 -2.1277  2.2699
 2502SOL    HW218969   4.449   0.941  11.386 -1.5592 -0.0980 -1.9635
 2503SOL     OW18970   3.511   3.312   6.259 -0.4425 -0.0949 -0.1528
 2503SOL    HW118971   3.418   3.334   6.255 -0.5288 -0.1660  1.4767
 2503SOL    HW218972   3.526   3.323   6.353  1.7977  1.6917 -0.7249
 2504SOL     OW18973   3.820   4.628   6.837 -0.0286  0.1056 -0.0202
 2504SOL    HW118974   3.892   4.683   6.807  1.1313 -1.1486  0.4400
 2504SOL    HW218975   3.822   4.640   6.932 -1.5095  0.5651 -0.0607
 2505SOL     OW18976   0.752   1.797   2.387 -0.1384  0.1940  0.2124
 2505SOL    HW118977   0.714   1.810   2.299  0.9366  0.6333 -0.1856
 2505SOL    HW218978   0.834   1.846   2.383  0.7599 -1.3316  0.1647
 2506SOL     OW18979   0.806   0.096   6.708  0.3232  0.4001 -0.5073
 2506SOL    HW118980   0.900   0.079   6.702 -0.1554 -2.8132  0.7700
 2506SOL    HW218981   0.784   0.074   6.618 -2.9562 -0.0708  0.4119
 2507SOL     OW18982   0.374   2.984   8.463 -0.2337 -0.2099 -0.5949
 2507SOL    HW118983   0.321   3.003   8.541  1.0282 -2.4706  0.7972
 2507SOL    HW218984   0.324   3.011   8.386 -0.4612  2.7912  0.5854
 2508SOL     OW18985   2.093   4.488   3.574 -0.2808  0.0719  0.1293
 2508SOL    HW118986   2.026   4.541   3.531  2.8890  3.9743 -0.0693
 2508SOL    HW218987   2.058   4.400   3.568 -0.0857 -0.0715  0.9938
 2509SOL     OW18988   3.368   1.134   4.030 -0.3999 -0.1822 -0.0084
 2509SOL    HW118989   3.374   1.113   3.936  0.9178 -0.6012  0.1658
 2509SOL    HW218990   3.400   1.055   4.074 -0.5142 -0.1075  0.2086
 2510SOL     OW18991   4.407   3.424   9.203  0.3241 -0.0698  0.3839
 2510SOL    HW118992   4.438   3.416   9.293 -0.1611  1.5967  0.7076
 2510SOL    HW218993   4.428   3.517   9.196 -0.2225 -0.0056 -0.4683
 2511SOL     OW18994   1.754   4.686   6.428 -0.9256 -0.3253  0.0748
 2511SOL    HW118995   1.661   4.709   6.435 -0.3755  1.1480  2.5496
 2511SOL    HW218996   1.765   4.628   6.504  0.7519 -0.1879 -0.0742
 2512SOL     OW18997   2.397   4.120   0.267  0.0856 -0.6203 -0.1730
 2512SOL    HW118998   2.392   4.061   0.342  3.6528  1.4419  1.6995
 2512SOL    HW218999   2.490   4.126   0.244 -0.4016 -0.4204 -2.0715
 2513SOL     OW19000   0.063   0.101   7.909 -0.6842 -0.2828  0.0149
 2513SOL    HW119001   0.103   0.115   7.995  0.1410  1.1221 -0.5895
 2513SOL    HW219002   0.109   0.174   7.866 -0.4328 -1.3144 -1.4699
 2514SOL     OW19003   2.044   1.069   7.174 -0.3763 -0.2047 -0.1146
 2514SOL    HW119004   2.060   1.163   7.176 -1.4838 -0.0380  0.4892
 2514SOL    HW219005   2.128   1.030   7.149  1.5504  3.3917  0.7263
 2515SOL     OW19006   1.573   1.904   6.659  0.2268  0.0008 -0.6449
 2515SOL    HW119007   1.646   1.912   6.721 -0.3683  0.7578 -0.0457
 2515SOL    HW219008   1.616   1.950   6.587  1.1988  0.6775  0.3714
 2516SOL     OW19009   4.394   4.667  17.224 -1.1162  0.4187 -0.1293
 2516SOL    HW119010   4.335   0.010  17.257 -0.4697  0.2548  1.3575
 2516SOL    HW219011   4.342   4.628  17.153 -0.3890  2.7416 -1.9289
 2517SOL     OW19012   4.008   0.672   7.048 -0.8253 -0.4741 -0.3523
 2517SOL    HW119013   4.019   0.751   6.996  0.7313 -1.1044 -0.9782
 2517SOL    HW219014   4.000   0.614   6.971  0.8943 -0.6069 -0.4197
 2518SOL     OW19015   0.850   0.856  17.010  0.5466  0.1573 -0.0478
 2518SOL    HW119016   0.766   0.893  16.986  0.6760  0.1193 -0.5600
 2518SOL    HW219017   0.912   0.898  16.950  0.2733  1.3309  0.4915
 2519SOL     OW19018   0.405   2.027   3.915 -0.1179  0.6235 -0.4747
 2519SOL    HW119019   0.399   1.957   3.850 -1.2803 -1.0683  1.4443
 2519SOL    HW219020   0.438   2.091   3.852 -1.1450  1.5631 -0.0541
 2520SOL     OW19021   3.457   1.635   6.757 -0.1346  0.0127 -0.0198
 2520SOL    HW119022   3.452   1.731   6.752  0.1120  0.0147 -0.2055
 2520SOL    HW219023   3.388   1.619   6.693  1.6464 -0.7455 -1.7221
 2521SOL     OW19024   1.599   4.714   7.633  0.2879 -0.1401 -0.4819
 2521SOL    HW119025   1.552   4.660   7.697 -2.3826  0.8368 -1.6455
 2521SOL    HW219026   1.602   0.079   7.670  0.4511 -0.3552  0.0295
 2522SOL     OW19027   3.594   3.800   1.025  0.2679 -0.5354  0.0062
 2522SOL    HW119028   3.539   3.784   1.102  2.5287  1.3624  1.9974
 2522SOL    HW219029   3.607   3.895   1.025  0.8020 -0.6097 -0.0910
 2523SOL     OW19030   1.375   2.251   8.103 -0.1599  0.2890  0.1035
 2523SOL    HW119031   1.469   2.260   8.089 -0.5520  0.7076 -2.3199
 2523SOL    HW219032   1.363   2.194   8.026 -1.8239  0.7264  0.0304
 2524SOL     OW19033   0.220   4.647  11.691 -0.1081  0.0468 -0.0086
 2524SOL    HW119034   0.307   4.674  11.662 -0.0703 -1.4400 -1.3137
 2524SOL    HW219035   0.229   4.621  11.783 -1.8796  1.4429  0.5571
 2525SOL     OW19036   4.560   4.308   3.279  0.3139 -0.1730 -0.2228
 2525SOL    HW119037   4.546   4.229   3.227 -0.0485 -1.2781  1.5643
 2525SOL    HW219038   4.526   4.294   3.367  1.5403  0.9921  0.4358
 2526SOL     OW19039   1.020   2.444   1.429  0.6897 -0.1724 -0.4616
 2526SOL    HW119040   0.928   2.425   1.409  0.3003  0.7956  0.4408
 2526SOL    HW219041   1.047   2.376   1.490  1.0041 -1.2611 -1.8135
 2527SOL     OW19042   0.948   2.856   7.603  0.5246 -0.3329 -0.0054
 2527SOL    HW119043   1.015   2.819   7.659  0.8410 -1.0152 -0.8398
 2527SOL    HW219044   1.000   2.904   7.538  1.8096 -0.8363  0.6720
 2528SOL     OW19045   3.344   0.614  15.511 -0.1490  0.0673  0.1590
 2528SOL    HW119046   3.263   0.635  15.465 -1.9333 -1.5769  2.6044
 2528SOL    HW219047   3.408   0.633  15.442  3.8918 -3.6013  2.8503
 2529SOL     OW19048   1.829   0.252  16.093  0.7397  0.2767  1.3387
 2529SOL    HW119049   1.839   0.164  16.057 -0.2879  0.5691  0.3031
 2529SOL    HW219050   1.909   0.306  16.095  0.1020  1.2842  0.0237
 2530SOL     OW19051   3.537   1.718   7.395  0.8649 -0.2368 -0.0281
 2530SOL    HW119052   3.522   1.799   7.443  0.9052  0.7095 -1.6094
 2530SOL    HW219053   3.462   1.676   7.437 -0.6899  2.7098  0.1556
 2531SOL     OW19054   1.867   2.048  17.288 -0.3760 -0.0610  0.4083
 2531SOL    HW119055   1.786   2.060  17.239 -0.0402  0.3045 -0.0576
 2531SOL    HW219056   1.904   2.136  17.295 -0.4506  0.0230 -0.2114
 2532SOL     OW19057   1.306   0.102  15.255 -0.4482 -0.9541  0.2254
 2532SOL    HW119058   1.400   0.115  15.252 -0.7162  0.8590 -0.0101
 2532SOL    HW219059   1.273   0.066  15.172 -0.0406 -2.7026  0.8197
 2533SOL     OW19060   1.485   2.191   6.913 -0.0205 -0.3206  0.1338
 2533SOL    HW119061   1.484   2.103   6.950 -0.6036  0.0191  0.9413
 2533SOL    HW219062   1.428   2.173   6.839 -2.9131 -1.5870  2.6964
 2534SOL     OW19063   4.504   0.231  12.531 -0.8934  0.5254  0.0200
 2534SOL    HW119064   4.410   0.213  12.527 -1.0506  1.1383  0.9636
 2534SOL    HW219065   4.543   0.166  12.472 -1.1293 -1.1916  1.7749
 2535SOL     OW19066   0.445   1.306   2.480  0.2153  0.3924 -0.1579
 2535SOL    HW119067   0.458   1.265   2.565 -1.6678  0.3733  0.1329
 2535SOL    HW219068   0.360   1.348   2.496 -0.4623 -0.8210 -0.6192
 2536SOL     OW19069   1.131   0.491  14.674  0.7641 -0.0711 -0.3955
 2536SOL    HW119070   1.189   0.417  14.654 -0.9574 -1.8020  1.1247
 2536SOL    HW219071   1.050   0.441  14.671 -0.4478  1.7316  3.1990
 2537SOL     OW19072   0.726   3.413   2.467  0.2270  0.5003  0.8450
 2537SOL    HW119073   0.739   3.334   2.415  1.9899  0.8936  0.6916
 2537SOL    HW219074   0.672   3.471   2.413 -2.9968 -1.3226  2.0939
 2538SOL     OW19075   1.407   0.684   4.114 -0.0151  0.5283 -0.1399
 2538SOL    HW119076   1.335   0.621   4.119  1.2311 -0.7991  1.2211
 2538SOL    HW219077   1.362   0.761   4.079  0.7948  0.8252 -0.5443
 2539SOL     OW19078   1.744   4.119   2.526 -0.0857 -0.1529  0.4520
 2539SOL    HW119079   1.802   4.073   2.588 -0.2269 -0.4657  0.3527
 2539SOL    HW219080   1.660   4.093   2.563 -1.0181  0.5798 -1.1813
 2540SOL     OW19081   4.671   0.932   8.510 -0.1843  0.5098  0.6751
 2540SOL    HW119082   4.597   0.887   8.552  1.4667 -2.3066  0.5260
 2540SOL    HW219083   0.006   0.857   8.510 -2.1133 -1.0048 -0.4977
 2541SOL     OW19084   3.100   4.405   9.458  0.1737 -0.1301  0.3600
 2541SOL    HW119085   3.162   4.333   9.446  0.8999  0.3280  1.3597
 2541SOL    HW219086   3.128   4.455   9.534  4.0874  0.3671 -1.4332
 2542SOL     OW19087   1.239   2.353   7.358  0.0749 -0.3202  0.0525
 2542SOL    HW119088   1.260   2.291   7.287 -3.4219  0.0144 -1.2917
 2542SOL    HW219089   1.176   2.413   7.319  0.9417  1.0601  0.7787
 2543SOL     OW19090   2.208   1.272  15.184  0.5189  0.2156  0.4141
 2543SOL    HW119091   2.275   1.297  15.120  2.3124 -0.0897  2.1662
 2543SOL    HW219092   2.171   1.191  15.148 -0.6606  1.1575 -0.5128
 2544SOL     OW19093   3.401   2.936   5.269  0.2036  0.7086 -0.4494
 2544SOL    HW119094   3.423   3.005   5.206  1.2904  0.0970 -0.7404
 2544SOL    HW219095   3.331   2.975   5.320 -0.2381 -1.1993  0.4076
 2545SOL     OW19096   2.923   2.262   9.061 -0.6834 -0.4041 -0.2428
 2545SOL    HW119097   2.831   2.288   9.056 -0.6337 -0.1580  0.1933
 2545SOL    HW219098   2.915   2.224   9.148  0.2055  1.0642  0.4602
 2546SOL     OW19099   3.863   0.819   3.334 -0.3486 -0.0520 -0.0797
 2546SOL    HW119100   3.955   0.795   3.322 -0.1212  0.8558 -0.1777
 2546SOL    HW219101   3.865   0.907   3.372 -0.5762 -0.6759  1.3564
 2547SOL     OW19102   1.689   1.834  10.149 -0.2032 -0.2770 -0.1298
 2547SOL    HW119103   1.611   1.861  10.101 -1.2617 -1.3715  0.9763
 2547SOL    HW219104   1.693   1.874  10.236  0.3904 -0.8056  0.0853
 2548SOL     OW19105   3.162   0.795   3.255  0.5011 -0.1537 -0.0194
 2548SOL    HW119106   3.194   0.713   3.220 -0.6571 -0.7220  0.2357
 2548SOL    HW219107   3.232   0.854   3.228 -0.3939  0.8299 -0.1773
 2549SOL     OW19108   1.417   0.240   4.830  0.5968 -0.0045  0.3883
 2549SOL    HW119109   1.429   0.315   4.888 -0.6327  0.3802  0.1340
 2549SOL    HW219110   1.415   0.171   4.896  2.0298 -1.2219 -0.8437
 2550SOL     OW19111   4.400   1.689   2.297 -0.2964 -0.3755  0.1574
 2550SOL    HW119112   4.310   1.720   2.295 -0.1821 -0.1704 -1.8456
 2550SOL    HW219113   4.455   1.758   2.260 -0.8513 -0.8900 -1.6360
 2551SOL     OW19114   3.840   1.216   7.977 -0.1890  0.3625  0.7307
 2551SOL    HW119115   3.776   1.227   8.048  0.1067 -2.3749  1.4169
 2551SOL    HW219116   3.867   1.307   7.967 -0.2810  0.2063 -0.8205
 2552SOL     OW19117   0.452   2.319   5.879 -0.1034  0.1071 -0.6624
 2552SOL    HW119118   0.525   2.256   5.881  1.0419  1.3912 -1.9565
 2552SOL    HW219119   0.479   2.389   5.938 -1.2773 -1.1006  1.3082
 2553SOL     OW19120   0.470   1.585   5.939 -0.1698 -0.1867 -0.2493
 2553SOL    HW119121   0.388   1.587   5.988 -0.3273 -0.1084 -0.5206
 2553SOL    HW219122   0.454   1.644   5.865 -0.4658 -0.8620 -0.7156
 2554SOL     OW19123   1.326   0.077   7.837  0.4147  0.1114  0.3690
 2554SOL    HW119124   1.243   0.058   7.881  0.8947 -0.4589  1.0090
 2554SOL    HW219125   1.293   0.080   7.747 -0.0036 -0.0583  0.5149
 2555SOL     OW19126   3.400   4.327   5.170 -0.5075 -0.1336  0.4862
 2555SOL    HW119127   3.438   4.399   5.119 -0.9318 -0.5337 -0.3822
 2555SOL    HW219128   3.414   4.362   5.258  1.3399  0.0794  0.1105
 2556SOL     OW19129   3.332   3.962   6.863  0.1573  0.0254  0.3842
 2556SOL    HW119130   3.329   3.940   6.956  0.6721  0.2422  0.4533
 2556SOL    HW219131   3.260   4.025   6.855  0.9665  0.7574 -1.0520
 2557SOL     OW19132   2.217   2.891   7.194 -0.2538 -0.0617  0.3825
 2557SOL    HW119133   2.293   2.906   7.249 -0.8491 -1.7938  1.6884
 2557SOL    HW219134   2.192   2.799   7.209 -3.0294  1.0126  2.3538
 2558SOL     OW19135   3.616   3.653   8.243 -0.3927 -0.3994 -0.2775
 2558SOL    HW119136   3.692   3.612   8.200  0.6179 -1.0346  2.1154
 2558SOL    HW219137   3.545   3.634   8.181  0.2086  0.5340 -1.2454
 2559SOL     OW19138   3.564   2.730   3.621  0.2511  0.0457  1.2833
 2559SOL    HW119139   3.534   2.820   3.608  0.1055  0.1942  2.6859
 2559SOL    HW219140   3.543   2.700   3.532 -1.1122  0.2359  1.5349
 2560SOL     OW19141   3.512   0.603   3.592 -0.8420  0.0139 -0.1331
 2560SOL    HW119142   3.478   0.513   3.587 -0.7198  0.0075 -0.9901
 2560SOL    HW219143   3.600   0.598   3.554 -0.6695 -1.7001  0.4932
 2561SOL     OW19144   1.508   0.221   6.155  0.0296 -0.1700  0.0910
 2561SOL    HW119145   1.489   0.174   6.237  1.4320 -1.0924 -0.1179
 2561SOL    HW219146   1.603   0.224   6.157  0.0331 -0.3913  0.4815
 2562SOL     OW19147   2.625   3.457   6.814  0.1100  0.5087 -0.1771
 2562SOL    HW119148   2.567   3.516   6.767  0.0890  1.7227  1.3705
 2562SOL    HW219149   2.624   3.374   6.766 -1.8720  1.0703 -1.1186
 2563SOL     OW19150   3.160   1.312   8.664  0.4663  0.1237  0.0123
 2563SOL    HW119151   3.188   1.395   8.702  1.7724  0.2443 -1.2156
 2563SOL    HW219152   3.166   1.250   8.737 -1.7433  1.6980  1.5173
 2564SOL     OW19153   2.522   3.847   1.590  0.0589  0.2665  0.0571
 2564SOL    HW119154   2.548   3.755   1.590  2.1147  0.8750 -4.7768
 2564SOL    HW219155   2.462   3.859   1.516  0.7479 -1.1128 -0.7299
 2565SOL     OW19156   3.239   2.544  15.993  0.2661  0.5497  0.3460
 2565SOL    HW119157   3.330   2.530  16.018 -0.0575  1.3487  1.9329
 2565SOL    HW219158   3.223   2.638  15.997  0.0784  0.4174  2.3800
 2566SOL     OW19159   2.415   3.508   5.847  0.1776 -0.5910 -0.2916
 2566SOL    HW119160   2.446   3.544   5.763 -0.8192  0.3214 -0.2731
 2566SOL    HW219161   2.483   3.441   5.852  0.2090 -0.5728 -0.4482
 2567SOL     OW19162   4.723   0.897   3.030  0.0517 -0.8323  0.1104
 2567SOL    HW119163   4.712   0.878   2.937 -0.3264 -0.9916  0.1881
 2567SOL    HW219164   0.045   0.817   3.055  0.4938 -0.4454  0.5479
 2568SOL     OW19165   2.450   1.411   1.808  0.6037  0.2277  0.2213
 2568SOL    HW119166   2.430   1.463   1.731 -1.1310  0.8569  1.1078
 2568SOL    HW219167   2.487   1.469   1.875 -0.1302 -1.0049  1.6994
 2569SOL     OW19168   0.881   0.794   5.136 -0.5952  0.2549 -0.1675
 2569SOL    HW119169   0.787   0.790   5.117 -0.1430 -1.3551 -1.9781
 2569SOL    HW219170   0.900   0.701   5.148  1.9536  0.6766 -0.9623
 2570SOL     OW19171   1.650   4.172   4.524 -0.1099 -0.3187  0.2597
 2570SOL    HW119172   1.654   4.119   4.604 -3.1369 -0.5200  0.2794
 2570SOL    HW219173   1.720   4.131   4.474 -0.7899 -1.4204  0.2182
 2571SOL     OW19174   2.678   1.624   4.001  0.0636 -0.4618  0.3843
 2571SOL    HW119175   2.740   1.589   3.936 -0.0709  0.2433 -0.1193
 2571SOL    HW219176   2.659   1.542   4.047 -4.1891  0.5999  0.4845
 2572SOL     OW19177   2.649   0.560   3.862  0.1095 -0.1452 -0.3747
 2572SOL    HW119178   2.711   0.548   3.934 -0.1248  0.8082 -0.0185
 2572SOL    HW219179   2.645   0.655   3.855 -2.1565 -0.2506 -0.7439
 2573SOL     OW19180   1.317   2.048   4.690 -0.1306  0.0994 -0.3224
 2573SOL    HW119181   1.260   1.978   4.656  1.6186 -1.0022 -0.9765
 2573SOL    HW219182   1.296   2.121   4.632  2.6212 -0.3446 -1.8751
 2574SOL     OW19183   0.098   1.911   3.781  0.5219 -0.4413  0.3152
 2574SOL    HW119184   0.107   1.878   3.692  0.0142  0.0211  0.0950
 2574SOL    HW219185   0.189   1.902   3.811  0.4261 -0.1364  0.7011
 2575SOL     OW19186   0.136   1.062   5.063  0.9187 -0.1727  0.0001
 2575SOL    HW119187   0.066   1.003   5.039  0.1305  0.9043 -0.3504
 2575SOL    HW219188   0.215   1.014   5.037  1.0814  0.2649 -0.3138
 2576SOL     OW19189   4.006   3.124   9.088 -0.1112  0.4892  0.0619
 2576SOL    HW119190   3.960   3.098   9.167 -3.3906  2.2965 -1.2369
 2576SOL    HW219191   4.063   3.191   9.126  0.4762 -1.1544  2.0055
 2577SOL     OW19192   0.223   1.740  16.205 -0.4159 -0.6306 -0.6556
 2577SOL    HW119193   0.296   1.696  16.161  0.3935  0.2626 -0.2023
 2577SOL    HW219194   0.239   1.701  16.291  0.7324  0.0450 -0.5779
 2578SOL     OW19195   0.843   2.251   8.228 -0.0019 -0.6438 -0.1709
 2578SOL    HW119196   0.855   2.258   8.323  3.0441 -2.9682 -0.3915
 2578SOL    HW219197   0.938   2.261   8.219 -0.1154 -0.4842 -1.1638
 2579SOL     OW19198   0.353   0.935  12.189  0.5926 -0.1214 -0.1058
 2579SOL    HW119199   0.388   0.856  12.148 -1.6487 -1.9569  1.4699
 2579SOL    HW219200   0.267   0.950  12.150  2.1906  0.9905 -3.1638
 2580SOL     OW19201   4.078   0.864   2.657  0.0316 -0.3236 -0.1797
 2580SOL    HW119202   3.982   0.860   2.648 -0.1994  3.4493  0.5278
 2580SOL    HW219203   4.100   0.776   2.628 -1.9963 -0.8794 -0.0439
 2581SOL     OW19204   0.589   3.572  12.596  0.0308 -0.9010  0.2320
 2581SOL    HW119205   0.684   3.570  12.584  0.1291  2.4999  0.5979
 2581SOL    HW219206   0.570   3.646  12.653 -2.2523 -2.2980  1.3089
 2582SOL     OW19207   3.350   0.634   0.547  0.2726  0.4763 -0.1767
 2582SOL    HW119208   3.277   0.603   0.493  1.0802 -0.5324 -0.6673
 2582SOL    HW219209   3.387   0.690   0.479  0.5673  1.3357  0.6836
 2583SOL     OW19210   3.349   0.081   5.747 -0.0702  0.4635 -0.0784
 2583SOL    HW119211   3.358   0.091   5.652 -1.8445 -0.5373 -0.3613
 2583SOL    HW219212   3.437   0.106   5.773 -0.3586  0.6897  0.6609
 2584SOL     OW19213   3.489   2.827   3.922 -0.1172 -0.1981  0.0755
 2584SOL    HW119214   3.446   2.908   3.948  1.3215  0.7031 -0.4133
 2584SOL    HW219215   3.560   2.821   3.986  0.3455 -1.5452 -0.5505
 2585SOL     OW19216   4.133   1.550   6.255  0.5300  0.3178 -0.4589
 2585SOL    HW119217   4.191   1.564   6.329 -1.0203 -0.3988  0.8778
 2585SOL    HW219218   4.051   1.528   6.298 -0.6859  2.5297 -1.5832
 2586SOL     OW19219   3.310   4.054  11.378  0.2391 -0.6211  0.2282
 2586SOL    HW119220   3.284   4.008  11.298 -0.0232 -0.2383  0.0938
 2586SOL    HW219221   3.399   4.084  11.359 -0.4001  1.2330  0.1734
 2587SOL     OW19222   2.508   0.070  11.592 -0.5308  0.6854 -0.4208
 2587SOL    HW119223   2.459   0.014  11.532  2.6119 -1.7542 -0.7011
 2587SOL    HW219224   2.482   0.043  11.680  2.6858 -2.6927 -0.5383
 2588SOL     OW19225   4.068   4.260   6.453  0.5385 -0.2662 -0.0582
 2588SOL    HW119226   4.053   4.263   6.358 -0.6395  0.6279  0.1711
 2588SOL    HW219227   4.149   4.311   6.452 -1.2221  2.5143  0.6033
 2589SOL     OW19228   2.339   2.332   6.766 -0.2246  0.0626  0.3193
 2589SOL    HW119229   2.391   2.275   6.710 -0.6702 -0.5948  0.5695
 2589SOL    HW219230   2.413   2.387   6.793 -2.2735  2.7717  0.4323
 2590SOL     OW19231   3.626   2.184  16.787  0.5987  0.0600 -0.3080
 2590SOL    HW119232   3.547   2.145  16.824 -0.3689  1.2031 -1.1617
 2590SOL    HW219233   3.639   2.112  16.725 -1.6752  1.2808 -2.2197
 2591SOL     OW19234   1.253   2.478   1.003 -0.0747 -0.0193  0.1909
 2591SOL    HW119235   1.222   2.489   1.093  1.6283 -0.0123  0.7870
 2591SOL    HW219236   1.222   2.556   0.957 -0.0906 -1.1337 -1.6746
 2592SOL     OW19237   2.552   0.901  16.165 -0.3132  0.2043 -0.0161
 2592SOL    HW119238   2.620   0.835  16.150  0.8018  1.5124 -0.6968
 2592SOL    HW219239   2.521   0.910  16.076  1.1827  0.6600 -0.4995
 2593SOL     OW19240   3.309   3.787  15.291  0.5514  0.2213  0.1140
 2593SOL    HW119241   3.265   3.704  15.272  1.1095 -0.4416  1.7094
 2593SOL    HW219242   3.329   3.776  15.384  0.9295 -1.7046 -0.1788
 2594SOL     OW19243   3.862   0.145   5.668  0.1961 -0.3148 -0.3738
 2594SOL    HW119244   3.923   0.207   5.706  0.6113  0.4330 -2.2725
 2594SOL    HW219245   3.851   0.176   5.578  3.3432  0.4376 -0.4714
 2595SOL     OW19246   3.595   3.996   4.457 -0.2035 -0.3736  0.4085
 2595SOL    HW119247   3.615   3.923   4.516  1.5313 -1.7280 -1.8628
 2595SOL    HW219248   3.501   3.998   4.472 -0.2726 -0.8412  0.0076
 2596SOL     OW19249   4.245   1.133  13.452 -0.1547 -0.2281 -0.0427
 2596SOL    HW119250   4.272   1.042  13.465  1.2332  0.1136 -0.5042
 2596SOL    HW219251   4.298   1.160  13.377 -3.6175  1.5784 -1.8363
 2597SOL     OW19252   2.454   1.081   3.151 -0.1094 -0.1474 -0.8312
 2597SOL    HW119253   2.455   1.007   3.091  3.0813 -2.1227  1.6853
 2597SOL    HW219254   2.495   1.149   3.097  0.6305  1.0327  1.2051
 2598SOL     OW19255   3.110   1.744  10.898  0.6688 -0.1048 -0.3079
 2598SOL    HW119256   3.039   1.684  10.921  2.2498 -1.3879  1.2667
 2598SOL    HW219257   3.102   1.754  10.803 -4.5207  1.0474  0.2647
 2599SOL     OW19258   0.245   2.651   4.871 -0.3554 -0.3502 -0.0408
 2599SOL    HW119259   0.241   2.746   4.882  2.9585 -0.0978 -1.1696
 2599SOL    HW219260   0.338   2.630   4.870 -0.8734 -2.6667 -2.9043
 2600SOL     OW19261   2.763   3.683   6.568  0.7255  0.5500  0.0054
 2600SOL    HW119262   2.674   3.648   6.571  1.5858 -1.4206  2.0384
 2600SOL    HW219263   2.826   3.614   6.546  2.1960  1.6831  0.6980
 2601SOL     OW19264   1.565   0.371  14.552  0.0116  0.4455 -0.5684
 2601SOL    HW119265   1.514   0.452  14.560 -0.5577  0.0958 -0.6614
 2601SOL    HW219266   1.494   0.309  14.537  0.7136  0.0759 -2.2677
 2602SOL     OW19267   2.865   1.622  16.447 -0.1200  0.0427  0.3521
 2602SOL    HW119268   2.821   1.627  16.531  0.1273 -0.3602  0.5035
 2602SOL    HW219269   2.791   1.655  16.395 -0.7023  0.6941  1.5989
 2603SOL     OW19270   3.221   4.146  16.468  0.2419  0.0575 -0.1607
 2603SOL    HW119271   3.300   4.200  16.461  0.6379 -0.6474 -1.1264
 2603SOL    HW219272   3.180   4.169  16.384 -0.1157  0.4324  0.1161
 2604SOL     OW19273   3.331   1.992  14.882 -0.4320  0.0393 -0.1205
 2604SOL    HW119274   3.338   2.058  14.951 -1.6050 -0.2206  0.2512
 2604SOL    HW219275   3.242   1.993  14.846 -1.7470 -0.0997  3.1998
 2605SOL     OW19276   3.188   3.775   6.679  0.1621 -0.0088  0.3900
 2605SOL    HW119277   3.258   3.831   6.714  0.6196  0.8355 -1.8553
 2605SOL    HW219278   3.111   3.831   6.670  0.5713  0.4516 -0.2646
 2606SOL     OW19279   4.187   0.759   3.852  0.3379  0.3869 -0.2699
 2606SOL    HW119280   4.183   0.825   3.783 -3.5303  0.2741 -0.1747
 2606SOL    HW219281   4.277   0.775   3.880  0.6226 -0.9119 -0.4716
 2607SOL     OW19282   2.628   1.165   5.410 -0.4069  0.2759 -0.3614
 2607SOL    HW119283   2.661   1.139   5.324  0.9815  1.4484 -0.1840
 2607SOL    HW219284   2.656   1.255   5.394  1.0330 -0.0986  0.0191
 2608SOL     OW19285   4.363   2.160  12.214  0.8207 -0.0508 -0.3609
 2608SOL    HW119286   4.332   2.083  12.263 -1.9464  1.6336  0.5800
 2608SOL    HW219287   4.299   2.226  12.243  0.8323 -1.4981  2.9682
 2609SOL     OW19288   3.897   1.357   4.626  0.1524  0.0828  0.6410
 2609SOL    HW119289   3.828   1.293   4.644 -1.1553  1.3126  0.0417
 2609SOL    HW219290   3.972   1.298   4.636 -0.2165 -0.2875  1.1949
 2610SOL     OW19291   3.927   1.197  10.427 -0.1595 -0.5698 -0.1354
 2610SOL    HW119292   3.980   1.119  10.445  2.5988  1.6136  1.2727
 2610SOL    HW219293   3.916   1.226  10.518 -1.1500  1.2970 -0.8551
 2611SOL     OW19294   0.004   0.006   6.764  0.0719 -0.1631 -0.0772
 2611SOL    HW119295   0.009   4.719   6.669 -0.4827  0.7260 -0.2069
 2611SOL    HW219296   4.678   4.650   6.782  0.9996 -1.0731 -1.5421
 2612SOL     OW19297   0.706   0.340   5.529  1.1349  0.5765  0.1712
 2612SOL    HW119298   0.790   0.295   5.534  0.6546 -0.0832  2.4047
 2612SOL    HW219299   0.693   0.363   5.437  0.4296  3.2737  0.9168
 2613SOL     OW19300   0.516   4.245   1.815 -0.3876  0.3385 -0.0591
 2613SOL    HW119301   0.436   4.288   1.847 -0.9838  1.1100 -2.5047
 2613SOL    HW219302   0.570   4.316   1.781  1.0926 -0.5220  0.5240
 2614SOL     OW19303   2.651   2.556  17.026 -0.2835  0.1258 -0.1727
 2614SOL    HW119304   2.629   2.566  16.933 -0.8555 -3.8056 -0.4412
 2614SOL    HW219305   2.610   2.633  17.066  0.8896  0.7048 -0.0727
 2615SOL     OW19306   3.239   1.385   5.046 -0.5116 -0.2118 -0.6419
 2615SOL    HW119307   3.175   1.331   5.092 -0.2500 -0.5128 -0.6298
 2615SOL    HW219308   3.315   1.330   5.065 -0.5115 -0.4508 -1.3519
 2616SOL     OW19309   0.243   1.574   1.563 -0.1583  0.0040  0.7823
 2616SOL    HW119310   0.329   1.603   1.532 -0.4972 -0.3039 -0.4544
 2616SOL    HW219311   0.227   1.630   1.639 -2.3664  1.1878 -0.5370
 2617SOL     OW19312   0.700   1.099   8.117 -0.5294 -0.4585 -0.1945
 2617SOL    HW119313   0.689   1.024   8.060  0.7732  1.0503 -2.4026
 2617SOL    HW219314   0.702   1.170   8.053  0.0752  0.0956  0.4403
 2618SOL     OW19315   2.540   2.127   4.304 -0.0951 -0.0358 -0.2228
 2618SOL    HW119316   2.565   2.039   4.277  1.6390  0.3671  0.0649
 2618SOL    HW219317   2.587   2.183   4.242 -0.9576 -0.6790 -1.4605
 2619SOL     OW19318   4.578   0.423   5.252  0.1531  0.3128 -0.0782
 2619SOL    HW119319   4.612   0.408   5.340  0.3203  0.0546 -0.1878
 2619SOL    HW219320   4.605   0.339   5.214  3.3723  1.4219 -0.1994
 2620SOL     OW19321   2.445   0.634   4.116 -0.3289 -1.0683 -0.1305
 2620SOL    HW119322   2.401   0.572   4.174 -0.0724  0.6758  1.9006
 2620SOL    HW219323   2.539   0.624   4.126 -0.5478 -0.6668  2.1998
 2621SOL     OW19324   3.466   4.295   2.113 -0.5057  0.5805  0.6814
 2621SOL    HW119325   3.556   4.272   2.137 -0.1064 -1.5972 -2.8641
 2621SOL    HW219326   3.462   4.245   2.032  0.6832  2.2326 -0.4023
 2622SOL     OW19327   1.035   3.540   7.736  0.2295 -0.0070  0.0796
 2622SOL    HW119328   0.962   3.511   7.682  1.2089  0.1214 -1.3259
 2622SOL    HW219329   1.083   3.458   7.727 -0.4780 -0.6541  2.4064
 2623SOL     OW19330   2.389   2.783   8.002  0.9990 -0.5618 -0.2988
 2623SOL    HW119331   2.480   2.813   8.006  0.9818 -0.3161 -1.5702
 2623SOL    HW219332   2.347   2.796   8.087  0.7340  0.5388 -0.6003
 2624SOL     OW19333   3.342   1.496   7.388  0.9252  0.0469 -0.0611
 2624SOL    HW119334   3.284   1.421   7.402  0.3637  0.7890  1.7399
 2624SOL    HW219335   3.422   1.453   7.361 -0.6218 -3.0677  0.2929
 2625SOL     OW19336   2.752   0.984  11.774  0.3373 -0.5735 -0.8387
 2625SOL    HW119337   2.830   1.000  11.828  0.2970  3.6172 -2.0493
 2625SOL    HW219338   2.681   0.985  11.837  0.6073 -0.1957 -0.5389
 2626SOL     OW19339   0.077   0.514  17.405  0.2527 -0.2470  0.1782
 2626SOL    HW119340   4.712   0.499  17.374 -0.1848 -0.9892  1.8203
 2626SOL    HW219341   0.082   0.610  17.412  0.6460 -0.2595  0.0933
 2627SOL     OW19342   3.475   0.919  12.056  0.4974  0.3889  0.0174
 2627SOL    HW119343   3.559   0.874  12.057  0.2760 -0.0541 -2.2689
 2627SOL    HW219344   3.502   1.010  12.057  1.9822 -0.0414 -1.7043
 2628SOL     OW19345   3.797   0.397   8.514  0.6121 -0.3124  0.3230
 2628SOL    HW119346   3.856   0.338   8.468  0.0194 -0.0114 -0.8236
 2628SOL    HW219347   3.733   0.333   8.544 -0.3476  0.8431  0.7672
 2629SOL     OW19348   2.043   3.847  13.193 -0.2828  0.3191  0.3158
 2629SOL    HW119349   2.029   3.787  13.266 -2.8019  1.3810  0.7036
 2629SOL    HW219350   1.954   3.854  13.157 -0.9767  1.8837  2.3125
 2630SOL     OW19351   2.591   1.757   8.443 -0.0111 -0.1621  0.2950
 2630SOL    HW119352   2.616   1.842   8.409 -0.2391 -0.8411 -1.5717
 2630SOL    HW219353   2.680   1.722   8.455 -0.1673 -0.5995  0.1566
 2631SOL     OW19354   3.487   2.933   8.163  0.0708 -0.3693  0.4034
 2631SOL    HW119355   3.455   2.901   8.079  2.3026 -2.8605  0.5056
 2631SOL    HW219356   3.409   2.982   8.190  1.4189  1.2017  1.5005
 2632SOL     OW19357   4.192   0.174   6.203 -0.4362 -0.5197 -0.2350
 2632SOL    HW119358   4.111   0.173   6.255 -2.2506 -2.7926 -3.1360
 2632SOL    HW219359   4.196   0.083   6.176  1.7207 -0.2844 -0.7301
 2633SOL     OW19360   0.696   2.986   2.470 -0.1047 -0.2863  0.3786
 2633SOL    HW119361   0.763   3.035   2.517 -0.4637  0.5638  0.0019
 2633SOL    HW219362   0.731   2.982   2.381 -0.7040 -0.1194  0.1316
 2634SOL     OW19363   3.639   0.499  10.855 -0.5771  0.1504 -0.3090
 2634SOL    HW119364   3.679   0.418  10.823 -0.7861  0.1137 -0.4801
 2634SOL    HW219365   3.656   0.506  10.949  2.3101  1.0769 -0.9246
 2635SOL     OW19366   3.010   3.432   8.662 -0.2793 -0.3132 -0.8050
 2635SOL    HW119367   3.099   3.403   8.684 -0.7535 -1.6165 -0.6304
 2635SOL    HW219368   2.957   3.364   8.703  0.8550 -1.4425 -1.2450
 2636SOL     OW19369   0.614   2.517   4.584 -0.0767 -0.3350 -0.3476
 2636SOL    HW119370   0.626   2.515   4.489 -1.8955 -2.1041 -0.5440
 2636SOL    HW219371   0.693   2.568   4.600 -0.9644  1.4266 -1.5927
 2637SOL     OW19372   3.253   2.534   5.652  0.0291  0.4467 -0.3868
 2637SOL    HW119373   3.322   2.471   5.632 -0.9070 -0.6491 -0.1781
 2637SOL    HW219374   3.284   2.544   5.742 -1.9156 -0.1157  0.3495
 2638SOL     OW19375   0.268   1.874  14.146  0.5238 -0.5146 -0.0536
 2638SOL    HW119376   0.255   1.799  14.205 -0.9352 -2.0270 -2.2851
 2638SOL    HW219377   0.183   1.888  14.106  1.0008  0.5830 -0.6793
 2639SOL     OW19378   4.389   1.449  16.483 -0.3949 -0.2502 -0.3158
 2639SOL    HW119379   4.306   1.468  16.528 -0.5483 -2.7867  0.4982
 2639SOL    HW219380   4.388   1.353  16.480  1.4974 -0.2929  0.8255
 2640SOL     OW19381   3.509   4.061   7.714  0.9723 -0.9587  0.0739
 2640SOL    HW119382   3.464   4.003   7.775  1.4543 -1.6765 -0.2505
 2640SOL    HW219383   3.435   4.092   7.663  1.2537  1.5905  1.2462
 2641SOL     OW19384   2.103   3.909  11.231 -0.1039  0.3602 -0.3305
 2641SOL    HW119385   2.162   3.979  11.203  1.2403 -1.2694 -1.5453
 2641SOL    HW219386   2.162   3.878  11.299  1.3109  1.5840 -1.0172
 2642SOL     OW19387   0.345   2.981   6.264 -0.0881 -0.0151 -0.1453
 2642SOL    HW119388   0.371   3.035   6.338 -0.2610  0.1437 -0.2014
 2642SOL    HW219389   0.281   2.919   6.298  1.9341 -1.1668  1.5591
 2643SOL     OW19390   3.354   3.300  15.619  0.1121 -0.2897 -0.2951
 2643SOL    HW119391   3.432   3.279  15.671  2.0144  2.7737 -1.9260
 2643SOL    HW219392   3.294   3.230  15.646  0.2261 -0.5540 -0.7229
 2644SOL     OW19393   2.100   1.893   2.474 -1.1304 -0.2892 -0.5563
 2644SOL    HW119394   2.098   1.940   2.390  1.2655 -1.4762 -1.2627
 2644SOL    HW219395   2.190   1.862   2.481 -1.1519  0.0808  1.3654
 2645SOL     OW19396   2.769   1.711   5.601 -0.0061  0.3182 -0.7660
 2645SOL    HW119397   2.710   1.649   5.558 -1.0698  1.1721 -0.5204
 2645SOL    HW219398   2.703   1.778   5.618  2.1511  1.9855  1.1084
 2646SOL     OW19399   0.027   3.604  10.197  0.1242  0.5178  0.3654
 2646SOL    HW119400   0.118   3.631  10.182 -0.0992  1.1365  0.1242
 2646SOL    HW219401   4.692   3.674  10.171 -0.5842 -0.2234 -0.0246
 2647SOL     OW19402   3.494   1.914   5.901  0.2075  0.8835 -0.4264
 2647SOL    HW119403   3.541   1.940   5.821 -0.3061  0.3757 -0.8983
 2647SOL    HW219404   3.564   1.875   5.953 -0.0837  1.7462  0.6041
 2648SOL     OW19405   0.983   3.466   8.989  0.2631  0.8023 -0.1384
 2648SOL    HW119406   1.061   3.411   8.991  0.1525  0.7219  1.7524
 2648SOL    HW219407   0.944   3.449   9.075 -0.4422 -1.3206 -0.8735
 2649SOL     OW19408   3.990   2.630   5.721 -0.2765 -0.2562  0.2810
 2649SOL    HW119409   3.988   2.711   5.771  2.5489 -1.2511  1.9895
 2649SOL    HW219410   4.082   2.607   5.709 -0.4082 -2.0957  2.9134
 2650SOL     OW19411   2.990   1.007   4.646  0.5170  1.0748  0.0415
 2650SOL    HW119412   2.913   0.963   4.609  1.2827 -0.4510  0.2834
 2650SOL    HW219413   3.028   0.937   4.698 -1.2779 -0.9382 -1.3482
 2651SOL     OW19414   3.521   0.422   5.815 -0.1232 -0.3156 -0.3673
 2651SOL    HW119415   3.445   0.440   5.759 -0.7523 -0.3291  0.4789
 2651SOL    HW219416   3.539   0.329   5.802  0.4822 -0.3379  0.6588
 2652SOL     OW19417   1.427   2.482   9.607 -0.0888  0.0711 -0.1757
 2652SOL    HW119418   1.503   2.463   9.661 -0.2486  0.7529  0.2874
 2652SOL    HW219419   1.366   2.411   9.624 -0.8683  1.0164  0.9689
 2653SOL     OW19420   4.717   3.171   4.429 -0.4871  0.0252  0.2934
 2653SOL    HW119421   4.672   3.089   4.448 -0.8298 -0.1798 -1.4781
 2653SOL    HW219422   0.060   3.167   4.498  1.0130  0.3511 -1.1585
 2654SOL     OW19423   1.300   3.099   4.252  0.4061 -0.3617 -0.2142
 2654SOL    HW119424   1.239   3.121   4.322  1.8732 -1.6723  1.4591
 2654SOL    HW219425   1.275   3.007   4.240 -0.7683 -0.1289  0.4149
 2655SOL     OW19426   0.997   3.550  12.382  0.1033  0.1657  0.0527
 2655SOL    HW119427   1.079   3.585  12.417 -0.6739  1.6766  0.3743
 2655SOL    HW219428   0.939   3.565  12.457 -1.6182 -0.5294 -1.1412
 2656SOL     OW19429   2.405   3.259   0.041 -0.4352 -0.1566 -0.0890
 2656SOL    HW119430   2.320   3.303   0.045 -1.1200 -1.4752 -0.4262
 2656SOL    HW219431   2.433   3.251   0.133 -1.8191  0.2045  0.3551
 2657SOL     OW19432   1.955   2.003   3.920  0.3045  0.8189  0.1173
 2657SOL    HW119433   1.867   2.034   3.942  1.1442  1.5313  2.5055
 2657SOL    HW219434   2.011   1.997   3.997 -0.4825 -0.6252  0.5601
 2658SOL     OW19435   0.130   0.736   6.381 -0.0577  0.4635  0.1172
 2658SOL    HW119436   0.155   0.656   6.427  0.1043  0.8940  0.7838
 2658SOL    HW219437   0.035   0.728   6.384  0.2390 -3.3829 -0.6890
 2659SOL     OW19438   4.024   3.980   5.453 -0.3351  0.0292 -0.4992
 2659SOL    HW119439   3.993   3.911   5.511  0.0780 -0.9980 -1.5007
 2659SOL    HW219440   3.960   3.963   5.384 -0.8204  0.0484 -0.0610
 2660SOL     OW19441   1.312   0.808   6.677 -0.5227 -0.3715  0.3953
 2660SOL    HW119442   1.384   0.746   6.692 -1.6813 -1.0438  3.0832
 2660SOL    HW219443   1.230   0.759   6.681  0.4659 -2.1253 -0.8099
 2661SOL     OW19444   2.935   0.202  11.503  0.2703  0.1580  0.8276
 2661SOL    HW119445   2.874   0.147  11.551  1.2045 -0.0942  1.7157
 2661SOL    HW219446   2.999   0.223  11.571 -0.9793  0.3602  1.9426
 2662SOL     OW19447   3.011   0.250  11.250  0.3365 -0.7066  0.2084
 2662SOL    HW119448   2.942   0.308  11.215 -0.8439 -1.0368  1.9729
 2662SOL    HW219449   2.973   0.246  11.338 -0.1490 -0.8713 -0.0083
 2663SOL     OW19450   3.848   3.261   0.653  0.1963  0.0570 -0.0937
 2663SOL    HW119451   3.877   3.302   0.735  2.4242  0.2220 -0.9718
 2663SOL    HW219452   3.786   3.203   0.696  2.2556 -2.2747 -0.2670
 2664SOL     OW19453   0.074   2.576   1.995 -0.3112  0.1251  0.0462
 2664SOL    HW119454   0.097   2.535   1.912 -0.9363  2.2548 -1.1795
 2664SOL    HW219455   0.153   2.616   2.030 -1.6580  1.9675  0.9764
 2665SOL     OW19456   3.948   1.502  10.945 -0.5687  0.0607  0.2904
 2665SOL    HW119457   3.912   1.446  10.876 -0.4187  0.5718 -0.2012
 2665SOL    HW219458   4.040   1.508  10.920 -0.1031 -0.8830  1.7878
 2666SOL     OW19459   1.794   3.954   0.101 -0.3124 -0.1110  0.0003
 2666SOL    HW119460   1.780   3.863   0.074  0.5942 -0.8065  1.8245
 2666SOL    HW219461   1.719   3.991   0.055 -1.5900 -2.5367  0.0832
 2667SOL     OW19462   0.607   3.270   9.078 -0.0321  0.3813  0.4944
 2667SOL    HW119463   0.689   3.237   9.115 -1.1924 -1.2005  1.6944
 2667SOL    HW219464   0.641   3.312   9.000 -1.5724  0.4122 -0.1511
 2668SOL     OW19465   0.821   2.613   9.180  0.0579  0.0548  0.8892
 2668SOL    HW119466   0.854   2.546   9.240  3.6812  0.8222 -0.2576
 2668SOL    HW219467   0.845   2.699   9.214  1.4357 -0.6662  1.7551
 2669SOL     OW19468   3.539   4.654   2.628  0.6293 -0.5380 -0.4427
 2669SOL    HW119469   3.614   4.603   2.597  2.3683 -0.3821  3.4978
 2669SOL    HW219470   3.499   4.598   2.695 -0.0859  1.3906  0.7269
 2670SOL     OW19471   2.790   1.695   5.308  0.0419  0.3434  0.3383
 2670SOL    HW119472   2.699   1.719   5.326 -0.5090  0.5383 -2.7534
 2670SOL    HW219473   2.833   1.744   5.378 -2.4687 -0.0377  2.1904
 2671SOL     OW19474   1.033   4.497  17.546  0.2989  0.5018 -0.6794
 2671SOL    HW119475   0.945   4.462  17.531  1.5604 -3.2421  0.4505
 2671SOL    HW219476   1.085   4.416  17.549 -0.0705  0.2443 -1.2989
 2672SOL     OW19477   3.782   2.851   5.419 -0.1161 -0.4305  0.3205
 2672SOL    HW119478   3.722   2.876   5.349 -1.4440  2.6027  2.5334
 2672SOL    HW219479   3.866   2.884   5.386 -1.0603  1.2119 -0.4397
 2673SOL     OW19480   3.602   1.317   5.495 -0.5943  0.0914 -0.6084
 2673SOL    HW119481   3.645   1.231   5.494  0.8658  0.7604  3.4744
 2673SOL    HW219482   3.676   1.377   5.495 -0.5264 -0.0049 -2.0571
 2674SOL     OW19483   2.526   1.899   9.709 -0.6085 -0.0953 -0.0086
 2674SOL    HW119484   2.520   1.956   9.786 -0.5460 -1.4945  1.0234
 2674SOL    HW219485   2.432   1.883   9.699 -0.7267  0.0407  0.9311
 2675SOL     OW19486   4.049   3.751  10.479  0.1047  0.0922  0.7364
 2675SOL    HW119487   4.077   3.756  10.387  1.7743  0.8811  1.3040
 2675SOL    HW219488   4.105   3.818  10.517  1.1589 -0.1472 -0.3607
 2676SOL     OW19489   3.093   3.031   8.954  0.2430 -0.0717  0.3020
 2676SOL    HW119490   3.028   2.961   8.958 -0.8246  0.8701 -0.4265
 2676SOL    HW219491   3.159   3.007   9.018  0.6122 -2.1666 -0.8793
 2677SOL     OW19492   1.010   0.529   1.819  0.1939 -0.3993  0.1930
 2677SOL    HW119493   0.932   0.481   1.791  0.1950 -0.3739  0.1469
 2677SOL    HW219494   1.004   0.522   1.915  0.1327  1.9506  0.3580
 2678SOL     OW19495   1.317   3.612  13.094 -0.0517 -0.5370  0.2528
 2678SOL    HW119496   1.331   3.705  13.111  2.5714 -0.6036 -1.4555
 2678SOL    HW219497   1.284   3.579  13.177 -0.9892  0.0779  0.1219
 2679SOL     OW19498   1.976   4.596   7.600 -0.3554 -0.5462 -0.3255
 2679SOL    HW119499   1.966   4.518   7.655 -0.4504 -0.3484 -0.0672
 2679SOL    HW219500   2.069   4.586   7.576  0.1141  1.9840  0.4819
 2680SOL     OW19501   3.868   4.420  12.034 -0.4699 -0.7445 -1.0811
 2680SOL    HW119502   3.891   4.487  12.099 -0.4898 -0.9734 -0.8391
 2680SOL    HW219503   3.955   4.379  12.033 -0.2890 -0.4247  0.5137
 2681SOL     OW19504   3.420   3.685   1.695  0.0916  0.5721 -0.3357
 2681SOL    HW119505   3.339   3.651   1.659 -0.2592  2.9974 -1.7955
 2681SOL    HW219506   3.483   3.625   1.656 -1.1848 -0.2467 -1.1207
 2682SOL     OW19507   2.298   3.853   5.912  0.1189  0.4594  0.8521
 2682SOL    HW119508   2.262   3.789   5.851 -0.0343  0.2408  1.1733
 2682SOL    HW219509   2.257   3.830   5.995 -0.1127 -1.5649  0.1622
 2683SOL     OW19510   2.242   4.675   3.193 -0.1303 -0.0731  0.3007
 2683SOL    HW119511   2.271   4.625   3.269 -0.2081 -0.7863 -0.1456
 2683SOL    HW219512   2.283   4.623   3.124 -1.0342  0.6519 -0.7944
 2684SOL     OW19513   2.676   0.687   9.851 -0.6753  0.4377 -0.3403
 2684SOL    HW119514   2.733   0.752   9.893 -0.0809  0.0216 -0.5101
 2684SOL    HW219515   2.735   0.640   9.793 -0.0925 -0.2356  0.8036
 2685SOL     OW19516   2.595   1.151   7.432  0.8101  0.3883 -0.0369
 2685SOL    HW119517   2.654   1.076   7.427 -2.2408 -2.0255  0.1113
 2685SOL    HW219518   2.653   1.225   7.413  2.3581 -0.7688  0.2203
 2686SOL     OW19519   3.645   0.614   9.090 -0.3631  0.3714 -0.6629
 2686SOL    HW119520   3.626   0.557   9.015 -1.5985 -1.7417  1.2319
 2686SOL    HW219521   3.597   0.574   9.162 -1.5439  0.6512 -1.2982
 2687SOL     OW19522   1.020   0.776  15.771  0.0157  0.0654 -0.2184
 2687SOL    HW119523   1.007   0.865  15.804  1.0684 -0.0588  0.5211
 2687SOL    HW219524   1.035   0.729  15.853  2.9715 -1.9361 -1.9569
 2688SOL     OW19525   0.849   4.680  16.246  0.0359 -0.2497 -0.2904
 2688SOL    HW119526   0.776   4.620  16.260  0.0645 -0.1243  0.4062
 2688SOL    HW219527   0.905   4.636  16.311  0.2785 -1.9615 -1.6643
 2689SOL     OW19528   2.534   0.134   0.144 -0.1400 -0.2415 -0.3016
 2689SOL    HW119529   2.489   0.050   0.134  1.1732 -0.7519 -1.8893
 2689SOL    HW219530   2.501   0.151   0.232  1.3344 -0.4262  0.2946
 2690SOL     OW19531   3.147   2.447  15.769  0.3475 -0.0838  0.2382
 2690SOL    HW119532   3.053   2.434  15.781  0.4855 -0.9139  0.3748
 2690SOL    HW219533   3.164   2.503  15.844  1.1433  1.3735 -1.0287
 2691SOL     OW19534   0.121   0.319   5.380 -0.0918  0.3534 -0.0821
 2691SOL    HW119535   0.034   0.298   5.415 -0.6384 -0.4382 -1.9156
 2691SOL    HW219536   0.158   0.234   5.355  0.8743  0.6812  0.2375
 2692SOL     OW19537   4.674   4.208   5.769 -0.1541 -0.0469  0.0227
 2692SOL    HW119538   4.625   4.273   5.717  3.4468  1.7344 -1.1424
 2692SOL    HW219539   4.616   4.135   5.791  1.0843 -1.1355 -0.3651
 2693SOL     OW19540   0.435   0.080   2.058  0.1133 -0.5331  0.3033
 2693SOL    HW119541   0.393   0.043   1.980 -1.9667 -1.0484  1.6667
 2693SOL    HW219542   0.403   0.170   2.067  1.8537  0.0735  0.3832
 2694SOL     OW19543   1.337   2.391  14.992  0.2441  0.8876 -0.2305
 2694SOL    HW119544   1.420   2.385  14.944 -0.3235  0.6535 -1.1665
 2694SOL    HW219545   1.286   2.451  14.938 -1.2651 -0.6652 -0.5088
 2695SOL     OW19546   0.306   0.274   6.265  0.6097  0.6149  0.6617
 2695SOL    HW119547   0.252   0.250   6.340  2.2406 -0.3798  1.4954
 2695SOL    HW219548   0.249   0.322   6.204 -0.1575 -1.7721 -0.4993
 2696SOL     OW19549   3.207   3.534   1.598  0.5941  0.2742 -0.1089
 2696SOL    HW119550   3.188   3.468   1.665  1.4486  1.3922  1.2290
 2696SOL    HW219551   3.117   3.565   1.585  0.5624  0.5348  0.7297
 2697SOL     OW19552   1.019   3.583   5.324 -0.5890  0.1130 -0.0842
 2697SOL    HW119553   1.006   3.509   5.383  0.2397 -0.0205 -0.0668
 2697SOL    HW219554   0.929   3.602   5.298 -0.7620  0.1579  0.5584
 2698SOL     OW19555   3.589   2.218   7.584 -0.2997 -0.2540 -0.3176
 2698SOL    HW119556   3.576   2.310   7.560  1.3844  0.3263  0.9773
 2698SOL    HW219557   3.533   2.183   7.515  0.7022 -0.3569 -1.0760
 2699SOL     OW19558   1.390   4.353   8.569  0.0806  0.5545 -0.2637
 2699SOL    HW119559   1.336   4.276   8.586 -1.2692  1.6219  0.3005
 2699SOL    HW219560   1.373   4.410   8.644  0.1422  0.2392 -0.0070
 2700SOL     OW19561   3.626   3.200   5.503  0.0274  0.3391  0.1947
 2700SOL    HW119562   3.581   3.255   5.438 -1.8693 -0.0352  1.1880
 2700SOL    HW219563   3.717   3.219   5.483  0.1485  1.2917  1.7154
 2701SOL     OW19564   0.096   1.699  15.711 -0.6511 -0.3217 -0.2582
 2701SOL    HW119565   0.051   1.680  15.793  0.7902 -0.5052  0.4901
 2701SOL    HW219566   0.177   1.649  15.725 -0.7067  0.6580  3.6354
 2702SOL     OW19567   2.746   3.965   8.998  0.2340 -0.2747  0.5197
 2702SOL    HW119568   2.821   3.910   8.976 -0.2464 -1.0761  0.8520
 2702SOL    HW219569   2.781   4.054   8.996  0.6121 -0.4528 -0.5824
 2703SOL     OW19570   2.180   3.637   9.131  0.3139 -0.1098  0.4851
 2703SOL    HW119571   2.111   3.701   9.148 -0.2163 -0.1045 -1.7258
 2703SOL    HW219572   2.191   3.583   9.210  1.6956  1.5752  1.4615
 2704SOL     OW19573   0.150   1.150   4.732  0.2647 -0.0013 -0.0788
 2704SOL    HW119574   0.179   1.235   4.699 -1.4040  0.4986 -0.2635
 2704SOL    HW219575   0.231   1.117   4.770  0.7799  3.2128  1.6346
 2705SOL     OW19576   3.987   1.198   9.279 -0.1608 -0.0578  0.0773
 2705SOL    HW119577   3.998   1.159   9.365 -2.2912  3.0421  1.7707
 2705SOL    HW219578   3.972   1.292   9.290 -1.1389 -0.0801 -1.0130
 2706SOL     OW19579   3.001   1.738   6.445  0.0350  0.1629 -0.2772
 2706SOL    HW119580   2.944   1.806   6.483  1.8946  1.2881  0.4751
 2706SOL    HW219581   3.025   1.777   6.360  0.2714 -0.5240 -0.5247
 2707SOL     OW19582   0.295   3.839  15.681 -0.0760 -0.5569  0.2712
 2707SOL    HW119583   0.276   3.745  15.671  1.9888 -0.9149 -0.3293
 2707SOL    HW219584   0.259   3.871  15.598 -0.4768  0.7706  0.9598
 2708SOL     OW19585   2.390   1.596   3.982  0.0498  0.5615 -0.3512
 2708SOL    HW119586   2.353   1.533   3.920 -0.6166  1.0043 -0.3985
 2708SOL    HW219587   2.465   1.547   4.017 -0.6740 -1.1333 -1.1372
 2709SOL     OW19588   0.079   1.897   1.860 -0.2242 -0.0821 -0.3276
 2709SOL    HW119589   0.058   1.881   1.952  0.2513 -1.0888 -0.3912
 2709SOL    HW219590   4.720   1.874   1.819 -0.1222  1.0752 -1.1981
 2710SOL     OW19591   0.681   3.493  14.906  0.5077  0.7264 -0.0319
 2710SOL    HW119592   0.770   3.459  14.912  0.6873  0.8269 -2.1443
 2710SOL    HW219593   0.657   3.456  14.991  1.2332 -1.4103 -0.7372
 2711SOL     OW19594   2.718   1.480   2.443 -0.7051  0.0876 -0.0112
 2711SOL    HW119595   2.654   1.541   2.480  0.2203  1.2622 -0.3434
 2711SOL    HW219596   2.773   1.462   2.519 -0.7663  0.7274  0.1831
 2712SOL     OW19597   1.266   4.284  10.370  0.4161 -0.1493  0.1923
 2712SOL    HW119598   1.293   4.371  10.399 -1.4958  0.5370 -0.0896
 2712SOL    HW219599   1.271   4.295  10.275 -0.9399 -1.0886  0.0141
 2713SOL     OW19600   0.369   4.021  17.128  0.2256  0.0555  0.4385
 2713SOL    HW119601   0.405   3.952  17.073  1.6488  0.4224  0.9173
 2713SOL    HW219602   0.346   4.093  17.069 -0.2168  1.3441  2.1767
 2714SOL     OW19603   2.636   1.281   8.940 -0.0331  0.0641  0.7815
 2714SOL    HW119604   2.607   1.205   8.889 -0.6108  1.4021 -0.9017
 2714SOL    HW219605   2.681   1.246   9.017  0.5163 -0.3954  0.2492
 2715SOL     OW19606   4.012   2.370   4.588 -0.1429  0.2251 -0.1965
 2715SOL    HW119607   4.092   2.418   4.610 -0.0475  0.6147 -1.3906
 2715SOL    HW219608   4.042   2.291   4.544  1.1455  0.8452 -0.4291
 2716SOL     OW19609   1.332   3.986   8.737  0.2329  0.0177  0.3585
 2716SOL    HW119610   1.260   4.012   8.796  1.1600  0.6628  1.2002
 2716SOL    HW219611   1.396   3.973   8.806  0.0472  1.4887  0.8146
 2717SOL     OW19612   3.051   1.196   2.806  0.0412 -0.2804 -0.1181
 2717SOL    HW119613   3.119   1.255   2.774  0.4293  0.0139  1.2539
 2717SOL    HW219614   2.984   1.226   2.744  0.9228  2.2508  0.1800
 2718SOL     OW19615   2.442   2.476   1.611  0.0525 -0.7311 -0.3524
 2718SOL    HW119616   2.412   2.438   1.693 -0.1708 -1.0944 -0.6031
 2718SOL    HW219617   2.410   2.566   1.618  1.9799  0.0200 -1.2665
 2719SOL     OW19618   3.397   3.871  13.240 -0.1325  0.4768  0.2318
 2719SOL    HW119619   3.467   3.812  13.214 -0.9604 -0.5256  0.2977
 2719SOL    HW219620   3.347   3.874  13.159  0.1124 -0.4810  0.0570
 2720SOL     OW19621   0.518   4.632   6.141  0.0261  0.8193  0.0683
 2720SOL    HW119622   0.430   4.641   6.178  0.2560  0.2268  0.7579
 2720SOL    HW219623   0.500   4.577   6.065  1.6966  0.9550 -0.4193
 2721SOL     OW19624   3.413   3.141   5.674  0.0210 -0.1160 -0.0902
 2721SOL    HW119625   3.493   3.129   5.624 -1.1919 -0.1747 -2.0194
 2721SOL    HW219626   3.352   3.179   5.611 -1.7189 -1.2509  0.9095
 2722SOL     OW19627   2.934   0.619  16.332  0.1979  0.2240 -0.5165
 2722SOL    HW119628   2.868   0.616  16.263 -2.1202 -0.3094  1.7110
 2722SOL    HW219629   2.876   0.621  16.408  0.5057 -3.1801 -0.1938
 2723SOL     OW19630   3.144   4.266   5.126  0.4509  0.6695  0.2685
 2723SOL    HW119631   3.166   4.196   5.064 -2.1756 -0.0039  0.0722
 2723SOL    HW219632   3.232   4.302   5.118 -0.4847  3.4560  2.5689
 2724SOL     OW19633   0.849   4.534   4.258 -0.0335 -0.9990  0.0570
 2724SOL    HW119634   0.775   4.592   4.279  1.3801  0.9543 -0.3512
 2724SOL    HW219635   0.916   4.564   4.318 -0.0096 -0.0984 -0.4222
 2725SOL     OW19636   0.242   3.933   4.322  0.0877  0.0861  0.2072
 2725SOL    HW119637   0.253   3.944   4.227 -0.6234  0.9325  0.2232
 2725SOL    HW219638   0.334   3.916   4.345  0.0061 -1.2279 -0.4573
 2726SOL     OW19639   3.655   3.523  12.015  0.1912 -0.3803  0.1684
 2726SOL    HW119640   3.588   3.516  11.948  1.3203  0.6189 -1.0580
 2726SOL    HW219641   3.624   3.466  12.086 -1.1129  0.6282  0.3953
 2727SOL     OW19642   3.208   1.893   4.686 -0.7199  0.0212  0.2439
 2727SOL    HW119643   3.123   1.879   4.644  0.4934 -0.2228 -2.1179
 2727SOL    HW219644   3.258   1.818   4.654  0.4186 -0.4711  3.1478
 2728SOL     OW19645   1.478   2.114   9.792 -0.2716 -0.0904  0.3379
 2728SOL    HW119646   1.513   2.204   9.794  0.2803 -0.3004  0.2642
 2728SOL    HW219647   1.428   2.115   9.873 -1.5740 -0.3006 -0.4795
 2729SOL     OW19648   0.633   0.661   6.537  0.1550  0.0613  0.3108
 2729SOL    HW119649   0.689   0.730   6.501 -1.1188 -0.8660 -3.5477
 2729SOL    HW219650   0.599   0.631   6.452 -0.0027  0.2976  0.2888
 2730SOL     OW19651   0.746   2.587   7.170  0.0779 -0.2480  0.3156
 2730SOL    HW119652   0.809   2.650   7.135 -1.3233  0.3065 -1.1695
 2730SOL    HW219653   0.755   2.596   7.265  0.5416  1.9670  0.0522
 2731SOL     OW19654   0.303   0.105   2.919  0.0572  0.3357  0.4732
 2731SOL    HW119655   0.225   0.059   2.889 -0.1010  0.7302  0.2799
 2731SOL    HW219656   0.365   0.032   2.917  1.1119  1.2275  1.0338
 2732SOL     OW19657   1.281   0.756   4.552  0.6200 -0.0811  0.3935
 2732SOL    HW119658   1.316   0.772   4.640 -1.7016 -0.4680  1.3829
 2732SOL    HW219659   1.239   0.672   4.570  0.1883  0.1270  0.3386
 2733SOL     OW19660   1.463   0.458   0.032 -0.6888 -0.1017  0.4459
 2733SOL    HW119661   1.547   0.502   0.018 -0.0181 -1.5349 -0.0536
 2733SOL    HW219662   1.430   0.519   0.098 -0.0199  1.2932 -0.5271
 2734SOL     OW19663   0.737   2.688   5.549  0.3461 -0.2921  0.0599
 2734SOL    HW119664   0.724   2.653   5.637  0.9693  0.2093  0.3504
 2734SOL    HW219665   0.832   2.698   5.549  0.2571  0.6181  0.9703
 2735SOL     OW19666   3.282   1.294   8.428 -0.1963  0.1176 -0.3737
 2735SOL    HW119667   3.364   1.245   8.418  0.7431  2.1183 -2.2118
 2735SOL    HW219668   3.255   1.263   8.515 -0.4126  0.7649 -0.2153
 2736SOL     OW19669   2.741   2.488   7.413 -0.2520  0.4640 -0.3703
 2736SOL    HW119670   2.705   2.531   7.490  0.1821  0.0238  0.0769
 2736SOL    HW219671   2.727   2.561   7.352 -0.0173 -2.0855 -3.4908
 2737SOL     OW19672   2.263   0.809  14.778 -0.3831  0.3992  0.7588
 2737SOL    HW119673   2.300   0.872  14.716  0.1399 -0.3364  0.3290
 2737SOL    HW219674   2.202   0.765  14.719 -2.2733  2.0835  1.4309
 2738SOL     OW19675   4.088   1.308  16.098  0.2781 -0.0208 -0.4113
 2738SOL    HW119676   4.170   1.259  16.101 -0.0339 -0.6037 -1.0738
 2738SOL    HW219677   4.108   1.399  16.115  1.4847 -0.2932 -0.3895
 2739SOL     OW19678   4.160   3.322   9.189  0.3467  0.4389 -0.3052
 2739SOL    HW119679   4.250   3.352   9.174  0.8914 -0.2808  1.5376
 2739SOL    HW219680   4.135   3.409   9.218  1.3873  0.6433 -0.0282
 2740SOL     OW19681   3.404   1.409   4.003  0.5024 -0.2077 -0.1610
 2740SOL    HW119682   3.405   1.313   4.007  0.2652 -0.1740  0.7642
 2740SOL    HW219683   3.446   1.422   4.088  0.1503  1.8427 -0.3003
 2741SOL     OW19684   2.732   0.172   3.182 -0.3941  0.0512 -0.8258
 2741SOL    HW119685   2.673   0.133   3.247  1.4211 -0.7069  0.3827
 2741SOL    HW219686   2.706   0.116   3.109 -1.2353 -1.7577  0.8446
 2742SOL     OW19687   1.220   2.802   4.208  0.4001  0.6272 -0.1249
 2742SOL    HW119688   1.253   2.829   4.294  1.4639 -1.8683  0.2664
 2742SOL    HW219689   1.129   2.828   4.217 -0.2510 -1.4913 -0.6048
 2743SOL     OW19690   1.522   0.246   8.344 -0.7498 -0.2457 -0.3962
 2743SOL    HW119691   1.445   0.223   8.396 -0.5635  0.9671  0.4289
 2743SOL    HW219692   1.473   0.290   8.275  0.8882  1.1437 -0.6698
 2744SOL     OW19693   1.665   1.185  13.373 -0.4192 -0.1022  0.6052
 2744SOL    HW119694   1.661   1.125  13.299  2.4109  1.3979 -0.7594
 2744SOL    HW219695   1.752   1.223  13.359  0.4159 -1.3574  2.2975
 2745SOL     OW19696   0.783   0.396   1.713  0.2285  0.7547 -0.1070
 2745SOL    HW119697   0.761   0.304   1.730 -0.5030  0.6443 -1.6884
 2745SOL    HW219698   0.799   0.400   1.619  0.5263  2.0467  0.0093
 2746SOL     OW19699   2.711   3.969  10.650 -0.4123 -0.1350  0.5629
 2746SOL    HW119700   2.745   3.978  10.561 -0.1638 -0.0317  0.6666
 2746SOL    HW219701   2.778   3.917  10.694  0.9275  1.6379  0.6333
 2747SOL     OW19702   2.172   3.225   3.317 -0.1184 -0.0228 -0.4035
 2747SOL    HW119703   2.082   3.199   3.336 -1.2301  3.0098 -1.6374
 2747SOL    HW219704   2.210   3.233   3.405 -1.0979 -0.5704  0.0619
 2748SOL     OW19705   0.692   3.221   5.556 -0.0936 -0.4034  0.6224
 2748SOL    HW119706   0.620   3.183   5.506  0.8365 -1.4175  0.0341
 2748SOL    HW219707   0.760   3.197   5.494 -1.3499  1.6003 -1.5201
 2749SOL     OW19708   0.819   2.348   8.915 -0.6981 -0.5815 -0.3932
 2749SOL    HW119709   0.871   2.390   8.984  0.0770  1.2984 -2.1375
 2749SOL    HW219710   0.852   2.389   8.835 -1.1889  0.9280  0.1935
 2750SOL     OW19711   1.431   1.949  13.614 -0.3524  0.7556  0.2309
 2750SOL    HW119712   1.402   1.885  13.680 -0.7326  1.1554  0.4524
 2750SOL    HW219713   1.408   2.023  13.669  0.7105  1.5407 -0.3788
 2751SOL     OW19714   2.308   1.868  12.480 -0.2277  0.1274  0.3750
 2751SOL    HW119715   2.226   1.819  12.480  0.2561 -0.6827 -0.9395
 2751SOL    HW219716   2.308   1.916  12.563  0.1410  0.6036  0.0984
 2752SOL     OW19717   1.656   4.113   2.805 -0.1604 -0.3382 -0.6065
 2752SOL    HW119718   1.746   4.097   2.778  0.2282  2.5365 -0.9286
 2752SOL    HW219719   1.614   4.086   2.723 -0.3397 -0.9867 -0.3039
 2753SOL     OW19720   3.778   0.439   5.384  0.0959 -0.3078 -0.0767
 2753SOL    HW119721   3.831   0.360   5.396 -0.0870 -0.3965  0.1473
 2753SOL    HW219722   3.844   0.507   5.374  1.7887 -2.4299 -3.3007
 2754SOL     OW19723   1.416   0.494   6.579  0.8053 -0.4423 -0.0487
 2754SOL    HW119724   1.465   0.526   6.654  1.2862  0.6587 -0.8244
 2754SOL    HW219725   1.464   0.536   6.508  0.1216  2.7035  1.3600
 2755SOL     OW19726   4.399   1.165  17.667  0.9423 -0.7506  0.1862
 2755SOL    HW119727   4.417   1.230   0.038  0.8867 -1.1053  0.5368
 2755SOL    HW219728   4.309   1.141  17.688  1.4964 -1.7426  1.4143
 2756SOL     OW19729   0.783   1.639   6.137 -0.0427  0.1630 -0.0844
 2756SOL    HW119730   0.834   1.686   6.202  3.3252 -2.5186 -0.7906
 2756SOL    HW219731   0.834   1.646   6.056  0.2189  0.5636  0.1158
 2757SOL     OW19732   3.958   0.433   0.449 -0.2663  0.3951 -0.0382
 2757SOL    HW119733   3.987   0.404   0.536  1.9347  1.9248 -0.2657
 2757SOL    HW219734   3.881   0.378   0.436  1.2624 -1.8509  0.3114
 2758SOL     OW19735   3.989   1.158   2.934 -0.3433  0.2478  0.2762
 2758SOL    HW119736   3.945   1.132   2.853 -1.7019 -0.9244  1.3943
 2758SOL    HW219737   4.078   1.125   2.922 -1.3897 -1.6939 -2.0944
 2759SOL     OW19738   3.113   1.843  13.693 -0.2404 -0.2894 -0.6484
 2759SOL    HW119739   3.093   1.814  13.782  1.3998  0.0218 -0.1858
 2759SOL    HW219740   3.102   1.762  13.644  1.9877 -1.0031  0.0288
 2760SOL     OW19741   3.007   1.611   2.512 -0.1613  0.2449  0.1430
 2760SOL    HW119742   2.951   1.573   2.580 -1.2383  0.2712 -0.7409
 2760SOL    HW219743   2.954   1.676   2.467  0.7221  0.6504 -0.3153
 2761SOL     OW19744   3.736   2.576   6.158 -0.2058 -0.1840 -0.2012
 2761SOL    HW119745   3.803   2.627   6.111 -1.7348  0.6174 -1.5296
 2761SOL    HW219746   3.655   2.623   6.139  0.2369  1.2323  1.3334
 2762SOL     OW19747   0.700   0.029   6.439 -0.1308 -0.6661 -0.0000
 2762SOL    HW119748   0.607   0.009   6.437 -0.4644  0.8005  1.5191
 2762SOL    HW219749   0.704   0.090   6.365 -0.8556  0.5069  0.9368
 2763SOL     OW19750   3.423   2.664   6.195 -0.1941 -0.1766  0.2867
 2763SOL    HW119751   3.449   2.646   6.285  2.4938  0.7894 -0.3053
 2763SOL    HW219752   3.331   2.637   6.196 -0.1406 -0.4299 -2.6694
 2764SOL     OW19753   2.729   0.795   4.881  0.7434  0.8497  0.1656
 2764SOL    HW119754   2.681   0.712   4.883  0.8540  0.7599 -0.8140
 2764SOL    HW219755   2.772   0.802   4.966  0.8010 -1.3165  0.3158
 2765SOL     OW19756   4.015   3.769   8.994 -0.0449  0.2150  0.5830
 2765SOL    HW119757   4.079   3.771   9.066  1.2822 -2.8216 -0.5369
 2765SOL    HW219758   4.032   3.859   8.966 -1.2114  0.5608  0.9715
 2766SOL     OW19759   2.035   1.603   2.447 -0.2914 -0.1020  0.3169
 2766SOL    HW119760   2.055   1.623   2.355  0.3272  1.5940  0.8321
 2766SOL    HW219761   2.022   1.693   2.474 -1.1502  0.6411 -2.5565
 2767SOL     OW19762   2.556   3.316   0.888  0.4012  0.1998  0.4354
 2767SOL    HW119763   2.615   3.339   0.817  2.2209  0.8623  2.1604
 2767SOL    HW219764   2.533   3.234   0.844 -0.7439 -0.3105  1.9883
 2768SOL     OW19765   1.389   3.204  11.317 -0.4080 -0.0951 -0.7140
 2768SOL    HW119766   1.345   3.158  11.245 -0.9470 -1.4257  0.4520
 2768SOL    HW219767   1.419   3.286  11.278 -0.9805  0.0185 -0.9257
 2769SOL     OW19768   4.316   0.603   8.217  0.4705 -0.1442  0.3731
 2769SOL    HW119769   4.288   0.679   8.165  0.5184  0.6254  1.4618
 2769SOL    HW219770   4.326   0.536   8.150 -2.6982  0.3185 -0.5218
 2770SOL     OW19771   2.247   2.162   5.832  0.4153 -0.0557  0.3078
 2770SOL    HW119772   2.317   2.107   5.868  3.7016  2.3513 -2.3651
 2770SOL    HW219773   2.235   2.209   5.915 -0.6978  0.8477 -0.3728
 2771SOL     OW19774   3.983   4.086   0.969 -0.2132 -0.3968 -0.3004
 2771SOL    HW119775   3.949   4.174   0.954  1.2906 -0.2178 -2.5770
 2771SOL    HW219776   3.969   4.089   1.064 -3.0038  0.4419 -0.7429
 2772SOL     OW19777   0.702   2.713   1.609 -0.0283 -0.5853  0.5793
 2772SOL    HW119778   0.673   2.630   1.572  0.2231  0.0685 -1.0681
 2772SOL    HW219779   0.751   2.745   1.533 -1.6161  0.4408 -0.0094
 2773SOL     OW19780   2.217   4.079   1.231  0.2435 -0.4760  0.0325
 2773SOL    HW119781   2.275   4.037   1.294  0.7481  1.5873  0.9281
 2773SOL    HW219782   2.147   4.111   1.288  3.0325  0.7814  2.7179
 2774SOL     OW19783   2.074   2.425  16.160 -0.3744 -0.3482  0.1669
 2774SOL    HW119784   2.074   2.440  16.254  0.3973 -2.1654  0.4623
 2774SOL    HW219785   2.123   2.501  16.130 -2.1864  1.1577  1.0341
 2775SOL     OW19786   3.748   4.116  17.185  0.4969  0.2709  0.1097
 2775SOL    HW119787   3.710   4.189  17.138  1.4959  0.2882 -0.6719
 2775SOL    HW219788   3.806   4.165  17.243  0.3231 -0.0345  0.5430
 2776SOL     OW19789   0.191   0.180   2.347 -0.1671  0.4946 -0.3670
 2776SOL    HW119790   0.172   0.263   2.305  0.7971  0.5210 -0.7483
 2776SOL    HW219791   0.208   0.122   2.272 -2.8800  1.3671 -1.6222
 2777SOL     OW19792   0.957   0.851   3.551  0.2283  0.3666 -0.1689
 2777SOL    HW119793   0.861   0.854   3.544  0.1078  1.7900  1.9283
 2777SOL    HW219794   0.981   0.763   3.523 -1.8708 -0.2607 -0.0487
 2778SOL     OW19795   3.537   2.159   3.504  0.7681 -0.0417  0.2204
 2778SOL    HW119796   3.448   2.190   3.524  1.2175  2.1679 -1.2884
 2778SOL    HW219797   3.587   2.235   3.476 -1.0254  0.8451 -0.5734
 2779SOL     OW19798   3.727   2.922   2.100 -0.2943 -0.6800 -0.0247
 2779SOL    HW119799   3.771   3.001   2.067 -1.4696 -0.1232 -0.2796
 2779SOL    HW219800   3.693   2.885   2.019 -0.2160  0.0481 -0.3962
 2780SOL     OW19801   3.978   3.140   3.274  0.1669  0.2859  0.0085
 2780SOL    HW119802   4.018   3.086   3.342 -2.4991  0.0618  1.4026
 2780SOL    HW219803   3.908   3.082   3.245  1.9887 -1.7861 -0.2498
 2781SOL     OW19804   0.982   0.037  17.549  0.0345 -0.0751 -0.2069
 2781SOL    HW119805   0.896   0.031  17.506 -0.4834 -0.5359  0.8869
 2781SOL    HW219806   1.003   4.670  17.568  0.1827  0.0922  0.4478
 2782SOL     OW19807   4.609   2.453   6.766  0.0444 -0.0408 -0.4306
 2782SOL    HW119808   4.653   2.438   6.683 -0.0815 -0.0688 -0.4924
 2782SOL    HW219809   4.633   2.369   6.807 -1.2229 -0.0120  0.3721
 2783SOL     OW19810   1.601   0.132   5.521  0.2809 -0.2371  0.0948
 2783SOL    HW119811   1.642   0.045   5.515  0.9312 -0.0178  1.2725
 2783SOL    HW219812   1.677   0.184   5.547 -1.7533  1.9261  1.6288
 2784SOL     OW19813   1.686   0.096  14.997 -0.3809 -0.1316  0.1119
 2784SOL    HW119814   1.692   0.191  14.988  2.5932 -0.2886  0.4654
 2784SOL    HW219815   1.616   0.076  14.934  0.5790  0.1931 -1.0667
 2785SOL     OW19816   1.966   0.915  11.907  0.0620  0.1309 -0.3111
 2785SOL    HW119817   1.943   0.825  11.883  0.6976  0.4131 -1.9933
 2785SOL    HW219818   1.961   0.949  11.818 -0.0409 -1.2612 -0.8458
 2786SOL     OW19819   1.089   2.327   6.791  0.0971  0.1685  0.3529
 2786SOL    HW119820   1.129   2.260   6.847 -0.7543 -0.9975 -0.4176
 2786SOL    HW219821   1.046   2.285   6.716 -1.0565 -2.7260  2.6130
 2787SOL     OW19822   1.757   4.538   7.412  0.3455 -0.3481  0.5775
 2787SOL    HW119823   1.805   4.587   7.478  0.1645  0.7466 -0.1031
 2787SOL    HW219824   1.673   4.583   7.423 -0.0716 -1.5464  2.3291
 2788SOL     OW19825   1.248   3.314  15.525 -0.1697 -0.2778 -0.3653
 2788SOL    HW119826   1.317   3.368  15.562  0.3776 -0.7258 -0.7434
 2788SOL    HW219827   1.183   3.383  15.508 -0.2646 -0.6570 -1.5741
 2789SOL     OW19828   3.722   2.763  10.067  0.2426  0.2193  0.0541
 2789SOL    HW119829   3.785   2.828  10.034  1.8707 -1.6344 -0.4892
 2789SOL    HW219830   3.759   2.689  10.019  1.9229  0.9710  0.1605
 2790SOL     OW19831   4.094   3.866   6.295  0.4651  0.1475 -0.3331
 2790SOL    HW119832   4.061   3.861   6.384 -3.0161 -0.5665 -1.6921
 2790SOL    HW219833   4.012   3.857   6.248  1.1191 -2.9998 -0.8602
 2791SOL     OW19834   2.799   3.767   2.945  0.4718  0.5485  0.0253
 2791SOL    HW119835   2.717   3.814   2.931 -0.6183 -1.4294 -0.1838
 2791SOL    HW219836   2.871   3.829   2.961  0.7105  0.5359 -0.9563
 2792SOL     OW19837   2.339   1.709   8.523 -1.2031 -0.1953 -0.9499
 2792SOL    HW119838   2.319   1.763   8.599  0.3007  0.1007 -0.7531
 2792SOL    HW219839   2.433   1.696   8.536 -1.3024  2.5668  2.4884
 2793SOL     OW19840   2.098   4.145   6.506  0.0239  0.0096  0.5412
 2793SOL    HW119841   2.109   4.239   6.519 -2.5238  0.0886  1.9309
 2793SOL    HW219842   2.003   4.142   6.513  0.1688  0.2013  2.6430
 2794SOL     OW19843   3.435   2.694  16.182 -0.0337  0.2897  0.0432
 2794SOL    HW119844   3.461   2.776  16.141  1.0807  0.6290  1.4023
 2794SOL    HW219845   3.523   2.656  16.191  1.0227  3.5499  3.1870
 2795SOL     OW19846   4.669   4.188   4.790  0.0313  0.4167 -0.4239
 2795SOL    HW119847   4.599   4.239   4.831  1.7353  2.7255 -0.3831
 2795SOL    HW219848   4.700   4.115   4.843 -0.1286  0.7919  0.1814
 2796SOL     OW19849   0.567   3.660   2.740  0.2098 -0.3321 -0.0114
 2796SOL    HW119850   0.541   3.612   2.661  1.6962  0.2721 -0.8708
 2796SOL    HW219851   0.568   3.587   2.802 -0.8938 -0.1509  0.2045
 2797SOL     OW19852   2.488   2.312   2.116 -0.1149  0.1875 -0.3128
 2797SOL    HW119853   2.572   2.335   2.076  0.3128 -2.4563 -0.9137
 2797SOL    HW219854   2.470   2.380   2.181  0.9343 -1.0275  1.2177
 2798SOL     OW19855   0.183   1.399   5.064 -0.1983 -0.4316  0.4355
 2798SOL    HW119856   0.274   1.372   5.069  0.5441  2.2782  1.4514
 2798SOL    HW219857   0.144   1.360   5.143 -1.5112 -1.9540 -0.9538
 2799SOL     OW19858   1.473   3.793   1.930  0.2194  0.1504 -0.2538
 2799SOL    HW119859   1.554   3.831   1.965  0.9723 -1.0303 -0.7084
 2799SOL    HW219860   1.499   3.751   1.848 -0.6655 -0.5768 -0.1632
 2800SOL     OW19861   2.012   0.788   1.037 -0.1521  0.5594 -0.1506
 2800SOL    HW119862   1.922   0.782   1.005  0.7301 -0.2964 -2.4752
 2800SOL    HW219863   2.068   0.810   0.963 -0.9802  1.4064 -0.5300
 2801SOL     OW19864   1.374   2.224   0.986  0.2734  0.4496 -0.2617
 2801SOL    HW119865   1.331   2.309   0.976 -0.8627 -0.0878  0.0237
 2801SOL    HW219866   1.344   2.201   0.898  2.0756 -1.9772 -0.2385
 2802SOL     OW19867   0.498   3.953   2.773  0.2699  0.6155 -0.2287
 2802SOL    HW119868   0.516   3.976   2.682  1.4601  1.5140  0.2300
 2802SOL    HW219869   0.525   3.863   2.758 -0.3970  0.0040  2.3001
 2803SOL     OW19870   1.817   2.703   1.922  0.2360  0.1901  0.1286
 2803SOL    HW119871   1.886   2.697   1.988 -1.1687  1.4433  1.7197
 2803SOL    HW219872   1.836   2.784   1.874  0.0420  0.1489 -0.0204
 2804SOL     OW19873   0.951   3.270   5.820  0.2018 -0.0754 -0.0249
 2804SOL    HW119874   1.019   3.329   5.787  0.3143 -0.4122 -0.3934
 2804SOL    HW219875   0.869   3.310   5.794 -0.5372  1.0652  3.9465
 2805SOL     OW19876   3.572   2.962   7.446  0.0121 -0.0955  0.1919
 2805SOL    HW119877   3.578   2.944   7.540  0.8272  0.6424  0.2785
 2805SOL    HW219878   3.506   2.896   7.422  1.8568 -2.1405  0.6843
 2806SOL     OW19879   3.778   1.224  16.706 -0.3885 -0.1556 -0.4982
 2806SOL    HW119880   3.713   1.210  16.775  1.1603  0.5142  1.0988
 2806SOL    HW219881   3.731   1.285  16.650  0.5424  1.4612  0.4912
 2807SOL     OW19882   3.012   3.491   2.495 -0.4262  0.0719 -0.1893
 2807SOL    HW119883   3.078   3.556   2.519 -0.7210  0.1419  0.4419
 2807SOL    HW219884   3.048   3.414   2.538 -1.7408 -0.7025 -0.4770
 2808SOL     OW19885   0.081   2.257   0.638  0.3307  0.3890  0.1493
 2808SOL    HW119886   0.024   2.321   0.680 -0.9053  0.7355 -2.0369
 2808SOL    HW219887   0.090   2.293   0.549  1.5371 -1.8612 -0.6483
 2809SOL     OW19888   0.158   0.519   5.541  0.2074  0.0217  0.3954
 2809SOL    HW119889   0.175   0.456   5.611  0.9502 -0.0496  0.1497
 2809SOL    HW219890   0.160   0.465   5.462 -1.0025  0.0867  0.3256
 2810SOL     OW19891   0.154   0.661   6.998  0.2914 -0.0751 -0.1971
 2810SOL    HW119892   0.127   0.709   6.920  2.6901 -0.2205 -1.1189
 2810SOL    HW219893   0.093   0.699   7.061 -0.0014 -2.1008  0.7453
 2811SOL     OW19894   1.783   0.762   0.844 -0.0249  0.0353 -0.6052
 2811SOL    HW119895   1.812   0.837   0.793 -2.0632  2.2043  1.3840
 2811SOL    HW219896   1.808   0.694   0.782  0.4801  0.8903 -1.3288
 2812SOL     OW19897   0.658   4.197   9.215  0.2601 -0.8414  0.1211
 2812SOL    HW119898   0.611   4.115   9.206  0.3530 -0.7920 -0.8538
 2812SOL    HW219899   0.605   4.243   9.280  1.9533  1.8374 -0.3434
 2813SOL     OW19900   4.589   2.416   4.516 -0.0984 -0.1606  0.1186
 2813SOL    HW119901   4.647   2.379   4.450 -0.5252  0.6794 -0.7365
 2813SOL    HW219902   4.637   2.424   4.599 -0.7544 -0.8490  0.5657
 2814SOL     OW19903   4.112   0.856  17.487  0.6959 -0.0131 -0.3977
 2814SOL    HW119904   4.137   0.763  17.481  0.4997  0.0373 -2.0846
 2814SOL    HW219905   4.136   0.881  17.398  1.3636  1.5900  0.2431
 2815SOL     OW19906   3.836   3.521  12.397  0.0330 -0.1054 -0.7689
 2815SOL    HW119907   3.845   3.558  12.309  0.4443 -1.1267 -1.1491
 2815SOL    HW219908   3.905   3.564  12.448  2.9140 -2.5716 -2.6263
 2816SOL     OW19909   1.664   4.511   4.554  0.0443  0.2891 -0.2434
 2816SOL    HW119910   1.754   4.524   4.584  0.1904 -0.4540 -0.3654
 2816SOL    HW219911   1.670   4.423   4.517 -0.2274 -0.2110  0.9169
 2817SOL     OW19912   2.008   1.967   7.403 -0.3217 -0.4620 -0.4907
 2817SOL    HW119913   2.073   1.996   7.467  0.5399  0.2686 -1.7107
 2817SOL    HW219914   2.065   1.976   7.327 -0.7512 -0.7396 -0.8440
 2818SOL     OW19915   0.965   2.611   3.820 -0.1225  0.0531 -0.0968
 2818SOL    HW119916   0.873   2.600   3.796  0.0957 -3.0040  0.3902
 2818SOL    HW219917   0.988   2.681   3.760  0.5650 -0.6573 -0.6422
 2819SOL     OW19918   1.380   3.319  16.594 -0.3572  0.2053  0.1787
 2819SOL    HW119919   1.453   3.326  16.655 -0.0744 -0.9262 -0.0331
 2819SOL    HW219920   1.310   3.341  16.655 -0.7408 -1.6394  0.4044
 2820SOL     OW19921   1.582   3.769   6.086  0.1415 -0.1226 -0.2241
 2820SOL    HW119922   1.675   3.773   6.061  0.0440  0.1882 -0.5348
 2820SOL    HW219923   1.572   3.857   6.121 -0.8637  0.1281 -1.1414
 2821SOL     OW19924   2.087   0.618   7.089  0.0317 -0.2666  0.1631
 2821SOL    HW119925   2.037   0.656   7.161 -1.1454  0.8936 -1.2572
 2821SOL    HW219926   2.068   0.524   7.094 -1.7266  0.0385 -0.5376
 2822SOL     OW19927   3.457   0.261   6.633  0.1369  0.1207  0.2710
 2822SOL    HW119928   3.490   0.176   6.662  2.8846  1.8749  2.2785
 2822SOL    HW219929   3.364   0.243   6.645  0.1138  0.0480 -0.0195
 2823SOL     OW19930   2.383   1.527   9.116 -0.3479  0.5333  0.5623
 2823SOL    HW119931   2.438   1.517   9.038  0.0358 -1.4948  1.0906
 2823SOL    HW219932   2.414   1.612   9.148  0.0494  0.7548 -0.4127
 2824SOL     OW19933   4.056   0.357   8.285 -0.8994 -0.2277  0.3927
 2824SOL    HW119934   4.011   0.313   8.357 -2.1733 -1.0623 -0.9427
 2824SOL    HW219935   4.149   0.337   8.296 -0.3751  2.4008  0.7999
 2825SOL     OW19936   3.921   4.381   1.117  0.3575 -0.5599 -0.3324
 2825SOL    HW119937   3.905   4.402   1.209  0.4337 -0.4600 -0.3411
 2825SOL    HW219938   3.924   4.475   1.097  1.3099 -0.5553 -0.1780
 2826SOL     OW19939   4.410   3.128   4.571 -0.1974  0.3997  0.4302
 2826SOL    HW119940   4.493   3.121   4.618 -0.4976 -2.8375  0.4934
 2826SOL    HW219941   4.357   3.088   4.640  0.9452  1.7643  2.1136
 2827SOL     OW19942   2.385   1.961  10.443 -0.3995  0.0340  0.5491
 2827SOL    HW119943   2.387   2.055  10.427  3.2432 -0.0354  0.5368
 2827SOL    HW219944   2.329   1.932  10.371  1.2782 -3.5519  0.6916
 2828SOL     OW19945   3.670   3.753   9.365  0.0100  0.4105  0.4808
 2828SOL    HW119946   3.579   3.751   9.335  0.0755 -0.4396  0.3525
 2828SOL    HW219947   3.669   3.673   9.417 -1.6809  0.7173  0.9341
 2829SOL     OW19948   1.426   3.499  15.614 -0.1217  0.2067 -0.0583
 2829SOL    HW119949   1.482   3.550  15.555 -0.3681  0.6865  0.1240
 2829SOL    HW219950   1.428   3.549  15.695  0.3822  1.4323 -0.8310
 2830SOL     OW19951   2.482   0.218   7.969 -1.0443  0.1875  0.2824
 2830SOL    HW119952   2.561   0.169   7.946 -1.1678  0.3588 -0.5157
 2830SOL    HW219953   2.524   0.294   8.010 -1.3351  0.0815  0.7733
 2831SOL     OW19954   1.306   3.980   7.275  0.6449 -0.1973  0.2755
 2831SOL    HW119955   1.328   3.892   7.245 -0.6430  0.1687 -1.7360
 2831SOL    HW219956   1.225   3.956   7.320 -1.5362  2.5792 -2.1070
 2832SOL     OW19957   1.748   1.236   6.064 -0.6397  0.5716  0.4131
 2832SOL    HW119958   1.734   1.155   6.113  1.2953  1.6694  2.8171
 2832SOL    HW219959   1.724   1.191   5.984  0.7508 -1.5339  1.2007
 2833SOL     OW19960   2.479   4.613  13.563  0.2498  0.2577 -0.4719
 2833SOL    HW119961   2.513   4.587  13.477  2.0078  0.8584  0.0486
 2833SOL    HW219962   2.385   4.598  13.557  0.2774 -0.2521  0.4797
 2834SOL     OW19963   2.296   3.220   7.890 -0.4810 -0.5916 -0.1003
 2834SOL    HW119964   2.262   3.158   7.955  0.0066 -1.3135 -0.5351
 2834SOL    HW219965   2.289   3.306   7.933  0.3311 -0.4919 -0.1504
 2835SOL     OW19966   2.160   4.111   5.878  0.0247 -0.1950  0.7762
 2835SOL    HW119967   2.204   4.026   5.868  0.7065  0.7017 -3.6619
 2835SOL    HW219968   2.233   4.170   5.898  1.2357 -1.4298  0.0523
 2836SOL     OW19969   0.333   4.617   9.464 -0.0712 -0.7786 -0.2311
 2836SOL    HW119970   0.383   4.697   9.452 -0.5460 -0.8774 -2.8999
 2836SOL    HW219971   0.270   4.639   9.396 -1.6902  3.0371  2.5338
 2837SOL     OW19972   0.022   3.765   1.207  0.0782 -0.2146 -0.0296
 2837SOL    HW119973   4.675   3.823   1.235 -2.0887 -2.4103 -1.0149
 2837SOL    HW219974   0.035   3.797   1.118 -1.4270 -0.1379 -0.2257
 2838SOL     OW19975   3.120   3.102   5.210  0.1533 -0.0603 -0.0589
 2838SOL    HW119976   3.092   3.053   5.132  0.0524 -0.3177  0.1381
 2838SOL    HW219977   3.108   3.035   5.278 -0.2186  0.4048  0.3356
 2839SOL     OW19978   0.045   0.761   5.484  0.1451  0.0906 -0.1645
 2839SOL    HW119979   4.717   0.727   5.411  0.9021 -1.6527  0.1094
 2839SOL    HW219980   0.078   0.678   5.517 -0.5613 -0.0493  0.1691
 2840SOL     OW19981   2.439   2.536   7.852  0.2004 -0.5177 -0.4089
 2840SOL    HW119982   2.526   2.529   7.893  0.0100  1.7216  0.3633
 2840SOL    HW219983   2.407   2.607   7.907 -2.5362 -1.1288 -1.2390
 2841SOL     OW19984   2.024   3.792   3.133  0.2356  0.7126  0.0600
 2841SOL    HW119985   2.047   3.739   3.209  0.8619  1.1647  0.1930
 2841SOL    HW219986   2.097   3.854   3.129 -0.2280  1.1723 -1.1645
 2842SOL     OW19987   0.104   3.588   5.452  0.0418  0.2737  0.3869
 2842SOL    HW119988   0.011   3.565   5.461  0.2523 -1.6775 -2.3842
 2842SOL    HW219989   0.108   3.675   5.413  0.4065 -0.3639 -0.9930
 2843SOL     OW19990   1.994   1.364   8.971  0.1667  0.2670 -0.4388
 2843SOL    HW119991   2.032   1.334   8.889 -0.1551 -0.5646 -0.2808
 2843SOL    HW219992   2.068   1.373   9.031  0.3053 -2.8619 -0.1596
 2844SOL     OW19993   2.379   0.882  12.189  0.0408 -0.3787 -0.1007
 2844SOL    HW119994   2.323   0.957  12.169 -1.1755 -1.0473  0.7325
 2844SOL    HW219995   2.426   0.914  12.266  1.0801 -0.8459 -0.5471
 2845SOL     OW19996   2.036   1.554   4.447  0.2907 -0.4628  0.2763
 2845SOL    HW119997   2.015   1.629   4.503 -2.3878 -1.6911  0.9246
 2845SOL    HW219998   2.126   1.535   4.473  0.5398 -0.7751 -0.8291
 2846SOL     OW19999   2.966   1.494   1.628  0.2006 -1.0628  0.0380
 2846SOL    HW120000   2.936   1.425   1.687 -1.2187 -1.4343 -1.1128
 2846SOL    HW220001   2.895   1.558   1.626  1.6096  0.6116  3.0211
 2847SOL     OW20002   1.379   2.332   5.782  0.0996  0.0336  0.1310
 2847SOL    HW120003   1.383   2.243   5.817  0.2781 -0.2023 -0.4965
 2847SOL    HW220004   1.433   2.334   5.704  1.6888 -0.5385  1.2245
 2848SOL     OW20005   0.885   4.679   2.427  0.0552  0.5663 -0.0173
 2848SOL    HW120006   0.929   4.653   2.346  2.8155 -0.6046  1.8657
 2848SOL    HW220007   0.887   4.605   2.488  1.5359  1.3084  0.8434
 2849SOL     OW20008   4.683   1.727   5.888 -0.4697  0.0287 -0.2849
 2849SOL    HW120009   4.690   1.632   5.900 -2.9785 -0.5984 -3.6394
 2849SOL    HW220010   4.674   1.737   5.793 -0.3466  2.3852 -0.0364
 2850SOL     OW20011   1.924   3.496   6.806  0.0375 -0.5057 -0.2728
 2850SOL    HW120012   1.878   3.541   6.876 -0.7883 -1.0326 -0.4789
 2850SOL    HW220013   1.899   3.552   6.733  1.0783  0.9631  0.4864
 2851SOL     OW20014   0.079   3.095   4.822  0.3096 -0.2520 -0.0196
 2851SOL    HW120015   0.168   3.083   4.856 -0.0214 -1.1323  0.5479
 2851SOL    HW220016   0.093   3.107   4.728 -2.0873 -0.0926 -0.3369
 2852SOL     OW20017   4.632   4.020   4.546 -0.4381 -0.4090 -0.3950
 2852SOL    HW120018   4.679   3.937   4.536  3.7497  1.6043  2.7182
 2852SOL    HW220019   4.683   4.064   4.613 -1.2955 -2.6058  1.7268
 2853SOL     OW20020   1.433   1.383   7.473  0.6064  0.6321 -0.1380
 2853SOL    HW120021   1.353   1.346   7.509  0.1658  1.5446 -0.1727
 2853SOL    HW220022   1.456   1.447   7.541  2.3301  0.9845 -1.0307
 2854SOL     OW20023   4.444   0.927   4.488 -0.6575  0.3733 -0.4340
 2854SOL    HW120024   4.489   1.011   4.495  1.0506 -0.7430  2.2492
 2854SOL    HW220025   4.349   0.934   4.497 -0.7444 -1.8468  0.3109
 2855SOL     OW20026   1.189   2.510   2.621  0.4259 -0.4706  0.6557
 2855SOL    HW120027   1.101   2.547   2.628 -0.2235 -2.1609  1.6643
 2855SOL    HW220028   1.188   2.490   2.527 -1.3244 -1.0466  0.7832
 2856SOL     OW20029   3.431   2.055   0.837 -0.1216  0.1551  0.1473
 2856SOL    HW120030   3.481   2.102   0.903  0.9799 -0.4730 -0.2321
 2856SOL    HW220031   3.485   1.976   0.835 -2.1863 -1.2411 -0.1768
 2857SOL     OW20032   4.450   1.271   2.728 -0.1493 -0.3724 -0.1547
 2857SOL    HW120033   4.450   1.175   2.730  0.7980 -0.3420  1.3008
 2857SOL    HW220034   4.465   1.289   2.821  4.1562  1.1006 -1.1295
 2858SOL     OW20035   3.320   2.944   4.537 -0.2005  0.3231 -0.6766
 2858SOL    HW120036   3.252   2.923   4.600 -0.8733  1.7742 -0.9122
 2858SOL    HW220037   3.262   2.950   4.461 -0.5962  0.7758 -0.3377
 2859SOL     OW20038   3.250   2.826   5.623 -0.2211  0.3925 -0.4403
 2859SOL    HW120039   3.285   2.738   5.613 -1.8672 -0.2620 -0.5489
 2859SOL    HW220040   3.318   2.874   5.671 -0.1808 -0.1658  0.0590
 2860SOL     OW20041   0.926   2.103  10.618 -0.2233 -0.7424  0.4439
 2860SOL    HW120042   1.007   2.114  10.668 -0.2676  0.3618  0.2797
 2860SOL    HW220043   0.938   2.173  10.554 -1.3217 -1.6710 -0.7880
 2861SOL     OW20044   3.911   2.218   7.112 -0.5389  0.7664  0.5880
 2861SOL    HW120045   3.845   2.149   7.101  0.2549  0.2903 -1.1710
 2861SOL    HW220046   3.968   2.209   7.036 -0.5045 -0.8951  0.8253
 2862SOL     OW20047   0.834   3.740  14.889 -0.8024  0.1931  0.1459
 2862SOL    HW120048   0.768   3.672  14.883  1.8360 -2.1602 -1.6690
 2862SOL    HW220049   0.801   3.782  14.969  0.0335  2.9178 -0.9297
 2863SOL     OW20050   1.847   2.126  15.115 -0.3030  0.3209 -0.4163
 2863SOL    HW120051   1.822   2.207  15.071 -2.3886  0.3468  0.8194
 2863SOL    HW220052   1.849   2.073  15.035  0.7065  0.2930 -0.3834
 2864SOL     OW20053   1.477   3.076   1.867  0.6729  0.1281 -0.4208
 2864SOL    HW120054   1.414   3.140   1.833 -0.2640  1.3342  3.6286
 2864SOL    HW220055   1.553   3.106   1.818  1.3089 -0.8775 -0.0424
 2865SOL     OW20056   1.370   0.045   6.970 -0.4496 -0.0970 -1.1690
 2865SOL    HW120057   1.388   0.126   7.018 -1.0131 -0.4833 -0.3042
 2865SOL    HW220058   1.408   4.704   7.030 -2.1062 -0.1597 -0.1856
 2866SOL     OW20059   1.095   3.619  15.103  0.1604  0.3292 -0.3959
 2866SOL    HW120060   1.117   3.651  15.016 -0.4156  3.6661  0.7037
 2866SOL    HW220061   1.006   3.593  15.078 -0.2143 -0.1028  1.3262
 2867SOL     OW20062   3.615   3.795  15.261 -0.2459  0.1350  0.0134
 2867SOL    HW120063   3.580   3.857  15.198 -1.5492  0.8772  1.4671
 2867SOL    HW220064   3.682   3.746  15.212 -1.9762 -2.5068  0.2784
 2868SOL     OW20065   1.787   3.125   9.025  0.1173  0.1393 -0.3507
 2868SOL    HW120066   1.716   3.155   8.968  0.0205  0.9250  0.1826
 2868SOL    HW220067   1.821   3.049   8.978  1.2662  1.1731 -1.1691
 2869SOL     OW20068   2.352   1.894   8.738  0.3610  0.3874 -0.6277
 2869SOL    HW120069   2.396   1.946   8.671 -1.2132  1.6253 -0.6883
 2869SOL    HW220070   2.298   1.954   8.789  0.3103 -0.6605  0.5564
 2870SOL     OW20071   0.367   3.931   7.364 -0.0756 -0.1830 -0.3227
 2870SOL    HW120072   0.274   3.952   7.355 -0.2331 -0.4426  0.7912
 2870SOL    HW220073   0.389   3.951   7.273 -0.0436  0.6720 -0.1336
 2871SOL     OW20074   3.788   2.956   3.200  0.0679 -0.4839 -0.0653
 2871SOL    HW120075   3.696   2.929   3.193 -0.5712  1.0802  2.0556
 2871SOL    HW220076   3.835   2.887   3.155  0.7511  1.1577 -1.8426
 2872SOL     OW20077   3.174   0.717   2.914  0.5144  0.2034 -0.2164
 2872SOL    HW120078   3.240   0.649   2.929 -0.6367 -0.2169  2.8125
 2872SOL    HW220079   3.200   0.743   2.825  1.9851  0.2665  0.2225
 2873SOL     OW20080   3.886   4.173   3.609 -0.3712  0.1160 -0.2377
 2873SOL    HW120081   3.849   4.091   3.575  0.5318  0.1410 -1.2647
 2873SOL    HW220082   3.930   4.202   3.530 -1.1547  1.0993 -0.3062
 2874SOL     OW20083   0.098   1.878   5.339  0.0118 -0.0263 -0.3082
 2874SOL    HW120084   0.064   1.916   5.258 -2.0670  1.3913  1.2377
 2874SOL    HW220085   0.084   1.785   5.328 -1.8954  0.3983 -1.3718
 2875SOL     OW20086   1.148   1.763   5.263  0.0627 -0.2698 -0.2094
 2875SOL    HW120087   1.228   1.715   5.282 -0.1673 -0.3952  0.4300
 2875SOL    HW220088   1.084   1.722   5.321 -0.4346  0.9735  0.1193
 2876SOL     OW20089   2.863   0.263   2.532 -0.3237  0.1899  0.0708
 2876SOL    HW120090   2.860   0.254   2.436 -0.4373  1.0048 -0.0064
 2876SOL    HW220091   2.924   0.193   2.552 -0.9217 -0.2248  0.4266
 2877SOL     OW20092   2.051   1.041   6.363 -0.0543  0.2319 -0.3939
 2877SOL    HW120093   2.006   0.959   6.345 -0.7687  0.3867  0.6657
 2877SOL    HW220094   1.975   1.097   6.381 -0.3063 -0.3175  0.2563
 2878SOL     OW20095   4.298   0.462   3.840 -1.1098 -0.2928 -0.2975
 2878SOL    HW120096   4.363   0.527   3.812 -1.2049 -0.2143 -0.3394
 2878SOL    HW220097   4.241   0.466   3.763 -0.3268 -0.0766 -0.8746
 2879SOL     OW20098   3.969   4.028   8.923 -0.0251  0.1489 -0.8091
 2879SOL    HW120099   4.007   4.080   8.852  0.7181  1.0866  0.2993
 2879SOL    HW220100   3.877   4.017   8.897 -0.1032 -2.8730  0.7268
 2880SOL     OW20101   0.290   1.401   2.002  0.0204  0.0234  0.2807
 2880SOL    HW120102   0.220   1.351   2.044 -1.3220  0.9582 -0.8435
 2880SOL    HW220103   0.243   1.484   2.001 -1.5533 -0.8658  0.4931
 2881SOL     OW20104   0.311   2.710   7.630 -0.6599 -0.2429  0.3241
 2881SOL    HW120105   0.332   2.659   7.708 -1.5348 -0.6913  0.2733
 2881SOL    HW220106   0.399   2.748   7.638 -0.6012 -0.6262  1.4167
 2882SOL     OW20107   1.049   0.658   9.057  0.7234 -0.3208 -0.4368
 2882SOL    HW120108   1.044   0.628   9.148 -1.6148  0.1751 -0.3906
 2882SOL    HW220109   1.055   0.753   9.069 -2.6236  0.2556 -3.1857
 2883SOL     OW20110   0.670   0.380   3.290  0.2044  0.8269  0.1956
 2883SOL    HW120111   0.622   0.359   3.210  1.1610  0.1794 -0.2079
 2883SOL    HW220112   0.596   0.423   3.332  0.3633  0.1789  1.1258
 2884SOL     OW20113   0.271   4.597   4.846 -0.0167 -0.3603  0.2494
 2884SOL    HW120114   0.324   4.557   4.777 -3.1673 -0.4504 -2.1105
 2884SOL    HW220115   0.258   4.684   4.808 -0.4189 -1.0759 -1.2290
 2885SOL     OW20116   0.088   2.266   3.484 -0.6783  0.0095  0.0286
 2885SOL    HW120117   0.142   2.250   3.561 -0.7400 -0.7959 -0.0932
 2885SOL    HW220118   0.159   2.293   3.426 -0.0138 -0.0480  0.8202
 2886SOL     OW20119   0.489   1.916  12.579 -0.3730  0.7976  0.4236
 2886SOL    HW120120   0.407   1.877  12.611 -0.8206  1.9475  0.7079
 2886SOL    HW220121   0.546   1.846  12.611 -0.6814  0.9191  1.2437
 2887SOL     OW20122   1.460   0.011  14.825 -0.1919  0.3764  0.1070
 2887SOL    HW120123   1.432   4.649  14.857 -0.7493  1.0465  1.3925
 2887SOL    HW220124   1.505   4.706  14.745 -0.2722 -0.1696  0.2568
 2888SOL     OW20125   3.274   3.593   0.256  0.0706  0.3874 -0.4378
 2888SOL    HW120126   3.336   3.641   0.311  1.3785 -0.2082 -1.3804
 2888SOL    HW220127   3.223   3.545   0.321  3.3006 -0.1516  1.6606
 2889SOL     OW20128   1.670   0.466  12.507 -0.7254  0.0300 -0.0962
 2889SOL    HW120129   1.732   0.397  12.483 -1.0435 -0.6773  1.0803
 2889SOL    HW220130   1.596   0.406  12.519 -1.8549  1.5010  0.3901
 2890SOL     OW20131   2.721   0.092   7.951 -0.2113 -0.1681  0.0409
 2890SOL    HW120132   2.812   0.071   7.972 -0.3015 -1.1062 -0.5233
 2890SOL    HW220133   2.711   0.041   7.871 -0.5304 -0.0532  0.0097
 2891SOL     OW20134   3.173   3.809   1.370  0.6079  0.7198  0.3989
 2891SOL    HW120135   3.119   3.878   1.408  1.8055  1.4607  0.7557
 2891SOL    HW220136   3.154   3.727   1.417  0.9058 -0.4926 -1.5650
 2892SOL     OW20137   0.327   2.683   3.585  0.4546  0.1458 -0.1424
 2892SOL    HW120138   0.350   2.594   3.611 -0.1564  0.3105  0.9297
 2892SOL    HW220139   0.408   2.701   3.536 -0.8019 -0.0399 -2.2694
 2893SOL     OW20140   0.650   2.926   8.869 -0.5460 -0.8173 -0.1924
 2893SOL    HW120141   0.698   2.993   8.821 -2.6993  0.4632 -0.5577
 2893SOL    HW220142   0.662   2.857   8.803  1.6848 -0.0188 -0.6235
 2894SOL     OW20143   4.493   0.021   3.868 -0.3557  0.0839  0.5549
 2894SOL    HW120144   4.441   0.089   3.912 -0.0635  1.3553 -1.0609
 2894SOL    HW220145   4.524   4.687   3.937  0.7625 -0.3575 -0.3321
 2895SOL     OW20146   4.217   2.719   7.712 -0.0288  0.1961 -0.5380
 2895SOL    HW120147   4.127   2.739   7.735  0.4943  2.2305 -0.2575
 2895SOL    HW220148   4.225   2.624   7.698  0.7338  0.0319  0.8957
 2896SOL     OW20149   2.807   0.659  13.730  0.3279 -0.1217  0.6100
 2896SOL    HW120150   2.803   0.567  13.704 -1.6381  0.0350  0.3463
 2896SOL    HW220151   2.816   0.657  13.825 -2.8333  0.6165  0.9066
 2897SOL     OW20152   2.942   0.767  13.286 -0.6317  0.0552 -0.0376
 2897SOL    HW120153   2.966   0.828  13.215  1.2713  1.4709  1.8144
 2897SOL    HW220154   2.849   0.761  13.266 -0.7566 -1.9368  1.2049
 2898SOL     OW20155   2.164   0.799   0.787 -0.1774  0.3144 -0.1051
 2898SOL    HW120156   2.152   0.893   0.774 -0.2684  0.2465 -0.5032
 2898SOL    HW220157   2.213   0.781   0.707 -0.8430 -1.3695 -0.1419
 2899SOL     OW20158   3.320   1.908   3.692 -0.4247  0.1490  0.3202
 2899SOL    HW120159   3.269   1.866   3.761 -0.5541  0.8253  0.6315
 2899SOL    HW220160   3.254   1.967   3.655 -0.6189 -0.5803 -0.5027
 2900SOL     OW20161   1.153   1.737  12.935 -0.1526 -0.4547 -0.1655
 2900SOL    HW120162   1.178   1.650  12.905  1.6196  0.0774 -0.2511
 2900SOL    HW220163   1.185   1.735  13.025 -2.0103  0.1634  0.5164
 2901SOL     OW20164   0.890   1.315   1.311  0.0819 -0.2816 -0.0549
 2901SOL    HW120165   0.980   1.322   1.343  0.1554 -0.0386 -0.3135
 2901SOL    HW220166   0.896   1.225   1.279  0.7744  0.1538 -1.1460
 2902SOL     OW20167   1.074   0.269  15.273 -0.1555  0.6462  0.4210
 2902SOL    HW120168   1.165   0.248  15.296  0.1691  1.6709  0.0458
 2902SOL    HW220169   1.073   0.330  15.200 -0.8511  1.1701  0.8656
 2903SOL     OW20170   0.144   0.768   3.943  0.6869  0.1098  0.2090
 2903SOL    HW120171   0.207   0.703   3.911  0.1848  0.5000 -1.5894
 2903SOL    HW220172   0.193   0.788   4.023  0.6995 -1.2699  0.5497
 2904SOL     OW20173   4.204   4.694   2.878  0.1961 -0.1775 -0.2198
 2904SOL    HW120174   4.209   4.635   2.953 -1.6140 -2.1226 -1.6443
 2904SOL    HW220175   4.300   4.703   2.874  0.4405 -2.4121  0.5156
 2905SOL     OW20176   1.210   2.646   5.038 -1.0684  0.1494 -0.3133
 2905SOL    HW120177   1.300   2.627   5.009 -0.0663  0.7612  2.3919
 2905SOL    HW220178   1.198   2.592   5.116  0.0703  1.9835  1.1240
 2906SOL     OW20179   2.295   3.769   4.032  0.4769  0.1359 -0.0493
 2906SOL    HW120180   2.250   3.843   4.073 -1.0830 -0.0455 -1.4457
 2906SOL    HW220181   2.309   3.714   4.109  2.8175  1.8790  0.7671
 2907SOL     OW20182   0.019   0.496   8.629  0.4202 -0.8547 -0.2242
 2907SOL    HW120183   0.013   0.410   8.585  2.3375  0.2441 -2.6464
 2907SOL    HW220184   4.664   0.508   8.683  0.2744  1.2409 -0.9170
 2908SOL     OW20185   4.509   3.107   3.302 -0.2787  0.0121 -0.0019
 2908SOL    HW120186   4.586   3.161   3.320 -1.5464  1.6701  0.5491
 2908SOL    HW220187   4.499   3.061   3.385 -4.6687  2.2743  0.7057
 2909SOL     OW20188   2.382   2.013   2.028 -0.0260  0.5144  0.5554
 2909SOL    HW120189   2.339   2.098   2.020  0.9350  0.9723  0.3020
 2909SOL    HW220190   2.412   1.992   1.940 -0.2828  1.7999  0.1653
 2910SOL     OW20191   0.930   2.465   0.450 -0.0592  0.0934  0.1675
 2910SOL    HW120192   0.975   2.428   0.526  1.4428  0.4276 -0.5494
 2910SOL    HW220193   0.841   2.472   0.483  0.2657 -0.7292  1.2386
 2911SOL     OW20194   0.532   2.577   3.933  0.0297  0.1268  0.0841
 2911SOL    HW120195   0.516   2.671   3.948  0.2024  0.1124  0.3696
 2911SOL    HW220196   0.601   2.583   3.867 -0.3085  2.3291 -0.0784
 2912SOL     OW20197   3.112   0.548   6.741  0.2267  1.0189 -0.3641
 2912SOL    HW120198   3.049   0.541   6.669  1.1666 -1.3098 -0.9276
 2912SOL    HW220199   3.194   0.578   6.702  0.4188 -0.5231 -1.1447
 2913SOL     OW20200   0.103   2.190   3.155 -0.1132  0.2664  0.5248
 2913SOL    HW120201   0.088   2.108   3.201  1.7793 -1.1975 -1.4661
 2913SOL    HW220202   0.162   2.233   3.217  0.1709 -0.1942  0.5691
 2914SOL     OW20203   2.250   2.773   2.722  0.4012 -0.7267  0.6793
 2914SOL    HW120204   2.208   2.691   2.696  0.6833 -0.3646 -0.9209
 2914SOL    HW220205   2.270   2.756   2.814  2.2603 -1.1206  0.1890
 2915SOL     OW20206   2.706   2.905   2.429 -0.0813 -0.3505 -0.1909
 2915SOL    HW120207   2.786   2.905   2.483 -0.6664  0.4697  0.6765
 2915SOL    HW220208   2.660   2.828   2.461  0.0305  0.0683  0.9778
 2916SOL     OW20209   3.523   3.958   4.053 -0.4003  0.0743 -0.5049
 2916SOL    HW120210   3.562   4.043   4.075 -0.1405 -0.5434  1.5054
 2916SOL    HW220211   3.438   3.975   4.093 -0.6678 -0.0140 -1.0527
 2917SOL     OW20212   2.409   4.244   1.784 -0.0500  0.3085 -0.2085
 2917SOL    HW120213   2.430   4.158   1.819 -0.1689  0.5617  0.4821
 2917SOL    HW220214   2.344   4.273   1.848  0.4329 -2.3747  1.4988
 2918SOL     OW20215   2.153   2.864   3.434  0.6187  0.2430  0.0979
 2918SOL    HW120216   2.076   2.808   3.425 -0.7879  1.6993  2.9156
 2918SOL    HW220217   2.137   2.930   3.501 -0.9635 -0.2554  0.2010
 2919SOL     OW20218   2.825   2.335   7.951 -0.2088 -0.1450  0.6184
 2919SOL    HW120219   2.806   2.243   7.931 -1.3416  0.4836 -1.1060
 2919SOL    HW220220   2.913   2.330   7.990  0.1327 -0.9704 -0.2499
 2920SOL     OW20221   2.113   2.975   8.721 -0.1719 -0.4280 -0.1643
 2920SOL    HW120222   2.208   2.974   8.718 -0.1199  1.4413  1.5771
 2920SOL    HW220223   2.094   2.935   8.636 -1.4695 -2.3577  1.0310
 2921SOL     OW20224   4.127   3.405  13.477 -0.1511  0.4524  0.5694
 2921SOL    HW120225   4.207   3.457  13.465 -0.4825  1.2603  1.7940
 2921SOL    HW220226   4.085   3.466  13.539 -1.3469  0.2060  0.0003
 2922SOL     OW20227   4.170   3.030   8.128 -0.1870 -0.2349  0.0530
 2922SOL    HW120228   4.229   3.022   8.053 -0.1017  2.8313 -0.2358
 2922SOL    HW220229   4.098   2.977   8.094 -1.2901  2.5430 -1.9343
 2923SOL     OW20230   2.032   3.543   4.175 -0.0381  0.3900  0.1189
 2923SOL    HW120231   2.073   3.461   4.144 -0.1980  0.1610  0.5079
 2923SOL    HW220232   2.108   3.578   4.223 -0.3267  0.9396  0.1719
 2924SOL     OW20233   3.693   3.254   3.044  0.2730 -0.4644 -0.2993
 2924SOL    HW120234   3.686   3.184   3.109 -1.6714  1.9478  2.1304
 2924SOL    HW220235   3.622   3.317   3.056  1.5183  0.9784 -0.5189
 2925SOL     OW20236   4.322   4.573   3.721  0.0220 -0.0555 -0.3073
 2925SOL    HW120237   4.375   4.630   3.776  1.5598  0.3703 -2.2128
 2925SOL    HW220238   4.373   4.573   3.639 -0.5157 -2.5235 -0.6450
 2926SOL     OW20239   3.899   3.868   6.078  0.0429 -0.2043 -0.4104
 2926SOL    HW120240   3.913   3.778   6.047  0.1430 -0.4537  0.3558
 2926SOL    HW220241   3.858   3.902   5.999 -2.2234 -0.9558  0.4508
 2927SOL     OW20242   2.151   1.266   7.451  0.3065  0.0378  0.7114
 2927SOL    HW120243   2.219   1.321   7.412  1.0162 -1.4273 -0.1282
 2927SOL    HW220244   2.078   1.328   7.450  1.1634  1.0630  2.0157
 2928SOL     OW20245   0.589   4.021   2.508  0.9267 -0.0475  0.1350
 2928SOL    HW120246   0.616   3.984   2.424 -0.0858  1.4440 -0.8458
 2928SOL    HW220247   0.575   4.112   2.482  1.7870 -0.3871 -1.5228
 2929SOL     OW20248   3.862   1.705   2.727 -0.2105 -0.3183 -0.2631
 2929SOL    HW120249   3.833   1.694   2.818 -0.3599 -1.3849 -0.4476
 2929SOL    HW220250   3.864   1.616   2.692  0.9001 -0.1174 -0.7169
 2930SOL     OW20251   0.400   2.350   4.012 -0.7997  0.3380 -0.4771
 2930SOL    HW120252   0.442   2.430   3.979 -0.4688 -0.6588 -2.5109
 2930SOL    HW220253   0.481   2.303   4.032 -2.1675 -1.1293  1.5458
 2931SOL     OW20254   3.951   1.258   8.546 -0.2903 -0.0763  0.5752
 2931SOL    HW120255   3.892   1.333   8.535 -1.0464 -0.6894  0.4312
 2931SOL    HW220256   3.889   1.190   8.520 -2.1262  3.4755 -4.2900
 2932SOL     OW20257   0.842   2.391   6.897  0.1286  0.1164  0.0999
 2932SOL    HW120258   0.838   2.303   6.935  1.8074  0.3028  0.7309
 2932SOL    HW220259   0.935   2.402   6.875 -0.0890 -0.2128 -0.9919
 2933SOL     OW20260   0.031   1.109  15.726 -0.1548 -0.0263 -0.2517
 2933SOL    HW120261   4.696   1.176  15.692  1.4607  1.6857  0.3203
 2933SOL    HW220262   0.107   1.167  15.727 -0.3705  0.2774 -1.5327
 2934SOL     OW20263   1.367   2.423   4.713  0.6388 -0.1319 -0.1922
 2934SOL    HW120264   1.380   2.488   4.645  1.1757  1.9112  1.8511
 2934SOL    HW220265   1.454   2.383   4.710  0.8682  0.2909  0.5597
 2935SOL     OW20266   2.710   3.714   4.816  0.0831  0.3805  0.1715
 2935SOL    HW120267   2.755   3.632   4.796 -2.0121 -1.0886  1.5261
 2935SOL    HW220268   2.621   3.683   4.835 -0.4112  0.8598 -1.3449
 2936SOL     OW20269   1.634   1.674   8.456  0.1826 -0.0861  0.1330
 2936SOL    HW120270   1.690   1.620   8.512 -2.0371 -1.2715  1.2310
 2936SOL    HW220271   1.682   1.749   8.420 -0.6180 -0.9391 -2.7289
 2937SOL     OW20272   0.665   2.129   3.062 -0.2176  0.4804 -0.1133
 2937SOL    HW120273   0.587   2.090   3.102 -1.8328  1.2495 -2.5178
 2937SOL    HW220274   0.621   2.174   2.989  1.0629  1.6014 -0.2055
 2938SOL     OW20275   0.241   1.982   3.450  1.0850  0.4362 -0.4690
 2938SOL    HW120276   0.259   1.914   3.515 -0.8492 -0.0385 -0.4384
 2938SOL    HW220277   0.169   1.942   3.402 -1.3524  0.7994  2.8916
 2939SOL     OW20278   3.375   4.642  12.591 -0.5818  0.4321  0.7485
 2939SOL    HW120279   3.440   4.707  12.563 -0.3346 -0.3241 -0.4660
 2939SOL    HW220280   3.303   4.702  12.605 -1.7578 -0.5181 -1.2807
 2940SOL     OW20281   3.253   4.194   4.823  0.0532  0.0253  0.4734
 2940SOL    HW120282   3.178   4.163   4.771  1.8672 -0.9836 -1.5531
 2940SOL    HW220283   3.313   4.120   4.814 -0.5296 -0.4271  0.2753
 2941SOL     OW20284   0.489   2.149  12.887 -0.4312  0.0668 -0.2398
 2941SOL    HW120285   0.409   2.100  12.870  0.2490  0.1352 -3.5345
 2941SOL    HW220286   0.475   2.230  12.839 -0.4838  0.6294  0.7333
 2942SOL     OW20287   1.335   2.428  15.247  0.2690 -0.1957  0.0997
 2942SOL    HW120288   1.352   2.393  15.159 -0.7265 -3.1394  1.0697
 2942SOL    HW220289   1.328   2.521  15.225  2.8884  0.0195  0.1147
 2943SOL     OW20290   2.713   2.823   8.576 -0.4505 -0.6848 -0.9363
 2943SOL    HW120291   2.768   2.847   8.651 -1.2889  0.3706 -0.6633
 2943SOL    HW220292   2.769   2.757   8.536  0.4852  1.0356 -2.4647
 2944SOL     OW20293   0.237   4.141   8.504  0.6276  0.3514  0.7105
 2944SOL    HW120294   0.314   4.093   8.476  0.8578  1.0885  0.0978
 2944SOL    HW220295   0.191   4.081   8.563 -0.4097 -0.6018 -1.0739
 2945SOL     OW20296   4.350   4.378  15.409 -0.2647  0.0046  0.0001
 2945SOL    HW120297   4.359   4.284  15.393 -0.8235  0.0827 -0.7892
 2945SOL    HW220298   4.334   4.383  15.503  0.4250 -1.0093  0.1647
 2946SOL     OW20299   0.059   1.191   5.283  0.1420 -0.1251 -0.3374
 2946SOL    HW120300   0.094   1.141   5.209 -1.4440 -0.7176 -0.6947
 2946SOL    HW220301   0.029   1.124   5.344  1.5303  0.0994  0.5888
 2947SOL     OW20302   0.193   4.334   5.717 -0.2228  0.1487  0.2626
 2947SOL    HW120303   0.125   4.322   5.784 -0.7908 -1.7575 -0.6769
 2947SOL    HW220304   0.167   4.255   5.670  0.7714  0.6701 -1.1393
 2948SOL     OW20305   3.680   4.394  12.326  0.2255  0.4143 -0.2984
 2948SOL    HW120306   3.769   4.407  12.292 -0.0464 -2.0047 -1.8791
 2948SOL    HW220307   3.667   4.300  12.315 -0.0526  0.3750  0.3700
 2949SOL     OW20308   3.536   1.368  10.051  0.2580 -0.0620  0.3513
 2949SOL    HW120309   3.613   1.385   9.996 -1.5535  2.1573 -1.4851
 2949SOL    HW220310   3.578   1.361  10.137 -1.8075 -2.1943  1.1703
 2950SOL     OW20311   2.670   2.444   1.248  0.5182 -0.3366 -0.1031
 2950SOL    HW120312   2.656   2.395   1.329  0.5234 -2.8123 -1.6189
 2950SOL    HW220313   2.634   2.389   1.178  2.0661 -0.3807 -0.8691
 2951SOL     OW20314   2.268   3.826  11.450 -0.5822 -0.4277  0.3312
 2951SOL    HW120315   2.299   3.737  11.468  2.0021  0.8880  2.1802
 2951SOL    HW220316   2.238   3.853  11.537 -1.6215  0.1117 -0.1889
 2952SOL     OW20317   1.676   4.615   2.885 -0.1632 -0.4964 -0.0447
 2952SOL    HW120318   1.594   4.657   2.910  0.3311  2.0134 -2.5250
 2952SOL    HW220319   1.696   4.662   2.804  1.4839  0.4136  0.8777
 2953SOL     OW20320   2.563   0.488  16.034  0.1939 -0.0887  0.8370
 2953SOL    HW120321   2.473   0.461  16.018 -0.3034  1.7980  0.4259
 2953SOL    HW220322   2.608   0.404  16.040 -0.3419 -0.4917 -0.8879
 2954SOL     OW20323   3.667   4.049   1.078 -0.2680 -0.1639 -0.2055
 2954SOL    HW120324   3.648   4.135   1.115  1.1059  0.5046 -1.0299
 2954SOL    HW220325   3.752   4.054   1.034 -1.2830  0.4181 -2.0908
 2955SOL     OW20326   2.733   2.817  14.550 -0.0680 -0.2264  0.1398
 2955SOL    HW120327   2.792   2.766  14.495  0.6143 -0.4617  1.0970
 2955SOL    HW220328   2.688   2.880  14.493  0.1612  0.2224  0.4502
 2956SOL     OW20329   0.744   4.105   3.164 -0.1466 -0.2167  0.1745
 2956SOL    HW120330   0.787   4.163   3.101 -2.2651  1.6627  0.4669
 2956SOL    HW220331   0.786   4.021   3.146  0.2159 -0.0010  0.0197
 2957SOL     OW20332   4.061   4.013  11.994 -0.1322  0.8125  0.4062
 2957SOL    HW120333   4.059   4.109  11.992 -0.2748  0.7467 -3.4134
 2957SOL    HW220334   4.147   4.006  12.035  0.2020  1.8411 -0.1033
 2958SOL     OW20335   0.522   4.267   8.583  0.3440 -0.1368 -0.4237
 2958SOL    HW120336   0.469   4.277   8.662  1.6528  1.1973  0.2900
 2958SOL    HW220337   0.516   4.357   8.551  1.6868  1.0548  2.6302
 2959SOL     OW20338   0.024   3.403  14.162 -0.0251  0.0215 -0.8350
 2959SOL    HW120339   4.695   3.338  14.114  0.9876 -1.6353  0.3069
 2959SOL    HW220340   0.109   3.384  14.123  0.2203 -0.7534  0.0696
 2960SOL     OW20341   4.391   0.857   9.543  0.1524 -0.0428  0.4103
 2960SOL    HW120342   4.368   0.785   9.484 -0.2135  1.3299 -1.1586
 2960SOL    HW220343   4.473   0.889   9.504 -0.3974 -0.9335 -1.4927
 2961SOL     OW20344   0.445   0.579  16.950 -1.1382 -0.3750 -0.1823
 2961SOL    HW120345   0.419   0.668  16.926  1.7581  0.8061  1.0204
 2961SOL    HW220346   0.538   0.580  16.974 -0.5647  0.4748 -2.3756
 2962SOL     OW20347   3.622   3.499   7.433 -0.2942 -0.4810  0.1044
 2962SOL    HW120348   3.711   3.510   7.468 -0.2584 -0.5177  0.0248
 2962SOL    HW220349   3.595   3.589   7.415 -3.6033 -1.7412 -1.2136
 2963SOL     OW20350   3.243   4.658   6.855  0.2453  0.1735  0.2467
 2963SOL    HW120351   3.238   4.668   6.760 -2.2050  3.5330  0.7411
 2963SOL    HW220352   3.149   4.671   6.867  0.1931  0.8145 -0.9170
 2964SOL     OW20353   2.192   2.063   4.711  0.4086 -0.2361  0.2126
 2964SOL    HW120354   2.099   2.082   4.716  0.5192  0.9284 -2.0129
 2964SOL    HW220355   2.203   1.978   4.753 -3.2744  0.5053  2.5998
 2965SOL     OW20356   2.165   0.581   6.235  0.0828  0.1488  0.0852
 2965SOL    HW120357   2.144   0.550   6.148 -0.4903 -1.5740  0.8383
 2965SOL    HW220358   2.203   0.665   6.210  2.1354 -0.8369 -0.1626
 2966SOL     OW20359   1.275   0.618   6.334  0.0731 -0.8373  0.0907
 2966SOL    HW120360   1.285   0.558   6.408  0.7239 -1.3897 -0.4562
 2966SOL    HW220361   1.183   0.638   6.353  0.2811  1.0531 -0.9292
 2967SOL     OW20362   1.548   0.978  11.490 -0.2275  0.1537 -0.1079
 2967SOL    HW120363   1.508   1.022  11.415 -0.0980  1.0529  0.3396
 2967SOL    HW220364   1.606   1.047  11.523 -0.9065  0.2192  0.9213
 2968SOL     OW20365   0.419   0.638   8.154  0.2830  0.0854  0.1805
 2968SOL    HW120366   0.349   0.693   8.190 -0.6848 -0.3562 -1.0298
 2968SOL    HW220367   0.407   0.555   8.201 -0.5358  0.2607  0.2949
 2969SOL     OW20368   0.403   3.600   6.330  0.1778 -0.2878 -0.2362
 2969SOL    HW120369   0.356   3.522   6.301  1.2717 -0.5089 -1.3739
 2969SOL    HW220370   0.483   3.593   6.278  0.5287 -0.6391  0.3459
 2970SOL     OW20371   4.281   2.908   5.454 -0.1630  0.2032 -0.0554
 2970SOL    HW120372   4.341   2.890   5.382  0.3243 -1.3714  0.7402
 2970SOL    HW220373   4.334   2.939   5.528 -1.0049  1.4962  0.0156
 2971SOL     OW20374   3.337   4.465   8.988  0.5155 -0.6564  0.2807
 2971SOL    HW120375   3.264   4.441   8.931 -0.5449  0.2077  1.2618
 2971SOL    HW220376   3.401   4.441   8.922 -0.7908 -0.1215 -1.1928
 2972SOL     OW20377   4.013   0.278  11.842  0.1105  0.5363 -0.4989
 2972SOL    HW120378   3.920   0.291  11.860  0.1608  1.4890 -0.9282
 2972SOL    HW220379   4.015   0.274  11.747 -2.0381  0.0558 -0.5336
 2973SOL     OW20380   2.292   4.635   7.588  0.0786  0.1329 -0.5838
 2973SOL    HW120381   2.296   4.575   7.662  1.8940  1.4954  0.4121
 2973SOL    HW220382   2.339   4.709   7.625 -2.3841  2.1572 -1.4371
 2974SOL     OW20383   0.487   3.472   6.702  0.1925 -0.0173 -0.7215
 2974SOL    HW120384   0.528   3.464   6.789  1.1960  1.4160 -1.0758
 2974SOL    HW220385   0.548   3.426   6.644  0.7287  1.4227 -1.2737
 2975SOL     OW20386   4.355   3.888  12.728 -0.4135  0.0985 -0.3943
 2975SOL    HW120387   4.443   3.924  12.715 -1.4055  2.8453  0.3947
 2975SOL    HW220388   4.347   3.836  12.648 -2.7791  1.0944 -0.8019
 2976SOL     OW20389   1.289   4.104   8.241 -0.3198 -0.5176  0.8632
 2976SOL    HW120390   1.268   4.128   8.331  1.2604 -0.0163  1.0961
 2976SOL    HW220391   1.373   4.148   8.229 -0.2511 -0.4358  1.6139
 2977SOL     OW20392   2.553   3.561  10.828  0.1899 -0.3264 -0.3058
 2977SOL    HW120393   2.565   3.656  10.831 -0.8400 -0.0943 -3.2167
 2977SOL    HW220394   2.643   3.537  10.852  0.3003  1.0279  0.5733
 2978SOL     OW20395   3.936   4.283  17.340 -0.6627  0.8391 -0.9448
 2978SOL    HW120396   3.932   4.376  17.316 -0.9900  1.0309 -0.1445
 2978SOL    HW220397   4.003   4.303  17.405 -2.1648  1.9570  0.2389
 2979SOL     OW20398   0.611   0.412  14.345 -0.5031 -0.1850  0.8928
 2979SOL    HW120399   0.553   0.469  14.395 -0.7052  0.8574 -0.5158
 2979SOL    HW220400   0.698   0.451  14.346  1.1693 -3.8563 -1.2647
 2980SOL     OW20401   3.952   3.680   8.747  0.0683  0.5089 -0.1737
 2980SOL    HW120402   3.972   3.759   8.697 -0.2162  0.2605 -0.6803
 2980SOL    HW220403   3.953   3.710   8.837 -1.9670  0.1079 -0.0367
 2981SOL     OW20404   3.775   1.641   0.706  0.6451  0.6988  0.1490
 2981SOL    HW120405   3.859   1.656   0.662  0.1512  0.8215 -0.7510
 2981SOL    HW220406   3.813   1.619   0.791  2.5177  2.2923 -0.2796
 2982SOL     OW20407   4.675   2.461   0.772 -0.1364 -0.1555  0.0127
 2982SOL    HW120408   0.015   2.506   0.828  2.0683 -1.4435 -1.4828
 2982SOL    HW220409   4.639   2.543   0.739  0.5268  0.0344 -0.2264
 2983SOL     OW20410   0.233   3.394  14.953  0.4660 -0.6917 -0.0134
 2983SOL    HW120411   0.264   3.305  14.937  2.6879  0.1435 -0.3575
 2983SOL    HW220412   0.194   3.395  15.041  1.1222 -1.0602  0.2786
 2984SOL     OW20413   3.703   1.128   6.331  0.5161  0.3594 -0.0950
 2984SOL    HW120414   3.629   1.071   6.313  2.1744 -2.0664  0.7807
 2984SOL    HW220415   3.661   1.207   6.364  0.0718  0.2257 -0.3477
 2985SOL     OW20416   3.370   3.974   6.446  0.0225  0.0121  0.0903
 2985SOL    HW120417   3.379   4.007   6.357 -1.7895 -1.6771 -0.6862
 2985SOL    HW220418   3.276   3.973   6.465  0.2513  1.3171  1.2763
 2986SOL     OW20419   2.085   1.037   1.922 -0.1687 -0.1966  0.6524
 2986SOL    HW120420   2.051   1.064   1.837 -0.9240 -1.8915  0.4015
 2986SOL    HW220421   2.171   0.999   1.902  0.0025  0.7339 -0.3623
 2987SOL     OW20422   1.561   1.544   3.851  0.0125  0.5150 -0.0358
 2987SOL    HW120423   1.496   1.597   3.898 -0.6215 -1.0130  0.8341
 2987SOL    HW220424   1.561   1.465   3.905 -2.5835 -0.3712 -1.3290
 2988SOL     OW20425   2.909   0.914  14.489  0.0632  0.2268 -0.3538
 2988SOL    HW120426   2.848   0.883  14.422 -0.6536  2.8645 -0.9262
 2988SOL    HW220427   2.975   0.845  14.495 -0.2126 -0.0359 -0.3620
 2989SOL     OW20428   2.270   4.134   9.870  0.1310  0.0091  0.0438
 2989SOL    HW120429   2.319   4.149   9.951  1.1395  1.1787 -0.7921
 2989SOL    HW220430   2.257   4.218   9.827 -1.2872 -0.3213 -0.1760
 2990SOL     OW20431   1.399   1.423   6.229  0.5938  0.4118 -0.3848
 2990SOL    HW120432   1.303   1.417   6.226  0.5185  0.5649  1.9675
 2990SOL    HW220433   1.412   1.398   6.320  0.3374 -0.5424 -0.6028
 2991SOL     OW20434   2.756   2.606   5.319 -0.1993  0.0329  0.1832
 2991SOL    HW120435   2.815   2.615   5.394  0.5551  0.2380 -0.4295
 2991SOL    HW220436   2.787   2.680   5.267 -2.7912  0.1595 -1.1924
 2992SOL     OW20437   2.115   4.379   6.890  0.1234 -0.1197  0.4604
 2992SOL    HW120438   2.047   4.361   6.955  0.0505 -2.8630 -0.3758
 2992SOL    HW220439   2.172   4.302   6.898  0.0811  0.0029  1.9293
 2993SOL     OW20440   0.776   1.193   6.134 -0.0157 -0.5579 -0.2397
 2993SOL    HW120441   0.837   1.227   6.069  0.4881  0.6491  0.8701
 2993SOL    HW220442   0.722   1.145   6.071 -0.9611  1.8356 -1.2410
 2994SOL     OW20443   3.185   3.340   6.292 -0.5671  0.0273 -0.0111
 2994SOL    HW120444   3.170   3.269   6.354 -0.8493  2.4376  2.7091
 2994SOL    HW220445   3.196   3.407   6.360  0.4979  0.0558 -0.2117
 2995SOL     OW20446   4.115   2.285   8.487 -1.1508  0.0274 -0.2271
 2995SOL    HW120447   4.173   2.209   8.489 -0.3969  0.5786 -1.2073
 2995SOL    HW220448   4.119   2.313   8.395 -2.8615 -0.2172 -0.3829
 2996SOL     OW20449   1.226   1.637   9.884  0.6636 -0.7938  0.7858
 2996SOL    HW120450   1.151   1.691   9.909  1.5630  0.8833 -0.1978
 2996SOL    HW220451   1.212   1.553   9.928 -1.0490 -1.6004 -1.3214
 2997SOL     OW20452   3.014   1.781  12.164 -0.8503 -0.7657 -0.1389
 2997SOL    HW120453   2.969   1.865  12.159 -0.1045 -0.2860  1.0966
 2997SOL    HW220454   2.989   1.745  12.249 -1.7523 -0.9675 -0.5000
 2998SOL     OW20455   3.572   4.608   6.471  0.4062 -0.3071 -0.0533
 2998SOL    HW120456   3.554   4.632   6.562  0.4621  1.7616 -0.5934
 2998SOL    HW220457   3.525   4.683   6.436 -2.0322 -1.4429  0.7813
 2999SOL     OW20458   3.339   2.162   6.655 -0.1161 -0.0678  0.3021
 2999SOL    HW120459   3.284   2.149   6.732  0.9486 -0.7831  0.9401
 2999SOL    HW220460   3.309   2.088   6.602  1.2056 -0.4721  0.1183
 3000SOL     OW20461   0.962   1.443   9.083  0.5126  0.1589 -0.0796
 3000SOL    HW120462   1.005   1.521   9.120 -0.5936  0.9859 -0.5581
 3000SOL    HW220463   0.962   1.391   9.163 -0.6253  0.1942 -0.0643
 3001SOL     OW20464   0.577   4.669   6.769  0.1576 -0.1305  0.1699
 3001SOL    HW120465   0.510   0.013   6.773  0.8855  0.4836  1.8704
 3001SOL    HW220466   0.652   0.001   6.749  0.8872 -1.8162 -1.8176
 3002SOL     OW20467   3.462   2.210   3.856 -0.5743  0.3453 -0.3509
 3002SOL    HW120468   3.540   2.170   3.819  0.6852 -1.0475  3.7682
 3002SOL    HW220469   3.402   2.195   3.783 -4.3844 -1.5283  3.1271
 3003SOL     OW20470   4.684   2.356  15.001 -0.1254  0.1787 -0.1461
 3003SOL    HW120471   4.622   2.343  15.072 -1.8418 -1.7186 -1.9631
 3003SOL    HW220472   4.628   2.329  14.928 -2.8697  0.3678  1.8870
 3004SOL     OW20473   4.254   1.547   5.463 -0.5646  0.3801 -0.2007
 3004SOL    HW120474   4.340   1.506   5.468 -0.5405  0.1394 -2.2531
 3004SOL    HW220475   4.252   1.609   5.536 -0.4817 -1.4223  1.3347
 3005SOL     OW20476   3.563   1.705  15.651  0.7548 -0.0899 -0.7113
 3005SOL    HW120477   3.606   1.683  15.733 -2.4726  0.8393  1.2002
 3005SOL    HW220478   3.583   1.798  15.646 -2.0826  0.5748  0.5494
 3006SOL     OW20479   0.587   2.469  15.318 -0.0740  0.7142  1.2163
 3006SOL    HW120480   0.518   2.528  15.347  0.0495  0.3846  2.1881
 3006SOL    HW220481   0.649   2.530  15.278 -0.9816  0.8379 -0.0037
 3007SOL     OW20482   0.881   3.851   3.358  0.7398  0.1154  0.4340
 3007SOL    HW120483   0.852   3.910   3.428 -0.2143 -0.2604  0.3529
 3007SOL    HW220484   0.954   3.904   3.325 -1.8750  3.9797  0.8471
 3008SOL     OW20485   1.132   3.939   3.283 -0.4975  0.4304  0.3536
 3008SOL    HW120486   1.150   4.030   3.259 -0.0160 -0.4584 -2.6939
 3008SOL    HW220487   1.173   3.893   3.210  1.4045  1.5249  0.7256
 3009SOL     OW20488   1.368   1.078   3.123  0.0254 -0.5028 -0.0146
 3009SOL    HW120489   1.418   1.064   3.204 -0.5384 -0.7700  0.2869
 3009SOL    HW220490   1.438   1.076   3.058  1.0787  0.3551  1.0771
 3010SOL     OW20491   2.772   0.928   7.423 -0.6989 -0.0929 -0.4227
 3010SOL    HW120492   2.787   0.895   7.512  0.1025  0.8754 -0.1951
 3010SOL    HW220493   2.852   0.979   7.412  0.6790 -2.0085  0.6335
 3011SOL     OW20494   4.408   3.250  17.319 -0.0871 -0.0346  0.3331
 3011SOL    HW120495   4.369   3.329  17.356 -1.1898 -0.1390 -0.5768
 3011SOL    HW220496   4.357   3.232  17.239 -0.8042  1.1610  0.5301
 3012SOL     OW20497   4.556   2.480   7.555  0.0168  0.7071 -0.2986
 3012SOL    HW120498   4.625   2.450   7.496  1.8274  0.9646  1.6719
 3012SOL    HW220499   4.598   2.557   7.594  3.6002 -0.4164 -1.9681
 3013SOL     OW20500   1.906   0.456   4.921 -0.0896 -0.2549 -0.2434
 3013SOL    HW120501   1.984   0.406   4.898  1.1557  1.3868  0.4026
 3013SOL    HW220502   1.846   0.391   4.956 -1.2138  0.5792 -0.6207
 3014SOL     OW20503   0.297   2.602  14.940  0.1726 -0.2905 -0.1667
 3014SOL    HW120504   0.216   2.581  14.987 -0.6652  0.0648 -1.4827
 3014SOL    HW220505   0.329   2.513  14.956  0.7807  0.1631  1.1668
 3015SOL     OW20506   0.223   4.506   6.540  0.0826  0.4968  0.1704
 3015SOL    HW120507   0.262   4.493   6.626  1.3310  0.2050 -0.4416
 3015SOL    HW220508   0.299   4.518   6.483 -0.0550 -2.1838 -0.5796
 3016SOL     OW20509   3.586   1.644   2.560 -0.2024  0.0032 -0.2211
 3016SOL    HW120510   3.500   1.631   2.601 -0.6415 -0.4888 -1.3028
 3016SOL    HW220511   3.647   1.620   2.630 -0.1503  1.7790  0.3339
 3017SOL     OW20512   0.236   3.112   8.662  0.6480 -0.6263 -0.5089
 3017SOL    HW120513   0.179   3.189   8.652  1.8753  0.6631  2.4010
 3017SOL    HW220514   0.320   3.149   8.689  0.4813 -0.9902  0.5141
 3018SOL     OW20515   2.033   1.117   5.934 -0.0387  0.2252 -0.0458
 3018SOL    HW120516   1.976   1.183   5.972 -0.0077  0.0392  0.3182
 3018SOL    HW220517   2.090   1.086   6.004 -0.3520  2.4862  1.1940
 3019SOL     OW20518   0.770   1.715   0.511 -0.9242 -0.3617 -1.3233
 3019SOL    HW120519   0.849   1.769   0.499  1.2680 -2.8720  1.6739
 3019SOL    HW220520   0.723   1.718   0.428 -1.2871  3.0787 -1.0030
 3020SOL     OW20521   4.464   0.516  14.847 -0.4140 -0.0696  0.1252
 3020SOL    HW120522   4.457   0.512  14.752 -0.2301  0.3562  0.0937
 3020SOL    HW220523   4.380   0.473  14.862 -0.4115  0.6159  2.1754
 3021SOL     OW20524   3.514   3.883   4.962 -0.1012  0.0336  0.5658
 3021SOL    HW120525   3.516   3.956   5.024  2.5637 -0.9054  1.5532
 3021SOL    HW220526   3.586   3.826   4.986 -0.2772 -0.0103  0.9860
 3022SOL     OW20527   2.773   3.978   1.593 -0.3851  0.2128  0.0909
 3022SOL    HW120528   2.825   3.935   1.660  0.8479  0.9484 -0.4025
 3022SOL    HW220529   2.682   3.958   1.616  0.3962 -2.0686  1.1512
 3023SOL     OW20530   1.209   4.546   3.898 -0.0307 -0.2516 -0.2133
 3023SOL    HW120531   1.119   4.565   3.924  0.7099 -1.6186  3.2665
 3023SOL    HW220532   1.237   4.500   3.977 -0.3929  0.5938  0.4069
 3024SOL     OW20533   3.316   3.992   4.211  0.0521  0.3508 -0.1559
 3024SOL    HW120534   3.226   3.969   4.189  0.0176 -1.6626  1.9991
 3024SOL    HW220535   3.307   4.058   4.280  0.1197 -0.9933  1.1560
 3025SOL     OW20536   1.058   1.520   3.171 -0.0720 -0.2803  0.3142
 3025SOL    HW120537   1.114   1.597   3.182  0.5563 -0.4755 -1.5098
 3025SOL    HW220538   1.115   1.444   3.159  1.4289  0.9985 -0.6270
 3026SOL     OW20539   0.481   4.057   8.429 -0.2233 -0.0731 -0.1252
 3026SOL    HW120540   0.499   4.136   8.480 -2.6795 -0.5883  1.5244
 3026SOL    HW220541   0.471   4.091   8.340  0.2022 -1.3408 -0.6550
 3027SOL     OW20542   4.011   1.675   3.638  0.1180  0.9551  0.0024
 3027SOL    HW120543   4.104   1.681   3.614 -0.0407  1.1408 -0.5694
 3027SOL    HW220544   3.974   1.749   3.590  0.2321 -0.2622 -1.9798
 3028SOL     OW20545   4.044   1.570   7.000  0.0850 -0.1934  0.4243
 3028SOL    HW120546   4.013   1.651   7.041  1.1476  0.9232 -0.9779
 3028SOL    HW220547   4.076   1.520   7.075  3.7408 -1.5497 -2.0449
 3029SOL     OW20548   3.924   2.779   7.413 -0.1302  0.1857  0.6801
 3029SOL    HW120549   4.013   2.755   7.388 -0.2472  1.4017 -0.9263
 3029SOL    HW220550   3.936   2.792   7.507  0.8977  1.7607  0.3292
 3030SOL     OW20551   2.407   0.159   3.242  0.2116  0.0368  0.1848
 3030SOL    HW120552   2.331   0.217   3.232  2.2994  2.5755 -0.6704
 3030SOL    HW220553   2.366   0.073   3.232 -1.1511  0.1307  4.6091
 3031SOL     OW20554   1.939   3.102  13.260 -0.3276 -0.3151  0.0741
 3031SOL    HW120555   1.962   3.013  13.286 -2.0018 -0.4076  1.2662
 3031SOL    HW220556   1.847   3.095  13.237 -0.3926  1.5053 -0.2363
 3032SOL     OW20557   1.888   2.689   8.536 -0.2401  1.0790 -0.3458
 3032SOL    HW120558   1.845   2.670   8.453  1.2479  0.2914 -0.9213
 3032SOL    HW220559   1.928   2.775   8.530 -1.4121  1.9251  3.5666
 3033SOL     OW20560   0.343   2.110   6.786 -0.8682  1.1497 -0.7697
 3033SOL    HW120561   0.395   2.047   6.735  0.6089  1.6815  0.1011
 3033SOL    HW220562   0.285   2.152   6.722 -1.0532  1.0779 -0.6485
 3034SOL     OW20563   1.876   3.002   3.612  0.4136  0.0525 -0.0433
 3034SOL    HW120564   1.879   2.917   3.569 -1.6972 -0.3407  0.5767
 3034SOL    HW220565   1.789   3.006   3.654  1.2428  0.0798  1.6912
 3035SOL     OW20566   2.592   1.064   0.210 -0.0494 -0.0552  0.1922
 3035SOL    HW120567   2.561   1.117   0.137 -1.8412 -3.1083 -1.2584
 3035SOL    HW220568   2.639   1.129   0.262  1.8803 -0.3517 -1.1999
 3036SOL     OW20569   4.105   4.121   3.078  0.0347 -0.5341  0.1150
 3036SOL    HW120570   4.161   4.186   3.036 -0.8913 -0.5285 -1.1105
 3036SOL    HW220571   4.174   4.058   3.099  0.5790 -0.4027 -1.2462
 3037SOL     OW20572   1.444   1.256  13.638 -0.5612  0.4741  0.0801
 3037SOL    HW120573   1.448   1.321  13.708  1.3144  0.9745 -0.4943
 3037SOL    HW220574   1.350   1.239  13.631 -0.0509 -1.0848 -2.9471
 3038SOL     OW20575   3.972   2.868  16.471 -0.2267  0.1257 -0.1585
 3038SOL    HW120576   4.061   2.902  16.478  0.2111 -1.5735  2.3598
 3038SOL    HW220577   3.952   2.869  16.564  0.0988 -2.5360 -0.0580
 3039SOL     OW20578   3.173   0.772  14.444  1.0022 -0.5906 -0.6657
 3039SOL    HW120579   3.264   0.800  14.449  0.9309 -0.7276  1.4155
 3039SOL    HW220580   3.165   0.718  14.522  3.4748 -0.4813 -0.3240
 3040SOL     OW20581   2.826   4.241   7.623  0.4843  0.7590 -0.4235
 3040SOL    HW120582   2.762   4.311   7.608  0.5336  0.7547 -0.6449
 3040SOL    HW220583   2.906   4.283   7.592  0.6184  1.1679  0.4611
 3041SOL     OW20584   0.519   2.879   3.261  0.1940  0.0649 -0.4081
 3041SOL    HW120585   0.533   2.785   3.256  0.0758  0.0934 -1.3497
 3041SOL    HW220586   0.599   2.918   3.226  1.3836 -3.1961 -1.2642
 3042SOL     OW20587   3.721   4.663   4.652  0.2516  0.2791 -0.1276
 3042SOL    HW120588   3.749   4.575   4.676 -2.1758 -0.1887  1.0447
 3042SOL    HW220589   3.628   4.661   4.677  0.7402  0.2831  1.6993
 3043SOL     OW20590   3.064   4.379   4.488  0.1174  1.1368 -0.2113
 3043SOL    HW120591   3.049   4.413   4.576  0.8752 -2.0638  1.1688
 3043SOL    HW220592   2.979   4.376   4.443  0.0454 -0.1293  0.0164
 3044SOL     OW20593   2.141   3.331  14.493 -0.6043 -0.8633  0.3594
 3044SOL    HW120594   2.159   3.237  14.494  1.8480 -0.3840  1.1763
 3044SOL    HW220595   2.048   3.346  14.477 -0.8212  0.6467  3.1274
 3045SOL     OW20596   1.716   3.742   3.077 -0.3189  0.3136 -0.2165
 3045SOL    HW120597   1.713   3.824   3.127  1.0119 -0.8767  1.7643
 3045SOL    HW220598   1.660   3.695   3.138 -1.3656  1.9432  0.0717
 3046SOL     OW20599   4.074   4.142   9.147  0.0926 -0.3838 -0.3850
 3046SOL    HW120600   4.041   4.098   9.069  1.2860 -0.7943 -0.6632
 3046SOL    HW220601   4.001   4.202   9.159 -0.5128 -1.2921  0.5326
 3047SOL     OW20602   2.584   2.228   4.958  0.7058 -0.3984  0.1941
 3047SOL    HW120603   2.652   2.294   4.967 -1.0390  1.5835 -0.9835
 3047SOL    HW220604   2.638   2.153   4.982 -1.0353 -1.9567 -0.7723
 3048SOL     OW20605   0.062   1.514   2.233 -0.4781 -0.2127 -0.5986
 3048SOL    HW120606   0.137   1.563   2.267  0.4941 -0.5854 -2.2251
 3048SOL    HW220607   0.001   1.518   2.307  0.1299 -3.5990  0.0949
 3049SOL     OW20608   2.252   3.908   0.898 -0.1388 -0.3239  0.3708
 3049SOL    HW120609   2.304   3.981   0.932  0.9753 -0.5524 -0.8469
 3049SOL    HW220610   2.315   3.839   0.878 -0.3093 -0.4751  0.3570
 3050SOL     OW20611   1.412   3.682   3.535 -0.2190  0.1051 -0.0392
 3050SOL    HW120612   1.392   3.619   3.604 -0.2097 -0.2651 -0.3784
 3050SOL    HW220613   1.489   3.723   3.575  0.1778  1.9160 -2.6009
 3051SOL     OW20614   1.243   0.373   0.252  0.2089  0.2563 -0.9421
 3051SOL    HW120615   1.207   0.439   0.193  3.6068  1.2495 -1.9218
 3051SOL    HW220616   1.282   0.426   0.321 -1.1569 -0.2090  0.1779
 3052SOL     OW20617   2.315   2.439   7.612  0.4175  0.1191  0.1148
 3052SOL    HW120618   2.373   2.450   7.687 -0.9256 -0.2532  1.2033
 3052SOL    HW220619   2.293   2.346   7.610  0.1939  0.1688  0.2655
 3053SOL     OW20620   4.053   0.335   2.417 -0.2431  0.2997  0.2074
 3053SOL    HW120621   4.128   0.298   2.371 -0.6446  0.6473 -0.7271
 3053SOL    HW220622   4.009   0.366   2.338  0.3040 -1.4867 -0.8050
 3054SOL     OW20623   2.637   4.410   6.403 -0.4658  0.5528  0.1238
 3054SOL    HW120624   2.694   4.450   6.470  0.2001  0.0485 -0.1386
 3054SOL    HW220625   2.709   4.362   6.361 -0.3092  0.6509  0.2783
 3055SOL     OW20626   1.121   1.397   8.754  0.7978 -0.1145  0.0917
 3055SOL    HW120627   1.214   1.415   8.738  1.3239 -2.5663  0.2702
 3055SOL    HW220628   1.141   1.323   8.812 -0.7111 -1.6840 -1.3625
 3056SOL     OW20629   4.419   0.805   5.451 -0.1899 -0.0425 -0.0752
 3056SOL    HW120630   4.491   0.783   5.393  1.7848  1.4373  1.8365
 3056SOL    HW220631   4.375   0.865   5.391 -3.2595 -1.4746  0.7504
 3057SOL     OW20632   0.572   1.156   2.674 -0.1881 -0.3500 -0.1391
 3057SOL    HW120633   0.611   1.186   2.756 -1.3257  2.1593 -0.5073
 3057SOL    HW220634   0.652   1.127   2.631 -0.1531  0.5286 -0.6798
 3058SOL     OW20635   2.999   4.001   8.710  0.8209  0.1886  0.3049
 3058SOL    HW120636   2.924   3.943   8.695  0.1604  1.3176 -0.7784
 3058SOL    HW220637   3.063   3.948   8.756  3.7019  3.4019 -0.0133
 3059SOL     OW20638   0.912   1.071   3.229  0.1273 -0.1407 -0.3893
 3059SOL    HW120639   0.834   1.018   3.244  1.3125 -2.2595 -1.7963
 3059SOL    HW220640   0.908   1.072   3.134 -0.4951  0.1578 -0.3631
 3060SOL     OW20641   1.743   2.151   6.808 -0.2543 -0.1342  0.5781
 3060SOL    HW120642   1.750   2.216   6.739 -1.9650 -0.1328  0.4186
 3060SOL    HW220643   1.661   2.177   6.850 -0.9903  0.5357 -1.2955
 3061SOL     OW20644   0.376   2.066   7.513 -0.4190 -0.6453 -0.1163
 3061SOL    HW120645   0.346   2.043   7.601 -1.6700  0.5606 -0.2200
 3061SOL    HW220646   0.355   2.160   7.510  0.0784 -0.5703 -1.2712
 3062SOL     OW20647   3.268   0.177  14.794  0.0313 -0.0435  0.1581
 3062SOL    HW120648   3.287   0.270  14.801  0.8998 -0.2544  0.5972
 3062SOL    HW220649   3.183   0.177  14.838 -0.3052 -2.2835 -0.4451
 3063SOL     OW20650   1.541   4.047  16.699 -0.7422  0.0276 -0.2999
 3063SOL    HW120651   1.547   4.136  16.733  2.4653  0.0854 -1.0501
 3063SOL    HW220652   1.578   4.064  16.613 -1.9074 -0.6315 -0.9252
 3064SOL     OW20653   4.613   4.155   0.245 -0.5185  0.2608  0.0858
 3064SOL    HW120654   4.539   4.201   0.206 -0.0669 -0.3082 -1.4109
 3064SOL    HW220655   4.692   4.175   0.195 -1.3095  1.6589 -0.6027
 3065SOL     OW20656   2.062   0.098  13.234 -0.1181 -0.4966 -0.1386
 3065SOL    HW120657   2.083   0.154  13.308  1.8522  0.7660 -1.6401
 3065SOL    HW220658   1.986   0.130  13.186 -0.5795  0.8015  1.4972
 3066SOL     OW20659   3.369   2.580  10.478 -0.5608 -0.0257 -0.1345
 3066SOL    HW120660   3.412   2.665  10.474  0.7650 -0.5416  2.6985
 3066SOL    HW220661   3.302   2.602  10.414 -0.0409 -0.4383 -0.8214
 3067SOL     OW20662   3.748   2.194   3.842 -0.1460 -0.3951 -0.0671
 3067SOL    HW120663   3.741   2.236   3.928 -2.4646 -0.7470 -0.1103
 3067SOL    HW220664   3.838   2.216   3.815 -0.2811 -0.5821 -0.6610
 3068SOL     OW20665   2.071   0.239   4.974  0.1151  0.0921 -0.1253
 3068SOL    HW120666   2.129   0.256   5.049 -0.5843  0.0348  0.4337
 3068SOL    HW220667   2.005   0.182   5.013 -0.8542  0.9541 -0.5088
 3069SOL     OW20668   2.986   1.744   7.913 -0.0010  0.3611 -0.0197
 3069SOL    HW120669   3.042   1.666   7.912 -1.1433 -0.4436 -0.0416
 3069SOL    HW220670   2.904   1.710   7.878 -0.6350  1.9869 -0.1321
 3070SOL     OW20671   0.704   1.664   6.535  0.2370 -0.3847 -0.5027
 3070SOL    HW120672   0.610   1.665   6.515 -0.2885  1.7667  2.2141
 3070SOL    HW220673   0.737   1.599   6.472  3.6078  0.1575  0.7088
 3071SOL     OW20674   1.573   3.009  14.183  0.3454 -0.4958  0.0604
 3071SOL    HW120675   1.551   2.965  14.101 -0.4012  0.7008 -0.3850
 3071SOL    HW220676   1.574   3.096  14.143  0.9541 -0.1858  0.7626
 3072SOL     OW20677   2.456   1.034   2.554 -0.0988  0.2399 -0.3947
 3072SOL    HW120678   2.516   1.101   2.520 -0.6952  0.5297 -0.8616
 3072SOL    HW220679   2.513   0.962   2.527  0.1240  0.5475 -0.7432
 3073SOL     OW20680   0.787   0.238   5.029  0.6107  0.0862  0.7420
 3073SOL    HW120681   0.738   0.167   4.988 -2.5177  2.3798  0.5101
 3073SOL    HW220682   0.725   0.281   5.087 -1.5573  0.4307 -1.8346
 3074SOL     OW20683   0.037   1.986   2.156 -0.7539 -0.5831  0.1682
 3074SOL    HW120684   0.080   1.936   2.226  0.3867 -0.0620 -0.1594
 3074SOL    HW220685   0.099   2.055   2.132  0.3569 -2.5663 -2.6804
 3075SOL     OW20686   4.207   0.448  10.985  0.0272 -0.0187 -0.0462
 3075SOL    HW120687   4.119   0.438  10.949  0.4712  1.0196 -1.3992
 3075SOL    HW220688   4.251   0.506  10.923  0.2898  0.8250  0.9395
 3076SOL     OW20689   2.437   4.495   3.866 -0.5515 -0.1915  0.3131
 3076SOL    HW120690   2.375   4.520   3.798  0.1451 -3.8392 -1.6243
 3076SOL    HW220691   2.497   4.570   3.871 -1.3642  0.4628  0.3207
 3077SOL     OW20692   2.121   3.918  12.805 -0.6001  0.1065 -0.0910
 3077SOL    HW120693   2.112   4.011  12.823  0.5694 -0.0051  1.0377
 3077SOL    HW220694   2.195   3.920  12.745 -0.6667 -1.2846 -0.2128
 3078SOL     OW20695   2.789   1.096   1.931 -0.0329 -0.0761  0.1866
 3078SOL    HW120696   2.845   1.159   1.976  0.1534 -0.0380 -0.0964
 3078SOL    HW220697   2.840   1.085   1.851  0.3043 -1.4162  0.5821
 3079SOL     OW20698   3.615   3.142   4.827  0.1777 -0.0011 -0.0168
 3079SOL    HW120699   3.681   3.126   4.759  0.2268 -0.6733  0.1811
 3079SOL    HW220700   3.540   3.157   4.770  0.0858 -3.2931 -0.7893
 3080SOL     OW20701   2.779   4.646  14.174 -0.1853  0.2477  0.4704
 3080SOL    HW120702   2.838   4.720  14.190  1.2989 -1.2952  2.0965
 3080SOL    HW220703   2.742   4.678  14.091 -1.7432  0.1602  1.1192
 3081SOL     OW20704   0.193   2.498  16.747  0.2738 -0.0782 -0.4826
 3081SOL    HW120705   0.138   2.517  16.671  1.5928  2.4027 -0.8263
 3081SOL    HW220706   0.250   2.433  16.707  1.1302  0.1567  0.3519
 3082SOL     OW20707   0.002   2.676   8.530 -0.2883  0.4155 -0.1995
 3082SOL    HW120708   4.662   2.623   8.578  1.0679  0.4897  1.7014
 3082SOL    HW220709   0.047   2.724   8.600  2.0766 -3.2662  0.8268
 3083SOL     OW20710   3.252   1.058  13.956 -0.1718  0.1372  0.0669
 3083SOL    HW120711   3.202   1.009  14.021 -1.5238  1.2137 -0.1504
 3083SOL    HW220712   3.331   1.005  13.962  0.3656  0.9199 -0.0708
 3084SOL     OW20713   3.705   3.675  14.412  0.1642  0.1560  0.5437
 3084SOL    HW120714   3.783   3.626  14.386  1.1463  2.6534 -1.2443
 3084SOL    HW220715   3.682   3.743  14.348 -0.4416 -1.1070 -0.5938
 3085SOL     OW20716   2.227   1.505  10.074 -0.2402 -0.7907 -0.2518
 3085SOL    HW120717   2.179   1.508   9.991 -0.8357 -0.1372  0.1235
 3085SOL    HW220718   2.316   1.533  10.051 -1.0642  1.1334 -1.0792
 3086SOL     OW20719   0.202   3.505   3.586  0.0058 -0.6321 -0.2365
 3086SOL    HW120720   0.242   3.589   3.609  0.1269  0.0912 -3.1007
 3086SOL    HW220721   0.190   3.522   3.493 -3.9901 -3.9767 -0.2882
 3087SOL     OW20722   0.654   0.694   7.758 -0.0170 -0.6268  0.0622
 3087SOL    HW120723   0.653   0.611   7.806 -0.0604 -0.2404  0.7305
 3087SOL    HW220724   0.697   0.672   7.675 -1.1031 -0.7749 -0.4507
 3088SOL     OW20725   0.057   3.585   4.935 -0.6117  0.0348  0.1476
 3088SOL    HW120726   0.150   3.589   4.914 -0.3463 -3.0576  0.8331
 3088SOL    HW220727   0.058   3.570   5.029 -0.0529  2.9701  0.6161
 3089SOL     OW20728   3.981   0.512   6.240  0.3742 -0.2817 -0.4192
 3089SOL    HW120729   3.991   0.451   6.313 -1.8762  0.3021  0.3779
 3089SOL    HW220730   4.062   0.562   6.240 -1.1424  2.2013 -0.3750
 3090SOL     OW20731   3.281   4.536   2.439 -0.1687  0.3212 -0.2176
 3090SOL    HW120732   3.368   4.569   2.462 -0.0851 -0.5398  0.7255
 3090SOL    HW220733   3.228   4.616   2.434  2.1224  1.9272  0.8936
 3091SOL     OW20734   4.646   3.235  16.950 -0.4226 -0.6558  0.2835
 3091SOL    HW120735   4.711   3.304  16.964  1.5677 -2.3195 -0.7816
 3091SOL    HW220736   4.638   3.192  17.035 -0.6224  0.5030  0.8512
 3092SOL     OW20737   0.853   2.526   3.134  0.3160 -0.1169 -0.6566
 3092SOL    HW120738   0.912   2.453   3.117  0.5746 -0.3845  1.3293
 3092SOL    HW220739   0.914   2.600   3.136 -0.6687  0.6913 -0.0153
 3093SOL     OW20740   1.096   2.109   9.928 -0.2352 -0.2405  0.1080
 3093SOL    HW120741   1.048   2.190   9.910  2.0087  0.5750 -2.0975
 3093SOL    HW220742   1.183   2.149   9.925  0.0357 -0.7318  1.2012
 3094SOL     OW20743   2.150   3.344   5.353 -0.4586 -0.2877 -0.1178
 3094SOL    HW120744   2.204   3.340   5.431  1.1011  1.5103 -1.1060
 3094SOL    HW220745   2.058   3.336   5.378 -0.5949 -2.1087 -1.2046
 3095SOL     OW20746   0.103   0.987   5.752  0.0360  0.7064  0.1669
 3095SOL    HW120747   0.084   0.909   5.804  3.6272  1.5437  2.6725
 3095SOL    HW220748   0.160   0.951   5.684 -0.8393 -0.5592  0.0941
 3096SOL     OW20749   4.071   3.432   8.761 -0.0251 -0.4906  0.0680
 3096SOL    HW120750   4.115   3.404   8.681 -0.2714  0.1154 -0.2738
 3096SOL    HW220751   4.058   3.526   8.751  0.2245 -0.6683 -1.7799
 3097SOL     OW20752   3.636   1.385   6.303  0.0045  0.3809 -0.0669
 3097SOL    HW120753   3.658   1.442   6.229  1.5918  0.1701  0.2470
 3097SOL    HW220754   3.572   1.443   6.345  0.4321  0.7463  0.0741
 3098SOL     OW20755   1.282   1.775   2.253  0.3085 -0.0226 -0.3109
 3098SOL    HW120756   1.232   1.710   2.302  0.8939  0.3166  0.7173
 3098SOL    HW220757   1.268   1.851   2.310 -1.2007 -1.8591  1.7447
 3099SOL     OW20758   2.578   4.081   3.505  0.4286 -0.1729 -0.2603
 3099SOL    HW120759   2.613   4.068   3.417 -0.1031  0.0260 -0.4996
 3099SOL    HW220760   2.649   4.042   3.556 -1.7494 -2.3168  1.1342
 3100SOL     OW20761   1.343   2.037   3.684 -0.0501  0.8658 -0.0454
 3100SOL    HW120762   1.284   1.978   3.636 -1.7286  0.3967  2.5732
 3100SOL    HW220763   1.337   2.118   3.634  3.5770  1.8500  1.1676
 3101SOL     OW20764   2.604   4.628   1.538  0.3334 -0.0812 -0.0383
 3101SOL    HW120765   2.592   4.552   1.595 -2.1049  1.1525  1.0600
 3101SOL    HW220766   2.685   4.667   1.572  0.8444 -0.1345 -1.1955
 3102SOL     OW20767   2.664   4.047  17.405 -0.4967  0.1851 -0.3327
 3102SOL    HW120768   2.685   4.133  17.369  0.9347  1.0991  2.6276
 3102SOL    HW220769   2.750   4.006  17.412  0.0043  1.3242  0.2618
 3103SOL     OW20770   3.176   4.167   5.853  0.2907 -0.4035  0.0152
 3103SOL    HW120771   3.178   4.125   5.767  0.8686 -1.7767  0.6980
 3103SOL    HW220772   3.224   4.100   5.902  0.8849 -0.1806 -0.2642
 3104SOL     OW20773   0.438   0.174   6.725 -0.4843  0.5914  0.3253
 3104SOL    HW120774   0.417   0.213   6.810 -1.0209 -1.2512  1.0562
 3104SOL    HW220775   0.438   0.246   6.662  0.0313  0.1524 -0.1726
 3105SOL     OW20776   4.120   0.313   8.574 -0.3474  0.1181 -0.6935
 3105SOL    HW120777   4.063   0.238   8.560 -0.1035 -0.0191 -0.9343
 3105SOL    HW220778   4.103   0.326   8.668  1.4799 -2.1041 -0.0547
 3106SOL     OW20779   1.512   0.118   2.358  0.2089 -0.3904 -0.2515
 3106SOL    HW120780   1.486   0.047   2.299  1.7592 -2.0070  1.0024
 3106SOL    HW220781   1.444   0.184   2.344  0.6781  0.3858  1.1452
 3107SOL     OW20782   2.450   3.394   7.429 -0.8557  0.5033 -0.1203
 3107SOL    HW120783   2.442   3.325   7.495 -0.9002 -1.4717 -2.1715
 3107SOL    HW220784   2.411   3.471   7.470  1.0253  0.1505  2.3298
 3108SOL     OW20785   2.349   3.386   2.044 -0.4070  0.2760 -0.2967
 3108SOL    HW120786   2.267   3.373   1.996 -1.0494 -0.5039  1.0071
 3108SOL    HW220787   2.352   3.301   2.087 -0.8144 -0.5559 -1.9125
 3109SOL     OW20788   3.711   2.215   8.087  1.1323  0.3634  0.5052
 3109SOL    HW120789   3.662   2.143   8.047  0.2223  0.6284  1.1350
 3109SOL    HW220790   3.672   2.209   8.175 -3.9407  1.9758 -1.6162
 3110SOL     OW20791   4.291   2.955   4.288 -0.0441 -0.1022  0.1192
 3110SOL    HW120792   4.312   3.044   4.258  2.2565  0.5268  3.5900
 3110SOL    HW220793   4.269   2.963   4.381 -1.1033  1.0351 -0.2251
 3111SOL     OW20794   0.599   2.674   3.458  0.1122  0.6471  0.6730
 3111SOL    HW120795   0.628   2.587   3.430  0.9344  1.2337 -0.3001
 3111SOL    HW220796   0.680   2.725   3.455  0.5651 -0.0538  1.0286
 3112SOL     OW20797   4.574   0.401   1.800  0.9541  0.3702 -0.4992
 3112SOL    HW120798   4.535   0.487   1.810 -0.0991 -0.1216 -0.4341
 3112SOL    HW220799   4.494   0.352   1.782  1.3273 -0.6079  0.4810
 3113SOL     OW20800   0.540   2.320  13.539  0.0307  0.4466 -0.1343
 3113SOL    HW120801   0.574   2.404  13.509  1.5566 -0.1043  0.0266
 3113SOL    HW220802   0.491   2.284  13.465 -0.8949  1.9273 -0.2342
 3114SOL     OW20803   0.152   1.762   7.352  0.2716  0.5364 -0.0610
 3114SOL    HW120804   0.068   1.740   7.393  0.5332  0.8741  0.6640
 3114SOL    HW220805   0.145   1.858   7.345  3.2546  0.7221 -0.3779
 3115SOL     OW20806   4.451   2.205   3.295  0.5928  0.1973 -0.2178
 3115SOL    HW120807   4.452   2.280   3.236 -0.8080 -0.7711 -1.4666
 3115SOL    HW220808   4.381   2.147   3.267  1.5816 -2.2813  2.4199
 3116SOL     OW20809   4.653   3.470   8.951 -0.7160 -0.1820 -0.1720
 3116SOL    HW120810   4.584   3.408   8.976  1.3152 -1.0294  3.2941
 3116SOL    HW220811   0.008   3.445   8.999 -1.2621  0.0559  0.8396
 3117SOL     OW20812   1.588   0.889   1.495 -0.2941  0.6180 -0.3352
 3117SOL    HW120813   1.567   0.942   1.572  2.1968  1.7954 -0.4774
 3117SOL    HW220814   1.583   0.954   1.424 -3.5189 -1.4045 -1.9654
 3118SOL     OW20815   0.767   2.183   3.718  0.4016  0.1334  0.0714
 3118SOL    HW120816   0.794   2.222   3.801 -0.4609 -0.3599  0.5820
 3118SOL    HW220817   0.845   2.197   3.664  1.6077  2.6010  2.4507
 3119SOL     OW20818   2.465   1.777   6.404  0.0791  0.4920  0.4204
 3119SOL    HW120819   2.495   1.804   6.317  1.3812 -2.4529 -0.0428
 3119SOL    HW220820   2.389   1.723   6.382  1.5446 -0.3369 -2.6013
 3120SOL     OW20821   2.487   4.658   9.909 -0.1801  0.1750 -0.1362
 3120SOL    HW120822   2.559   4.721   9.900  0.0403  0.0872  0.9825
 3120SOL    HW220823   2.512   4.585   9.852 -0.2257  2.3995 -3.0210
 3121SOL     OW20824   3.300   3.888  12.981  0.0691 -0.5322  0.1580
 3121SOL    HW120825   3.364   3.844  12.925 -1.8165 -2.7557 -0.2569
 3121SOL    HW220826   3.303   3.979  12.951 -0.2539 -0.3787  0.5848
 3122SOL     OW20827   3.049   3.531   3.416 -0.2625 -0.0698  0.4804
 3122SOL    HW120828   3.065   3.592   3.344 -0.5866  0.8136  1.1515
 3122SOL    HW220829   3.132   3.537   3.462 -0.3300 -0.3073  0.6282
 3123SOL     OW20830   2.419   3.260   5.246 -0.0172 -0.3660  0.2380
 3123SOL    HW120831   2.449   3.351   5.241  2.6989 -1.2942 -0.3449
 3123SOL    HW220832   2.374   3.267   5.330 -2.3377 -2.7759 -0.8097
 3124SOL     OW20833   4.531   2.798   2.199 -0.4640 -0.1839 -0.6351
 3124SOL    HW120834   4.604   2.777   2.257 -2.1038  3.0022  2.5757
 3124SOL    HW220835   4.468   2.731   2.225  0.7047 -0.8024  0.6046
 3125SOL     OW20836   4.252   4.600   3.114 -0.6361 -0.0369  0.2964
 3125SOL    HW120837   4.208   4.563   3.191  0.3302  0.2709  0.9937
 3125SOL    HW220838   4.337   4.557   3.123 -1.7727 -1.9587  1.9072
 3126SOL     OW20839   2.582   2.904  17.309 -1.0146  0.7093 -0.3763
 3126SOL    HW120840   2.604   2.997  17.307 -1.0118  0.7017 -0.7344
 3126SOL    HW220841   2.644   2.881  17.378 -1.3019  0.4560 -0.2053
 3127SOL     OW20842   3.245   1.255   3.172  0.6873 -0.1734  0.4105
 3127SOL    HW120843   3.290   1.282   3.092 -1.8329  2.2154 -0.2180
 3127SOL    HW220844   3.163   1.218   3.139  1.7939 -1.1446 -1.2793
 3128SOL     OW20845   2.933   2.570   0.251 -0.0597  0.3189  0.0713
 3128SOL    HW120846   2.967   2.480   0.256  1.6304  0.8732 -1.3153
 3128SOL    HW220847   2.847   2.560   0.211 -0.3711 -0.0367  0.8309
 3129SOL     OW20848   3.899   1.820   5.783 -0.8686  0.1793 -0.4546
 3129SOL    HW120849   3.905   1.901   5.832  1.2485 -0.3470  0.1312
 3129SOL    HW220850   3.900   1.755   5.853  0.5501 -1.0562 -1.6317
 3130SOL     OW20851   4.145   2.603   1.584  0.1805 -0.0132 -0.3434
 3130SOL    HW120852   4.223   2.631   1.633 -0.4203 -1.2993  1.3384
 3130SOL    HW220853   4.142   2.510   1.605  1.6225  0.2818  1.1752
 3131SOL     OW20854   2.060   2.667   1.757  0.1336 -0.2728  0.3888
 3131SOL    HW120855   2.055   2.617   1.676  0.6257  0.9838 -0.4206
 3131SOL    HW220856   1.970   2.670   1.789 -0.5051  0.7424 -1.4877
 3132SOL     OW20857   1.890   1.991  10.040 -0.1862  0.4231  0.3242
 3132SOL    HW120858   1.965   1.952  10.085 -0.0461  0.0370 -0.2401
 3132SOL    HW220859   1.821   1.946  10.090 -1.1099  1.3612 -0.1076
 3133SOL     OW20860   0.783   2.353   1.318 -0.5549  0.8889 -0.0206
 3133SOL    HW120861   0.800   2.280   1.377 -0.7484  0.2196 -0.7926
 3133SOL    HW220862   0.706   2.311   1.278  0.3832 -1.2508  0.4158
 3134SOL     OW20863   1.613   2.130   6.427  0.2114  0.4514  0.4424
 3134SOL    HW120864   1.597   2.204   6.485  1.2182  1.6850 -0.8529
 3134SOL    HW220865   1.705   2.152   6.414  0.2748 -0.8735 -1.3509
 3135SOL     OW20866   4.399   4.602  16.124 -0.1069  0.9890  0.2964
 3135SOL    HW120867   4.476   4.578  16.073 -1.4630 -2.3289 -0.2376
 3135SOL    HW220868   4.362   4.516  16.144  2.9527  0.0180  1.7389
 3136SOL     OW20869   3.568   0.396  11.184  0.1827 -0.4650 -0.0701
 3136SOL    HW120870   3.528   0.344  11.254  1.0808 -0.0342  0.7748
 3136SOL    HW220871   3.649   0.410  11.232  0.5392  1.3152 -1.2079
 3137SOL     OW20872   1.987   4.354   5.330  0.6169 -0.2208  0.1238
 3137SOL    HW120873   1.916   4.315   5.279  2.3927 -1.8355 -1.1145
 3137SOL    HW220874   1.988   4.281   5.393  0.7385 -1.6874 -1.5682
 3138SOL     OW20875   3.750   2.505   9.833 -0.0102 -0.3373  0.3394
 3138SOL    HW120876   3.735   2.460   9.750 -0.3309 -0.5207  0.4975
 3138SOL    HW220877   3.663   2.512   9.871  0.4074  2.0452  0.8418
 3139SOL     OW20878   2.316   1.876  12.209  0.5210  0.0317 -0.0355
 3139SOL    HW120879   2.316   1.872  12.304  0.0217  1.7623  0.0313
 3139SOL    HW220880   2.241   1.934  12.193  1.9537  1.4354 -1.6747
 3140SOL     OW20881   1.171   3.136  15.304  0.0756  0.0130 -0.3373
 3140SOL    HW120882   1.103   3.080  15.340 -0.7407  1.5695  0.5631
 3140SOL    HW220883   1.185   3.194  15.379 -2.1993 -1.3912  1.1801
 3141SOL     OW20884   3.756   3.720   5.247  0.3818 -0.3197  0.1541
 3141SOL    HW120885   3.728   3.710   5.156 -1.4326 -1.5767  0.8535
 3141SOL    HW220886   3.680   3.683   5.291  1.1389  0.4046  2.0849
 3142SOL     OW20887   2.782   4.334   5.631 -0.4431 -0.5840 -0.6500
 3142SOL    HW120888   2.852   4.278   5.664  1.0473  1.5544 -0.1457
 3142SOL    HW220889   2.810   4.421   5.660 -1.8388 -0.1744 -0.5264
 3143SOL     OW20890   0.747   1.919   4.052  0.3621 -0.1397 -0.7661
 3143SOL    HW120891   0.812   1.988   4.068 -1.3475  0.9982  1.3215
 3143SOL    HW220892   0.734   1.883   4.139  2.4042 -0.3561 -0.5444
 3144SOL     OW20893   0.042   0.809   1.689  0.3816 -0.7261 -0.5599
 3144SOL    HW120894   0.105   0.826   1.618  0.0348 -1.5374 -1.0631
 3144SOL    HW220895   0.098   0.779   1.760  1.0870 -0.9365 -1.1984
 3145SOL     OW20896   4.240   3.065  10.203 -0.9550  0.1449  0.2170
 3145SOL    HW120897   4.206   2.997  10.145  1.8713  1.6757 -3.2260
 3145SOL    HW220898   4.213   3.034  10.290 -0.9484  0.1745  0.2297
 3146SOL     OW20899   1.720   0.443   4.228 -0.3316 -0.2057 -0.5861
 3146SOL    HW120900   1.788   0.444   4.296  1.6124  0.7420 -2.5702
 3146SOL    HW220901   1.651   0.397   4.277  0.3668 -0.8711 -0.2137
 3147SOL     OW20902   3.365   2.614   5.905  0.7796  0.2628  0.4433
 3147SOL    HW120903   3.394   2.700   5.873 -0.8960  0.9653  0.7864
 3147SOL    HW220904   3.432   2.597   5.971  2.1554  2.5078 -0.3561
 3148SOL     OW20905   2.848   1.918   3.554 -0.9533  0.1197 -0.0542
 3148SOL    HW120906   2.796   1.859   3.610  0.1829 -0.3862  0.4770
 3148SOL    HW220907   2.932   1.874   3.566 -1.5502 -1.7831 -2.9769
 3149SOL     OW20908   4.493   2.354   2.457 -0.2326  0.0173 -0.0622
 3149SOL    HW120909   4.579   2.396   2.454  0.6270 -1.7445 -0.5815
 3149SOL    HW220910   4.511   2.274   2.408 -1.0630 -1.1364  1.5110
 3150SOL     OW20911   0.803   2.203   3.322 -0.0894  0.3801 -0.0825
 3150SOL    HW120912   0.774   2.112   3.325  0.0494  0.2808 -1.7836
 3150SOL    HW220913   0.776   2.230   3.235 -1.9769 -0.5792  0.2123
 3151SOL     OW20914   3.168   2.224  17.671  0.4888  0.2515  0.0093
 3151SOL    HW120915   3.251   2.225   0.021 -1.1777  1.9112  2.9219
 3151SOL    HW220916   3.183   2.161  17.600  0.2550  0.7647 -0.4948
 3152SOL     OW20917   1.479   3.044  17.437 -0.9158 -0.3756 -0.5658
 3152SOL    HW120918   1.548   3.033  17.502 -1.1598 -0.3234 -0.2945
 3152SOL    HW220919   1.399   3.066  17.486 -1.2735 -0.1981 -1.2319
 3153SOL     OW20920   2.857   2.400  15.770 -0.3068 -0.1002  0.2555
 3153SOL    HW120921   2.765   2.400  15.795 -0.6123  2.2196 -0.8437
 3153SOL    HW220922   2.855   2.364  15.682  1.3398 -0.3882  0.3341
 3154SOL     OW20923   0.718   4.221   5.023  0.1161 -0.9067 -0.3235
 3154SOL    HW120924   0.753   4.307   4.998  0.8037 -1.3927 -1.0298
 3154SOL    HW220925   0.625   4.221   5.001 -0.3291  0.0298  1.5985
 3155SOL     OW20926   1.784   2.994   6.190 -0.6542  0.3806 -0.0338
 3155SOL    HW120927   1.701   3.014   6.233 -2.6682  1.7788 -4.5143
 3155SOL    HW220928   1.788   3.076   6.139  0.8147  0.4016  0.1430
 3156SOL     OW20929   2.531   2.570  11.689  0.3765  0.1861 -0.2054
 3156SOL    HW120930   2.485   2.511  11.748  2.3004 -0.2797  0.8366
 3156SOL    HW220931   2.523   2.660  11.720 -2.1763  0.0086 -0.3661
 3157SOL     OW20932   0.492   0.157   3.530 -0.1831  0.2672  0.0510
 3157SOL    HW120933   0.485   0.064   3.508  3.3194  0.3136 -1.2295
 3157SOL    HW220934   0.435   0.191   3.461 -0.3098 -0.3684 -0.1544
 3158SOL     OW20935   1.803   4.079   7.558  0.1348  0.1594 -0.3079
 3158SOL    HW120936   1.728   4.025   7.534 -1.2577  1.5350  0.9931
 3158SOL    HW220937   1.792   4.089   7.653 -0.7548 -0.7910 -0.3029
 3159SOL     OW20938   2.289   3.216  13.241 -0.2163  0.4819 -0.1207
 3159SOL    HW120939   2.331   3.263  13.313  3.0513 -0.4863 -1.3820
 3159SOL    HW220940   2.198   3.200  13.263 -0.6479  0.4614 -1.9687
 3160SOL     OW20941   2.870   3.338   3.472  0.3907  0.2236  0.4222
 3160SOL    HW120942   2.891   3.268   3.410 -0.9201  1.9287 -1.9715
 3160SOL    HW220943   2.934   3.408   3.462 -0.0821  0.2169 -2.6002
 3161SOL     OW20944   3.986   3.015  13.452 -0.1560  0.5978  0.2426
 3161SOL    HW120945   3.930   3.048  13.382  1.6638  0.1408 -1.4421
 3161SOL    HW220946   3.924   2.974  13.511 -0.4677  0.2874 -0.3022
 3162SOL     OW20947   4.300   0.787  17.189  0.3442 -0.4719 -0.2428
 3162SOL    HW120948   4.205   0.792  17.191  0.4846  1.8459  0.0661
 3162SOL    HW220949   4.318   0.838  17.110  0.1701 -1.5326 -0.9705
 3163SOL     OW20950   0.619   1.432   3.739  0.2812 -0.4819 -0.0008
 3163SOL    HW120951   0.613   1.498   3.669  2.1615 -2.4451 -1.9931
 3163SOL    HW220952   0.704   1.446   3.780  0.6163 -0.4958 -0.6798
 3164SOL     OW20953   1.625   0.937  10.706 -0.2747 -0.7931 -0.1768
 3164SOL    HW120954   1.651   1.005  10.644 -0.2523 -1.0646 -0.4669
 3164SOL    HW220955   1.695   0.871  10.701 -0.4287 -0.9324 -0.4850
 3165SOL     OW20956   4.677   4.455  11.644  0.0448  0.2313 -0.2710
 3165SOL    HW120957   4.699   4.410  11.562  2.0031  1.4076 -0.3745
 3165SOL    HW220958   4.619   4.388  11.681  0.8090 -0.1772  0.1930
 3166SOL     OW20959   3.099   1.248   4.638 -0.2587 -0.4250  0.1346
 3166SOL    HW120960   3.053   1.299   4.704  2.1382  2.0217 -0.0831
 3166SOL    HW220961   3.053   1.165   4.649 -0.2280 -0.3715  0.6542
 3167SOL     OW20962   0.371   4.347   2.948 -0.1306  0.1779 -0.4800
 3167SOL    HW120963   0.393   4.433   2.913  0.9599  0.2632  0.4165
 3167SOL    HW220964   0.405   4.358   3.037 -0.1063  1.7889 -0.6998
 3168SOL     OW20965   2.330   0.687   1.952  0.0235 -1.1668  0.1549
 3168SOL    HW120966   2.312   0.780   1.940  0.0712 -1.3112 -0.9634
 3168SOL    HW220967   2.249   0.669   1.999 -0.4252 -1.1865 -0.6330
 3169SOL     OW20968   0.865   3.096   8.809 -0.2576 -0.4441 -0.0432
 3169SOL    HW120969   0.884   3.132   8.896 -1.9515  3.4436 -1.2815
 3169SOL    HW220970   0.955   3.116   8.781 -1.0098  3.1033  0.1620
 3170SOL     OW20971   0.274   4.690  14.168  0.1433 -0.2175 -0.3197
 3170SOL    HW120972   0.319   4.612  14.135 -0.7745 -0.6703 -0.4962
 3170SOL    HW220973   0.187   4.673  14.131  0.1858 -1.0802 -0.0234
 3171SOL     OW20974   1.176   0.153   4.540  0.2902  0.7846 -0.2165
 3171SOL    HW120975   1.224   0.235   4.544 -1.2832  1.6031  1.7954
 3171SOL    HW220976   1.251   0.101   4.512 -0.8915 -0.9986 -0.1290
 3172SOL     OW20977   2.984   2.414   7.138 -0.6448 -0.3411  0.0709
 3172SOL    HW120978   3.001   2.463   7.058 -2.1051  0.3239  0.1713
 3172SOL    HW220979   3.043   2.453   7.202 -0.2230  0.5944 -0.8969
 3173SOL     OW20980   4.573   4.692   7.348 -0.3557 -0.4134  0.1672
 3173SOL    HW120981   4.628   4.694   7.270 -0.1040 -2.1035  0.3054
 3173SOL    HW220982   4.489   4.667   7.309 -1.1377  1.0119  0.9432
 3174SOL     OW20983   1.256   1.998   9.604 -0.6050  0.4169 -0.0104
 3174SOL    HW120984   1.340   2.023   9.642 -0.6829 -0.0827  0.5020
 3174SOL    HW220985   1.274   1.906   9.584  0.8261  0.0669  2.8468
 3175SOL     OW20986   0.151   4.663   9.245  0.2947 -0.1552  0.1089
 3175SOL    HW120987   0.125   0.005   9.181 -0.4826 -0.6847 -0.1225
 3175SOL    HW220988   0.157   4.582   9.194 -1.3705 -1.2575  1.6793
 3176SOL     OW20989   3.367   1.005   5.920 -0.0570  0.6464  0.4415
 3176SOL    HW120990   3.274   0.989   5.901  0.3198 -1.6277  0.5431
 3176SOL    HW220991   3.367   1.074   5.986 -3.8491  1.6312 -0.5914
 3177SOL     OW20992   1.545   3.812  10.666 -0.7905 -0.1968  0.6227
 3177SOL    HW120993   1.641   3.812  10.665 -0.8176 -3.0830 -1.3911
 3177SOL    HW220994   1.514   3.726  10.637  0.9143 -1.0505  1.3032
 3178SOL     OW20995   1.093   0.396   5.461  0.2457 -0.5252 -0.2444
 3178SOL    HW120996   1.039   0.319   5.473  0.8437 -0.7392  0.9923
 3178SOL    HW220997   1.109   0.398   5.366  0.4085  0.1802 -0.2079
 3179SOL     OW20998   4.618   1.939  14.454 -0.0615 -0.1284 -0.2813
 3179SOL    HW120999   4.562   1.871  14.416 -1.2757  1.7548 -1.8181
 3179SOL    HW221000   4.700   1.889  14.464  1.3710  2.4338  0.6768
 3180SOL     OW21001   4.480   3.512  13.661 -0.6341  0.3446  0.1248
 3180SOL    HW121002   4.448   3.595  13.697  1.1418 -0.0688  2.6520
 3180SOL    HW221003   4.444   3.506  13.573 -2.2908 -1.5914  0.9229
 3181SOL     OW21004   1.965   3.697  16.133 -0.2948  0.3721 -0.1302
 3181SOL    HW121005   1.995   3.774  16.083 -0.0012  0.1992 -0.2196
 3181SOL    HW221006   2.044   3.672  16.181 -0.1952  1.4480  0.2668
 3182SOL     OW21007   2.242   4.222   0.055  0.0598  0.1720  0.0479
 3182SOL    HW121008   2.157   4.201   0.092 -0.8791  0.7256 -1.8174
 3182SOL    HW221009   2.293   4.168   0.116  0.3268 -0.9495 -1.1873
 3183SOL     OW21010   4.348   1.008   6.094  0.1138 -1.0279 -0.2762
 3183SOL    HW121011   4.280   1.030   6.158  0.8919  0.7125 -0.0283
 3183SOL    HW221012   4.424   1.063   6.112 -0.9878 -0.1419  1.6666
 3184SOL     OW21013   4.667   2.260   4.045  0.3565  0.2900 -0.3264
 3184SOL    HW121014   4.628   2.187   3.998  0.9867 -0.0340 -0.3548
 3184SOL    HW221015   4.668   2.318   3.969 -1.5617  1.7916  0.8031
 3185SOL     OW21016   3.089   2.116   4.176 -0.0691  0.0220 -0.1118
 3185SOL    HW121017   3.158   2.096   4.112  0.7877  2.6568  0.0109
 3185SOL    HW221018   3.149   2.138   4.248  0.5201 -1.2020 -0.2258
 3186SOL     OW21019   0.110   0.044   5.915  0.2180 -0.2791  0.1273
 3186SOL    HW121020   0.060   0.050   5.833  1.5848  2.4844 -0.5205
 3186SOL    HW221021   0.129   4.674   5.918  1.2666 -0.1579 -2.5128
 3187SOL     OW21022   0.575   2.872   2.229  0.1461 -0.2525  0.2538
 3187SOL    HW121023   0.630   2.800   2.260 -1.0548 -1.2024  0.1998
 3187SOL    HW221024   0.482   2.855   2.245  0.4401  0.6551  2.9906
 3188SOL     OW21025   0.267   3.850   3.376 -0.2715  0.3777 -0.6525
 3188SOL    HW121026   0.196   3.912   3.393  1.3364  2.6076 -1.9605
 3188SOL    HW221027   0.294   3.836   3.467  0.9202 -1.9778 -1.3745
 3189SOL     OW21028   1.758   4.172  11.402  0.6920 -0.0157 -0.0230
 3189SOL    HW121029   1.749   4.091  11.352  0.5804 -0.0966  0.1281
 3189SOL    HW221030   1.679   4.183  11.455  0.6107  0.4914 -0.2474
 3190SOL     OW21031   0.924   0.229   5.796 -0.6084  0.0556  0.9294
 3190SOL    HW121032   1.008   0.267   5.821  0.4528 -0.5086 -1.7322
 3190SOL    HW221033   0.864   0.299   5.820 -3.0976 -1.9986  0.7038
 3191SOL     OW21034   2.818   1.005   5.560  0.2342  0.0493 -0.1189
 3191SOL    HW121035   2.737   1.048   5.530  0.1617  0.8730  1.2915
 3191SOL    HW221036   2.783   0.999   5.649 -1.9551  0.9385 -0.9153
 3192SOL     OW21037   0.605   2.851   7.246  0.0277 -0.0591  0.2256
 3192SOL    HW121038   0.614   2.821   7.337  0.9234  0.0975  0.1863
 3192SOL    HW221039   0.697   2.847   7.222  0.4416 -0.5921  1.9176
 3193SOL     OW21040   0.787   0.521   8.769 -0.3925 -0.1462 -0.2505
 3193SOL    HW121041   0.816   0.611   8.781 -1.7188  0.2810 -0.2443
 3193SOL    HW221042   0.726   0.537   8.696  1.1943  1.7025 -1.1352
 3194SOL     OW21043   1.520   0.194   3.198  0.1493  0.3863  0.1035
 3194SOL    HW121044   1.488   0.240   3.275 -1.1329 -1.3692  0.6024
 3194SOL    HW221045   1.566   0.115   3.227 -0.0377  0.3104  0.1885
 3195SOL     OW21046   3.460   0.640   8.498  0.4599  0.4908  0.4348
 3195SOL    HW121047   3.427   0.609   8.582  0.7650 -0.9274  0.0382
 3195SOL    HW221048   3.549   0.663   8.524 -0.1848  3.1166  0.2740
 3196SOL     OW21049   0.647   2.734   2.665 -0.2394  0.2481  0.3259
 3196SOL    HW121050   0.729   2.782   2.668  0.0003 -0.2006  0.8384
 3196SOL    HW221051   0.645   2.712   2.572  0.8235 -0.1189  0.3873
 3197SOL     OW21052   3.528   0.649   6.088  0.2550 -0.3058 -0.1752
 3197SOL    HW121053   3.473   0.724   6.064 -0.7889 -0.7961  0.6787
 3197SOL    HW221054   3.586   0.689   6.153 -0.9690 -2.4117  2.2102
 3198SOL     OW21055   0.317   3.508   6.991 -0.1956 -0.2205 -0.6206
 3198SOL    HW121056   0.335   3.433   6.934 -1.5339 -1.3279  0.4321
 3198SOL    HW221057   0.347   3.471   7.073 -1.1301 -1.8380 -1.0161
 3199SOL     OW21058   0.950   3.307  12.943  0.6063 -0.3641  0.2456
 3199SOL    HW121059   0.965   3.218  12.976  2.4450  0.1918  0.9309
 3199SOL    HW221060   0.869   3.334  12.987  1.2012  2.8463 -0.6777
 3200SOL     OW21061   3.906   2.052   5.908  0.0788  0.0458 -0.0186
 3200SOL    HW121062   3.871   2.114   5.971  0.0748  0.0287 -0.0040
 3200SOL    HW221063   3.984   2.098   5.877  0.5212 -0.6406  0.0698
 3201SOL     OW21064   1.848   0.723   4.843 -0.1586 -0.2143  0.0642
 3201SOL    HW121065   1.940   0.749   4.842 -0.6760  1.6663  1.4291
 3201SOL    HW221066   1.862   0.629   4.857 -1.8517 -0.7447 -1.7676
 3202SOL     OW21067   4.043   3.374  16.092 -0.1056 -0.0012 -0.3661
 3202SOL    HW121068   4.005   3.303  16.040 -0.5470 -0.0061 -0.0371
 3202SOL    HW221069   3.987   3.439  16.050  0.4332  0.4158 -0.4318
 3203SOL     OW21070   0.343   2.174  13.360 -0.2250 -0.2686  0.1868
 3203SOL    HW121071   0.292   2.181  13.441  1.4802 -1.2480  1.3472
 3203SOL    HW221072   0.282   2.222  13.305 -0.6128 -2.5112 -1.3287
 3204SOL     OW21073   2.848   3.643   5.149  0.2485 -0.2326 -0.3997
 3204SOL    HW121074   2.838   3.550   5.167 -2.9809  0.0638 -0.8356
 3204SOL    HW221075   2.857   3.637   5.054 -0.7691 -0.3213 -0.4806
 3205SOL     OW21076   3.524   3.367  12.205  0.2657 -0.1488 -0.0375
 3205SOL    HW121077   3.526   3.425  12.281 -2.7566  2.1363 -1.7427
 3205SOL    HW221078   3.583   3.294  12.226  0.6832  0.1910 -0.0437
 3206SOL     OW21079   2.383   3.209  17.184 -0.8161  0.1522  0.1005
 3206SOL    HW121080   2.464   3.215  17.235 -0.1981 -1.5050 -0.6788
 3206SOL    HW221081   2.392   3.290  17.134  2.0461  0.3918  1.0032
 3207SOL     OW21082   2.784   2.959   8.896 -0.6091 -0.5566  0.2594
 3207SOL    HW121083   2.693   2.980   8.874 -0.2531  1.7521  1.0157
 3207SOL    HW221084   2.788   2.991   8.985 -4.6847  3.7304 -1.1190
 3208SOL     OW21085   1.259   2.787   2.475  0.0280  0.3131 -0.0848
 3208SOL    HW121086   1.269   2.728   2.400  3.4219 -2.5289  2.5927
 3208SOL    HW221087   1.279   2.872   2.436  0.7347 -0.0485 -0.5013
 3209SOL     OW21088   1.873   0.294   2.274 -0.4419 -0.5554 -1.1756
 3209SOL    HW121089   1.948   0.269   2.328 -0.9655  2.5828  0.9869
 3209SOL    HW221090   1.797   0.285   2.332  0.0018  0.7045 -0.4272
 3210SOL     OW21091   4.620   1.690   6.871  0.1559 -0.0756  0.4474
 3210SOL    HW121092   4.714   1.701   6.880  0.3641 -1.5114  0.0621
 3210SOL    HW221093   4.600   1.765   6.815  1.4526 -0.3741 -0.3948
 3211SOL     OW21094   1.656   1.122   3.615  0.5197 -0.3374  0.4681
 3211SOL    HW121095   1.585   1.139   3.677 -0.5581 -0.1497 -0.8238
 3211SOL    HW221096   1.705   1.063   3.672 -0.7424 -1.2270  0.6238
 3212SOL     OW21097   2.263   3.155   1.192  0.2636 -0.2526 -0.7050
 3212SOL    HW121098   2.180   3.149   1.146 -0.2985 -0.2941  0.3264
 3212SOL    HW221099   2.314   3.161   1.111 -1.5325 -1.1376 -1.8932
 3213SOL     OW21100   0.108   0.122   4.915 -0.3813  0.4012 -0.7069
 3213SOL    HW121101   0.074   0.204   4.879 -2.4320 -0.0244  0.2261
 3213SOL    HW221102   0.064   0.121   5.000 -1.4022 -3.4729 -1.2700
 3214SOL     OW21103   2.782   2.084   7.914 -0.5565 -0.7338 -0.1696
 3214SOL    HW121104   2.766   2.036   7.995 -0.5678  0.8253  0.7508
 3214SOL    HW221105   2.712   2.036   7.868  1.4247 -1.9873 -1.8710
 3215SOL     OW21106   2.823   4.510   3.862  0.1981 -0.2844  0.2324
 3215SOL    HW121107   2.897   4.547   3.910 -2.3883  0.7053  3.5026
 3215SOL    HW221108   2.757   4.578   3.849  0.4886 -0.0119  0.2096
 3216SOL     OW21109   3.059   3.016  10.731  0.5424  0.6051  0.3063
 3216SOL    HW121110   3.063   3.045  10.822  1.5641 -3.9177  1.6743
 3216SOL    HW221111   3.141   2.966  10.724  0.2030  0.2514 -1.0832
 3217SOL     OW21112   0.436   0.103  17.474  0.0547  0.0932 -0.0522
 3217SOL    HW121113   0.350   0.143  17.458  0.3297  1.3349  1.5074
 3217SOL    HW221114   0.493   0.180  17.468  1.0401 -0.6164  0.3326
 3218SOL     OW21115   4.321   0.309   8.299  0.5052 -0.2429 -0.0697
 3218SOL    HW121116   4.372   0.295   8.379  1.5977  0.8506 -0.5740
 3218SOL    HW221117   4.380   0.272   8.233  1.6590 -0.5601  1.1343
 3219SOL     OW21118   1.710   2.433  15.153  0.2507  0.4119  0.0574
 3219SOL    HW121119   1.705   2.407  15.061 -1.2233  2.8014 -0.5236
 3219SOL    HW221120   1.803   2.409  15.162 -0.8951 -3.4044  1.8902
 3220SOL     OW21121   3.612   1.114  16.920  0.2309  0.5277  0.4224
 3220SOL    HW121122   3.568   1.095  17.003 -1.8555 -0.4272 -0.9060
 3220SOL    HW221123   3.697   1.083  16.951 -0.4564  1.2050  2.9574
 3221SOL     OW21124   0.377   0.142   5.180 -0.1159 -0.2521 -0.1901
 3221SOL    HW121125   0.318   0.196   5.128  0.3912 -0.5691 -1.0854
 3221SOL    HW221126   0.323   0.075   5.222 -0.6103  1.7560  2.3780
 3222SOL     OW21127   0.974   0.620   8.118 -0.0135 -0.2678  0.0054
 3222SOL    HW121128   0.879   0.630   8.123  0.3781  1.6804  3.3956
 3222SOL    HW221129   0.994   0.713   8.124 -0.2287 -0.2750  0.7399
 3223SOL     OW21130   0.610   1.000   6.704 -0.1029 -0.3296  0.3122
 3223SOL    HW121131   0.571   1.004   6.617  1.6351  1.0808 -0.4219
 3223SOL    HW221132   0.579   1.082   6.742  2.3880  1.5564 -1.7205
 3224SOL     OW21133   1.407   4.675   2.139 -0.0330  0.1278 -0.0606
 3224SOL    HW121134   1.367   4.605   2.087 -1.7540 -0.2588  1.8049
 3224SOL    HW221135   1.449   0.010   2.075 -3.8894  1.1345 -1.6648
 3225SOL     OW21136   3.046   0.707  15.734  0.3054  0.6609 -0.0089
 3225SOL    HW121137   2.961   0.748  15.752  0.8397  1.4675  0.6534
 3225SOL    HW221138   3.028   0.688  15.642  0.2265  0.4274  0.0556
 3226SOL     OW21139   1.354   1.863  10.743  0.0911 -0.5262  0.1636
 3226SOL    HW121140   1.440   1.867  10.701  0.2961 -1.6033  0.4844
 3226SOL    HW221141   1.353   1.773  10.775  2.4808  0.1964  2.2001
 3227SOL     OW21142   2.562   0.350   0.435  0.0924  0.1923 -0.0507
 3227SOL    HW121143   2.543   0.330   0.526  1.6078  1.2875  0.5077
 3227SOL    HW221144   2.508   0.282   0.395 -1.3719  0.7544  0.9959
 3228SOL     OW21145   4.148   4.237   0.500  0.7546  0.1983  0.1068
 3228SOL    HW121146   4.120   4.294   0.571  0.7530 -0.1021  0.3433
 3228SOL    HW221147   4.242   4.243   0.519  0.4067 -1.7255  2.3896
 3229SOL     OW21148   2.968   0.647  10.398 -0.7942 -0.1842 -0.1203
 3229SOL    HW121149   2.921   0.565  10.385  0.3163 -1.0735  1.4136
 3229SOL    HW221150   2.896   0.701  10.365 -0.9297  0.0137  0.4997
 3230SOL     OW21151   2.911   0.765   5.655  0.3878  1.1896  0.0135
 3230SOL    HW121152   2.891   0.849   5.614 -0.6468  1.9762  2.1282
 3230SOL    HW221153   2.823   0.726   5.662  0.2044  1.1742 -2.3173
 3231SOL     OW21154   3.958   1.873   2.553 -0.1151  0.3918 -0.2466
 3231SOL    HW121155   3.948   1.811   2.626  0.5558 -2.9656 -2.9664
 3231SOL    HW221156   3.928   1.955   2.592 -0.3760 -0.5297  1.4769
 3232SOL     OW21157   1.095   2.050   4.308  0.3451  0.2885  0.1382
 3232SOL    HW121158   1.119   2.011   4.392  1.2957  2.3423  0.8303
 3232SOL    HW221159   1.117   2.141   4.328 -1.0269  0.8609 -0.9422
 3233SOL     OW21160   2.295   3.787   8.666 -0.7088  0.0838 -0.0682
 3233SOL    HW121161   2.371   3.776   8.722 -0.1515  0.4347 -0.7457
 3233SOL    HW221162   2.232   3.738   8.718 -1.8968  1.0194 -0.6212
 3234SOL     OW21163   3.613   1.767   4.814  0.9251  0.3073  0.1149
 3234SOL    HW121164   3.563   1.686   4.804  0.2583  0.7262 -0.0157
 3234SOL    HW221165   3.575   1.795   4.897 -2.1552 -2.4634 -0.3173
 3235SOL     OW21166   1.697   0.090   8.468 -0.2087  0.5370  0.1530
 3235SOL    HW121167   1.645   0.020   8.508 -1.3777  2.5201  2.0799
 3235SOL    HW221168   1.631   0.156   8.447 -1.0259 -0.0592  0.8077
 3236SOL     OW21169   2.664   1.159  14.353 -0.2527  0.2379 -0.3990
 3236SOL    HW121170   2.654   1.071  14.389 -0.0055 -0.0211 -0.9727
 3236SOL    HW221171   2.653   1.212  14.432 -1.3184 -0.1477 -0.2837
 3237SOL     OW21172   4.460   2.256  13.781  0.1882 -0.3360 -0.2485
 3237SOL    HW121173   4.372   2.235  13.750  0.3066 -2.3263  0.7389
 3237SOL    HW221174   4.455   2.253  13.877  2.2935  0.9624 -0.0984
 3238SOL     OW21175   1.716   2.579   5.502  0.0242  0.0933 -0.3328
 3238SOL    HW121176   1.719   2.602   5.409  1.7333 -2.8510 -0.9765
 3238SOL    HW221177   1.636   2.620   5.535 -0.1206  1.0248 -1.8265
 3239SOL     OW21178   2.616   1.230   2.377 -0.7618  0.3815  0.5995
 3239SOL    HW121179   2.563   1.249   2.300  0.9210  0.1413 -0.6069
 3239SOL    HW221180   2.660   1.314   2.392 -1.6227  0.5719  2.0438
 3240SOL     OW21181   1.325   0.728   8.194  0.3101 -0.0856 -0.2578
 3240SOL    HW121182   1.357   0.817   8.175  0.2077 -0.4869 -2.3924
 3240SOL    HW221183   1.260   0.750   8.260  1.1170 -1.7719  1.0764
 3241SOL     OW21184   4.397   3.542  12.590 -0.3821 -0.1622 -0.5594
 3241SOL    HW121185   4.461   3.535  12.519  1.4627 -0.7497  1.1451
 3241SOL    HW221186   4.351   3.623  12.568  4.2087  3.5375  3.4214
 3242SOL     OW21187   2.883   4.254   6.362 -0.1635 -0.6116  0.2181
 3242SOL    HW121188   2.907   4.182   6.304  2.2906 -1.0367  1.7527
 3242SOL    HW221189   2.939   4.323   6.327 -1.5317  0.0688 -0.6017
 3243SOL     OW21190   4.268   1.911   8.721  0.4083  0.4492  0.0460
 3243SOL    HW121191   4.228   1.837   8.767 -0.1973  0.4572 -0.4666
 3243SOL    HW221192   4.286   1.957   8.803  3.6625 -1.1712  0.2651
 3244SOL     OW21193   1.822   1.816   1.206 -0.8499 -0.2537  0.1412
 3244SOL    HW121194   1.907   1.819   1.162 -1.6080 -2.6967 -1.4598
 3244SOL    HW221195   1.783   1.738   1.168  3.1025 -1.6522 -1.0060
 3245SOL     OW21196   1.777   4.583   5.641 -0.2877  0.2103 -0.2857
 3245SOL    HW121197   1.745   4.510   5.694  0.2665  0.6803  0.6982
 3245SOL    HW221198   1.779   4.662   5.695  1.9484  0.1058 -0.2282
 3246SOL     OW21199   3.560   4.609   1.143  0.2524  0.2918  0.3640
 3246SOL    HW121200   3.471   4.631   1.117 -0.3511 -1.2217  1.1889
 3246SOL    HW221201   3.569   4.647   1.231 -3.3277 -0.3035  0.9927
 3247SOL     OW21202   2.731   2.996   8.358 -0.0372 -0.0526  0.2685
 3247SOL    HW121203   2.734   2.913   8.311  1.5146  0.9794 -1.4546
 3247SOL    HW221204   2.718   2.955   8.444 -1.8363 -1.0213 -0.4691
 3248SOL     OW21205   2.151   3.653   8.852 -0.2282  0.0605 -0.1408
 3248SOL    HW121206   2.070   3.605   8.871 -1.5928  1.9187 -1.2606
 3248SOL    HW221207   2.197   3.629   8.933  1.9731 -1.5645 -1.8806
 3249SOL     OW21208   4.655   3.054   5.890  0.3497  0.0020 -0.5296
 3249SOL    HW121209   4.619   2.967   5.906 -0.3424 -0.1775 -3.0448
 3249SOL    HW221210   0.010   3.052   5.945  0.1387 -3.3820 -0.3294
 3250SOL     OW21211   1.920   1.699   7.278  0.1924 -0.8804  0.1732
 3250SOL    HW121212   1.997   1.702   7.221 -1.0170 -3.1034 -1.5712
 3250SOL    HW221213   1.937   1.768   7.342  1.2814 -1.5128  0.5619
 3251SOL     OW21214   2.861   1.023   9.106 -0.2983 -0.4859 -0.6068
 3251SOL    HW121215   2.818   1.023   9.021 -0.6424 -0.0595 -0.4293
 3251SOL    HW221216   2.791   1.060   9.159  0.6134  0.4464 -0.0387
 3252SOL     OW21217   2.983   1.504   5.243 -0.0160  0.2099 -0.4978
 3252SOL    HW121218   2.915   1.545   5.296 -0.7693 -0.7229 -0.7533
 3252SOL    HW221219   3.052   1.530   5.304  0.8381 -0.4725 -1.1721
 3253SOL     OW21220   3.872   3.508   7.740 -0.6485 -0.2641  0.3382
 3253SOL    HW121221   3.854   3.431   7.794  0.8453 -1.2365 -0.5458
 3253SOL    HW221222   3.954   3.475   7.703 -1.2180 -2.5752  1.1374
 3254SOL     OW21223   0.798   4.130   5.754 -0.4713  0.2008  0.2523
 3254SOL    HW121224   0.854   4.109   5.680  1.4581  1.7942  1.2362
 3254SOL    HW221225   0.793   4.225   5.768  1.1029  0.4653 -1.0574
 3255SOL     OW21226   3.938   0.825   1.480 -0.2062  0.5294  0.1225
 3255SOL    HW121227   3.892   0.756   1.432  0.0629  1.0011 -0.8034
 3255SOL    HW221228   3.890   0.898   1.440 -0.6502 -0.1264 -0.5422
 3256SOL     OW21229   1.038   2.640   6.238  0.2256 -0.1081 -0.1160
 3256SOL    HW121230   1.105   2.675   6.297  1.6657  0.6626 -2.1868
 3256SOL    HW221231   1.071   2.686   6.161 -2.6820 -1.6205 -2.2623
 3257SOL     OW21232   2.032   1.074  13.432  0.6886  0.1097  0.4303
 3257SOL    HW121233   2.056   1.022  13.356 -1.5765 -1.8602  1.0451
 3257SOL    HW221234   1.993   1.147  13.383 -0.4966 -0.9016 -0.1245
 3258SOL     OW21235   0.105   3.779   6.259 -0.8679  0.4681  0.7991
 3258SOL    HW121236   0.142   3.787   6.172 -0.9189 -3.3344  0.4088
 3258SOL    HW221237   0.081   3.686   6.262  0.6068  0.1151  1.5795
 3259SOL     OW21238   2.333   4.393   0.287 -0.3146  0.6880 -0.4037
 3259SOL    HW121239   2.320   4.346   0.370 -0.5174  1.5291  0.0409
 3259SOL    HW221240   2.363   4.321   0.232 -1.5248  1.5887 -2.2348
 3260SOL     OW21241   2.148   3.240   2.358 -0.2484  0.7724 -0.1351
 3260SOL    HW121242   2.168   3.173   2.423 -0.8192 -0.8298 -1.6316
 3260SOL    HW221243   2.195   3.214   2.278  1.2526  1.7743  0.4137
 3261SOL     OW21244   4.610   1.325   0.932  1.0550 -0.1333 -0.4913
 3261SOL    HW121245   4.611   1.388   0.860 -0.7682  1.1276  0.6005
 3261SOL    HW221246   4.558   1.252   0.898  1.6311 -0.3996 -0.8136
 3262SOL     OW21247   3.823   2.888   7.032  0.0594  0.6456  0.3074
 3262SOL    HW121248   3.818   2.980   7.059 -0.3301 -0.3363  3.4774
 3262SOL    HW221249   3.789   2.843   7.109 -2.2235 -0.4120 -1.2915
 3263SOL     OW21250   0.553   4.137  16.664  0.4578 -0.1693 -0.1597
 3263SOL    HW121251   0.546   4.226  16.700 -0.6245  0.1623 -1.1783
 3263SOL    HW221252   0.557   4.174  16.576  3.1802  2.9269  1.2779
 3264SOL     OW21253   0.841   3.729  14.614  0.5285 -0.7340 -0.3395
 3264SOL    HW121254   0.840   3.818  14.580  1.5670 -0.1080  1.2533
 3264SOL    HW221255   0.876   3.748  14.701  0.3561  3.0767 -1.1248
 3265SOL     OW21256   2.656   2.451   8.496 -0.1300  0.7088  0.1495
 3265SOL    HW121257   2.661   2.478   8.588 -0.1748 -1.3500  0.7709
 3265SOL    HW221258   2.619   2.363   8.503  0.8660  0.1858 -1.0814
 3266SOL     OW21259   3.137   4.502  12.390  0.0477  0.0413 -0.5618
 3266SOL    HW121260   3.200   4.443  12.431  2.4866  0.7426 -3.2568
 3266SOL    HW221261   3.191   4.560  12.335  0.6074 -0.0821 -0.1489
 3267SOL     OW21262   1.872   2.948   4.078 -0.3367  0.0530  0.1195
 3267SOL    HW121263   1.887   2.868   4.028 -0.2938 -0.5025  1.0152
 3267SOL    HW221264   1.920   2.916   4.155 -0.5872  0.8426  0.5963
 3268SOL     OW21265   0.191   3.836   8.503 -0.2407  0.5975  0.0550
 3268SOL    HW121266   0.169   3.898   8.573  2.5378  2.1292 -0.4419
 3268SOL    HW221267   0.106   3.796   8.485  1.1347 -2.6544  0.6876
 3269SOL     OW21268   1.919   2.511   0.353 -0.2624  0.3223  0.1728
 3269SOL    HW121269   1.989   2.523   0.289 -0.1876 -1.0077  0.0111
 3269SOL    HW221270   1.964   2.488   0.434  0.4810  0.3956 -0.2165
 3270SOL     OW21271   2.747   4.266  11.899 -0.0484  0.6186  0.3746
 3270SOL    HW121272   2.750   4.301  11.811 -1.1981  0.8734  0.4365
 3270SOL    HW221273   2.682   4.321  11.944 -0.7458  1.8554 -2.1851
 3271SOL     OW21274   3.605   0.871   9.264  0.9049 -0.1465 -0.5459
 3271SOL    HW121275   3.627   0.797   9.319 -0.3320  0.3747  0.6531
 3271SOL    HW221276   3.593   0.942   9.327 -1.4406 -1.2073  0.1921
 3272SOL     OW21277   4.128   0.861   2.918  0.3281  0.1624 -0.6850
 3272SOL    HW121278   4.195   0.793   2.912 -0.2647 -0.2759 -2.4711
 3272SOL    HW221279   4.103   0.877   2.827  1.4223  0.2988 -0.9537
 3273SOL     OW21280   1.710   1.266   1.283 -0.3148  0.0330 -0.3254
 3273SOL    HW121281   1.802   1.239   1.280  0.0104  0.6584  3.7979
 3273SOL    HW221282   1.722   1.361   1.281  2.3171 -0.3072 -0.7233
 3274SOL     OW21283   2.287   4.196   6.966  0.0361 -0.1897 -0.3207
 3274SOL    HW121284   2.346   4.256   7.012  0.8615 -1.5369  0.3723
 3274SOL    HW221285   2.297   4.117   7.019 -1.1684 -0.8466 -1.0635
 3275SOL     OW21286   0.906   3.579   7.999 -0.6131  0.1885  0.3149
 3275SOL    HW121287   0.936   3.577   7.908  0.1681  1.6124  0.5437
 3275SOL    HW221288   0.880   3.670   8.008  0.2628  0.5416 -0.6788
 3276SOL     OW21289   0.864   3.547  12.625  0.5159 -0.0146  0.3946
 3276SOL    HW121290   0.933   3.608  12.651 -2.3166  3.0982  0.5071
 3276SOL    HW221291   0.901   3.460  12.646  4.6891  1.4786 -0.6980
 3277SOL     OW21292   0.986   0.713  14.663  0.0127  0.9235  0.4271
 3277SOL    HW121293   0.960   0.726  14.754  0.2178  0.5490  0.5351
 3277SOL    HW221294   1.050   0.644  14.677 -0.6638 -0.4289 -3.1418
 3278SOL     OW21295   0.448   1.250   6.830 -0.7271 -0.5211  0.1958
 3278SOL    HW121296   0.412   1.180   6.884 -0.7445 -1.3972 -0.9474
 3278SOL    HW221297   0.473   1.312   6.897  1.4153  1.5220 -2.4967
 3279SOL     OW21298   3.579   1.572  17.062 -0.6395 -0.1428  0.1763
 3279SOL    HW121299   3.536   1.500  17.109 -1.5893 -1.0312 -2.0456
 3279SOL    HW221300   3.650   1.514  17.032  1.6680  1.5062  2.4699
 3280SOL     OW21301   0.262   4.445  15.651  0.0459 -0.3558 -0.1225
 3280SOL    HW121302   0.309   4.523  15.681  1.3248 -0.2782 -2.2521
 3280SOL    HW221303   0.319   4.396  15.591 -1.3724 -1.1541 -0.8107
 3281SOL     OW21304   4.646   2.510   9.553  0.7266  0.0954 -0.0074
 3281SOL    HW121305   4.685   2.455   9.484  1.5148  1.6876 -0.8367
 3281SOL    HW221306   4.560   2.471   9.567  0.2257  0.4165 -2.1522
 3282SOL     OW21307   2.453   3.621   4.693  0.0458 -0.3816  0.1106
 3282SOL    HW121308   2.499   3.601   4.611 -0.0459 -2.6948  0.6319
 3282SOL    HW221309   2.431   3.714   4.686 -1.3896 -0.6239  1.5320
 3283SOL     OW21310   0.640   1.198  14.404  0.2531  0.0589 -0.4822
 3283SOL    HW121311   0.567   1.216  14.463  1.4263  2.8610  0.1074
 3283SOL    HW221312   0.605   1.224  14.319  0.6724  1.7169 -0.1441
 3284SOL     OW21313   4.568   4.076  11.527  0.4448  0.5187  0.2310
 3284SOL    HW121314   4.491   4.020  11.512  1.0238 -0.0953 -0.4653
 3284SOL    HW221315   4.581   4.082  11.622  1.3801 -0.0839  0.1397
 3285SOL     OW21316   1.100   0.757   8.667  0.3220 -0.9392 -0.1957
 3285SOL    HW121317   1.142   0.681   8.707 -0.0532 -0.5929  0.8333
 3285SOL    HW221318   1.046   0.788   8.739  0.3026 -0.7570 -0.2864
 3286SOL     OW21319   0.514   3.800  10.819  0.4267 -0.4377 -0.0278
 3286SOL    HW121320   0.501   3.877  10.763  0.7297 -0.1957  0.2259
 3286SOL    HW221321   0.473   3.736  10.762  0.2148  0.9472 -1.4201
 3287SOL     OW21322   2.884   2.705  13.059  0.0767 -0.4131  0.2192
 3287SOL    HW121323   2.844   2.770  13.116  0.8120 -1.6478  2.1492
 3287SOL    HW221324   2.969   2.747  13.047 -0.5810  0.3210 -1.7850
 3288SOL     OW21325   2.514   0.305   6.249 -0.0213  0.1026  0.0608
 3288SOL    HW121326   2.587   0.358   6.281  0.7275 -0.1425 -1.2677
 3288SOL    HW221327   2.549   0.256   6.175  0.3204 -0.0498  0.3263
 3289SOL     OW21328   2.319   4.002   8.296 -0.1011 -0.5256 -0.0382
 3289SOL    HW121329   2.254   4.055   8.249 -0.6729 -0.4178  0.8562
 3289SOL    HW221330   2.301   4.030   8.386 -2.8497 -1.9957 -0.1126
 3290SOL     OW21331   3.127   1.634   3.779 -0.1795  0.1188 -0.3043
 3290SOL    HW121332   3.193   1.571   3.751 -0.2815  0.6080 -1.6432
 3290SOL    HW221333   3.103   1.596   3.863  0.8245 -0.4409 -0.2865
 3291SOL     OW21334   0.207   0.867   1.474  0.5381  0.1663  0.0467
 3291SOL    HW121335   0.258   0.945   1.497  0.3239  0.6277 -1.0494
 3291SOL    HW221336   0.148   0.918   1.418 -1.1006 -1.2035  0.5426
 3292SOL     OW21337   4.651   2.649   5.025 -0.2226  0.2356  0.1769
 3292SOL    HW121338   4.697   2.602   4.956  0.2763  1.3798 -0.2625
 3292SOL    HW221339   4.681   2.739   5.014  1.2887 -0.1314  1.3744
 3293SOL     OW21340   4.011   2.321   0.048 -0.7008 -0.3147 -0.2266
 3293SOL    HW121341   3.991   2.229   0.063  0.7429 -0.5163  0.4445
 3293SOL    HW221342   4.094   2.319   0.095 -1.3593 -0.4740  0.9366
 3294SOL     OW21343   4.368   2.989   6.444  0.2769  0.3668  0.3342
 3294SOL    HW121344   4.439   3.037   6.402  0.6232 -0.6036 -0.1914
 3294SOL    HW221345   4.359   2.909   6.392  1.3243  0.4588  0.0194
 3295SOL     OW21346   4.171   4.348   2.732  0.0203 -0.3279 -0.2311
 3295SOL    HW121347   4.110   4.416   2.761  1.1647  1.5660 -2.2858
 3295SOL    HW221348   4.113   4.274   2.711 -2.7135  1.3275  1.4444
 3296SOL     OW21349   3.997   3.824   7.991  0.2927 -0.0774  0.3211
 3296SOL    HW121350   4.008   3.734   8.021 -0.2866 -1.4040 -3.3826
 3296SOL    HW221351   3.970   3.808   7.901  2.4506  4.9132 -1.2491
 3297SOL     OW21352   1.651   2.326  15.392  0.1476 -0.2901 -0.2099
 3297SOL    HW121353   1.627   2.235  15.374  2.5528 -1.0000  0.2705
 3297SOL    HW221354   1.645   2.365  15.305  0.9977 -2.1325 -1.0875
 3298SOL     OW21355   4.374   1.662   8.622 -0.0657  0.2168  0.7486
 3298SOL    HW121356   4.452   1.677   8.568  0.4417  0.3690  1.5217
 3298SOL    HW221357   4.338   1.750   8.633  1.4492  1.1353 -1.4271
 3299SOL     OW21358   1.727   3.403  12.928 -0.3463  0.2629 -0.6562
 3299SOL    HW121359   1.812   3.358  12.931 -1.8474 -2.5490 -0.7869
 3299SOL    HW221360   1.740   3.486  12.975  0.8135 -0.2970  0.0136
 3300SOL     OW21361   0.893   1.353   8.151 -0.8731 -0.7750  0.5208
 3300SOL    HW121362   0.965   1.323   8.095 -1.1471 -0.7238  0.1451
 3300SOL    HW221363   0.913   1.324   8.240 -0.7375  1.2787  1.1818
 3301SOL     OW21364   0.298   2.619  16.965 -0.3038  0.7089 -0.6369
 3301SOL    HW121365   0.283   2.582  16.877  1.1223  0.6774 -0.8622
 3301SOL    HW221366   0.315   2.712  16.949  2.3460  0.7414  2.4521
 3302SOL     OW21367   0.912   2.453   9.647  0.1828  0.1621  0.3279
 3302SOL    HW121368   0.982   2.459   9.581 -0.1411  1.2476  0.0683
 3302SOL    HW221369   0.878   2.542   9.637  1.6836  0.5016 -2.0171
 3303SOL     OW21370   2.907   3.953  17.357  0.2915  0.1404  0.6135
 3303SOL    HW121371   2.907   3.858  17.368  1.4494  0.1747  0.8783
 3303SOL    HW221372   2.988   3.980  17.399 -0.1886  0.6855  1.1984
 3304SOL     OW21373   3.107   2.380   6.688  0.6056 -0.5967 -0.4842
 3304SOL    HW121374   3.064   2.413   6.767 -1.1735 -2.5361 -0.6568
 3304SOL    HW221375   3.043   2.314   6.663  0.0164 -0.3120  0.2837
 3305SOL     OW21376   0.802   3.369   2.724 -0.0091  0.3745  0.3908
 3305SOL    HW121377   0.873   3.432   2.732  0.0358  0.3596  0.1036
 3305SOL    HW221378   0.761   3.399   2.643  0.8689 -1.8050 -0.8640
 3306SOL     OW21379   2.692   3.179   1.069  0.3558 -0.1250 -0.9331
 3306SOL    HW121380   2.623   3.230   1.026 -0.6573 -1.1798 -0.5606
 3306SOL    HW221381   2.765   3.213   1.018  0.7696 -0.5162 -0.6034
 3307SOL     OW21382   1.919   1.748  15.411 -0.2663 -0.3876 -1.0705
 3307SOL    HW121383   1.856   1.693  15.458  0.6788  0.0225  0.6816
 3307SOL    HW221384   1.892   1.831  15.452  0.9977  0.4166 -1.8823
 3308SOL     OW21385   1.129   0.284   8.553 -0.2611  0.5201 -0.2727
 3308SOL    HW121386   1.072   0.271   8.629 -2.5007  0.7367 -1.8995
 3308SOL    HW221387   1.069   0.330   8.494  0.0396 -0.5890 -1.4297
 3309SOL     OW21388   4.142   3.589   1.789  0.2961 -0.4766 -0.8127
 3309SOL    HW121389   4.204   3.560   1.856  0.5853 -1.1501 -1.3881
 3309SOL    HW221390   4.062   3.544   1.817  0.2660  1.6116  2.5052
 3310SOL     OW21391   1.923   0.464   2.915  0.2423 -0.1104  0.5103
 3310SOL    HW121392   1.839   0.438   2.951  0.3274 -0.2553  0.5993
 3310SOL    HW221393   1.930   0.560   2.919 -2.3297  0.1600 -1.7677
 3311SOL     OW21394   4.093   1.225  10.991  0.1736  0.6415  0.4512
 3311SOL    HW121395   4.054   1.141  11.013 -3.5972  1.9954 -1.0486
 3311SOL    HW221396   4.027   1.283  11.031 -0.4413  0.6610 -0.5977
 3312SOL     OW21397   2.028   0.584  17.692 -0.4724 -0.4645 -0.2001
 3312SOL    HW121398   1.980   0.527   0.056  1.4287  0.2849  1.9838
 3312SOL    HW221399   1.987   0.572  17.606 -1.9538 -0.2194  0.4782
 3313SOL     OW21400   1.063   1.198   3.471 -0.0219  0.0826 -0.3421
 3313SOL    HW121401   1.021   1.157   3.395  1.4485 -0.4164 -0.8932
 3313SOL    HW221402   1.079   1.280   3.424 -1.1108  0.6837  0.3368
 3314SOL     OW21403   3.650   4.712   3.026 -0.3572  1.2286  0.7424
 3314SOL    HW121404   3.646   0.071   2.978 -2.2889  1.3075  1.0318
 3314SOL    HW221405   3.743   4.703   3.045  0.3495 -0.3858 -3.6626
 3315SOL     OW21406   2.838   0.347  10.813 -0.3503  0.2202 -0.1150
 3315SOL    HW121407   2.790   0.285  10.759  0.0660 -0.3712  0.1845
 3315SOL    HW221408   2.774   0.358  10.883 -1.1064 -1.0740 -0.6067
 3316SOL     OW21409   2.042   1.524   0.793 -0.2970  0.3031  0.3999
 3316SOL    HW121410   1.966   1.582   0.803 -0.9190 -0.4121 -0.2473
 3316SOL    HW221411   2.063   1.515   0.886 -2.1188  2.1146  1.0090
 3317SOL     OW21412   2.482   3.967   3.043 -0.3283 -0.5429 -0.4631
 3317SOL    HW121413   2.551   3.946   2.980  0.8066  1.6346  0.0333
 3317SOL    HW221414   2.432   4.042   3.011  1.3023 -0.2822 -2.3864
 3318SOL     OW21415   4.010   0.859   6.863 -0.0245  0.8071  0.0061
 3318SOL    HW121416   4.065   0.864   6.785 -2.1850 -1.7610 -1.6892
 3318SOL    HW221417   3.933   0.913   6.844  0.1455  1.0172 -0.0884
 3319SOL     OW21418   1.799   0.717   6.648  0.4934  0.4973 -0.1120
 3319SOL    HW121419   1.826   0.809   6.656 -0.4996  0.8646 -0.9489
 3319SOL    HW221420   1.782   0.719   6.553 -1.4365 -0.2337  0.2229
 3320SOL     OW21421   4.498   0.756  13.759 -0.6526 -0.0269 -0.0925
 3320SOL    HW121422   4.512   0.779  13.851 -1.9954 -2.2315  0.6485
 3320SOL    HW221423   4.521   0.664  13.749  2.0768  0.6281  0.0892
 3321SOL     OW21424   0.329   4.527   2.163  0.2021  0.7942  0.3048
 3321SOL    HW121425   0.254   4.586   2.172 -0.5495 -0.4406  2.1236
 3321SOL    HW221426   0.404   4.587   2.162  0.3122  0.6799  2.2530
 3322SOL     OW21427   0.791   1.933   5.252  0.0674 -0.3713  0.3508
 3322SOL    HW121428   0.712   1.883   5.275 -1.0639  0.4227 -1.8333
 3322SOL    HW221429   0.814   1.989   5.327 -0.0773  0.0535  0.0755
 3323SOL     OW21430   2.182   4.671   6.870 -0.0976  0.4741  0.2632
 3323SOL    HW121431   2.158   4.579   6.875  1.4227  0.1393  1.4939
 3323SOL    HW221432   2.250   4.677   6.938 -0.3446 -0.3985  0.5866
 3324SOL     OW21433   2.897   4.717   5.030 -0.0766  0.0639 -0.3171
 3324SOL    HW121434   2.835   0.055   4.992 -1.2251 -1.2683 -0.5931
 3324SOL    HW221435   2.850   4.646   5.073 -0.9459  1.7051  1.4482
 3325SOL     OW21436   2.202   4.655   7.263  0.4652  0.0697  0.2181
 3325SOL    HW121437   2.203   4.599   7.341  1.1425 -0.5549 -0.2397
 3325SOL    HW221438   2.273   4.616   7.213 -0.9334  0.1136 -1.8058
 3326SOL     OW21439   1.199   3.190   6.167  0.4337  0.0355  0.4002
 3326SOL    HW121440   1.139   3.152   6.231  0.5758 -0.2476  0.3694
 3326SOL    HW221441   1.135   3.242   6.119  0.1523  0.4253  1.2175
 3327SOL     OW21442   4.611   0.517  13.757  0.2773  0.6207 -0.3924
 3327SOL    HW121443   4.689   0.462  13.762 -0.8738 -0.9894 -0.1062
 3327SOL    HW221444   4.538   0.457  13.744  0.5143 -0.1178  1.5820
 3328SOL     OW21445   2.129   0.099   2.767 -0.3291  0.1738 -0.3375
 3328SOL    HW121446   2.203   0.080   2.709 -0.7545  0.2003 -0.8870
 3328SOL    HW221447   2.085   0.014   2.778  1.1856 -0.7746 -1.5088
 3329SOL     OW21448   0.716   2.887   3.053 -0.6215  0.0585  0.0990
 3329SOL    HW121449   0.642   2.869   2.995  2.6496 -0.1956 -3.9770
 3329SOL    HW221450   0.723   2.981   3.039 -0.0816 -0.3626 -2.4677
 3330SOL     OW21451   4.208   3.305   3.806 -0.0416 -0.2854 -0.0637
 3330SOL    HW121452   4.147   3.324   3.877  0.4006 -1.4187  0.6179
 3330SOL    HW221453   4.261   3.385   3.804  0.6623 -0.6804  2.7417
 3331SOL     OW21454   4.366   1.194   1.897  0.2837  0.4958  0.1327
 3331SOL    HW121455   4.297   1.244   1.854  1.1783  1.2579 -0.3958
 3331SOL    HW221456   4.411   1.159   1.820  1.7614 -0.7828  1.5894
 3332SOL     OW21457   1.364   1.417   4.193 -0.0600  0.5153 -0.2234
 3332SOL    HW121458   1.414   1.480   4.245  2.0238  1.1642 -3.0587
 3332SOL    HW221459   1.296   1.402   4.259 -0.8606 -2.6658 -1.7818
 3333SOL     OW21460   2.311   0.418   4.720 -0.3403  1.3506 -0.9041
 3333SOL    HW121461   2.352   0.420   4.633 -0.7906 -1.5647 -1.1938
 3333SOL    HW221462   2.229   0.371   4.703  2.0494 -3.1791  0.2250
 3334SOL     OW21463   0.844   3.522  15.169 -0.4898 -0.6372  0.1675
 3334SOL    HW121464   0.767   3.467  15.183 -1.2073  0.3647  0.1264
 3334SOL    HW221465   0.814   3.611  15.184 -1.0206 -0.6033 -1.0722
 3335SOL     OW21466   0.205   2.258   5.557 -0.5724 -0.1498  0.2171
 3335SOL    HW121467   0.209   2.212   5.640 -1.3253  0.0772  0.3846
 3335SOL    HW221468   0.259   2.200   5.504  0.9222  3.5044 -2.2369
 3336SOL     OW21469   0.285   0.796   7.258  0.5681 -0.1535 -0.9458
 3336SOL    HW121470   0.339   0.838   7.324  0.5036 -0.7727 -0.4948
 3336SOL    HW221471   0.344   0.780   7.184  1.2833 -0.0697 -0.3828
 3337SOL     OW21472   4.127   0.797   0.114  0.0088  0.3755 -0.1365
 3337SOL    HW121473   4.154   0.734   0.047 -0.8202  0.5700 -0.6593
 3337SOL    HW221474   4.057   0.747   0.156 -0.8724  1.2296 -0.5861
 3338SOL     OW21475   0.043   2.927   8.377  0.4080  0.1849 -0.5780
 3338SOL    HW121476   0.043   2.858   8.443  0.0215 -0.1251 -0.8987
 3338SOL    HW221477   4.703   2.989   8.413 -0.9468 -0.9953 -0.9322
 3339SOL     OW21478   4.634   1.750   3.981 -0.0208 -0.4184 -0.1215
 3339SOL    HW121479   4.702   1.791   3.927  1.2070 -1.4003  0.6738
 3339SOL    HW221480   4.590   1.827   4.017  0.1889 -2.0842  3.6121
 3340SOL     OW21481   3.856   4.219   0.592  0.2918 -0.4412 -0.2521
 3340SOL    HW121482   3.855   4.248   0.684 -3.4187  2.7373 -1.2850
 3340SOL    HW221483   3.872   4.307   0.556 -2.4064 -0.3913 -1.3330
 3341SOL     OW21484   2.412   1.190  15.679  0.4331  0.2745  0.2914
 3341SOL    HW121485   2.484   1.199  15.741  2.0010 -0.9426 -1.3679
 3341SOL    HW221486   2.394   1.283  15.666 -0.6407 -0.0876 -0.8479
 3342SOL     OW21487   3.833   1.805   5.295 -0.0504 -0.0653 -0.4191
 3342SOL    HW121488   3.764   1.747   5.265  0.3226 -0.5492 -0.3493
 3342SOL    HW221489   3.886   1.748   5.351 -1.6511  1.1433  2.3199
 3343SOL     OW21490   4.212   2.267  15.854 -0.2610 -0.4015  0.1692
 3343SOL    HW121491   4.214   2.235  15.945  0.5836 -0.0959  0.2633
 3343SOL    HW221492   4.215   2.181  15.812 -0.3318  0.1619 -0.9888
 3344SOL     OW21493   0.329   1.025   2.173  0.4483  0.0554 -0.3549
 3344SOL    HW121494   0.254   1.071   2.137  0.1581 -0.1952 -0.0699
 3344SOL    HW221495   0.347   0.946   2.123 -0.6353  1.3668 -2.7645
 3345SOL     OW21496   1.797   1.178   2.290  0.0338  0.1900 -0.0308
 3345SOL    HW121497   1.702   1.191   2.288 -0.1830 -1.2272  1.3834
 3345SOL    HW221498   1.808   1.084   2.306  1.3090 -0.3145 -3.6394
 3346SOL     OW21499   4.476   0.322  11.796  1.0132 -0.0273  0.1970
 3346SOL    HW121500   4.540   0.392  11.809 -1.0502  2.0729 -1.0643
 3346SOL    HW221501   4.429   0.334  11.879  0.3118 -0.7161 -0.1042
 3347SOL     OW21502   2.060   2.354   9.116 -0.2914 -0.6495  0.1326
 3347SOL    HW121503   2.068   2.325   9.206  0.0608  0.0632  0.3371
 3347SOL    HW221504   2.029   2.445   9.117  2.6069  0.3743 -0.7377
 3348SOL     OW21505   0.235   0.957   4.400  0.1385 -0.8030  0.0072
 3348SOL    HW121506   0.241   0.913   4.315 -1.1038 -2.6439  0.8792
 3348SOL    HW221507   0.209   1.044   4.368  2.7721  0.2260  0.6201
 3349SOL     OW21508   0.187   4.326   0.696  0.4600 -0.7201  0.6494
 3349SOL    HW121509   0.120   4.285   0.641  0.9386 -0.5719 -0.0476
 3349SOL    HW221510   0.151   4.412   0.716 -1.7499 -2.1409  2.8034
 3350SOL     OW21511   0.150   2.647   8.974  0.0568 -0.6968 -0.0843
 3350SOL    HW121512   0.115   2.563   9.004 -0.3691 -0.3876  0.2929
 3350SOL    HW221513   0.065   2.684   8.948 -0.1556 -1.6196 -0.6949
 3351SOL     OW21514   2.469   2.814   8.960  0.2184 -0.0709  0.3487
 3351SOL    HW121515   2.451   2.906   8.980 -0.6183 -0.1597  0.0122
 3351SOL    HW221516   2.395   2.798   8.902  0.3312 -0.4310  0.3022
 3352SOL     OW21517   0.720   1.194   7.770  0.1029 -0.1291 -0.5907
 3352SOL    HW121518   0.665   1.117   7.781  1.8228 -1.3994 -0.9460
 3352SOL    HW221519   0.654   1.262   7.758  0.8862  0.8693  0.7082
 3353SOL     OW21520   1.548   3.705  13.370 -0.2090  0.2380  0.1170
 3353SOL    HW121521   1.453   3.713  13.374 -0.0704  2.7577 -1.0876
 3353SOL    HW221522   1.569   3.798  13.358 -1.5758  0.7699  1.8153
 3354SOL     OW21523   2.788   3.164   5.904 -0.0926  0.1280  0.8384
 3354SOL    HW121524   2.861   3.220   5.881  1.2560 -1.4819  1.2192
 3354SOL    HW221525   2.839   3.089   5.936 -1.9124 -2.2230 -1.6804
 3355SOL     OW21526   4.401   0.420   3.159  0.7348  0.2252 -0.1193
 3355SOL    HW121527   4.334   0.381   3.103 -0.7674  0.6309  1.3992
 3355SOL    HW221528   4.457   0.347   3.186 -0.4303 -0.8177 -0.5306
 3356SOL     OW21529   2.157   1.885   8.403  0.0501 -0.0441  0.1038
 3356SOL    HW121530   2.096   1.814   8.387  0.4357 -0.0757 -1.2490
 3356SOL    HW221531   2.227   1.828   8.435  0.8473  1.0455  0.3135
 3357SOL     OW21532   3.216   1.689  14.750 -0.1053  0.3917  0.2907
 3357SOL    HW121533   3.157   1.635  14.803  1.4205 -1.7769 -0.1968
 3357SOL    HW221534   3.279   1.623  14.722 -0.9196 -1.1047  1.9625
 3358SOL     OW21535   0.546   0.308   4.506 -0.5265  0.2167 -0.3975
 3358SOL    HW121536   0.542   0.321   4.601 -1.7236 -2.6015 -0.0643
 3358SOL    HW221537   0.466   0.353   4.476 -0.3817  0.0799 -0.9976
 3359SOL     OW21538   3.537   3.936  15.049  0.0378  0.1259  0.3682
 3359SOL    HW121539   3.618   3.977  15.079 -0.8780  0.2504  2.6122
 3359SOL    HW221540   3.525   3.973  14.961 -2.0300  0.5125  0.8197
 3360SOL     OW21541   3.320   2.211   5.150 -0.2714  0.0525 -0.0150
 3360SOL    HW121542   3.396   2.228   5.095  1.8007 -3.9988  1.5716
 3360SOL    HW221543   3.350   2.145   5.213 -1.7013 -0.1635  0.4354
 3361SOL     OW21544   3.182   1.295   7.483 -0.2688 -0.0865  0.5100
 3361SOL    HW121545   3.096   1.288   7.441 -1.0273 -2.7444  2.5381
 3361SOL    HW221546   3.190   1.207   7.521 -4.4265  0.1373  1.8850
 3362SOL     OW21547   4.056   0.531  17.458 -0.0709  0.4887 -0.6532
 3362SOL    HW121548   4.115   0.463  17.490 -1.1410  0.2880  0.9414
 3362SOL    HW221549   4.000   0.541  17.535  1.0904 -0.3509  0.2961
 3363SOL     OW21550   2.665   4.065  12.784  0.7291 -0.0292 -0.2707
 3363SOL    HW121551   2.696   4.139  12.730  1.3543  1.5801  2.2994
 3363SOL    HW221552   2.745   4.028  12.823  0.1662  0.4934  1.3720
 3364SOL     OW21553   1.172   2.016   9.051 -0.2556 -0.2901 -0.0911
 3364SOL    HW121554   1.252   2.056   9.015 -0.2467  1.0253  1.4218
 3364SOL    HW221555   1.197   1.936   9.098 -1.2164  0.2818  1.3660
 3365SOL     OW21556   3.709   3.277   0.142  0.2133  0.6133  0.0412
 3365SOL    HW121557   3.655   3.334   0.087 -2.2044  0.3313  2.1036
 3365SOL    HW221558   3.670   3.270   0.229 -0.9975 -0.8326 -0.5985
 3366SOL     OW21559   1.815   1.391   9.314  0.7607  0.3169  0.1936
 3366SOL    HW121560   1.750   1.398   9.244 -0.8707 -2.5023  1.4548
 3366SOL    HW221561   1.872   1.324   9.277  0.3646 -0.8146  1.6262
 3367SOL     OW21562   3.737   0.816  17.346  0.9294 -0.0480  0.0012
 3367SOL    HW121563   3.658   0.815  17.399  0.7606  0.3975 -0.2405
 3367SOL    HW221564   3.751   0.721  17.352 -0.4883 -0.2228  0.5327
 3368SOL     OW21565   2.214   1.669   5.502 -0.3100  0.0414  0.3911
 3368SOL    HW121566   2.182   1.648   5.590  1.5190  0.3558  1.1454
 3368SOL    HW221567   2.169   1.753   5.494  0.1059  0.4801  2.4768
 3369SOL     OW21568   4.321   3.850   7.619  0.2540  0.1572  0.4698
 3369SOL    HW121569   4.411   3.848   7.652  1.6332 -1.8383 -3.4034
 3369SOL    HW221570   4.337   3.850   7.525 -1.7316 -0.8279  0.1412
 3370SOL     OW21571   2.507   1.780   9.197 -0.3683 -0.3320 -0.5620
 3370SOL    HW121572   2.526   1.832   9.276  1.9427 -1.0817 -0.6301
 3370SOL    HW221573   2.554   1.833   9.133  2.0922  0.9059  2.2936
 3371SOL     OW21574   3.619   1.773   3.180 -0.5466  0.6071 -0.1996
 3371SOL    HW121575   3.584   1.860   3.199  0.4944  1.4020 -1.8430
 3371SOL    HW221576   3.714   1.784   3.186 -0.5441 -0.4792  1.4858
 3372SOL     OW21577   2.224   2.194  14.194  0.7364 -0.0098 -0.4101
 3372SOL    HW121578   2.193   2.266  14.248  2.5188  1.4800 -1.3912
 3372SOL    HW221579   2.149   2.163  14.142  1.3937  0.0752 -1.4196
 3373SOL     OW21580   4.268   1.705  10.517  0.0437  0.2280  0.1144
 3373SOL    HW121581   4.266   1.767  10.590  0.6149  2.9218 -2.1640
 3373SOL    HW221582   4.326   1.736  10.448  1.8594  0.3992  1.7180
 3374SOL     OW21583   1.770   3.812   2.759 -0.2981  0.0895 -0.6503
 3374SOL    HW121584   1.808   3.899   2.745 -1.2788  0.7713  0.9435
 3374SOL    HW221585   1.787   3.773   2.673  0.3787 -0.9830 -0.0318
 3375SOL     OW21586   4.331   2.209   6.497  1.3421 -0.0112  0.5196
 3375SOL    HW121587   4.251   2.260   6.488  0.5268 -1.2225  1.0295
 3375SOL    HW221588   4.299   2.121   6.514 -0.2784  0.1259 -1.8292
 3376SOL     OW21589   0.602   2.599   3.164  0.2168 -0.7001  0.3814
 3376SOL    HW121590   0.583   2.604   3.070 -1.0877 -0.5357  0.6624
 3376SOL    HW221591   0.692   2.568   3.154  0.9567  1.4128  0.4384
 3377SOL     OW21592   3.482   0.983   5.274 -0.0573 -0.4807  0.1427
 3377SOL    HW121593   3.466   0.969   5.181  2.9842 -0.2621 -0.3896
 3377SOL    HW221594   3.553   1.047   5.275 -1.2037  0.7865 -1.2578
 3378SOL     OW21595   0.708   1.580  16.074 -0.0843  0.3444  0.0277
 3378SOL    HW121596   0.788   1.583  16.021  1.0320  1.9946  1.7521
 3378SOL    HW221597   0.737   1.626  16.153 -0.8203 -0.0359  0.5141
 3379SOL     OW21598   3.086   0.229  12.394 -0.0354  0.0041 -0.1509
 3379SOL    HW121599   3.143   0.201  12.322 -1.3019 -1.7014 -0.5046
 3379SOL    HW221600   3.133   0.203  12.473 -1.9815  0.6996  1.2423
 3380SOL     OW21601   2.125   2.435   6.615 -0.0711 -0.9071 -0.3025
 3380SOL    HW121602   2.196   2.404   6.672 -0.8578 -1.8388  0.1777
 3380SOL    HW221603   2.090   2.353   6.582 -0.3424 -0.6315 -0.6922
 3381SOL     OW21604   2.307   0.503  12.564 -0.1999  0.1541  0.3458
 3381SOL    HW121605   2.348   0.587  12.585  0.7331  0.2972 -2.0545
 3381SOL    HW221606   2.380   0.442  12.553  0.3840  0.5513  2.0092
 3382SOL     OW21607   2.277   0.933   4.360 -0.0854 -0.5310 -0.3047
 3382SOL    HW121608   2.295   0.896   4.273 -1.4968  0.6966 -1.0989
 3382SOL    HW221609   2.247   1.020   4.338 -0.4947 -0.3525  1.0063
 3383SOL     OW21610   0.948   4.401   8.141 -0.2466  0.5063  0.0929
 3383SOL    HW121611   0.922   4.423   8.051  1.1534  0.0503 -0.4090
 3383SOL    HW221612   0.912   4.482   8.177  0.2192 -0.3070  2.3422
 3384SOL     OW21613   3.105   1.158   7.953 -0.4238 -0.2369 -0.2500
 3384SOL    HW121614   3.073   1.085   8.007 -0.1133  0.7033  1.2132
 3384SOL    HW221615   3.108   1.231   8.014 -1.8379 -0.6579  0.3129
 3385SOL     OW21616   4.002   0.344   9.672 -0.2640 -0.0759  0.2284
 3385SOL    HW121617   3.959   0.358   9.756 -1.8776 -2.4345 -0.1834
 3385SOL    HW221618   3.990   0.250   9.654 -0.7790  0.3214 -1.5755
 3386SOL     OW21619   3.352   0.016  15.025 -0.3058  0.7811  0.4345
 3386SOL    HW121620   3.331   0.074  14.951 -2.1228 -0.9407 -0.3879
 3386SOL    HW221621   3.369   4.655  14.983 -0.3062  0.8548  0.2848
 3387SOL     OW21622   4.104   0.309  10.700 -0.1697 -0.2017  0.2127
 3387SOL    HW121623   4.049   0.375  10.742 -0.0893  0.0404 -0.0679
 3387SOL    HW221624   4.124   0.360  10.622  0.4236 -2.7517 -1.3007
 3388SOL     OW21625   0.641   3.964   0.295 -0.4234 -0.2491  0.5779
 3388SOL    HW121626   0.577   4.010   0.241 -2.3391 -2.2614  1.1792
 3388SOL    HW221627   0.609   3.979   0.384 -3.3728  1.5847 -0.8094
 3389SOL     OW21628   1.253   0.534  16.391 -0.3079  0.3586 -1.1561
 3389SOL    HW121629   1.274   0.624  16.416 -0.9303 -0.1927  1.3630
 3389SOL    HW221630   1.343   0.503  16.381 -0.0442  0.1670  2.0245
 3390SOL     OW21631   1.731   2.107   5.910 -0.3936 -0.1124 -0.1091
 3390SOL    HW121632   1.772   2.148   5.833 -0.0246 -2.7582 -1.3295
 3390SOL    HW221633   1.807   2.084   5.962 -0.9212  0.3105  0.8513
 3391SOL     OW21634   3.842   3.519   1.544  0.7030 -0.3730  0.4631
 3391SOL    HW121635   3.758   3.560   1.566  1.9875  1.9709  0.8557
 3391SOL    HW221636   3.827   3.499   1.451  2.4370 -0.5138  0.2185
 3392SOL     OW21637   1.827   3.777   7.494 -0.1743 -0.7396  0.1469
 3392SOL    HW121638   1.736   3.754   7.513 -0.3051  1.1423  1.7737
 3392SOL    HW221639   1.868   3.712   7.551 -0.9980 -3.9605 -2.9108
 3393SOL     OW21640   0.741   4.581   8.961  0.3221 -0.2746 -0.4672
 3393SOL    HW121641   0.750   4.488   8.937  2.2283 -0.5403  1.2417
 3393SOL    HW221642   0.646   4.590   8.961  0.4372  0.9161 -1.8991
 3394SOL     OW21643   3.032   1.858  12.853 -0.6020 -0.4181 -0.9741
 3394SOL    HW121644   3.084   1.806  12.793  1.0258  0.2300 -0.1288
 3394SOL    HW221645   3.058   1.944  12.821  0.2400 -0.9092 -1.5965
 3395SOL     OW21646   1.361   1.010   7.365  0.1250  0.1076  0.2500
 3395SOL    HW121647   1.367   0.934   7.423 -0.8676 -0.0907  0.0855
 3395SOL    HW221648   1.360   1.082   7.427 -0.2038 -2.2805  2.9990
 3396SOL     OW21649   2.902   1.853   1.831 -0.0847 -0.0596  0.2856
 3396SOL    HW121650   2.913   1.758   1.832 -0.2096 -0.0848 -0.4933
 3396SOL    HW221651   2.979   1.875   1.884 -0.3084 -0.4736  0.7708
 3397SOL     OW21652   0.731   0.682   8.497 -0.4400  0.1969  0.1689
 3397SOL    HW121653   0.641   0.675   8.465 -0.1836 -1.9728 -0.0929
 3397SOL    HW221654   0.724   0.766   8.543 -2.9022 -0.0088  0.1635
 3398SOL     OW21655   2.222   2.862  13.992 -0.1169 -0.4355 -0.4037
 3398SOL    HW121656   2.281   2.810  13.937 -0.1804 -0.9723  0.0434
 3398SOL    HW221657   2.215   2.935  13.930 -0.6304  0.6549  0.9402
 3399SOL     OW21658   3.234   1.526  15.024  0.2357  0.1315  0.4580
 3399SOL    HW121659   3.287   1.601  14.997  1.2823 -2.2194 -4.0437
 3399SOL    HW221660   3.212   1.547  15.114  2.1400 -2.4554  1.5258
 3400SOL     OW21661   3.561   0.371   6.118 -0.1160 -0.1491 -0.1052
 3400SOL    HW121662   3.553   0.460   6.151 -0.3890 -1.1685  2.6242
 3400SOL    HW221663   3.583   0.384   6.026 -1.5125  3.0013  0.0298
 3401SOL     OW21664   3.271   2.399  10.199 -0.8148  0.0462 -0.7222
 3401SOL    HW121665   3.186   2.442  10.196  0.6296  2.8669 -1.4539
 3401SOL    HW221666   3.265   2.321  10.143 -1.3969 -2.0014  2.1647
 3402SOL     OW21667   2.779   3.804  16.168  0.1835 -0.6307  0.4363
 3402SOL    HW121668   2.850   3.798  16.104  0.1918  0.5135  0.3384
 3402SOL    HW221669   2.808   3.874  16.226 -1.4846 -0.1425  0.6805
 3403SOL     OW21670   2.596   2.182  10.219  0.1523  0.0927  0.1244
 3403SOL    HW121671   2.622   2.274  10.216 -2.4522  0.7895 -1.6103
 3403SOL    HW221672   2.566   2.180  10.310 -2.8237  1.6174 -0.7943
 3404SOL     OW21673   3.652   1.708   8.239 -0.2263 -0.0242  0.2968
 3404SOL    HW121674   3.702   1.714   8.320 -0.6544 -0.6981  0.6166
 3404SOL    HW221675   3.612   1.795   8.236  0.8197  0.4079 -0.9476
 3405SOL     OW21676   0.041   0.431   3.113 -0.4343 -0.2380 -0.0039
 3405SOL    HW121677   4.690   0.470   3.067 -0.1438  0.7936  0.3999
 3405SOL    HW221678   0.074   0.506   3.162  1.7074  0.5656 -2.6087
 3406SOL     OW21679   3.807   3.597  12.681  0.2846 -0.1127  0.9926
 3406SOL    HW121680   3.773   3.567  12.597  0.8996 -0.7414  0.9679
 3406SOL    HW221681   3.897   3.564  12.678 -0.2556 -1.7426  3.5243
 3407SOL     OW21682   4.465   2.519   6.417  0.5447  0.0661 -0.1473
 3407SOL    HW121683   4.467   2.424   6.423  0.2043  0.0399 -0.4769
 3407SOL    HW221684   4.558   2.540   6.424  0.5162  0.3091 -0.4990
 3408SOL     OW21685   4.690   0.431   4.203 -0.3952  0.0621 -0.0701
 3408SOL    HW121686   4.708   0.422   4.110  1.9397  1.1908  0.2899
 3408SOL    HW221687   4.649   0.517   4.216  2.3035  1.1575  1.0656
 3409SOL     OW21688   4.419   3.436   7.223  0.3531 -0.1671 -0.0262
 3409SOL    HW121689   4.329   3.426   7.255  0.7380 -1.8588  0.5272
 3409SOL    HW221690   4.424   3.390   7.139 -0.9281 -0.7234  0.1942
 3410SOL     OW21691   1.155   2.983   3.336  0.2827 -0.1570  0.6065
 3410SOL    HW121692   1.182   3.051   3.274 -2.0915  1.0317  0.8400
 3410SOL    HW221693   1.105   3.037   3.397 -0.7134  1.0543 -1.2826
 3411SOL     OW21694   2.630   1.243  11.691 -0.3910 -0.0521 -0.1095
 3411SOL    HW121695   2.704   1.182  11.700 -0.0160  0.4258  0.0829
 3411SOL    HW221696   2.569   1.186  11.645  2.2706 -3.1839  0.2585
 3412SOL     OW21697   3.219   3.120   9.726 -0.2919  0.0043  0.1555
 3412SOL    HW121698   3.277   3.162   9.789 -0.9769  0.0336  0.7673
 3412SOL    HW221699   3.134   3.160   9.742  0.2369  1.5808 -0.9987
 3413SOL     OW21700   1.562   3.434  14.565 -0.8991  0.4575 -0.5217
 3413SOL    HW121701   1.597   3.361  14.616 -0.4076  1.0671  0.0119
 3413SOL    HW221702   1.636   3.494  14.563 -1.2152  0.7265 -4.6364
 3414SOL     OW21703   3.957   4.189   1.530  0.2540 -0.0506  0.7736
 3414SOL    HW121704   4.030   4.218   1.584 -0.4571 -2.1198  2.8366
 3414SOL    HW221705   3.922   4.115   1.580  1.3828 -0.1111  1.4615
 3415SOL     OW21706   3.254   1.683   7.210 -0.4444 -0.2088  0.5644
 3415SOL    HW121707   3.197   1.724   7.275 -0.5428  1.1706 -0.3718
 3415SOL    HW221708   3.309   1.618   7.253  0.4926 -0.2730 -0.7322
 3416SOL     OW21709   1.802   1.652   0.773 -0.1375  0.0837  0.4095
 3416SOL    HW121710   1.763   1.669   0.687  0.3105 -1.9513 -0.1789
 3416SOL    HW221711   1.799   1.743   0.804  1.6710  0.8227 -1.5610
 3417SOL     OW21712   3.455   1.813   5.492 -0.0651  0.1273  0.1379
 3417SOL    HW121713   3.533   1.797   5.546  1.3826  1.5389 -1.5445
 3417SOL    HW221714   3.467   1.744   5.427  0.9203 -0.6748  1.1541
 3418SOL     OW21715   1.643   2.476   2.455  0.0179  0.0872 -0.0194
 3418SOL    HW121716   1.590   2.489   2.376 -1.1426  1.8620  1.0710
 3418SOL    HW221717   1.724   2.523   2.432 -0.3281  1.6278  1.9319
 3419SOL     OW21718   4.338   3.782  14.685 -0.4598 -0.4197 -0.1105
 3419SOL    HW121719   4.398   3.856  14.701 -0.5350 -0.4540  0.3470
 3419SOL    HW221720   4.258   3.833  14.676  1.0102  1.4510 -2.6160
 3420SOL     OW21721   3.130   0.615  15.324 -0.7306  0.1722 -0.4656
 3420SOL    HW121722   3.077   0.536  15.337 -0.7495  0.1670 -0.5716
 3420SOL    HW221723   3.175   0.588  15.244  0.0800 -0.4764  0.2074
 3421SOL     OW21724   2.375   1.955  10.715  0.2099  1.0415  0.3646
 3421SOL    HW121725   2.426   2.036  10.719  0.7048  0.7563 -0.2152
 3421SOL    HW221726   2.362   1.939  10.621 -1.9761 -0.7013  0.9659
 3422SOL     OW21727   3.706   1.329   7.039  0.0179  0.2451 -0.2690
 3422SOL    HW121728   3.787   1.367   7.006  1.5302 -1.3814  1.6190
 3422SOL    HW221729   3.737   1.238   7.039 -1.5834 -0.3033 -0.8041
 3423SOL     OW21730   2.618   2.894   8.040 -0.0216  0.2572 -0.1312
 3423SOL    HW121731   2.611   2.976   7.991  0.1167 -0.3609 -1.1889
 3423SOL    HW221732   2.690   2.854   7.991 -0.2952  1.8063 -1.8185
 3424SOL     OW21733   0.551   4.086   5.891  0.1551  0.3890  0.1902
 3424SOL    HW121734   0.640   4.085   5.857  0.3847  4.1492  0.7284
 3424SOL    HW221735   0.551   4.163   5.948 -3.0015  0.4810  0.1025
 3425SOL     OW21736   2.495   0.978  17.156  0.1178  0.2503  0.1470
 3425SOL    HW121737   2.473   1.039  17.226  0.3583  2.3752 -1.6143
 3425SOL    HW221738   2.583   1.010  17.136  0.6001 -0.7278  0.6733
 3426SOL     OW21739   0.496   1.188   5.409  0.2239  0.2334 -0.0261
 3426SOL    HW121740   0.420   1.144   5.370  1.7518 -1.5829 -0.9128
 3426SOL    HW221741   0.460   1.268   5.449  1.7750  1.2066 -0.5847
 3427SOL     OW21742   2.914   3.313   0.966 -0.3233  0.4581 -0.1655
 3427SOL    HW121743   3.000   3.298   0.926 -0.2138  0.2747  0.1463
 3427SOL    HW221744   2.927   3.399   1.006 -0.3112  1.0708 -1.4548
 3428SOL     OW21745   0.325   1.530   2.747  0.2369  0.2933  0.4000
 3428SOL    HW121746   0.413   1.553   2.777  0.3903 -2.8746  2.3833
 3428SOL    HW221747   0.287   1.616   2.732 -1.9611 -0.5218  1.3657
 3429SOL     OW21748   0.296   3.071   5.832  0.2203 -0.4871  0.7605
 3429SOL    HW121749   0.264   3.051   5.744  0.3845 -0.1923  0.6339
 3429SOL    HW221750   0.388   3.045   5.824  0.1028 -0.9583  0.9271
 3430SOL     OW21751   3.712   3.944   7.140 -0.1336 -0.5928 -0.1596
 3430SOL    HW121752   3.710   3.987   7.054  1.5928  0.1207  0.1579
 3430SOL    HW221753   3.625   3.903   7.141  0.0810 -1.1180 -1.9601
 3431SOL     OW21754   1.859   3.434   6.099 -0.6936 -0.3318  0.1743
 3431SOL    HW121755   1.947   3.436   6.135 -0.7140 -1.7358  0.2971
 3431SOL    HW221756   1.808   3.471   6.171  2.5275  1.9658  1.2757
 3432SOL     OW21757   2.790   3.317  14.518  0.8813 -0.9164  0.3168
 3432SOL    HW121758   2.871   3.277  14.549  0.4729 -1.4611  0.6926
 3432SOL    HW221759   2.733   3.242  14.501 -1.1064  0.8494 -0.8743
 3433SOL     OW21760   2.501   3.490   4.118 -0.0764 -0.1628 -0.4926
 3433SOL    HW121761   2.518   3.582   4.096 -2.0071  0.6531  1.3758
 3433SOL    HW221762   2.577   3.449   4.077 -0.2778 -0.9783 -0.0483
 3434SOL     OW21763   4.571   2.132   7.585  0.2570 -0.2536 -0.5037
 3434SOL    HW121764   4.637   2.158   7.521  2.4191 -0.5089  1.6185
 3434SOL    HW221765   4.609   2.048   7.612 -0.9820 -1.0147 -1.1391
 3435SOL     OW21766   3.759   1.854   0.193 -0.5059  0.3622 -0.3149
 3435SOL    HW121767   3.784   1.869   0.101  0.3791  0.4554 -0.0602
 3435SOL    HW221768   3.701   1.779   0.183  0.1786 -0.3014  0.6936
 3436SOL     OW21769   4.573   1.619  14.550  0.2550  0.1832 -0.5066
 3436SOL    HW121770   4.557   1.609  14.643  0.4066  0.7678 -0.4182
 3436SOL    HW221771   4.662   1.654  14.550 -0.2622  1.4875 -0.6212
 3437SOL     OW21772   3.042   0.130  14.949 -0.6208 -0.4387 -0.0557
 3437SOL    HW121773   2.950   0.118  14.926 -0.3124  2.2923 -2.7184
 3437SOL    HW221774   3.034   0.110  15.042 -1.6513 -0.7149 -0.2014
 3438SOL     OW21775   1.804   3.880   3.848 -0.5974  0.2943 -0.3377
 3438SOL    HW121776   1.780   3.908   3.936 -0.5339 -0.4850 -0.0730
 3438SOL    HW221777   1.892   3.917   3.839 -0.4698 -0.2372 -1.2948
 3439SOL     OW21778   3.328   4.396  13.341  0.5341 -0.0563 -0.1843
 3439SOL    HW121779   3.315   4.364  13.251  0.2175 -1.8127  0.4821
 3439SOL    HW221780   3.414   4.438  13.337  1.1849 -1.3895 -0.3334
 3440SOL     OW21781   2.744   1.966   2.127  0.4536 -0.1681  0.1322
 3440SOL    HW121782   2.836   1.964   2.101  0.2179  2.4055 -0.8499
 3440SOL    HW221783   2.716   1.903   2.060  1.7074 -0.8507  0.2483
 3441SOL     OW21784   1.600   0.657   5.510  0.1209 -0.4477  0.4055
 3441SOL    HW121785   1.563   0.620   5.591 -3.0052  0.1899 -0.7138
 3441SOL    HW221786   1.631   0.737   5.551 -0.4535 -0.7042  1.3430
 3442SOL     OW21787   0.674   2.859  16.102  0.5229  0.2209 -0.4447
 3442SOL    HW121788   0.699   2.794  16.168  0.6157 -0.9288 -1.6005
 3442SOL    HW221789   0.758   2.894  16.070  0.8500 -0.8220 -0.7400
 3443SOL     OW21790   2.204   3.906  12.027 -0.1235 -0.3094 -0.3524
 3443SOL    HW121791   2.167   3.901  12.115  0.3488  0.0995 -0.1303
 3443SOL    HW221792   2.147   3.867  11.962 -1.5387  1.6429 -0.2900
 3444SOL     OW21793   2.080   4.601   3.909  0.4023  0.2528  0.1247
 3444SOL    HW121794   2.060   4.560   3.994  0.3801 -0.0950 -0.0468
 3444SOL    HW221795   2.057   4.533   3.846  2.3126 -0.8109  0.5832
 3445SOL     OW21796   3.540   2.060   7.959  0.1510 -0.3494  0.3101
 3445SOL    HW121797   3.489   2.000   8.012 -1.3354  0.0036 -0.7026
 3445SOL    HW221798   3.470   2.089   7.900 -0.4783  0.7438  1.5823
 3446SOL     OW21799   3.735   0.255   3.729  0.0327  0.3877 -0.1708
 3446SOL    HW121800   3.643   0.236   3.748  0.6337 -2.3384  0.0888
 3446SOL    HW221801   3.750   0.336   3.776 -1.9405 -0.3507  1.7506
 3447SOL     OW21802   3.188   2.544   0.589  0.0321  0.4149 -0.2315
 3447SOL    HW121803   3.196   2.488   0.511 -0.3786  0.3619 -0.2330
 3447SOL    HW221804   3.096   2.570   0.586  0.1233  0.7220 -0.3443
 3448SOL     OW21805   4.524   1.458   2.376 -0.9172  0.4747 -0.5401
 3448SOL    HW121806   4.470   1.379   2.365  0.3247 -0.7987  2.3685
 3448SOL    HW221807   4.471   1.527   2.336 -1.2812 -0.0262 -0.9220
 3449SOL     OW21808   1.335   2.574   4.093 -0.0335  0.0959  0.1748
 3449SOL    HW121809   1.322   2.658   4.136 -0.5843  0.2922 -0.3694
 3449SOL    HW221810   1.267   2.519   4.132 -1.5406  1.2865 -0.7958
 3450SOL     OW21811   4.627   3.147   8.552  0.6947  0.3244 -0.1683
 3450SOL    HW121812   4.673   3.099   8.621 -0.0231 -0.9532 -0.5829
 3450SOL    HW221813   4.609   3.226   8.603  0.1715 -0.7379  1.2801
 3451SOL     OW21814   1.475   0.284  12.570  0.0802 -0.5726  0.4627
 3451SOL    HW121815   1.416   0.209  12.582 -1.4587  0.2780 -1.8159
 3451SOL    HW221816   1.542   0.254  12.631 -1.0924 -0.1763  1.9613
 3452SOL     OW21817   3.544   3.203   9.488  0.4033 -0.4222  0.2089
 3452SOL    HW121818   3.554   3.109   9.502  0.4806 -0.3569  0.6134
 3452SOL    HW221819   3.509   3.199   9.399 -1.7604  3.5726  0.8646
 3453SOL     OW21820   3.925   1.444   2.648 -0.0799  0.2796 -0.5153
 3453SOL    HW121821   4.007   1.425   2.694 -0.3191  1.6248  0.4476
 3453SOL    HW221822   3.955   1.428   2.559 -0.5395  1.3754 -0.8612
 3454SOL     OW21823   1.707   2.464   7.608 -0.1686 -0.2084  0.3229
 3454SOL    HW121824   1.727   2.557   7.595 -3.0361  0.4343  0.6193
 3454SOL    HW221825   1.618   2.461   7.574 -0.3574  0.1447  0.7910
 3455SOL     OW21826   4.150   3.424   7.602  0.5244  0.4052  0.1375
 3455SOL    HW121827   4.170   3.479   7.526  0.1288  1.0195  0.4817
 3455SOL    HW221828   4.224   3.457   7.653  1.1988 -0.0211 -0.5740
 3456SOL     OW21829   3.534   2.835   3.261 -0.6515  0.2856  0.1235
 3456SOL    HW121830   3.501   2.747   3.276  0.6432 -0.3491 -0.8320
 3456SOL    HW221831   3.459   2.890   3.238  0.3806  0.0217 -3.8950
 3457SOL     OW21832   3.998   2.132  12.147 -0.5403 -0.0078 -0.8425
 3457SOL    HW121833   4.028   2.219  12.173  0.2272 -0.5827  0.1727
 3457SOL    HW221834   4.065   2.095  12.089  0.3096 -0.7540  0.6285
 3458SOL     OW21835   1.692   1.011   8.022  0.1741 -0.0750  0.4262
 3458SOL    HW121836   1.726   0.936   8.071 -1.8394 -1.0964  0.2618
 3458SOL    HW221837   1.763   1.008   7.958 -0.9166  0.8140 -0.8400
 3459SOL     OW21838   4.503   0.768   8.609 -0.1572  0.5705 -0.3065
 3459SOL    HW121839   4.415   0.768   8.647  0.1301  0.3885  0.3555
 3459SOL    HW221840   4.499   0.681   8.569 -1.1502 -0.1152  1.2990
 3460SOL     OW21841   3.867   1.585   1.682 -0.6517 -0.0286  0.1230
 3460SOL    HW121842   3.833   1.667   1.646  2.3598  1.3878  0.4971
 3460SOL    HW221843   3.828   1.589   1.769 -0.7934 -0.8990  0.0978
 3461SOL     OW21844   1.902   0.383  13.868  0.2355 -0.5273 -0.4280
 3461SOL    HW121845   1.900   0.470  13.908  0.8108 -1.0465  0.7391
 3461SOL    HW221846   1.933   0.399  13.779 -1.4585  1.2979 -0.7003
 3462SOL     OW21847   0.640   2.065   5.973  0.1265  0.1566  0.6294
 3462SOL    HW121848   0.690   1.984   5.972  1.0151  0.6726  2.2569
 3462SOL    HW221849   0.604   2.078   6.061  0.5564 -2.1931  1.1563
 3463SOL     OW21850   0.804   1.719  14.144  0.2244  0.4729  0.1399
 3463SOL    HW121851   0.730   1.747  14.090  1.6364  4.8088  0.4450
 3463SOL    HW221852   0.788   1.625  14.148 -2.2297  0.8395 -0.8478
 3464SOL     OW21853   3.303   2.790  13.811  0.1934  0.1280  0.3540
 3464SOL    HW121854   3.248   2.747  13.746 -0.1652  1.0446  0.0542
 3464SOL    HW221855   3.248   2.853  13.857  1.8108  0.5948  1.6388
 3465SOL     OW21856   0.490   3.105   7.644 -0.6292  0.0851 -0.3043
 3465SOL    HW121857   0.586   3.101   7.643 -0.5709  1.2977  0.8349
 3465SOL    HW221858   0.471   3.012   7.655 -1.6376  0.5205  1.4590
 3466SOL     OW21859   1.623   4.080   3.533  0.2772 -0.7611  0.3947
 3466SOL    HW121860   1.603   4.164   3.491  1.1019 -0.9839 -0.4401
 3466SOL    HW221861   1.692   4.043   3.478  0.4152  1.0184 -0.6397
 3467SOL     OW21862   3.220   4.652   0.904 -0.0132 -1.1692 -0.1503
 3467SOL    HW121863   3.272   0.008   0.896 -0.8068 -0.7820 -1.5540
 3467SOL    HW221864   3.218   4.635   0.998 -1.7699 -1.1616 -0.1734
 3468SOL     OW21865   0.880   3.062   2.663 -0.2510  0.2161 -0.1546
 3468SOL    HW121866   0.823   3.090   2.734  1.0576 -0.5337  1.2039
 3468SOL    HW221867   0.952   3.033   2.720 -2.3684 -1.9683  1.3881
 3469SOL     OW21868   1.368   4.337   6.802 -0.3184 -0.3557  0.2808
 3469SOL    HW121869   1.333   4.249   6.816 -1.5137  0.3774  1.8329
 3469SOL    HW221870   1.430   4.336   6.875  0.7901  1.1992 -0.6266
 3470SOL     OW21871   4.134   4.062   8.065  0.6829  0.3372  0.6335
 3470SOL    HW121872   4.108   3.975   8.035 -0.2577  0.5414  0.8762
 3470SOL    HW221873   4.211   4.039   8.117  0.5264  1.5619  1.4013
 3471SOL     OW21874   4.009   0.571   7.737  0.0670 -0.4086 -0.6966
 3471SOL    HW121875   3.999   0.572   7.832  0.6892  1.2259 -0.6346
 3471SOL    HW221876   3.946   0.639   7.712  0.3172  0.0576 -0.0530
 3472SOL     OW21877   4.479   4.135  15.393 -0.6968 -0.3203  0.4136
 3472SOL    HW121878   4.567   4.171  15.381 -0.2841 -1.6108 -0.5531
 3472SOL    HW221879   4.479   4.079  15.315 -1.0241 -0.2027  0.3326
 3473SOL     OW21880   4.000   1.564   5.097  0.0035  0.5332  0.0753
 3473SOL    HW121881   3.915   1.559   5.053  0.3440  2.3952 -0.8031
 3473SOL    HW221882   4.037   1.476   5.091  0.2137  0.5255  1.5254
 3474SOL     OW21883   0.508   3.854   6.768  0.0967 -0.2532  0.1743
 3474SOL    HW121884   0.477   3.944   6.763  2.4798  0.5889  0.2218
 3474SOL    HW221885   0.437   3.806   6.810  1.4289 -1.5340  0.9965
 3475SOL     OW21886   4.092   2.413   5.116 -0.4085 -0.7276 -0.5384
 3475SOL    HW121887   4.033   2.409   5.191 -0.4074 -2.6818 -0.6229
 3475SOL    HW221888   4.029   2.375   5.055 -2.1486 -1.4767  1.7338
 3476SOL     OW21889   2.685   3.342   6.334 -0.4861 -0.0211 -0.1897
 3476SOL    HW121890   2.710   3.383   6.251 -2.4559 -2.8136 -2.1555
 3476SOL    HW221891   2.767   3.311   6.372 -0.3893  3.6088  2.5747
 3477SOL     OW21892   1.967   2.357   0.067  0.2203  0.3920  0.0674
 3477SOL    HW121893   1.969   2.424  17.695  1.1449  1.2176  0.9053
 3477SOL    HW221894   2.058   2.330   0.075  0.3893  0.7975 -0.5259
 3478SOL     OW21895   2.381   1.627   9.481 -0.3960  0.4627 -0.1612
 3478SOL    HW121896   2.411   1.713   9.449 -0.1425  0.9780  1.4705
 3478SOL    HW221897   2.461   1.577   9.495  1.7745  3.8794 -0.3949
 3479SOL     OW21898   2.541   1.541   8.880  0.1221  0.3260 -0.6891
 3479SOL    HW121899   2.578   1.454   8.896 -0.1342  0.1821 -0.8955
 3479SOL    HW221900   2.575   1.564   8.794  1.1868  1.3850  0.0148
 3480SOL     OW21901   2.928   2.329  11.470  0.8268 -0.3670 -0.0788
 3480SOL    HW121902   3.006   2.381  11.484  1.1192 -1.0177  0.7467
 3480SOL    HW221903   2.955   2.277  11.394 -0.8448 -4.0586  1.8086
 3481SOL     OW21904   2.036   1.156  16.955 -0.0509  0.4732 -0.4575
 3481SOL    HW121905   1.995   1.084  17.003 -0.5840  0.3249 -1.1233
 3481SOL    HW221906   2.046   1.132  16.863 -0.1159  1.5203 -0.7376
 3482SOL     OW21907   4.216   1.312   6.815 -0.3573  0.2236  0.3659
 3482SOL    HW121908   4.231   1.275   6.902 -2.0270 -0.3396  0.4151
 3482SOL    HW221909   4.304   1.326   6.782 -1.2020  1.0124 -1.5628
 3483SOL     OW21910   2.209   1.613   2.181  0.6722  0.4308 -0.2118
 3483SOL    HW121911   2.228   1.527   2.142  0.6921  0.7285 -0.8550
 3483SOL    HW221912   2.293   1.656   2.164  0.7371  0.3670 -0.0586
 3484SOL     OW21913   2.498   2.013   7.842 -0.1328 -0.1026  0.1135
 3484SOL    HW121914   2.475   2.012   7.935  0.9298  1.6546  0.3941
 3484SOL    HW221915   2.436   2.084   7.820  0.8268  0.2904 -1.3312
 3485SOL     OW21916   3.903   3.317   0.925  0.2639  0.0938  0.7792
 3485SOL    HW121917   3.877   3.306   1.016 -0.7550 -1.0564  0.3381
 3485SOL    HW221918   3.871   3.407   0.918 -0.4767 -0.3480 -1.5373
 3486SOL     OW21919   2.175   1.989   7.170  0.6524  0.0323  0.0275
 3486SOL    HW121920   2.197   2.082   7.180 -2.9008  1.0042 -1.1842
 3486SOL    HW221921   2.234   1.944   7.230  0.7319  1.5259  1.0852
 3487SOL     OW21922   1.786   3.968   0.962  0.2679  0.1694 -0.1105
 3487SOL    HW121923   1.864   4.024   0.967  0.0629  0.5668 -1.5047
 3487SOL    HW221924   1.720   4.036   0.980  0.0756 -0.2026  0.5839
 3488SOL     OW21925   3.996   1.125   3.969  0.2844 -0.2283  0.3141
 3488SOL    HW121926   3.906   1.093   3.978  0.0401 -0.4722 -3.1940
 3488SOL    HW221927   4.005   1.183   4.046 -1.4561 -0.1593  0.4700
 3489SOL     OW21928   3.072   1.379   6.797  0.1463  0.4945 -0.3080
 3489SOL    HW121929   3.044   1.452   6.853  0.5693  1.4342 -1.3283
 3489SOL    HW221930   3.052   1.411   6.709 -0.1306  1.7885  0.2305
 3490SOL     OW21931   0.824   4.369   0.201  0.2739  0.6927 -0.1057
 3490SOL    HW121932   0.909   4.398   0.235  0.4060 -0.3313  0.4283
 3490SOL    HW221933   0.815   4.283   0.242  1.2377  1.5451  1.8861
 3491SOL     OW21934   0.263   3.412  17.480 -0.1086 -0.3520 -0.2667
 3491SOL    HW121935   0.350   3.372  17.469  0.6312  1.5002 -1.0705
 3491SOL    HW221936   0.266   3.477  17.410 -2.8722  0.3526  0.2841
 3492SOL     OW21937   3.261   2.534   7.649 -0.4913 -0.0802  0.7365
 3492SOL    HW121938   3.236   2.627   7.649  0.5451  0.1964  3.3782
 3492SOL    HW221939   3.348   2.535   7.689  0.6535  2.0747 -1.8287
 3493SOL     OW21940   2.378   2.603   0.386 -0.0311  0.2849  0.5622
 3493SOL    HW121941   2.362   2.652   0.467  1.6284  2.0215 -0.1753
 3493SOL    HW221942   2.465   2.638   0.370 -0.1231  0.2470  0.0003
 3494SOL     OW21943   3.885   4.024   4.165  0.1505  0.3529  0.0145
 3494SOL    HW121944   3.792   4.025   4.143  0.5105  1.3595 -1.4843
 3494SOL    HW221945   3.900   4.117   4.150  3.0206 -0.3000 -1.2168
 3495SOL     OW21946   3.547   1.132  11.326  0.2906  0.7881 -0.1245
 3495SOL    HW121947   3.541   1.183  11.246  2.1742 -1.9495 -2.0092
 3495SOL    HW221948   3.627   1.080  11.321  0.5438  1.0402  1.3462
 3496SOL     OW21949   3.407   1.624  13.706 -0.0612 -0.6745  0.4942
 3496SOL    HW121950   3.321   1.594  13.736 -0.0142  0.7471  2.0736
 3496SOL    HW221951   3.455   1.586  13.780  1.7136  1.0798  0.2602
 3497SOL     OW21952   2.396   3.290   7.190  0.0741 -0.5313  0.0251
 3497SOL    HW121953   2.429   3.330   7.271  0.0793 -1.7265  0.6130
 3497SOL    HW221954   2.317   3.343   7.181  0.0101 -1.1390 -2.9185
 3498SOL     OW21955   2.350   3.144   2.153  0.2269 -0.3029  0.2294
 3498SOL    HW121956   2.335   3.076   2.087  0.3501  0.4795 -0.6180
 3498SOL    HW221957   2.428   3.124   2.204  0.5290 -1.4252 -0.6795
 3499SOL     OW21958   4.632   4.564   1.206 -0.5551 -0.7835  0.5913
 3499SOL    HW121959   4.601   4.493   1.149  1.8723 -1.5877  0.3064
 3499SOL    HW221960   4.688   4.519   1.269 -1.6214 -2.1595  0.5594
 3500SOL     OW21961   0.910   4.528  16.739  0.0238  1.0455  0.1619
 3500SOL    HW121962   0.985   4.477  16.769 -1.0875 -0.2113  0.7860
 3500SOL    HW221963   0.874   4.557  16.823 -1.9821 -0.7251 -0.0910
 3501SOL     OW21964   0.398   1.829   4.120 -0.3253 -0.2837 -0.2881
 3501SOL    HW121965   0.304   1.832   4.141  0.2732 -1.4444  2.5930
 3501SOL    HW221966   0.405   1.890   4.046 -2.1470 -0.0292 -0.2727
 3502SOL     OW21967   0.043   1.937   3.264 -0.7607 -0.3853  0.7058
 3502SOL    HW121968   0.035   1.842   3.269  0.3880 -0.5170  0.0906
 3502SOL    HW221969   4.709   1.968   3.334  0.2598  0.3530  1.2198
 3503SOL     OW21970   1.259   1.525  17.291  0.4135  0.0183 -0.2187
 3503SOL    HW121971   1.294   1.613  17.279  0.8722 -0.0602  0.5045
 3503SOL    HW221972   1.180   1.530  17.238  0.3777  1.1323 -0.0583
 3504SOL     OW21973   3.548   4.366   7.588 -0.0398  0.4354  0.5621
 3504SOL    HW121974   3.538   4.352   7.493 -0.7161  3.4300  0.2034
 3504SOL    HW221975   3.642   4.369   7.603 -0.0077 -1.8148  0.7842
 3505SOL     OW21976   0.199   2.653   5.450 -0.1051  0.9398  0.2814
 3505SOL    HW121977   0.275   2.603   5.421 -0.0134  1.4215 -0.3017
 3505SOL    HW221978   0.159   2.667   5.364  0.3048  0.2777 -0.0140
 3506SOL     OW21979   0.125   1.216   1.017 -0.0978  0.2580 -0.0831
 3506SOL    HW121980   0.168   1.253   1.095  0.2291  1.7426 -0.9583
 3506SOL    HW221981   0.047   1.271   1.006  0.2850  0.8608  0.1736
 3507SOL     OW21982   3.383   0.752   4.223 -0.0553  0.0663 -0.2608
 3507SOL    HW121983   3.407   0.663   4.248 -0.7310 -0.0016  0.1438
 3507SOL    HW221984   3.428   0.759   4.139 -3.1641  0.2818 -1.8948
 3508SOL     OW21985   3.130   2.205   5.731  0.8167  0.7488  0.1203
 3508SOL    HW121986   3.172   2.177   5.812  0.3250  0.0807  0.1479
 3508SOL    HW221987   3.209   2.216   5.679 -0.3373 -0.3745 -1.8454
 3509SOL     OW21988   1.502   4.573   0.211 -0.1509 -0.0291 -0.0924
 3509SOL    HW121989   1.585   4.576   0.260  0.1044 -2.4334 -0.4056
 3509SOL    HW221990   1.501   4.479   0.196 -2.0435 -0.0911  0.5407
 3510SOL     OW21991   2.912   0.283   3.784 -1.0172 -0.0195  0.1168
 3510SOL    HW121992   2.924   0.213   3.848 -1.0495  0.7396  0.9536
 3510SOL    HW221993   2.818   0.279   3.769 -0.6461  0.0713 -2.3519
 3511SOL     OW21994   2.915   0.867   0.062  0.8362  0.1868 -0.2790
 3511SOL    HW121995   2.855   0.933   0.027  1.9167  0.6844 -1.1821
 3511SOL    HW221996   2.873   0.795   0.016  0.2768  0.0956  0.3607
 3512SOL     OW21997   1.240   4.409   8.041  0.2739  0.0634 -0.0867
 3512SOL    HW121998   1.186   4.340   8.079  0.7615 -0.4607 -0.3605
 3512SOL    HW221999   1.268   4.455   8.121 -2.3180  1.7102 -0.1134
 3513SOL     OW22000   0.950   0.470   6.564  0.6756 -0.2008  0.4073
 3513SOL    HW122001   0.973   0.507   6.479  2.2759 -0.8975  0.5288
 3513SOL    HW222002   0.949   0.377   6.540  0.9458  0.2256 -1.2987
 3514SOL     OW22003   2.960   4.496   2.516  0.1620  0.1886  0.4871
 3514SOL    HW122004   2.892   4.468   2.456 -0.0372  3.3345 -0.7271
 3514SOL    HW222005   2.993   4.569   2.464 -1.2072  0.3514 -0.1304
 3515SOL     OW22006   0.442   4.475   4.656  0.4473  0.1004 -0.3775
 3515SOL    HW122007   0.492   4.431   4.587 -0.2935 -1.0590 -0.1746
 3515SOL    HW222008   0.371   4.413   4.674 -1.4286  2.2458 -0.4381
 3516SOL     OW22009   3.926   2.829   4.577  0.2826  0.5796  0.6613
 3516SOL    HW122010   3.951   2.920   4.593 -0.7830  1.1379 -0.8898
 3516SOL    HW222011   3.830   2.821   4.580  0.0882  2.4872 -0.3852
 3517SOL     OW22012   3.453   0.918   5.579  0.0665  0.5262 -0.4588
 3517SOL    HW122013   3.466   0.894   5.487  0.3174 -0.3463 -0.1971
 3517SOL    HW222014   3.364   0.884   5.585 -0.0522  0.7033 -1.1851
 3518SOL     OW22015   0.120   1.454   6.292 -0.7139  0.3557  0.5614
 3518SOL    HW122016   0.097   1.378   6.345 -0.3779 -0.8416 -1.0181
 3518SOL    HW222017   0.039   1.504   6.296  0.6540  2.7700 -1.6772
 3519SOL     OW22018   4.495   3.788  13.744 -0.4449 -0.4423 -0.7444
 3519SOL    HW122019   4.546   3.844  13.803  0.3670 -3.0291  1.0141
 3519SOL    HW222020   4.556   3.781  13.670 -0.5513 -1.4434 -0.7331
 3520SOL     OW22021   2.572   2.035  12.506 -0.1027 -0.0161 -0.4901
 3520SOL    HW122022   2.517   2.057  12.430  0.7879 -0.5081 -1.2794
 3520SOL    HW222023   2.512   2.061  12.576  1.6476  0.2010  0.9182
 3521SOL     OW22024   3.790   1.406   6.646 -0.6494  0.2899  0.5744
 3521SOL    HW122025   3.846   1.392   6.723  0.2963 -2.0818 -0.5505
 3521SOL    HW222026   3.728   1.333   6.653  0.2764 -0.5599 -0.1676
 3522SOL     OW22027   3.299   2.872  10.669 -0.3037 -0.1059  0.2319
 3522SOL    HW122028   3.317   2.940  10.605 -1.3769 -0.8143 -0.8332
 3522SOL    HW222029   3.386   2.861  10.708 -0.5592 -1.0867  0.5322
 3523SOL     OW22030   4.282   3.458   2.004 -0.7040 -0.1493  0.4280
 3523SOL    HW122031   4.295   3.364   1.987 -0.5578  0.4652 -2.8549
 3523SOL    HW222032   4.240   3.442   2.088 -0.2482 -1.9873  0.3053
 3524SOL     OW22033   1.446   1.988   9.341  0.5229  0.3955  0.4612
 3524SOL    HW122034   1.521   1.937   9.371  0.1973 -0.6977 -0.5975
 3524SOL    HW222035   1.481   2.075   9.361 -0.1109  0.4270  1.4423
 3525SOL     OW22036   1.986   3.102   1.122 -0.3368  0.0974 -0.6331
 3525SOL    HW122037   1.929   3.071   1.192 -1.0555 -2.7927 -2.4931
 3525SOL    HW222038   1.945   3.189   1.123  0.3033  0.3779  0.9821
 3526SOL     OW22039   1.127   1.190   7.114 -0.1539  0.1255  0.1941
 3526SOL    HW122040   1.186   1.141   7.057 -0.5257  0.6756 -0.6568
 3526SOL    HW222041   1.176   1.271   7.131 -0.0136  0.6904 -2.8410
 3527SOL     OW22042   3.586   4.708   6.742  0.2279 -0.0539 -0.1506
 3527SOL    HW122043   3.681   4.697   6.755  0.2712  0.5278 -0.0112
 3527SOL    HW222044   3.570   4.614   6.754 -1.3118 -0.1562 -2.9456
 3528SOL     OW22045   3.108   1.372   1.938 -0.6249  0.6237 -0.0195
 3528SOL    HW122046   3.172   1.442   1.927 -0.4437  0.8298  2.2115
 3528SOL    HW222047   3.168   1.302   1.915 -1.3307  0.5228 -1.5356
 3529SOL     OW22048   3.051   3.486   4.476  0.4311 -0.0587  0.0012
 3529SOL    HW122049   3.083   3.396   4.485  0.3979 -0.1249 -0.5630
 3529SOL    HW222050   3.129   3.541   4.469  0.8156 -0.5676  0.2442
 3530SOL     OW22051   0.009   3.167   4.152  0.1174 -0.8845  0.5252
 3530SOL    HW122052   0.085   3.213   4.118 -1.3118 -0.0933 -1.5613
 3530SOL    HW222053   0.008   3.185   4.246 -2.6688  2.9123 -0.2646
 3531SOL     OW22054   3.058   1.761  10.631  0.1607 -0.3076  0.2456
 3531SOL    HW122055   3.021   1.701  10.567  0.9579 -0.0880 -0.4147
 3531SOL    HW222056   3.136   1.792  10.585 -0.6382  0.4273 -0.6290
 3532SOL     OW22057   1.770   3.251   0.303 -0.1674 -0.3119 -0.4666
 3532SOL    HW122058   1.804   3.176   0.353 -0.8575 -0.6801 -0.5482
 3532SOL    HW222059   1.700   3.270   0.365  1.1204  0.7669  0.6560
 3533SOL     OW22060   1.211   0.690   2.234 -0.0389 -0.2754 -0.3439
 3533SOL    HW122061   1.203   0.732   2.319 -3.0487 -1.5161 -0.0129
 3533SOL    HW222062   1.178   0.756   2.173  1.4549  2.8862  2.3152
 3534SOL     OW22063   4.457   2.367  13.080 -0.2854  0.2510 -0.4405
 3534SOL    HW122064   4.464   2.306  13.153 -1.1140  0.7269  0.0308
 3534SOL    HW222065   4.451   2.447  13.133  0.5387 -0.7610  1.1563
 3535SOL     OW22066   3.083   1.017   5.749 -0.4251  0.2639 -0.5539
 3535SOL    HW122067   2.990   1.036   5.736 -0.7026 -0.1259  0.8303
 3535SOL    HW222068   3.108   1.092   5.803 -1.5865  0.4829 -0.3151
 3536SOL     OW22069   3.940   2.344   1.388  0.0115  0.1048  0.1484
 3536SOL    HW122070   4.035   2.359   1.379 -0.5488  2.1767 -2.4171
 3536SOL    HW222071   3.945   2.299   1.472  0.4928 -1.7927 -0.8841
 3537SOL     OW22072   4.197   3.785   2.715 -0.4497 -0.6764  0.2373
 3537SOL    HW122073   4.260   3.721   2.750 -0.8311  0.3446  2.8072
 3537SOL    HW222074   4.215   3.780   2.621 -2.5068  1.0969 -0.2251
 3538SOL     OW22075   1.557   3.598   6.345 -0.4572 -0.4272  0.7554
 3538SOL    HW122076   1.504   3.673   6.373 -1.2076  0.5296 -3.1614
 3538SOL    HW222077   1.633   3.641   6.306 -0.5519 -0.2936  0.7163
 3539SOL     OW22078   4.405   1.139  16.453  0.2282  0.0075  0.0828
 3539SOL    HW122079   4.491   1.100  16.461 -0.3906 -1.5552 -0.8789
 3539SOL    HW222080   4.389   1.124  16.360  1.6538  1.3264 -0.3702
 3540SOL     OW22081   1.076   3.120   3.541  0.5148 -0.1385  0.4018
 3540SOL    HW122082   1.156   3.139   3.590  0.4428 -1.8813  1.1951
 3540SOL    HW222083   1.035   3.206   3.551 -1.0236 -0.8629  0.2016
 3541SOL     OW22084   2.279   1.648   3.367 -0.2175  0.1079 -0.2252
 3541SOL    HW122085   2.300   1.714   3.301  1.5142  1.6894  1.8803
 3541SOL    HW222086   2.331   1.685   3.438 -2.2048 -2.0973  2.3942
 3542SOL     OW22087   0.847   0.694   4.254  1.1202 -0.0152 -0.3768
 3542SOL    HW122088   0.857   0.616   4.308  3.8902  1.7035  1.5776
 3542SOL    HW222089   0.920   0.743   4.291  0.9664 -0.7283  0.8785
 3543SOL     OW22090   2.986   2.344   4.112  0.3080 -0.3970 -0.2840
 3543SOL    HW122091   2.997   2.251   4.131  0.8542 -0.0762  0.9547
 3543SOL    HW222092   3.078   2.369   4.117  0.7397 -2.3695  1.3288
 3544SOL     OW22093   2.514   2.841  11.728 -0.2090 -0.0059 -0.0690
 3544SOL    HW122094   2.575   2.839  11.655 -1.8517 -0.8979 -1.4358
 3544SOL    HW222095   2.562   2.890  11.794 -0.1197 -1.1461  0.7114
 3545SOL     OW22096   4.446   4.271   8.261  0.3533 -0.1014 -0.2828
 3545SOL    HW122097   4.478   4.268   8.171 -2.7254 -0.3570 -1.3682
 3545SOL    HW222098   4.407   4.359   8.259 -1.1501 -0.7683 -0.3244
 3546SOL     OW22099   3.832   2.339   8.543 -0.2314 -0.5912  0.0666
 3546SOL    HW122100   3.924   2.315   8.526  0.2712  0.7485  0.9008
 3546SOL    HW222101   3.827   2.419   8.491  1.7465 -1.9591 -2.1910
 3547SOL     OW22102   0.252   3.031  15.007  0.2527 -0.5182  0.3745
 3547SOL    HW122103   0.176   3.017  14.950  0.4777  0.9173 -0.2923
 3547SOL    HW222104   0.322   3.052  14.945  1.6287 -2.2445  1.3426
 3548SOL     OW22105   1.620   1.302   9.489  0.2456  0.3134  0.1758
 3548SOL    HW122106   1.573   1.372   9.533  0.3485 -0.5707  1.6809
 3548SOL    HW222107   1.699   1.344   9.453 -0.3535  1.0624 -0.2771
 3549SOL     OW22108   2.735   1.061  17.139 -0.2085  0.4770  1.0561
 3549SOL    HW122109   2.773   1.148  17.130  1.0663 -0.4557 -2.6141
 3549SOL    HW222110   2.790   1.027  17.210 -0.2154 -0.4407  0.6183
 3550SOL     OW22111   2.273   2.812   4.428  0.2240  0.6077 -0.3057
 3550SOL    HW122112   2.345   2.749   4.437 -0.7126 -0.4569 -0.1888
 3550SOL    HW222113   2.270   2.834   4.335  1.1464 -0.7603 -0.6584
 3551SOL     OW22114   0.427   3.462   8.158 -0.1888 -0.5740 -0.2219
 3551SOL    HW122115   0.360   3.404   8.195 -0.4974 -0.9931 -1.4434
 3551SOL    HW222116   0.424   3.533   8.222  0.2559 -1.7254  1.0940
 3552SOL     OW22117   0.395   4.480   4.080  0.3454 -0.1750 -0.1369
 3552SOL    HW122118   0.470   4.426   4.054  1.5055  1.5127 -0.3424
 3552SOL    HW222119   0.327   4.414   4.086 -0.0278  0.4382  2.4248
 3553SOL     OW22120   2.324   2.207  15.933  0.3148 -0.0078  0.5556
 3553SOL    HW122121   2.314   2.150  15.857  1.7439  0.5651 -0.0553
 3553SOL    HW222122   2.301   2.290  15.891  1.3848  0.3383  0.6668
 3554SOL     OW22123   1.063   0.313  16.440 -0.5115  0.4972  0.0665
 3554SOL    HW122124   1.064   0.271  16.354 -0.6040 -0.5790  0.5864
 3554SOL    HW222125   1.129   0.379  16.422  0.9504 -1.0209 -0.1510
 3555SOL     OW22126   0.830   1.702  16.306  0.2068 -0.5129  0.5344
 3555SOL    HW122127   0.753   1.722  16.359 -1.5639 -0.2357 -2.1356
 3555SOL    HW222128   0.885   1.775  16.336  1.8352 -0.4512 -2.5518
 3556SOL     OW22129   0.581   1.106  12.145 -0.3960 -0.0950  0.1108
 3556SOL    HW122130   0.500   1.055  12.153 -0.3387 -0.1977  0.0388
 3556SOL    HW222131   0.591   1.117  12.050 -0.5070  0.2331  0.1375
 3557SOL     OW22132   1.511   1.953   8.912  0.0843  0.1467 -0.4699
 3557SOL    HW122133   1.603   1.966   8.936 -0.3671  1.6085  0.4653
 3557SOL    HW222134   1.510   1.858   8.906 -1.8955  0.2148 -1.2923
 3558SOL     OW22135   0.978   2.707   5.225 -0.1053 -0.3417 -0.4597
 3558SOL    HW122136   1.008   2.704   5.316  0.0934  0.8504 -0.4901
 3558SOL    HW222137   1.058   2.706   5.173 -0.6514  0.3415 -1.3098
 3559SOL     OW22138   4.618   0.576  13.422 -0.1930  0.5653  0.3202
 3559SOL    HW122139   4.575   0.588  13.507 -1.0235 -4.4042  0.6244
 3559SOL    HW222140   4.703   0.535  13.438  1.3450  2.3348 -3.2302
 3560SOL     OW22141   1.703   4.301  10.734 -0.1055  0.3780  0.1797
 3560SOL    HW122142   1.711   4.255  10.817  0.1815 -0.0190 -0.0668
 3560SOL    HW222143   1.608   4.310  10.728 -0.0633  0.0952 -1.0624
 3561SOL     OW22144   0.945   4.070   3.513 -0.0925 -0.1707 -0.0407
 3561SOL    HW122145   1.009   4.122   3.464  1.8591 -2.5048 -0.0103
 3561SOL    HW222146   0.864   4.118   3.498  1.5204  2.5891  0.1778
 3562SOL     OW22147   3.610   3.568   4.401 -0.3029  0.2691 -0.0312
 3562SOL    HW122148   3.603   3.613   4.317  1.5129 -2.7309 -1.8018
 3562SOL    HW222149   3.655   3.637   4.449  1.0251 -2.8674  3.1834
 3563SOL     OW22150   2.321   2.478  15.860 -0.3496  0.3017  0.0144
 3563SOL    HW122151   2.254   2.507  15.797  1.5581  1.8355 -1.3199
 3563SOL    HW222152   2.321   2.535  15.936  2.0587 -2.4401  2.0493
 3564SOL     OW22153   3.781   4.613   7.547 -0.1934  0.5264 -0.1458
 3564SOL    HW122154   3.812   4.587   7.633  0.0046  1.2850  0.0136
 3564SOL    HW222155   3.760   4.700   7.583 -4.2226 -1.1004  1.4088
 3565SOL     OW22156   3.391   3.680   6.162  0.8234 -0.1969 -0.0593
 3565SOL    HW122157   3.469   3.723   6.128  0.3262  0.3356 -0.5233
 3565SOL    HW222158   3.396   3.706   6.254 -0.8675  1.3576 -0.4030
 3566SOL     OW22159   0.082   1.034   3.524 -0.2344  0.4558  0.8477
 3566SOL    HW122160   0.055   1.125   3.523 -2.7640 -0.3185 -0.5798
 3566SOL    HW222161   0.129   1.034   3.440  3.0533 -1.3744  2.6457
 3567SOL     OW22162   3.152   3.582   2.112 -0.3786 -0.2195  0.2144
 3567SOL    HW122163   3.090   3.634   2.061 -0.5395 -0.9042 -0.2892
 3567SOL    HW222164   3.156   3.623   2.198 -0.4266 -1.9435  1.0294
 3568SOL     OW22165   2.952   3.049  14.797  0.1410  0.0282 -0.1366
 3568SOL    HW122166   2.953   3.131  14.847  0.1419  0.1053 -0.2613
 3568SOL    HW222167   2.979   3.093  14.717 -1.2589 -0.9314 -1.1385
 3569SOL     OW22168   0.273   3.157   2.909  0.0527 -0.6053  0.6883
 3569SOL    HW122169   0.349   3.105   2.934 -1.1034 -2.7395 -0.2650
 3569SOL    HW222170   0.211   3.089   2.882 -0.0698 -0.4022  0.4586
 3570SOL     OW22171   4.669   2.232  11.903  0.1675  0.4186  0.1798
 3570SOL    HW122172   0.018   2.220  11.963 -0.2072  0.2838  0.6086
 3570SOL    HW222173   4.624   2.300  11.953 -0.4516  0.4180 -0.3722
 3571SOL     OW22174   0.913   1.979   9.199 -0.3108  0.8157 -0.2358
 3571SOL    HW122175   0.963   2.002   9.120  0.0960 -0.0562 -0.2299
 3571SOL    HW222176   0.957   2.032   9.265  2.8736  0.1190 -1.7887
 3572SOL     OW22177   4.476   1.111   7.305 -0.7871  0.3026 -0.3753
 3572SOL    HW122178   4.457   1.188   7.359 -0.5563  0.8755 -1.1063
 3572SOL    HW222179   4.565   1.086   7.329 -1.2183  0.6828  1.5982
 3573SOL     OW22180   0.985   2.540   5.872  0.0259 -0.3393 -0.4498
 3573SOL    HW122181   1.038   2.475   5.918  0.0267  0.6967  1.0143
 3573SOL    HW222182   1.046   2.613   5.871  0.2009 -0.4536  1.1186
 3574SOL     OW22183   2.326   2.457  10.144 -0.4525  0.4429  0.0312
 3574SOL    HW122184   2.241   2.500  10.146 -1.5585 -1.7751  0.3940
 3574SOL    HW222185   2.382   2.525  10.181 -0.8950 -0.6457  2.6592
 3575SOL     OW22186   2.387   1.397   6.512 -0.3593  0.0841  0.1887
 3575SOL    HW122187   2.327   1.337   6.469  1.5223 -1.5258 -0.1540
 3575SOL    HW222188   2.338   1.471   6.475 -1.3099  0.0178  1.3166
 3576SOL     OW22189   3.352   0.390  14.369  0.1049  0.4451  0.0908
 3576SOL    HW122190   3.417   0.371  14.301 -1.1998  0.0518 -1.0452
 3576SOL    HW222191   3.397   0.438  14.439 -1.4969  3.4871 -0.9630
 3577SOL     OW22192   4.059   4.402   5.263  0.1404  1.2670  0.1282
 3577SOL    HW122193   4.131   4.356   5.306  0.5693  2.1431  0.3534
 3577SOL    HW222194   4.049   4.345   5.186 -1.5251 -0.5806  1.6938
 3578SOL     OW22195   2.809   1.017   2.249  0.3130 -0.6021 -0.2336
 3578SOL    HW122196   2.850   1.081   2.191 -0.0656 -0.0819  0.0756
 3578SOL    HW222197   2.747   0.982   2.184  1.2276  0.5597 -1.7396
 3579SOL     OW22198   1.617   0.174   3.847  0.1814  0.5395 -0.0421
 3579SOL    HW122199   1.644   0.083   3.849  1.6512  0.9577 -1.2207
 3579SOL    HW222200   1.527   0.160   3.877  0.5938 -1.2215  0.3804
 3580SOL     OW22201   2.191   3.458   7.203  0.7423 -0.6327  0.0800
 3580SOL    HW122202   2.142   3.517   7.261 -0.7213 -3.0010  1.2278
 3580SOL    HW222203   2.128   3.420   7.142  0.1863  0.3629  0.0319
 3581SOL     OW22204   3.851   4.615   3.489  0.0792 -0.2078 -0.4835
 3581SOL    HW122205   3.932   4.598   3.538 -2.6733 -0.9313  3.8602
 3581SOL    HW222206   3.853   4.709   3.508 -1.3258 -0.5408  1.3294
 3582SOL     OW22207   2.268   1.311   4.362 -0.1387  0.4761  0.3566
 3582SOL    HW122208   2.186   1.265   4.381  0.6018 -1.6342 -1.5572
 3582SOL    HW222209   2.248   1.356   4.280 -0.7366 -1.4356 -0.5318
 3583SOL     OW22210   3.815   4.014   8.056 -0.5246 -0.0001  0.0164
 3583SOL    HW122211   3.872   3.945   8.022  0.6081  0.6308  0.6332
 3583SOL    HW222212   3.801   3.979   8.144  2.4283  1.6684  1.1603
 3584SOL     OW22213   3.958   3.429   1.947  0.0123 -0.0873 -0.4214
 3584SOL    HW122214   3.970   3.357   1.886  3.2812 -1.3242  1.6719
 3584SOL    HW222215   3.984   3.387   2.029  0.6785 -0.1313 -0.6510
 3585SOL     OW22216   3.535   2.016  11.157 -0.3205  0.2240  0.2361
 3585SOL    HW122217   3.580   2.083  11.106  1.9711 -0.1948  1.7168
 3585SOL    HW222218   3.446   2.048  11.172 -0.0787  0.4282  1.1691
 3586SOL     OW22219   0.539   3.267   4.173  0.3036  0.7188  1.0982
 3586SOL    HW122220   0.582   3.298   4.093  0.0517  0.4757  0.8687
 3586SOL    HW222221   0.557   3.173   4.163  1.0663  1.1201 -1.3904
 3587SOL     OW22222   2.841   3.649  12.491  0.2864  0.1276 -0.5230
 3587SOL    HW122223   2.861   3.728  12.542 -0.2112 -0.2591  0.2813
 3587SOL    HW222224   2.920   3.632  12.440 -1.7877 -0.7639 -3.3956
 3588SOL     OW22225   2.645   3.615  16.984 -0.2945 -0.8932  0.2621
 3588SOL    HW122226   2.695   3.555  17.040  0.4885  2.5483  3.2463
 3588SOL    HW222227   2.664   3.698  17.027 -3.0311 -0.0277 -0.2440
 3589SOL     OW22228   4.099   4.129   4.821 -0.1500  0.0217 -0.0645
 3589SOL    HW122229   4.190   4.156   4.829  0.2585 -1.1805 -0.5668
 3589SOL    HW222230   4.086   4.116   4.727  1.8561 -0.4725 -0.2697
 3590SOL     OW22231   2.588   0.888   1.380  0.0457 -0.5774  0.0383
 3590SOL    HW122232   2.654   0.824   1.350 -0.6793 -1.0649 -0.5100
 3590SOL    HW222233   2.617   0.912   1.468 -1.2669 -2.9237  1.1137
 3591SOL     OW22234   0.989   2.760   2.290  0.1155  0.2192  0.0010
 3591SOL    HW122235   1.045   2.722   2.222  0.4260 -2.0620  1.5180
 3591SOL    HW222236   0.984   2.851   2.261 -1.5163 -0.4284 -1.8243
 3592SOL     OW22237   3.633   3.938  10.404 -0.0154 -0.0446 -0.1048
 3592SOL    HW122238   3.586   4.006  10.356  0.9226 -1.0655 -2.5003
 3592SOL    HW222239   3.562   3.891  10.446 -0.0461  0.2908  0.2176
 3593SOL     OW22240   1.483   3.688   7.853  0.4401 -0.1294  0.6286
 3593SOL    HW122241   1.514   3.777   7.868  1.1721 -0.3095  0.1565
 3593SOL    HW222242   1.389   3.702   7.863 -0.2106 -1.1899 -3.8280
 3594SOL     OW22243   1.335   2.685  15.148 -0.2117  0.1439  0.0631
 3594SOL    HW122244   1.323   2.767  15.196 -2.7013 -0.1939  0.0369
 3594SOL    HW222245   1.428   2.666  15.160 -0.2206  0.1452  0.1317
 3595SOL     OW22246   1.603   1.100   4.058  0.2512  0.6412  0.4807
 3595SOL    HW122247   1.638   1.014   4.081  1.8574  0.5160 -2.4017
 3595SOL    HW222248   1.655   1.133   3.985 -0.3606 -0.3038 -0.3775
 3596SOL     OW22249   2.883   1.306  15.891 -0.3371  0.2195 -0.0396
 3596SOL    HW122250   2.871   1.385  15.838  3.7672  1.4930  0.9728
 3596SOL    HW222251   2.925   1.351  15.965 -1.6383  1.5198 -0.0833
 3597SOL     OW22252   3.480   0.043   6.121  0.0172 -0.1975  0.3521
 3597SOL    HW122253   3.433   0.110   6.071 -0.2662 -1.5323 -1.1722
 3597SOL    HW222254   3.420   4.693   6.115  0.9080 -0.7121 -2.4474
 3598SOL     OW22255   4.533   3.249   6.410  0.1828 -0.5555 -0.1747
 3598SOL    HW122256   4.624   3.236   6.439 -0.2201 -0.0024  1.3545
 3598SOL    HW222257   4.551   3.320   6.349 -0.7861 -1.1922 -1.2038
 3599SOL     OW22258   0.529   3.403  12.404  0.3476 -0.0688  0.0571
 3599SOL    HW122259   0.509   3.330  12.462  1.0460  0.6757  1.2441
 3599SOL    HW222260   0.543   3.473  12.468 -3.3310 -0.0627  0.8650
 3600SOL     OW22261   0.026   1.318   9.862  0.0789  0.5089  0.1312
 3600SOL    HW122262   4.681   1.353   9.919 -1.1412 -0.3721 -0.8151
 3600SOL    HW222263   4.699   1.250   9.818  0.8947  0.5831 -0.9232
 3601SOL     OW22264   3.887   3.619   3.053 -0.0698 -0.5886  0.3022
 3601SOL    HW122265   3.925   3.543   3.097  1.8827  0.6330  0.6893
 3601SOL    HW222266   3.959   3.635   2.993 -2.1083 -2.5076 -2.6446
 3602SOL     OW22267   2.918   3.272  12.391  1.0641 -0.5055  0.4002
 3602SOL    HW122268   2.923   3.312  12.304  1.6822  0.2105  0.7656
 3602SOL    HW222269   3.011   3.251  12.383  1.0867 -0.9356  1.8407
 3603SOL     OW22270   2.699   2.035   8.341 -0.0271 -0.1960  0.1992
 3603SOL    HW122271   2.679   2.059   8.431 -0.6340 -1.3833  0.3798
 3603SOL    HW222272   2.641   2.095   8.294  1.9224  0.4193 -1.4191
 3604SOL     OW22273   4.680   2.764   9.631 -0.0274  0.2724 -0.5998
 3604SOL    HW122274   0.045   2.784   9.602 -0.8833  0.4957 -3.0779
 3604SOL    HW222275   4.683   2.676   9.595  0.3768 -0.5435  1.4601
 3605SOL     OW22276   0.567   0.216   2.673  0.0218 -0.1239  0.1991
 3605SOL    HW122277   0.645   0.203   2.619  0.3412 -1.1398  0.9093
 3605SOL    HW222278   0.514   0.144   2.640 -2.4131  1.6968  0.1626
 3606SOL     OW22279   3.058   0.236  10.478  0.2268 -0.1745 -0.0568
 3606SOL    HW122280   3.084   0.145  10.461 -2.1017 -0.5229 -1.7087
 3606SOL    HW222281   3.146   0.273  10.476 -0.0313  0.4176 -0.2537
 3607SOL     OW22282   4.457   0.699  17.405  0.4039  0.1868  0.0736
 3607SOL    HW122283   4.408   0.744  17.336  0.3882 -0.3689 -0.2774
 3607SOL    HW222284   4.512   0.767  17.442 -0.1860  0.2936  0.7562
 3608SOL     OW22285   2.483   2.006   6.809  0.1242  0.6598  0.2451
 3608SOL    HW122286   2.454   1.917   6.829 -0.0719  1.4549  3.5148
 3608SOL    HW222287   2.575   1.984   6.796  0.0746  0.9010 -0.4974
 3609SOL     OW22288   1.735   1.099  12.835  0.0103 -0.2116  0.6983
 3609SOL    HW122289   1.792   1.023  12.843 -0.3512 -0.4766  0.7491
 3609SOL    HW222290   1.693   1.075  12.752  0.4406  1.8827 -0.1256
 3610SOL     OW22291   1.857   0.543   1.612  0.2614 -0.1374  0.7705
 3610SOL    HW122292   1.908   0.499   1.679  0.9385  0.3758  0.5961
 3610SOL    HW222293   1.817   0.479   1.553 -0.7099  0.2033  1.0627
 3611SOL     OW22294   4.175   1.650   8.845  0.1845 -0.5118  0.0976
 3611SOL    HW122295   4.132   1.604   8.916 -1.7965 -1.3150 -1.6175
 3611SOL    HW222296   4.168   1.586   8.774  0.3086 -0.0621 -0.3231
 3612SOL     OW22297   0.302   2.331  17.216  0.4943  0.1241  0.6295
 3612SOL    HW122298   0.294   2.425  17.230 -0.0307  0.2116 -0.3110
 3612SOL    HW222299   0.240   2.318  17.144  3.3944 -0.5387 -1.7630
 3613SOL     OW22300   3.318   4.026   3.175 -0.2615 -0.0493 -0.5304
 3613SOL    HW122301   3.405   4.011   3.212 -0.1787  1.0008 -0.2992
 3613SOL    HW222302   3.293   4.112   3.208  1.5413  0.5097 -0.6168
 3614SOL     OW22303   3.968   2.230   4.937  0.0623 -0.1589  0.4665
 3614SOL    HW122304   4.038   2.172   4.906  0.0440 -0.0599  0.2408
 3614SOL    HW222305   3.906   2.221   4.864  0.5541  2.8706 -0.3356
 3615SOL     OW22306   3.676   1.935   1.909 -0.0868  0.1984 -0.0385
 3615SOL    HW122307   3.676   1.940   2.005 -1.1288  0.3087 -0.0521
 3615SOL    HW222308   3.754   1.979   1.874  1.1159 -0.1951  2.1267
 3616SOL     OW22309   0.747   4.473  16.503  0.0221 -0.2080 -0.3317
 3616SOL    HW122310   0.812   4.479  16.433 -1.0017  1.5489 -1.1061
 3616SOL    HW222311   0.808   4.471  16.577  0.4608  0.0440 -0.6834
 3617SOL     OW22312   3.109   1.971   9.723  0.0571 -0.4209 -0.6198
 3617SOL    HW122313   3.140   1.928   9.803  0.4376  0.2687 -0.3962
 3617SOL    HW222314   3.171   2.044   9.718 -1.0578  0.5080 -0.7450
 3618SOL     OW22315   4.163   2.526   0.348  0.1239 -0.4357 -0.3744
 3618SOL    HW122316   4.250   2.564   0.361  0.2006 -1.5844  2.6409
 3618SOL    HW222317   4.171   2.479   0.265  0.2682  1.6696 -1.5390
 3619SOL     OW22318   4.134   1.820   5.594  0.2451 -0.6656 -0.2751
 3619SOL    HW122319   4.165   1.895   5.647 -1.0409 -1.4514  1.6018
 3619SOL    HW222320   4.069   1.794   5.659 -0.8885  1.2506 -0.6240
 3620SOL     OW22321   0.404   4.205   8.846 -0.3065  0.3332  0.2335
 3620SOL    HW122322   0.335   4.150   8.884 -1.3618  0.5435 -1.4088
 3620SOL    HW222323   0.414   4.271   8.915 -0.2409  0.9883 -0.4059
 3621SOL     OW22324   1.528   4.589  13.534 -0.0432  0.2382  0.3031
 3621SOL    HW122325   1.495   4.668  13.491  0.1091 -0.1024 -0.4565
 3621SOL    HW222326   1.473   4.596  13.611  0.6198 -2.3566  1.0290
 3622SOL     OW22327   1.886   2.940   4.961  0.5932  0.1734 -0.1917
 3622SOL    HW122328   1.877   2.851   4.998 -0.7688  1.0715  1.6592
 3622SOL    HW222329   1.901   2.999   5.035  1.6560  1.3730 -1.3756
 3623SOL     OW22330   1.965   2.822   6.287 -0.3708  0.3409  0.3334
 3623SOL    HW122331   1.909   2.898   6.273 -3.1633 -1.7525  0.2036
 3623SOL    HW222332   2.049   2.861   6.263 -0.4112 -0.0096 -0.3459
 3624SOL     OW22333   3.031   3.256   5.811  0.0024 -0.2772 -0.2104
 3624SOL    HW122334   3.032   3.178   5.757 -1.4363 -1.1608  1.0450
 3624SOL    HW222335   3.108   3.237   5.865  0.0880  1.3849  0.2660
 3625SOL     OW22336   1.712   1.342   5.456  0.1756 -0.1349  0.5108
 3625SOL    HW122337   1.759   1.288   5.393 -1.4689 -0.7735 -0.1786
 3625SOL    HW222338   1.676   1.271   5.510 -0.0165  0.8701  1.7044
 3626SOL     OW22339   0.248   1.207  12.384 -0.1381 -0.1180 -0.2929
 3626SOL    HW122340   0.274   1.276  12.445 -2.3850 -1.3468  2.0687
 3626SOL    HW222341   0.228   1.271  12.315  1.6510  0.3836 -0.3246
 3627SOL     OW22342   1.228   2.080  13.876  0.4509  0.2368 -0.5082
 3627SOL    HW122343   1.208   2.064  13.784 -2.0460  0.4785 -0.0123
 3627SOL    HW222344   1.215   1.990  13.905 -1.5354 -0.0068 -2.1538
 3628SOL     OW22345   3.260   0.547   8.305 -0.0482  0.0674  0.3442
 3628SOL    HW122346   3.208   0.513   8.378 -2.2941  0.2164 -1.1763
 3628SOL    HW222347   3.326   0.603   8.346 -0.1241 -0.5877  1.3607
 3629SOL     OW22348   2.564   0.807   2.477  0.7356  0.4147  0.5436
 3629SOL    HW122349   2.529   0.767   2.398  1.9866  0.1485  0.1140
 3629SOL    HW222350   2.654   0.801   2.445  0.1028 -1.2870 -0.8438
 3630SOL     OW22351   4.145   1.073   4.853 -0.2184 -0.2837 -0.0746
 3630SOL    HW122352   4.229   1.101   4.819 -0.9869  2.5212  0.3902
 3630SOL    HW222353   4.169   0.994   4.902 -2.2943 -0.6957  0.3214
 3631SOL     OW22354   3.955   2.200  15.588  0.6568 -0.1196 -0.1638
 3631SOL    HW122355   3.942   2.105  15.594 -0.0149 -0.0515 -0.5175
 3631SOL    HW222356   4.015   2.218  15.515 -0.9620  0.2784 -1.3901
 3632SOL     OW22357   4.532   0.695   1.601  0.7085  0.0581  0.3760
 3632SOL    HW122358   4.612   0.743   1.622  0.4181  0.5512  0.3523
 3632SOL    HW222359   4.501   0.685   1.692  1.3090 -1.4360  0.4127
 3633SOL     OW22360   1.437   3.096   3.978 -0.1523 -0.3875  0.1614
 3633SOL    HW122361   1.410   3.072   4.066  0.7820  2.1753  1.1551
 3633SOL    HW222362   1.515   3.146   4.003  0.4396 -1.5619  0.6669
 3634SOL     OW22363   0.614   0.300  10.062 -0.4689 -0.4526 -0.1402
 3634SOL    HW122364   0.552   0.241  10.020 -1.5812  0.3149  0.4212
 3634SOL    HW222365   0.701   0.269  10.038 -0.8129 -2.9388  1.7672
 3635SOL     OW22366   0.021   3.442  17.224 -0.0575 -0.2626  0.4205
 3635SOL    HW122367   4.669   3.500  17.233 -0.0989 -0.2399 -0.0822
 3635SOL    HW222368   0.086   3.500  17.264 -0.8355  0.8596  0.0803
 3636SOL     OW22369   3.191   3.054   6.922  0.0958 -0.5937 -0.5213
 3636SOL    HW122370   3.129   3.126   6.938  1.3292  0.5157 -0.7620
 3636SOL    HW222371   3.271   3.089   6.961  1.0512  1.3539 -4.3120
 3637SOL     OW22372   0.486   1.833   8.459 -0.1112  0.2084  0.4454
 3637SOL    HW122373   0.581   1.820   8.458 -0.1719 -0.4130  1.6089
 3637SOL    HW222374   0.461   1.845   8.367 -1.6417 -0.7869  0.7317
 3638SOL     OW22375   4.181   1.422   2.723 -0.6525  0.2001 -0.3458
 3638SOL    HW122376   4.256   1.455   2.674  0.0567  0.5755  1.0011
 3638SOL    HW222377   4.201   1.329   2.731  0.7650  0.6677  1.4581
 3639SOL     OW22378   2.989   1.064   9.698  0.2360 -0.1438 -1.0935
 3639SOL    HW122379   2.953   1.137   9.749  2.3966  0.3775 -0.3128
 3639SOL    HW222380   3.078   1.064   9.733 -0.1131  2.4767 -0.1797
 3640SOL     OW22381   0.281   3.264   3.735  0.3157  0.1817  0.1887
 3640SOL    HW122382   0.345   3.275   3.664 -1.0397 -1.0999 -1.2267
 3640SOL    HW222383   0.230   3.339   3.706 -0.8536 -0.1496  1.3763
 3641SOL     OW22384   2.783   4.244  14.890 -0.0280  0.1870 -0.5508
 3641SOL    HW122385   2.835   4.221  14.813  2.1896 -0.8195  1.2562
 3641SOL    HW222386   2.742   4.323  14.855 -1.6817  0.1758  1.3636
 3642SOL     OW22387   0.561   1.525   1.686 -0.6302  0.8910  0.0690
 3642SOL    HW122388   0.601   1.470   1.619  0.7298  1.1775  0.6605
 3642SOL    HW222389   0.625   1.594   1.698  1.4704 -1.1974  0.7765
 3643SOL     OW22390   2.694   2.494  13.019  0.0015  0.3597 -0.3525
 3643SOL    HW122391   2.651   2.535  12.943  0.0637  0.3253 -0.4062
 3643SOL    HW222392   2.740   2.576  13.038 -0.6800  0.7224 -0.2695
 3644SOL     OW22393   2.643   4.086  15.301  0.4355 -0.2409 -0.2090
 3644SOL    HW122394   2.619   4.008  15.351 -0.7297 -0.9751 -1.9360
 3644SOL    HW222395   2.709   4.045  15.245  1.3029  0.3261  0.3878
 3645SOL     OW22396   4.648   2.694  13.346  0.6537  0.2297 -0.2584
 3645SOL    HW122397   4.669   2.604  13.372  1.3364  0.8463  1.3838
 3645SOL    HW222398   4.578   2.666  13.288  0.5573 -1.9588  0.9289
 3646SOL     OW22399   3.672   3.818   0.667  0.1311  0.1908  0.4774
 3646SOL    HW122400   3.640   3.909   0.670 -1.0537 -0.2075  0.1382
 3646SOL    HW222401   3.747   3.820   0.726 -0.0099 -0.3531  0.6746
 3647SOL     OW22402   2.641   3.619  10.325  0.0377  0.0564 -0.3684
 3647SOL    HW122403   2.621   3.573  10.407  1.1874 -2.2286 -1.3571
 3647SOL    HW222404   2.703   3.555  10.290 -0.3650 -0.9195  0.7054
 3648SOL     OW22405   0.718   2.931   4.315  0.0873 -1.6347  0.0635
 3648SOL    HW122406   0.761   2.879   4.383 -0.3354 -1.6053  0.3490
 3648SOL    HW222407   0.629   2.913   4.345 -0.6646  0.5740 -0.8438
 3649SOL     OW22408   3.360   1.191   7.175  0.5432  0.0050  0.0713
 3649SOL    HW122409   3.336   1.226   7.089  2.1210  0.4737 -0.1851
 3649SOL    HW222410   3.274   1.156   7.201 -0.7594 -0.1186 -4.5055
 3650SOL     OW22411   2.580   1.690   7.074 -0.2012 -0.2458  0.1170
 3650SOL    HW122412   2.576   1.640   6.992  1.3083 -2.0329  1.1153
 3650SOL    HW222413   2.558   1.781   7.055  1.2402  0.0179 -0.3120
 3651SOL     OW22414   3.783   1.062   9.124  0.4302  0.4071 -0.1049
 3651SOL    HW122415   3.714   1.035   9.186  0.6514  0.4287  0.1520
 3651SOL    HW222416   3.837   1.114   9.184  1.8597  0.2336 -1.2530
 3652SOL     OW22417   0.652   4.425   7.209  0.5989  0.0759 -0.7229
 3652SOL    HW122418   0.708   4.348   7.215 -0.1122 -0.6859 -3.8851
 3652SOL    HW222419   0.574   4.387   7.169 -1.1534  1.5163  1.2973
 3653SOL     OW22420   2.838   3.576   2.005 -0.0502  0.1751  0.4646
 3653SOL    HW122421   2.801   3.562   2.092  4.2980 -0.7649  2.1622
 3653SOL    HW222422   2.776   3.636   1.963 -1.0254  0.5432  2.4377
 3654SOL     OW22423   0.139   1.694   3.083 -0.8403  0.5067  0.5464
 3654SOL    HW122424   0.098   1.616   3.122 -0.4613 -0.2713 -0.6038
 3654SOL    HW222425   0.086   1.697   3.004  1.7982  2.0534 -1.1627
 3655SOL     OW22426   4.330   3.398   5.161  0.5004  0.3667 -0.1546
 3655SOL    HW122427   4.338   3.411   5.066  1.7800 -0.9550 -0.2224
 3655SOL    HW222428   4.387   3.470   5.187 -2.6391  1.1714  4.4146
 3656SOL     OW22429   3.692   3.388   9.066 -0.2009 -0.2409  0.0058
 3656SOL    HW122430   3.775   3.364   9.024 -0.5089  1.9823 -1.9305
 3656SOL    HW222431   3.723   3.442   9.139  1.0603 -1.6849  0.5313
 3657SOL     OW22432   0.885   2.315   9.854  0.3011  0.2834 -0.0235
 3657SOL    HW122433   0.879   2.357   9.768 -0.7013 -0.2705 -0.2265
 3657SOL    HW222434   0.813   2.252   9.843 -0.4855  0.8662  1.9133
 3658SOL     OW22435   2.158   3.698   2.856 -0.0809  0.6681  0.2425
 3658SOL    HW122436   2.247   3.688   2.892  0.2116  0.6554 -0.4846
 3658SOL    HW222437   2.148   3.608   2.826  2.6764 -0.1092  1.5707
 3659SOL     OW22438   0.312   0.346   2.003 -0.3961  0.3151 -0.0074
 3659SOL    HW122439   0.383   0.403   2.031  0.4902 -1.7615  2.0267
 3659SOL    HW222440   0.238   0.396   2.038  0.0948  1.0650 -0.0477
 3660SOL     OW22441   1.717   0.764  16.103 -0.2381 -0.2581  0.6239
 3660SOL    HW122442   1.633   0.786  16.144 -0.9608  1.4841 -1.8158
 3660SOL    HW222443   1.688   0.737  16.016 -0.9087 -0.8060  1.0197
 3661SOL     OW22444   0.628   1.388  17.344 -0.1299 -0.0384 -0.8517
 3661SOL    HW122445   0.652   1.316  17.286  2.2675  0.2803 -0.2730
 3661SOL    HW222446   0.570   1.345  17.408  2.4781 -1.7917  0.3479
 3662SOL     OW22447   1.571   3.568   8.545  0.9238 -0.6231 -0.2263
 3662SOL    HW122448   1.502   3.630   8.525  0.1155 -0.2166  3.8631
 3662SOL    HW222449   1.554   3.552   8.638 -0.0384  2.1658  0.0784
 3663SOL     OW22450   0.598   0.797   5.084  0.3098 -0.4280 -0.4084
 3663SOL    HW122451   0.594   0.826   4.993 -1.9667  1.1059  0.1845
 3663SOL    HW222452   0.621   0.884   5.116 -2.1544 -0.3533  1.1408
 3664SOL     OW22453   3.403   2.288   3.209  0.5741  0.2179  0.8363
 3664SOL    HW122454   3.472   2.304   3.144 -0.0558  2.0025  0.6076
 3664SOL    HW222455   3.331   2.350   3.196  0.6078 -0.0162 -0.5324
 3665SOL     OW22456   2.722   4.714   2.585 -0.1676 -0.4404  0.1538
 3665SOL    HW122457   2.703   0.074   2.627 -2.0825 -0.9439  0.2856
 3665SOL    HW222458   2.793   4.678   2.638  0.1319 -0.4026 -0.2218
 3666SOL     OW22459   1.341   3.400   7.653 -0.2385  0.1830 -0.1822
 3666SOL    HW122460   1.397   3.397   7.731  1.0432  0.8797 -1.0680
 3666SOL    HW222461   1.390   3.346   7.591 -0.5713 -1.5109  1.0205
 3667SOL     OW22462   2.006   1.166   3.685 -0.6229  0.1961  0.0147
 3667SOL    HW122463   1.973   1.124   3.606  1.2934  1.0319 -1.2369
 3667SOL    HW222464   2.064   1.228   3.642  1.3560 -3.2739 -2.3646
 3668SOL     OW22465   1.272   2.547   6.809 -0.3815 -0.3258 -0.6391
 3668SOL    HW122466   1.209   2.479   6.833 -0.6853 -1.0307 -3.4033
 3668SOL    HW222467   1.320   2.499   6.742  0.8025  0.1527 -0.1406
 3669SOL     OW22468   1.625   1.315   2.017 -0.8164 -0.5645 -0.2731
 3669SOL    HW122469   1.600   1.390   2.071  0.2520 -0.5541  0.2175
 3669SOL    HW222470   1.714   1.293   2.045 -1.1204 -1.6331 -0.1316
 3670SOL     OW22471   4.322   1.563   6.496  0.6277  0.2824 -0.7671
 3670SOL    HW122472   4.381   1.489   6.508 -0.2448 -0.7829 -2.9833
 3670SOL    HW222473   4.329   1.603   6.583 -1.9317 -2.9153  0.9109
 3671SOL     OW22474   0.171   2.389  12.918  0.1426  0.0349 -0.5372
 3671SOL    HW122475   0.204   2.437  12.994  0.8877  0.7184 -1.2806
 3671SOL    HW222476   0.247   2.344  12.880 -1.5438 -3.3008  0.0930
 3672SOL     OW22477   3.378   4.673  12.074 -0.5868 -0.2310 -0.4785
 3672SOL    HW122478   3.411   4.608  12.135  0.4710  1.3807  0.6691
 3672SOL    HW222479   3.435   4.651  12.000  1.4973  1.5702  0.5833
 3673SOL     OW22480   0.874   0.473   4.483 -0.0907  0.1352  0.5986
 3673SOL    HW122481   0.823   0.394   4.462  0.8048  0.2618 -2.0724
 3673SOL    HW222482   0.831   0.512   4.559 -0.8462 -1.5070  1.0160
 3674SOL     OW22483   0.955   2.676   2.583 -0.4375 -0.3423 -0.0860
 3674SOL    HW122484   1.007   2.721   2.650 -0.1432  1.0117 -1.2056
 3674SOL    HW222485   0.988   2.706   2.498  0.8574 -0.8794  0.2264
 3675SOL     OW22486   1.881   0.883  11.628 -0.2282  0.3035  0.2019
 3675SOL    HW122487   1.961   0.878  11.576 -0.5896  3.5493 -0.7033
 3675SOL    HW222488   1.855   0.971  11.601 -0.7915  0.9905  2.9269
 3676SOL     OW22489   4.027   3.267  10.172 -0.5010  0.3572 -0.2572
 3676SOL    HW122490   4.002   3.265  10.265  2.1526 -0.2262  0.4685
 3676SOL    HW222491   4.119   3.240  10.179 -0.3098  1.1953  0.4899
 3677SOL     OW22492   1.180   1.415   3.865  0.1829 -0.6651  0.9896
 3677SOL    HW122493   1.176   1.478   3.793 -0.9152 -1.7149  0.1295
 3677SOL    HW222494   1.274   1.409   3.881  0.4943  1.3962 -0.1605
 3678SOL     OW22495   0.925   0.965   4.146 -0.3015 -0.1204 -0.3262
 3678SOL    HW122496   0.937   1.055   4.117  0.5165  0.3082  1.3723
 3678SOL    HW222497   0.833   0.953   4.123 -1.0579  1.4952  1.7990
 3679SOL     OW22498   0.077   2.767   5.870 -0.1523 -0.2097 -0.4861
 3679SOL    HW122499   0.005   2.781   5.933 -0.5806 -0.8268 -0.8346
 3679SOL    HW222500   0.154   2.791   5.921 -1.2800 -1.8005  1.9854
 3680SOL     OW22501   1.266   1.832   6.215 -0.2120  0.2668 -0.5695
 3680SOL    HW122502   1.278   1.885   6.294 -0.4321  0.2249 -0.5091
 3680SOL    HW222503   1.345   1.778   6.218 -0.2289  0.0976 -3.2585
 3681SOL     OW22504   3.275   2.157   4.645 -0.1560 -0.2255  0.2267
 3681SOL    HW122505   3.363   2.160   4.683 -0.4835  0.9958  0.9037
 3681SOL    HW222506   3.249   2.070   4.673  0.2342  0.2051  1.9585
 3682SOL     OW22507   0.532   1.677   0.634  0.0053 -0.4007  0.4892
 3682SOL    HW122508   0.495   1.757   0.596  1.4240  0.4396  0.8706
 3682SOL    HW222509   0.622   1.694   0.604 -1.0690 -0.4925 -2.7364
 3683SOL     OW22510   3.727   1.421   9.215 -0.0038  0.1336 -0.1242
 3683SOL    HW122511   3.768   1.426   9.129 -1.1246 -2.4263 -0.8155
 3683SOL    HW222512   3.713   1.515   9.227 -0.9549 -0.1420  0.9290
 3684SOL     OW22513   2.583   3.829  12.638  0.9975  0.0594 -0.7674
 3684SOL    HW122514   2.627   3.905  12.677  0.5846  0.4482 -1.0677
 3684SOL    HW222515   2.659   3.773  12.623  0.7133 -0.3347 -0.7193
 3685SOL     OW22516   1.427   2.595   5.827 -0.4758 -0.5371  0.5051
 3685SOL    HW122517   1.418   2.505   5.797 -0.6210  0.4343 -2.3571
 3685SOL    HW222518   1.400   2.588   5.918  0.6043 -0.8977  0.8028
 3686SOL     OW22519   4.388   4.519   4.474  0.6724 -0.5149 -0.5494
 3686SOL    HW122520   4.332   4.554   4.544 -0.6482 -1.1417 -1.2772
 3686SOL    HW222521   4.382   4.593   4.414  3.3235 -0.7768 -1.1350
 3687SOL     OW22522   4.395   2.049  11.965 -0.1975  0.1550  0.3929
 3687SOL    HW122523   4.301   2.046  11.946 -0.3123 -1.2874  1.2055
 3687SOL    HW222524   4.386   2.089  12.051  1.1601  2.2133 -0.4208
 3688SOL     OW22525   4.721   2.303   4.973 -0.7498 -0.2973  0.4925
 3688SOL    HW122526   4.631   2.323   4.946 -1.0204 -2.7090 -0.4565
 3688SOL    HW222527   0.032   2.288   4.885  0.5602 -0.4323  1.0376
 3689SOL     OW22528   1.710   2.975   9.265  0.1175  0.0386 -0.4277
 3689SOL    HW122529   1.730   2.886   9.237  1.9122 -0.4183  2.2606
 3689SOL    HW222530   1.760   3.011   9.192 -0.7842  1.9320 -0.1271
 3690SOL     OW22531   1.940   3.151   4.799 -0.3246  0.3660  0.3831
 3690SOL    HW122532   2.030   3.158   4.767  0.4474 -1.6584  2.0618
 3690SOL    HW222533   1.938   3.065   4.841  1.0512 -0.3245 -0.9553
 3691SOL     OW22534   2.551   4.573   5.089 -0.3328  0.1422  0.2544
 3691SOL    HW122535   2.541   4.484   5.055  0.0654  1.2411 -2.7976
 3691SOL    HW222536   2.633   4.560   5.136 -1.1887  1.0015  2.0036
 3692SOL     OW22537   1.260   1.832   9.228 -0.1052 -0.3120 -0.8085
 3692SOL    HW122538   1.283   1.752   9.275 -0.6881  0.4963  0.8640
 3692SOL    HW222539   1.336   1.882   9.258 -0.8442  1.2642 -1.5409
 3693SOL     OW22540   3.539   1.420   0.510 -0.0753 -0.0158 -0.4826
 3693SOL    HW122541   3.635   1.411   0.514  0.0275  0.8622 -1.0114
 3693SOL    HW222542   3.528   1.512   0.532 -0.6001  0.1506 -1.4317
 3694SOL     OW22543   3.247   1.864   1.199  0.5409 -0.2974  0.2164
 3694SOL    HW122544   3.254   1.770   1.216 -1.6310 -0.0976  2.2415
 3694SOL    HW222545   3.335   1.889   1.173  0.3995  0.2403  0.2539
 3695SOL     OW22546   3.651   0.946   8.002  0.0402  0.0830  0.1091
 3695SOL    HW122547   3.604   0.885   7.945 -0.6797  0.1498  0.6341
 3695SOL    HW222548   3.576   1.000   8.027  1.9661  2.3233  0.9995
 3696SOL     OW22549   3.305   1.608  15.592 -0.5120 -0.2749  0.1613
 3696SOL    HW122550   3.392   1.621  15.631  0.2572 -0.6869 -1.4173
 3696SOL    HW222551   3.319   1.664  15.516 -1.8002 -0.4740 -0.2205
 3697SOL     OW22552   1.761   0.716  10.764  0.4552  0.2529  0.1089
 3697SOL    HW122553   1.812   0.767  10.826  0.8088 -1.1177  0.9518
 3697SOL    HW222554   1.683   0.688  10.812  0.9398  1.2212  1.4427
 3698SOL     OW22555   0.492   1.791   2.728 -0.6428 -0.7918 -0.0125
 3698SOL    HW122556   0.587   1.794   2.742 -0.8581  0.7038  1.1578
 3698SOL    HW222557   0.456   1.833   2.806 -0.4074  1.5002 -1.1105
 3699SOL     OW22558   1.723   0.656   7.787  0.0221 -0.6432  0.6126
 3699SOL    HW122559   1.817   0.669   7.791 -0.0233  0.0156 -0.3924
 3699SOL    HW222560   1.700   0.656   7.880 -1.9470 -0.1040  0.1330
 3700SOL     OW22561   0.873   1.029   1.311 -0.3254 -0.1563  0.1052
 3700SOL    HW122562   0.807   0.959   1.310  2.1138 -2.4147 -0.8002
 3700SOL    HW222563   0.945   0.993   1.259 -0.7591 -2.1934  0.9122
 3701SOL     OW22564   0.875   3.921   5.917 -0.3349 -1.1921 -0.3206
 3701SOL    HW122565   0.872   4.005   5.962  0.5162 -1.1983 -0.2455
 3701SOL    HW222566   0.903   3.963   5.835 -1.6947  0.6722  0.1819
 3702SOL     OW22567   0.269   1.870  17.511 -0.3141  0.6623 -0.5163
 3702SOL    HW122568   0.253   1.957  17.476  1.4488  0.3691 -2.0302
 3702SOL    HW222569   0.337   1.890  17.575 -1.0545  1.4151  0.0305
 3703SOL     OW22570   0.142   2.272  13.237 -0.0547 -0.9125 -0.3738
 3703SOL    HW122571   0.117   2.189  13.196 -2.2912 -0.9476  1.0182
 3703SOL    HW222572   0.068   2.322  13.272  0.0441 -1.1532  0.1921
 3704SOL     OW22573   3.880   0.893  13.980 -0.3623 -0.4161  0.0649
 3704SOL    HW122574   3.899   0.838  14.056  2.5579  0.2369 -0.1856
 3704SOL    HW222575   3.887   0.977  14.025  1.6054  1.0114 -2.8805
 3705SOL     OW22576   1.813   4.621   7.063  0.1077 -0.3118 -0.1559
 3705SOL    HW122577   1.824   4.706   7.106 -2.5520  1.0190 -2.0903
 3705SOL    HW222578   1.879   4.577   7.118 -0.2144 -0.4085  0.1583
 3706SOL     OW22579   2.093   2.185   4.199  0.6739  0.6658  0.1140
 3706SOL    HW122580   2.144   2.198   4.279  0.4129 -2.6377  0.8263
 3706SOL    HW222581   2.085   2.090   4.198 -0.4532  0.7746 -1.4298
 3707SOL     OW22582   1.740   2.414  11.615 -0.8769 -0.7773  0.0101
 3707SOL    HW122583   1.772   2.326  11.596 -0.4453 -0.8296  0.9816
 3707SOL    HW222584   1.727   2.455  11.529  0.3900 -0.7528 -0.1829
 3708SOL     OW22585   0.509   1.383   6.599 -0.5791  0.4452 -0.3414
 3708SOL    HW122586   0.454   1.364   6.523  0.4069 -1.2402 -0.6528
 3708SOL    HW222587   0.470   1.338   6.675  1.3723  1.7048  1.4103
 3709SOL     OW22588   3.621   3.089   3.484  0.1295  0.1491  0.0779
 3709SOL    HW122589   3.614   3.015   3.425  0.1046 -1.8771  2.6235
 3709SOL    HW222590   3.531   3.102   3.514  0.8328 -0.7279  2.5657
 3710SOL     OW22591   3.720   3.968   8.539 -0.0372  0.2339 -0.9050
 3710SOL    HW122592   3.629   3.992   8.556 -0.0247  0.5595 -1.3045
 3710SOL    HW222593   3.701   3.940   8.450 -0.1253  1.9425 -1.4238
 3711SOL     OW22594   3.601   0.489   0.920  0.4183 -0.0299 -0.5442
 3711SOL    HW122595   3.606   0.562   0.982 -0.3790 -0.7676  0.3956
 3711SOL    HW222596   3.548   0.536   0.856 -2.2538  1.2938  2.6560
 3712SOL     OW22597   1.043   4.712   6.660  0.0506 -0.1834  0.1156
 3712SOL    HW122598   1.102   4.670   6.723 -0.8952  0.7088  1.5904
 3712SOL    HW222599   1.065   4.648   6.592  1.3175 -0.5393  0.8450
 3713SOL     OW22600   3.154   2.913   8.589  0.1340  0.4935 -0.0631
 3713SOL    HW122601   3.243   2.926   8.621 -0.6532  1.1140  1.8664
 3713SOL    HW222602   3.097   2.873   8.655  1.5444 -1.3227  0.0384
 3714SOL     OW22603   1.842   1.006   6.637  1.0970 -0.0007 -0.3891
 3714SOL    HW122604   1.933   1.009   6.666  1.2734  1.8227 -1.1487
 3714SOL    HW222605   1.803   1.015   6.723  0.1079 -0.5145 -0.7770
 3715SOL     OW22606   2.562   0.491   4.490  0.5442  0.1838 -0.2791
 3715SOL    HW122607   2.622   0.560   4.462 -0.8530  0.5462 -2.4017
 3715SOL    HW222608   2.636   0.437   4.518  0.8411  1.2869  1.0906
 3716SOL     OW22609   4.262   0.982   2.397 -0.1858 -0.5652 -0.2527
 3716SOL    HW122610   4.299   0.935   2.322  0.8279 -0.9082  0.4707
 3716SOL    HW222611   4.169   0.989   2.376 -0.2068 -1.4851 -0.4339
 3717SOL     OW22612   2.702   3.211   5.408 -0.3281  0.1540 -0.0964
 3717SOL    HW122613   2.611   3.186   5.396 -0.0445 -2.0473  2.4098
 3717SOL    HW222614   2.743   3.139   5.455  0.4625  1.8397  1.8134
 3718SOL     OW22615   0.285   0.876   1.852  0.3344  0.5921  0.6313
 3718SOL    HW122616   0.356   0.844   1.796 -0.6465  1.3519 -1.0570
 3718SOL    HW222617   0.254   0.954   1.806 -2.4716 -1.1402 -0.4197
 3719SOL     OW22618   4.707   1.448   1.682  0.3015  0.4068  0.2300
 3719SOL    HW122619   0.017   1.425   1.768 -0.3202 -1.3336  0.0199
 3719SOL    HW222620   0.064   1.468   1.635  0.2834  0.7001  0.3236
 3720SOL     OW22621   0.669   3.283   5.133  0.1826  0.2215  0.6087
 3720SOL    HW122622   0.635   3.367   5.165  0.0062  0.3233  0.1625
 3720SOL    HW222623   0.749   3.272   5.184  0.3277 -1.0304  0.1056
 3721SOL     OW22624   3.709   2.487   8.106  0.1267  0.3030 -0.3533
 3721SOL    HW122625   3.706   2.392   8.103 -0.8569  0.3666 -1.6509
 3721SOL    HW222626   3.648   2.494   8.032  2.1467  0.6216 -1.9827
 3722SOL     OW22627   3.035   1.954   9.139 -0.0684  0.5627 -0.2866
 3722SOL    HW122628   3.096   1.883   9.159  0.3412  1.0986  0.3767
 3722SOL    HW222629   2.970   1.953   9.209  1.0354 -0.6468  0.7263
 3723SOL     OW22630   4.080   2.018   4.271  0.8100  0.0981 -0.8908
 3723SOL    HW122631   4.105   1.948   4.211 -0.2687  0.4537 -1.7477
 3723SOL    HW222632   4.057   1.974   4.352 -2.7139  3.1501 -0.2281
 3724SOL     OW22633   0.776   2.382   6.637  0.0805  0.6086  0.0736
 3724SOL    HW122634   0.698   2.438   6.641  0.3648  0.9927  0.2426
 3724SOL    HW222635   0.799   2.381   6.730  0.7363 -1.2707 -0.0999
 3725SOL     OW22636   3.447   0.567  14.131  0.6206  0.4236  0.1835
 3725SOL    HW122637   3.532   0.533  14.158  0.6084  0.7163  0.5790
 3725SOL    HW222638   3.442   0.524  14.045 -0.6991  0.2047  0.3641
 3726SOL     OW22639   1.454   2.584   1.718  0.3264  0.1590  0.1435
 3726SOL    HW122640   1.516   2.556   1.651 -1.4497 -1.6326 -0.7173
 3726SOL    HW222641   1.374   2.550   1.678 -0.3143  0.3290  1.2730
 3727SOL     OW22642   1.670   3.115   4.148  0.3372 -0.9492  0.6158
 3727SOL    HW122643   1.723   3.188   4.117  1.1726 -1.4782  0.7980
 3727SOL    HW222644   1.727   3.044   4.117 -1.3804 -1.6973 -0.8508
 3728SOL     OW22645   2.384   1.377   3.351  0.2854  0.0175 -0.1619
 3728SOL    HW122646   2.373   1.472   3.347  2.2116  0.2170 -0.5480
 3728SOL    HW222647   2.412   1.363   3.261  0.6953 -0.9598  0.1119
 3729SOL     OW22648   2.441   2.111  13.802  0.0922 -0.5148 -0.1963
 3729SOL    HW122649   2.360   2.060  13.804 -0.7360  0.6745 -2.2684
 3729SOL    HW222650   2.431   2.161  13.720 -0.4862 -1.0747 -0.4726
 3730SOL     OW22651   1.681   3.653  11.181 -0.8001  0.1625 -0.2824
 3730SOL    HW122652   1.751   3.617  11.236 -1.2550 -0.7266 -0.2947
 3730SOL    HW222653   1.630   3.692  11.251 -0.7755 -3.1216  1.5916
 3731SOL     OW22654   1.945   4.080  11.707  0.2020  0.0099  0.0065
 3731SOL    HW122655   1.951   4.176  11.709 -0.2432  0.0234  1.1254
 3731SOL    HW222656   2.034   4.046  11.717  0.1538  0.5224  2.3399
 3732SOL     OW22657   0.012   4.035  16.322 -0.0992  0.0055 -0.1618
 3732SOL    HW122658   0.059   3.999  16.246  0.4561 -1.1258  0.7026
 3732SOL    HW222659   4.647   4.002  16.311  0.1170  0.2007 -2.5510
 3733SOL     OW22660   2.111   4.522   4.734  0.0010 -0.3874  0.3116
 3733SOL    HW122661   2.049   4.509   4.662  3.1132 -2.1138 -2.0473
 3733SOL    HW222662   2.177   4.566   4.681 -0.1521 -2.3356 -1.4918
 3734SOL     OW22663   4.453   3.884  16.310  0.3646 -0.0254  0.0906
 3734SOL    HW122664   4.465   3.872  16.404 -2.4452 -1.4340  0.2686
 3734SOL    HW222665   4.364   3.850  16.298  1.0584 -1.4790 -0.8458
 3735SOL     OW22666   0.954   1.784   7.314  0.0113 -0.3998  0.1029
 3735SOL    HW122667   0.918   1.871   7.300  0.6734 -0.0469  0.6217
 3735SOL    HW222668   0.982   1.790   7.406  0.4496 -0.3368 -0.0358
 3736SOL     OW22669   1.595   1.259   7.110  0.7691  0.1087 -0.2597
 3736SOL    HW122670   1.641   1.238   7.028 -1.0598  0.1604 -1.3057
 3736SOL    HW222671   1.539   1.181   7.110 -0.1715  0.7960 -1.7061
 3737SOL     OW22672   3.867   3.256   6.937 -0.3904  0.3788 -0.1297
 3737SOL    HW122673   3.870   3.333   6.993 -0.1004  0.2353  0.0493
 3737SOL    HW222674   3.935   3.200   6.975  0.6953  1.4268 -0.5294
 3738SOL     OW22675   4.408   2.783   6.230  0.0027  0.3826 -0.2390
 3738SOL    HW122676   4.355   2.716   6.186 -0.3215  1.3399 -1.3019
 3738SOL    HW222677   4.420   2.740   6.315 -0.0250 -0.4433 -0.6516
 3739SOL     OW22678   1.197   4.420  10.641 -0.4707  0.2561 -0.2295
 3739SOL    HW122679   1.196   4.468  10.558 -0.5274  1.4448  0.4539
 3739SOL    HW222680   1.135   4.471  10.693  0.8671 -0.4132  2.0821
 3740SOL     OW22681   4.542   4.199   3.541 -0.1570  0.1326  0.0313
 3740SOL    HW122682   4.532   4.104   3.542  2.7387 -0.1637  1.0537
 3740SOL    HW222683   4.453   4.224   3.567 -0.7239 -0.8673 -0.9473
 3741SOL     OW22684   1.793   3.476   4.275 -0.5730 -0.1637  0.3764
 3741SOL    HW122685   1.880   3.491   4.238 -1.0032  2.1542  0.2874
 3741SOL    HW222686   1.819   3.415   4.343  0.0837  1.8563  1.9300
 3742SOL     OW22687   2.644   3.943   4.936 -0.2794  0.0994  0.0933
 3742SOL    HW122688   2.736   3.928   4.958 -0.7719 -1.6217  0.9944
 3742SOL    HW222689   2.630   3.872   4.874  1.4585 -0.6228  0.5295
 3743SOL     OW22690   1.659   1.472   6.251 -0.2097 -0.5975  0.2635
 3743SOL    HW122691   1.707   1.412   6.195  2.0580 -0.2759  1.8574
 3743SOL    HW222692   1.566   1.460   6.232  0.2539 -1.7207 -1.2610
 3744SOL     OW22693   0.394   1.561  17.503 -0.3842 -0.2296  0.0650
 3744SOL    HW122694   0.377   1.473  17.537 -0.5299 -1.0505 -2.1192
 3744SOL    HW222695   0.400   1.607  17.586 -1.0542 -0.9087  0.4982
 3745SOL     OW22696   0.831   2.602  17.303  0.6793  0.3465  0.6277
 3745SOL    HW122697   0.860   2.577  17.390 -0.6537 -1.4389  0.5472
 3745SOL    HW222698   0.895   2.670  17.281 -0.8394  0.7613 -2.6118
 3746SOL     OW22699   1.883   2.488   3.288  0.0552 -0.6439 -0.0561
 3746SOL    HW122700   1.889   2.397   3.317  0.8877 -0.2624  0.9982
 3746SOL    HW222701   1.974   2.504   3.263  0.6340 -0.2069  2.2683
 3747SOL     OW22702   2.900   2.753   6.220 -0.4489 -0.0125 -0.1605
 3747SOL    HW122703   2.986   2.713   6.235  0.4361  0.4939 -3.9515
 3747SOL    HW222704   2.847   2.674   6.218  2.3927 -1.7891 -3.7487
 3748SOL     OW22705   0.138   4.629   8.203 -0.0336  0.5562 -0.4571
 3748SOL    HW122706   0.099   4.645   8.289 -0.5452  0.6193 -0.7025
 3748SOL    HW222707   0.071   4.570   8.169 -0.6975  1.2872 -0.4238
 3749SOL     OW22708   0.822   3.435   9.934 -0.2220 -0.0449  0.3740
 3749SOL    HW122709   0.826   3.349   9.976  2.1611 -0.8724 -1.5698
 3749SOL    HW222710   0.729   3.438   9.956 -0.3497  1.1235 -0.2730
 3750SOL     OW22711   3.500   3.254  11.527 -0.2429 -0.6080 -0.2103
 3750SOL    HW122712   3.559   3.248  11.452 -1.0567 -1.7745 -0.7460
 3750SOL    HW222713   3.563   3.293  11.588  1.5788 -1.9529 -1.2393
 3751SOL     OW22714   2.732   2.300   7.211 -0.0283 -0.0047 -0.3354
 3751SOL    HW122715   2.729   2.336   7.300  2.7097 -1.5671  0.3834
 3751SOL    HW222716   2.824   2.318   7.192  0.2816 -0.8699  0.3604
 3752SOL     OW22717   3.633   2.440   4.855  0.1554 -0.4557  0.1225
 3752SOL    HW122718   3.584   2.514   4.890  0.3641  0.2414 -1.0739
 3752SOL    HW222719   3.715   2.479   4.823 -0.3358  0.7919  0.4014
 3753SOL     OW22720   3.456   4.292   4.117  0.3381 -0.5332 -0.0910
 3753SOL    HW122721   3.550   4.286   4.136  0.2755  2.8606  1.3272
 3753SOL    HW222722   3.441   4.383   4.142 -2.4345 -1.1411  0.3643
 3754SOL     OW22723   1.897   2.104   0.703 -0.0652 -0.6707 -0.8493
 3754SOL    HW122724   1.886   2.052   0.783 -1.1619 -0.5039 -0.8917
 3754SOL    HW222725   1.820   2.160   0.692 -0.9266 -1.2631  2.1683
 3755SOL     OW22726   1.836   4.178   6.858  0.6187 -0.2658 -0.6455
 3755SOL    HW122727   1.812   4.270   6.860  1.0009 -0.2091  1.4815
 3755SOL    HW222728   1.900   4.156   6.927  0.8674  2.1340 -0.1271
 3756SOL     OW22729   4.709   1.554  12.479 -0.3287  0.2113 -0.6941
 3756SOL    HW122730   4.651   1.616  12.524  0.7400  1.4185 -0.9849
 3756SOL    HW222731   4.665   1.477  12.514  0.1914  0.6435  0.9116
 3757SOL     OW22732   2.663   1.643   2.891 -0.8086 -0.8215 -0.0196
 3757SOL    HW122733   2.678   1.735   2.914  1.0268 -1.4051  1.1632
 3757SOL    HW222734   2.568   1.646   2.883 -0.6318 -0.3181 -1.8759
 3758SOL     OW22735   0.579   4.517   1.820  0.2978 -0.1908  0.5658
 3758SOL    HW122736   0.674   4.527   1.810  0.0039  0.7195 -1.4808
 3758SOL    HW222737   0.552   4.608   1.807 -0.3346 -0.8052 -2.6817
 3759SOL     OW22738   3.328   0.242   8.447 -0.1906 -0.4881 -0.4727
 3759SOL    HW122739   3.275   0.316   8.477  0.5650 -0.5277  0.9358
 3759SOL    HW222740   3.356   0.205   8.531  0.9950  1.0755 -0.1667
 3760SOL     OW22741   0.469   2.500   1.900  0.2956  0.2229 -0.2545
 3760SOL    HW122742   0.510   2.413   1.901  2.9579  1.5183  1.1825
 3760SOL    HW222743   0.543   2.556   1.923 -0.3596  0.4839  1.2516
 3761SOL     OW22744   1.598   1.830  12.600 -0.3891 -0.1305  0.2445
 3761SOL    HW122745   1.575   1.764  12.535  1.5682 -0.1985 -0.3716
 3761SOL    HW222746   1.585   1.786  12.684 -0.7169  0.3370  0.4416
 3762SOL     OW22747   4.495   1.886   4.401  0.0163 -0.0801 -0.3781
 3762SOL    HW122748   4.581   1.923   4.382  0.1585  1.0794  2.4637
 3762SOL    HW222749   4.524   1.825   4.468 -0.4028  0.9921  0.7920
 3763SOL     OW22750   3.842   2.460   5.298  0.0475  0.2701 -0.7353
 3763SOL    HW122751   3.826   2.508   5.380 -0.4227 -0.3778 -0.4515
 3763SOL    HW222752   3.776   2.392   5.303 -1.6935  1.9316 -1.0133
 3764SOL     OW22753   2.349   0.055   5.323  0.5202 -0.2271 -0.2170
 3764SOL    HW122754   2.287   0.024   5.389  0.7695 -0.3435 -0.0369
 3764SOL    HW222755   2.398   0.125   5.366  0.8427  0.2848 -1.4130
 3765SOL     OW22756   1.530   3.743  15.529 -0.5178 -0.2879  0.1522
 3765SOL    HW122757   1.625   3.750  15.519 -0.4048  0.6257  1.8296
 3765SOL    HW222758   1.495   3.830  15.551  2.7876  1.6345 -2.1144
 3766SOL     OW22759   3.843   1.829  10.974 -0.2286  0.1606 -0.2837
 3766SOL    HW122760   3.805   1.791  11.053  0.1907 -1.7349 -0.9932
 3766SOL    HW222761   3.923   1.865  11.011 -0.4134  1.4403 -1.1290
 3767SOL     OW22762   3.771   1.983   4.202 -0.4091  0.0061  0.0390
 3767SOL    HW122763   3.864   1.968   4.188 -0.2859 -0.7348  1.6259
 3767SOL    HW222764   3.744   1.955   4.115  1.1968 -0.9345 -0.1547
 3768SOL     OW22765   2.823   3.438   6.092 -0.2357 -0.4524  0.2341
 3768SOL    HW122766   2.914   3.451   6.063  0.2449 -0.3320  1.8115
 3768SOL    HW222767   2.777   3.473   6.016 -1.1351 -2.0574  0.0435
 3769SOL     OW22768   1.739   2.945  14.598 -0.0178  0.3908 -0.0861
 3769SOL    HW122769   1.794   3.016  14.629  0.2435 -0.1063  0.5827
 3769SOL    HW222770   1.654   2.970  14.635 -0.4513 -1.8539  0.4692
 3770SOL     OW22771   0.597   2.817   6.282  0.0546 -0.0147  0.4847
 3770SOL    HW122772   0.612   2.812   6.187  0.6443  1.8727  0.4779
 3770SOL    HW222773   0.504   2.837   6.282  0.5610  2.3780  0.2011
 3771SOL     OW22774   3.359   1.728   5.215  0.1274 -0.3794  0.1882
 3771SOL    HW122775   3.333   1.802   5.159 -1.5055 -1.2440 -0.1802
 3771SOL    HW222776   3.288   1.665   5.200 -0.9686  1.7532 -3.6207
 3772SOL     OW22777   3.962   3.631   6.864 -0.1166 -0.0640 -0.5129
 3772SOL    HW122778   3.947   3.641   6.770 -0.2957 -0.9029 -0.5665
 3772SOL    HW222779   3.990   3.542   6.843 -0.0876 -0.6207  1.9086
 3773SOL     OW22780   1.577   1.496   3.435 -0.1443 -0.5390 -0.0496
 3773SOL    HW122781   1.632   1.536   3.502  0.1147 -0.5702 -0.2459
 3773SOL    HW222782   1.640   1.452   3.379 -1.1584  0.6507 -2.1296
 3774SOL     OW22783   1.467   2.010   1.119 -0.6204  0.1497 -0.0681
 3774SOL    HW122784   1.437   2.092   1.079  2.2204  0.8255 -0.8737
 3774SOL    HW222785   1.558   2.032   1.141 -1.3331  2.4905  0.4977
 3775SOL     OW22786   0.349   0.238   7.224  0.1885 -0.2814  0.0721
 3775SOL    HW122787   0.346   0.283   7.139 -0.3622 -2.3374 -0.9991
 3775SOL    HW222788   0.304   0.302   7.279  0.6146  0.4875 -0.4693
 3776SOL     OW22789   4.579   1.747   5.095 -0.4605 -0.3690  0.5763
 3776SOL    HW122790   4.566   1.665   5.049 -0.5720 -0.2805  0.4504
 3776SOL    HW222791   4.502   1.793   5.062 -0.2838 -1.5259 -1.3989
 3777SOL     OW22792   1.782   0.420   6.491  0.0354 -0.2989  0.5361
 3777SOL    HW122793   1.718   0.349   6.503  0.6158 -1.1423 -1.2800
 3777SOL    HW222794   1.724   0.494   6.472 -0.2639 -0.7665 -0.3935
 3778SOL     OW22795   0.547   1.933  14.180  0.3378 -0.1712 -0.5742
 3778SOL    HW122796   0.605   1.881  14.124  1.2819  0.7300 -0.4303
 3778SOL    HW222797   0.466   1.882  14.176  0.4266 -0.1740 -2.1418
 3779SOL     OW22798   0.944   1.719   4.886 -0.1220 -0.1351 -0.3671
 3779SOL    HW122799   0.862   1.720   4.936 -2.0799  0.7315 -3.5831
 3779SOL    HW222800   0.991   1.796   4.917 -2.5562  1.1498  0.1644
 3780SOL     OW22801   1.071   0.935   5.924 -0.3784  0.3200 -0.7116
 3780SOL    HW122802   1.101   1.022   5.952  2.1072 -0.7824 -0.0047
 3780SOL    HW222803   0.979   0.935   5.951 -0.0045 -3.0255  0.4875
 3781SOL     OW22804   3.048   2.304   8.116  0.0660  0.7896  0.5751
 3781SOL    HW122805   3.113   2.365   8.151  0.7458 -0.5489  1.6659
 3781SOL    HW222806   3.042   2.231   8.178  1.3753  0.4065  0.2715
 3782SOL     OW22807   1.280   2.018   5.238 -0.4707 -0.6333 -0.4638
 3782SOL    HW122808   1.278   1.982   5.149  2.5980 -0.1130 -0.7479
 3782SOL    HW222809   1.285   1.938   5.290 -0.8133  0.3341  1.0402
 3783SOL     OW22810   2.965   0.026   6.892  0.0533  0.0811  0.1754
 3783SOL    HW122811   2.899   4.686   6.919 -0.3725  1.1534  1.7108
 3783SOL    HW222812   2.926   0.075   6.819 -0.3386 -1.0060 -0.3527
 3784SOL     OW22813   3.898   3.827  13.419 -0.1340 -0.2805  0.5496
 3784SOL    HW122814   3.857   3.776  13.349 -3.1003  1.6036  0.9023
 3784SOL    HW222815   3.989   3.804  13.402 -0.8110 -0.2210 -3.1804
 3785SOL     OW22816   3.770   4.217   5.211  0.1226 -0.4470 -0.5378
 3785SOL    HW122817   3.809   4.135   5.241  1.2188 -0.4691 -2.0389
 3785SOL    HW222818   3.699   4.185   5.156 -0.9239 -0.5252  0.8591
 3786SOL     OW22819   3.004   0.045   3.163  0.5891 -0.2377  0.2117
 3786SOL    HW122820   3.001   0.098   3.242  1.5577 -1.0228  0.7691
 3786SOL    HW222821   2.916   0.065   3.130  0.3529  0.2843  1.1645
 3787SOL     OW22822   0.381   2.350  10.648  0.4837  0.1549 -0.3156
 3787SOL    HW122823   0.421   2.389  10.570 -1.0904  1.9923 -0.2023
 3787SOL    HW222824   0.402   2.422  10.706  0.8989  0.0552 -0.3406
 3788SOL     OW22825   2.344   1.275  10.248 -0.2077 -0.2105 -0.5886
 3788SOL    HW122826   2.328   1.299  10.156  2.1712  0.9621 -0.7013
 3788SOL    HW222827   2.308   1.354  10.287  1.2050  1.2050 -2.1416
 3789SOL     OW22828   1.438   0.625   6.097  0.4421 -0.2702  0.1303
 3789SOL    HW122829   1.390   0.598   6.175 -0.4172  1.4381  0.1935
 3789SOL    HW222830   1.457   0.713   6.129  1.4172  0.1764 -1.6338
 3790SOL     OW22831   1.501   1.815   7.605 -0.1188 -0.1798  0.3622
 3790SOL    HW122832   1.441   1.886   7.629 -1.0366 -1.9311  3.3477
 3790SOL    HW222833   1.581   1.860   7.578  0.8101 -0.6391  2.3391
 3791SOL     OW22834   3.412   2.046   2.996  0.0830 -0.3136 -0.1066
 3791SOL    HW122835   3.453   2.052   2.910  2.2391  0.7287  0.9863
 3791SOL    HW222836   3.415   1.951   3.003  0.2273 -0.3641 -0.9031
 3792SOL     OW22837   0.865   1.435  16.360  0.5799  0.2561  0.0480
 3792SOL    HW122838   0.940   1.437  16.301 -0.1319 -0.7331 -0.8882
 3792SOL    HW222839   0.838   1.527  16.363 -0.4047 -0.0814  1.5045
 3793SOL     OW22840   2.598   3.434  13.057 -0.2717 -0.1018  0.4263
 3793SOL    HW122841   2.668   3.486  13.017 -0.1554  0.3658  1.2440
 3793SOL    HW222842   2.626   3.425  13.148 -0.2544  2.6595  0.6999
 3794SOL     OW22843   4.624   0.888   7.071  0.4714 -0.1101  0.1134
 3794SOL    HW122844   4.529   0.896   7.075  0.5912  1.0270  0.5928
 3794SOL    HW222845   4.639   0.831   7.147  0.2102 -1.1790 -0.6427
 3795SOL     OW22846   3.078   1.789  13.977  0.4682  0.9669 -0.4158
 3795SOL    HW122847   3.157   1.735  13.981 -0.2733  0.0165  1.6168
 3795SOL    HW222848   3.117   1.876  13.969 -0.7079  1.4602 -0.7601
 3796SOL     OW22849   2.305   0.069  12.694 -0.5352 -0.6617  0.1331
 3796SOL    HW122850   2.383   0.084  12.640 -0.6315 -0.9393 -0.0792
 3796SOL    HW222851   2.320   0.137  12.760 -1.1945  0.0667 -0.4645
 3797SOL     OW22852   3.825   4.204  11.145  0.5504 -0.4295  0.2912
 3797SOL    HW122853   3.851   4.160  11.226 -2.0325 -0.2179  1.2670
 3797SOL    HW222854   3.857   4.293  11.161 -0.2431  0.1626 -1.4546
 3798SOL     OW22855   2.937   0.101   3.994 -0.5752 -0.6080  0.6427
 3798SOL    HW122856   2.985   0.039   4.049 -1.1051 -0.8320  0.8532
 3798SOL    HW222857   2.846   0.091   4.023 -0.5303  0.3326  1.1203
 3799SOL     OW22858   2.759   4.122   3.013 -0.1761 -0.2234  0.6725
 3799SOL    HW122859   2.700   4.182   2.967 -2.1166 -1.1374  2.0124
 3799SOL    HW222860   2.837   4.144   2.961  0.0651 -0.5680  0.8915
 3800SOL     OW22861   0.776   0.618   7.537  0.5046  0.0941  0.3475
 3800SOL    HW122862   0.826   0.698   7.519  0.7979 -0.2563 -0.3735
 3800SOL    HW222863   0.760   0.576   7.453 -2.9829  0.1084  0.9859
 3801SOL     OW22864   2.109   2.970   0.909  0.0101 -0.0620 -0.7046
 3801SOL    HW122865   2.072   3.037   0.966 -2.3367  0.2205 -2.5217
 3801SOL    HW222866   2.192   2.947   0.951  0.3272 -0.2961 -1.4529
 3802SOL     OW22867   4.137   2.069   4.788  0.0702 -0.2758 -0.0349
 3802SOL    HW122868   4.214   2.078   4.732 -1.4863 -0.5000 -2.2112
 3802SOL    HW222869   4.126   1.974   4.777  1.8668 -0.7372  2.2539
 3803SOL     OW22870   3.428   1.682   8.003 -0.3358 -0.0503  0.1625
 3803SOL    HW122871   3.430   1.689   7.908 -1.7735 -0.9895  0.0597
 3803SOL    HW222872   3.431   1.588   8.019  0.7005 -0.3316 -1.6752
 3804SOL     OW22873   0.974   2.199   6.570 -0.1597 -0.1935 -0.1880
 3804SOL    HW122874   0.896   2.250   6.593  0.5430  1.0340 -0.5446
 3804SOL    HW222875   0.950   2.183   6.479 -1.2471  0.5563 -0.0325
 3805SOL     OW22876   0.351   2.747   5.951 -0.2391  0.3016  0.0190
 3805SOL    HW122877   0.401   2.677   5.992 -1.9930 -1.8141 -1.5142
 3805SOL    HW222878   0.347   2.711   5.863  0.2727 -2.1377  1.0021
 3806SOL     OW22879   2.921   1.822  11.873 -0.3717  0.1348 -0.0130
 3806SOL    HW122880   2.845   1.816  11.931  0.6417  1.5913  1.4573
 3806SOL    HW222881   2.988   1.774  11.921  0.9251 -0.0841 -2.0494
 3807SOL     OW22882   1.960   2.375  15.918 -0.2982  0.0093  0.8094
 3807SOL    HW122883   1.991   2.465  15.909  0.8774 -0.6254 -1.2157
 3807SOL    HW222884   1.993   2.352  16.005  0.6197  0.2312  0.5207
 3808SOL     OW22885   2.790   3.244  12.936 -0.2661  0.1478  0.3967
 3808SOL    HW122886   2.721   3.310  12.927 -2.9190 -2.9348 -2.1025
 3808SOL    HW222887   2.838   3.250  12.853 -1.6781  2.7188 -0.2351
 3809SOL     OW22888   3.697   2.444   3.711 -0.2677  0.1750  0.5869
 3809SOL    HW122889   3.685   2.355   3.743 -0.6888  0.2684  0.6787
 3809SOL    HW222890   3.788   2.451   3.742  0.0593  2.7932 -0.9789
 3810SOL     OW22891   0.552   3.849   1.518  0.5926 -0.0920  0.2649
 3810SOL    HW122892   0.515   3.913   1.579  0.2991 -0.1754  0.1761
 3810SOL    HW222893   0.488   3.845   1.446  0.8864  2.2694 -0.1478
 3811SOL     OW22894   0.490   0.579   9.199 -0.0168 -0.1286 -0.0816
 3811SOL    HW122895   0.542   0.575   9.118 -0.8898 -0.6074 -0.6153
 3811SOL    HW222896   0.556   0.581   9.269 -0.0009 -1.5561 -0.0464
 3812SOL     OW22897   3.678   2.576   2.382  0.6718  0.3754  0.2141
 3812SOL    HW122898   3.678   2.649   2.444  1.7284  0.2960  0.3110
 3812SOL    HW222899   3.748   2.602   2.322 -1.0091 -0.2091 -1.9852
 3813SOL     OW22900   1.835   4.448   2.708  0.1007  0.4881  0.3254
 3813SOL    HW122901   1.863   4.396   2.783 -0.4703 -2.9607 -1.8893
 3813SOL    HW222902   1.765   4.502   2.746  0.5999  0.9954  0.5338
 3814SOL     OW22903   1.364   1.100   2.522 -0.3377  0.5676 -0.2786
 3814SOL    HW122904   1.348   1.134   2.434 -1.8250 -0.2340 -0.3126
 3814SOL    HW222905   1.413   1.166   2.572 -0.7708  1.6158 -1.2232
 3815SOL     OW22906   3.737   1.641   2.955 -0.3944 -0.3542  0.2575
 3815SOL    HW122907   3.699   1.687   3.030  1.5954  0.2865  0.8481
 3815SOL    HW222908   3.715   1.552   2.982  1.1537 -0.5968  0.6941
 3816SOL     OW22909   3.573   4.366   8.163  0.5760  0.2983 -0.2604
 3816SOL    HW122910   3.481   4.343   8.154  0.9578 -0.9646 -0.9411
 3816SOL    HW222911   3.613   4.301   8.105  1.4131  0.5145  0.0823
 3817SOL     OW22912   4.160   1.181   5.604 -0.9667  0.2017 -0.6201
 3817SOL    HW122913   4.146   1.189   5.510 -0.3159  2.4267 -0.5222
 3817SOL    HW222914   4.255   1.185   5.613 -0.9331  1.2315 -1.3621
 3818SOL     OW22915   1.250   4.337   5.367  0.0107 -0.3114 -0.1612
 3818SOL    HW122916   1.189   4.292   5.426  0.0317  2.1166  1.6692
 3818SOL    HW222917   1.188   4.372   5.302  0.2364  0.0061 -0.2048
 3819SOL     OW22918   1.861   2.574  17.240 -0.7530  0.3270 -0.5107
 3819SOL    HW122919   1.845   2.638  17.309  2.2631 -0.0970  0.5664
 3819SOL    HW222920   1.822   2.492  17.272 -0.0622  0.6530  1.1410
 3820SOL     OW22921   4.328   0.235   5.980 -0.0958  0.0072 -0.3974
 3820SOL    HW122922   4.271   0.256   6.053 -1.8083  0.4261 -1.8566
 3820SOL    HW222923   4.318   0.318   5.933 -2.7304  1.8102  3.3913
 3821SOL     OW22924   2.971   2.095   8.297  0.1390 -0.3471 -0.4571
 3821SOL    HW122925   2.879   2.069   8.298  0.7732 -2.4127  1.5812
 3821SOL    HW222926   2.971   2.173   8.353  2.9336  1.7601 -3.3504
 3822SOL     OW22927   2.576   2.441   4.700 -0.0423  0.4964 -0.0177
 3822SOL    HW122928   2.601   2.482   4.783  2.7530  2.0872 -1.6349
 3822SOL    HW222929   2.504   2.384   4.726  0.1377  0.0354 -0.5140
 3823SOL     OW22930   0.606   4.691  14.618 -0.0168 -0.2781 -0.2048
 3823SOL    HW122931   0.537   4.709  14.554 -0.4432 -1.1665  0.0052
 3823SOL    HW222932   0.578   0.007  14.701  2.1467  0.3925  0.1857
 3824SOL     OW22933   3.992   2.285   7.744  0.0504 -0.0806 -0.6020
 3824SOL    HW122934   3.925   2.273   7.676 -0.0136  0.4755 -0.6367
 3824SOL    HW222935   4.069   2.318   7.698 -0.3580  1.4898 -0.1479
 3825SOL     OW22936   3.479   2.072   1.745  0.3709  0.0447  0.7800
 3825SOL    HW122937   3.554   2.065   1.804 -0.9022 -1.5985  2.2124
 3825SOL    HW222938   3.493   2.163   1.719  0.1778 -0.0474  0.3425
 3826SOL     OW22939   1.260   1.117   1.995 -0.2751  0.4771  0.9378
 3826SOL    HW122940   1.206   1.115   1.916  0.6140 -4.3419  0.4886
 3826SOL    HW222941   1.348   1.094   1.965 -0.7845 -2.0676  1.4007
 3827SOL     OW22942   2.896   1.694   7.124  0.3229  0.8913 -0.0519
 3827SOL    HW122943   2.801   1.708   7.131  0.0241 -2.0046  1.6804
 3827SOL    HW222944   2.938   1.773   7.157  1.0985  1.0605 -1.4403
 3828SOL     OW22945   1.843   3.659   6.595  0.6924 -0.1170  0.3336
 3828SOL    HW122946   1.776   3.712   6.638 -0.7194 -1.2941 -0.4046
 3828SOL    HW222947   1.795   3.641   6.514 -0.4652  1.7465  0.6117
 3829SOL     OW22948   0.443   4.353   0.497  0.1875 -0.2520  0.1442
 3829SOL    HW122949   0.399   4.372   0.580 -3.0451  0.0459 -1.6318
 3829SOL    HW222950   0.381   4.309   0.439 -2.6756  3.5692  0.3075
 3830SOL     OW22951   4.366   3.667  12.304 -0.1343  0.3552  0.0237
 3830SOL    HW122952   4.445   3.629  12.343 -0.0795  0.7299  0.2789
 3830SOL    HW222953   4.315   3.694  12.380  0.8550 -1.3722  1.3062
 3831SOL     OW22954   0.346   1.838   4.606 -0.4619  0.1654 -0.5938
 3831SOL    HW122955   0.392   1.827   4.689  0.0210 -3.4387 -1.3536
 3831SOL    HW222956   0.344   1.932   4.587 -3.2163  0.2227 -0.0519
 3832SOL     OW22957   4.338   0.836  14.643  0.4999 -0.2703  0.3011
 3832SOL    HW122958   4.320   0.776  14.716 -1.5275 -1.8987 -1.5468
 3832SOL    HW222959   4.419   0.881  14.667  0.6605 -0.2671 -0.2424
 3833SOL     OW22960   2.573   3.282   5.781 -0.3016  0.4240 -0.0846
 3833SOL    HW122961   2.516   3.221   5.828  0.6370  0.3983  1.0267
 3833SOL    HW222962   2.647   3.276   5.843  1.8211 -0.4870 -2.7086
 3834SOL     OW22963   2.005   3.378   9.070 -0.3626 -0.4581  0.2110
 3834SOL    HW122964   2.057   3.381   9.151  0.1707 -3.0619 -0.0414
 3834SOL    HW222965   2.026   3.287   9.047 -0.8868 -0.7691  0.9382
 3835SOL     OW22966   0.474   3.305   3.549  0.0322  0.5851 -0.0374
 3835SOL    HW122967   0.510   3.392   3.565 -0.2246  0.9196 -1.3034
 3835SOL    HW222968   0.460   3.313   3.455  1.4912  0.0109 -0.3101
 3836SOL     OW22969   1.813   1.769   9.703 -0.2879 -0.2766 -0.2919
 3836SOL    HW122970   1.807   1.692   9.647  2.5683  0.0673 -1.0657
 3836SOL    HW222971   1.801   1.731   9.791  0.7680  2.1642  0.9049
 3837SOL     OW22972   4.374   0.420   8.728  0.0120 -0.5243 -0.5452
 3837SOL    HW122973   4.321   0.500   8.724 -1.3523 -1.3518  1.1697
 3837SOL    HW222974   4.331   0.376   8.801  1.6369 -1.2250 -0.0259
 3838SOL     OW22975   3.040   0.259  15.848  0.2100 -0.1869 -0.3396
 3838SOL    HW122976   3.002   0.204  15.917 -0.2472 -0.5384 -0.8679
 3838SOL    HW222977   3.132   0.237  15.859  0.1416 -1.6682 -2.9371
 3839SOL     OW22978   1.579   3.667   7.546 -0.3285 -0.0323 -0.2589
 3839SOL    HW122979   1.511   3.706   7.493 -0.5438 -0.3939 -0.2486
 3839SOL    HW222980   1.535   3.669   7.631  0.3467 -0.0889  0.0951
 3840SOL     OW22981   4.229   1.943   2.777 -0.6384  0.0480  0.0855
 3840SOL    HW122982   4.237   1.967   2.685 -1.5682 -1.6318 -0.4304
 3840SOL    HW222983   4.323   1.957   2.788 -0.0870 -1.7204 -2.3886
 3841SOL     OW22984   2.371   1.685   4.239  0.3647 -0.0615  0.4326
 3841SOL    HW122985   2.334   1.648   4.319 -2.3167  0.0452 -0.7656
 3841SOL    HW222986   2.351   1.619   4.172  1.3124  0.1187 -0.0277
 3842SOL     OW22987   2.157   0.134   3.901  0.4820  0.1578  0.0455
 3842SOL    HW122988   2.217   0.114   3.829 -0.7360  0.1632 -0.9847
 3842SOL    HW222989   2.109   0.051   3.906  3.8886 -1.6066  2.8911
 3843SOL     OW22990   1.306   3.270   6.908  0.5335 -0.0751  0.3778
 3843SOL    HW122991   1.256   3.236   6.834  0.1052  0.8046  0.2720
 3843SOL    HW222992   1.254   3.240   6.983 -0.7664  1.2461 -0.0152
 3844SOL     OW22993   4.209   0.781   8.016  0.4423 -0.4312 -0.0204
 3844SOL    HW122994   4.226   0.773   7.922 -0.8186 -1.0451 -0.2012
 3844SOL    HW222995   4.142   0.847   8.004 -0.0883 -1.7851 -4.5813
 3845SOL     OW22996   1.710   2.147   1.181 -0.8145  0.1143  0.0264
 3845SOL    HW122997   1.734   2.196   1.102 -1.2128  0.2137 -0.0354
 3845SOL    HW222998   1.742   2.199   1.255  0.8403  0.0683 -0.6529
 3846SOL     OW22999   2.009   4.393  13.940 -0.5421  0.1646 -0.5200
 3846SOL    HW123000   2.063   4.346  13.876 -1.4798 -0.8206 -0.5943
 3846SOL    HW223001   1.956   4.446  13.881 -2.7168  0.3644  1.5957
 3847SOL     OW23002   0.191   3.843  10.698 -0.2495  0.2083  0.5737
 3847SOL    HW123003   0.117   3.899  10.675 -1.8122 -1.4191  1.5644
 3847SOL    HW223004   0.244   3.905  10.748 -2.2222  1.5779  0.9900
 3848SOL     OW23005   2.861   0.507   7.527 -0.3161 -0.3380 -0.1743
 3848SOL    HW123006   2.919   0.433   7.540  1.1279  0.4073 -2.5150
 3848SOL    HW223007   2.918   0.583   7.527  3.2331 -3.0067  0.8405
 3849SOL     OW23008   1.013   4.513  12.379 -0.1232  0.2599 -0.1564
 3849SOL    HW123009   1.047   4.601  12.363 -0.7261  0.5580  0.1905
 3849SOL    HW223010   1.064   4.467  12.312 -0.1056  0.6912 -0.4422
 3850SOL     OW23011   2.819   1.044   8.289 -0.2371  0.1950  0.2325
 3850SOL    HW123012   2.787   1.111   8.228  2.3749 -0.2913 -1.6276
 3850SOL    HW223013   2.820   0.960   8.243  0.4305  0.6892 -0.6465
 3851SOL     OW23014   3.273   0.146  12.223 -0.3616 -0.3161  0.2935
 3851SOL    HW123015   3.347   0.144  12.284 -0.2362  2.3593  0.2474
 3851SOL    HW223016   3.305   0.075  12.166  0.9793  0.8375 -0.4084
 3852SOL     OW23017   3.751   1.629   7.786 -0.0400  0.2980 -0.0040
 3852SOL    HW123018   3.760   1.686   7.863 -0.8528 -0.5137  0.6907
 3852SOL    HW223019   3.799   1.554   7.820  0.5068  0.0648 -1.2956
 3853SOL     OW23020   1.584   1.788   5.075 -0.4187  0.2311 -0.0486
 3853SOL    HW123021   1.599   1.710   5.127 -0.6149  0.0294 -0.2924
 3853SOL    HW223022   1.489   1.797   5.069 -0.6955 -0.9276  2.4803
 3854SOL     OW23023   0.517   2.834   3.939 -0.5385 -0.1034  0.3448
 3854SOL    HW123024   0.506   2.909   3.997 -2.3520 -0.1280  0.0171
 3854SOL    HW223025   0.506   2.879   3.856 -2.6067  0.9639  1.2127
 3855SOL     OW23026   0.241   0.721   1.121  0.4687  0.6153 -0.1845
 3855SOL    HW123027   0.240   0.675   1.205  0.6875  2.9014  1.0652
 3855SOL    HW223028   0.260   0.810   1.150  0.6456 -0.1191  1.9167
 3856SOL     OW23029   0.875   4.091  14.230 -0.6094  0.0942  0.3495
 3856SOL    HW123030   0.800   4.146  14.257 -2.0219 -1.0849 -1.1460
 3856SOL    HW223031   0.823   4.056  14.158  0.3853 -0.3340 -0.1528
 3857SOL     OW23032   0.565   1.202   1.840  1.1466 -0.2877 -0.1474
 3857SOL    HW123033   0.599   1.114   1.828 -1.3792 -1.2163 -0.4348
 3857SOL    HW223034   0.499   1.207   1.771  1.2265 -0.6492 -0.2471
 3858SOL     OW23035   2.837   4.378   1.608 -0.3684 -0.3923 -0.3063
 3858SOL    HW123036   2.805   4.317   1.675 -1.0395  0.6369  0.3117
 3858SOL    HW223037   2.865   4.460   1.648  1.2409 -0.1204 -2.0001
 3859SOL     OW23038   4.611   0.571   9.005 -0.4224  0.1321 -0.3285
 3859SOL    HW123039   4.563   0.572   9.088  0.7659 -0.2464  0.3612
 3859SOL    HW223040   4.553   0.631   8.958 -0.9330  0.8969  1.2634
 3860SOL     OW23041   2.645   0.892   2.062  0.0993  0.3872 -0.2145
 3860SOL    HW123042   2.662   0.828   1.992 -1.4163 -0.3157  0.0601
 3860SOL    HW223043   2.673   0.966   2.007  1.0398 -0.8080 -1.3752
 3861SOL     OW23044   2.108   4.646   5.497 -0.5938  0.3009  0.1923
 3861SOL    HW123045   2.151   4.573   5.452 -0.4267  0.3606  0.2559
 3861SOL    HW223046   2.091   4.600   5.579  0.0223 -0.1136  0.0936
 3862SOL     OW23047   2.128   1.390  11.189 -0.1148 -0.0954 -0.1066
 3862SOL    HW123048   2.220   1.365  11.187 -0.0866 -0.0566  0.7178
 3862SOL    HW223049   2.130   1.470  11.136  1.1057  0.6942  1.1403
 3863SOL     OW23050   2.345   4.314   4.036 -0.0429  0.1939 -0.0752
 3863SOL    HW123051   2.372   4.230   4.000 -1.4532  0.7725 -2.4623
 3863SOL    HW223052   2.349   4.382   3.968 -0.0471  1.5204  1.2359
 3864SOL     OW23053   3.979   3.919   5.002 -0.4190  0.1090  0.3251
 3864SOL    HW123054   4.022   3.837   4.980 -0.2321  0.4528 -0.5929
 3864SOL    HW223055   4.033   3.982   4.954  0.1250 -1.4243 -1.1131
 3865SOL     OW23056   2.406   4.514   7.919 -0.2308  0.1559 -0.0003
 3865SOL    HW123057   2.374   4.570   7.989  0.7578  3.0286 -1.8591
 3865SOL    HW223058   2.449   4.572   7.857 -1.0502 -1.4895 -2.1131
 3866SOL     OW23059   3.277   0.871   8.148  0.3852 -0.3546 -0.0976
 3866SOL    HW123060   3.343   0.939   8.133 -0.0441  0.1912  0.4871
 3866SOL    HW223061   3.205   0.896   8.089  0.0118  1.9177  1.3114
 3867SOL     OW23062   3.195   2.165   6.112 -0.2442  0.0898  0.1470
 3867SOL    HW123063   3.186   2.097   6.045 -2.5745  0.8752 -0.3258
 3867SOL    HW223064   3.220   2.243   6.063 -1.0143 -0.5933 -1.3290
 3868SOL     OW23065   4.324   3.956  15.192 -0.1840 -0.0214  0.6907
 3868SOL    HW123066   4.313   3.985  15.101 -2.5498 -0.5990  0.7995
 3868SOL    HW223067   4.237   3.950  15.231 -0.4189  1.1179  0.3350
 3869SOL     OW23068   3.430   3.189   8.480  0.1759  1.0767  0.4034
 3869SOL    HW123069   3.519   3.155   8.482  0.1864  1.1511  1.2447
 3869SOL    HW223070   3.443   3.279   8.511  0.2370  1.7175 -1.4948
 3870SOL     OW23071   3.202   3.715   2.989  0.5212 -0.1506 -0.3442
 3870SOL    HW123072   3.138   3.765   2.938 -0.2477 -0.0812  0.6893
 3870SOL    HW223073   3.173   3.748   3.074 -2.1509 -1.7065 -0.6664
 3871SOL     OW23074   2.658   0.624   6.682 -0.5428 -0.1316 -0.0119
 3871SOL    HW123075   2.599   0.663   6.747  1.6788  1.1056  1.2584
 3871SOL    HW223076   2.745   0.647   6.715 -0.8888  1.2769 -0.0679
 3872SOL     OW23077   3.843   1.531   9.859 -0.0142  0.1828  0.0797
 3872SOL    HW123078   3.907   1.553   9.926 -0.2588 -0.4128  0.5045
 3872SOL    HW223079   3.821   1.440   9.879 -0.0442  0.1875  0.0687
 3873SOL     OW23080   1.137   0.532   4.403 -0.2646  0.0081 -0.1757
 3873SOL    HW123081   1.043   0.517   4.416  0.1590 -1.2202  1.3651
 3873SOL    HW223082   1.179   0.506   4.485 -0.8750 -0.2061  0.0724
 3874SOL     OW23083   0.918   1.413   2.791  0.4116 -1.0185 -0.7945
 3874SOL    HW123084   0.921   1.377   2.702  0.2392 -3.1391  0.0539
 3874SOL    HW223085   0.830   1.384   2.814 -0.5687  2.0425 -0.6534
 3875SOL     OW23086   1.884   3.732   9.104 -0.7065 -0.7898  0.0459
 3875SOL    HW123087   1.880   3.668   9.033  1.9159 -0.4576 -0.3923
 3875SOL    HW223088   1.830   3.802   9.068 -2.9756 -2.4275  0.2566
 3876SOL     OW23089   4.176   4.494   8.428 -0.1034  0.5609 -0.5355
 3876SOL    HW123090   4.114   4.530   8.365 -0.5447 -0.3598 -0.6334
 3876SOL    HW223091   4.253   4.521   8.380  0.3310  3.0950  1.6156
 3877SOL     OW23092   0.945   0.950  14.535  0.0400 -0.2417  0.4985
 3877SOL    HW123093   0.878   0.980  14.597  1.8495  0.2902  2.1902
 3877SOL    HW223094   0.959   0.864  14.574  1.6517 -0.4751 -0.5900
 3878SOL     OW23095   0.142   2.949   8.994 -0.2225  0.1882  0.5069
 3878SOL    HW123096   0.183   3.013   9.053  0.2163  0.8002 -0.4638
 3878SOL    HW223097   0.178   2.862   9.010 -1.1873  0.0397  1.8252
 3879SOL     OW23098   1.859   0.148   0.677 -0.3107  0.0365 -0.2881
 3879SOL    HW123099   1.879   0.156   0.770 -1.8026 -1.8059  0.2065
 3879SOL    HW223100   1.767   0.123   0.687 -0.2989 -0.0611 -0.4112
 3880SOL     OW23101   1.024   2.690   5.486  0.2600  0.1644  0.3821
 3880SOL    HW123102   1.056   2.780   5.488 -0.0789  0.3111 -0.4077
 3880SOL    HW223103   1.108   2.646   5.474 -0.0109 -0.7311  1.7916
 3881SOL     OW23104   0.002   4.204   0.516  0.2027  0.0485  0.4818
 3881SOL    HW123105   0.081   4.195   0.463  0.3076  3.2764  0.0899
 3881SOL    HW223106   4.668   4.164   0.450  0.0532  2.2839 -0.7488
 3882SOL     OW23107   2.867   0.539   2.979  0.0393 -0.1780  0.3000
 3882SOL    HW123108   2.886   0.480   2.906 -0.2154 -1.2776  1.1209
 3882SOL    HW223109   2.929   0.611   2.970 -1.0384  0.8096  0.7983
 3883SOL     OW23110   3.959   1.782   4.115 -0.1303  0.4118 -0.1207
 3883SOL    HW123111   3.910   1.731   4.051 -1.1140 -1.4164  2.0825
 3883SOL    HW223112   3.971   1.708   4.175  0.3625 -0.2160 -0.9981
 3884SOL     OW23113   4.672   4.238   6.540  0.4353  0.0929  0.2006
 3884SOL    HW123114   4.625   4.291   6.477  0.0640  0.5540  0.8643
 3884SOL    HW223115   4.661   4.156   6.492  1.8227 -1.3319  2.2599
 3885SOL     OW23116   0.973   2.149   4.805  0.1257 -0.2220 -0.2623
 3885SOL    HW123117   0.964   2.067   4.755 -0.1362 -0.4098  0.0936
 3885SOL    HW223118   0.889   2.192   4.791 -0.4105 -1.6550 -1.4731
 3886SOL     OW23119   3.699   0.244   7.267  0.3845  0.5142  0.2576
 3886SOL    HW123120   3.609   0.269   7.283 -0.3797 -1.6393 -0.6521
 3886SOL    HW223121   3.684   0.168   7.211  2.8202 -0.0571  0.3487
 3887SOL     OW23122   0.905   4.151   9.761  0.3517 -0.1924 -0.0089
 3887SOL    HW123123   0.868   4.205   9.691  0.5588 -0.7394 -0.5359
 3887SOL    HW223124   0.979   4.112   9.715  0.4952 -1.1326  1.0034
 3888SOL     OW23125   0.480   3.847   6.021  0.0779  0.4153  0.6399
 3888SOL    HW123126   0.385   3.853   6.026 -0.0388  0.1720 -1.4730
 3888SOL    HW223127   0.512   3.925   5.975 -1.5558  0.4861 -0.3491
 3889SOL     OW23128   3.032   3.028   5.658 -0.4368 -0.0260 -0.0930
 3889SOL    HW123129   3.019   2.954   5.717  0.5891  1.1416  1.5921
 3889SOL    HW223130   3.001   3.001   5.571 -0.7000  0.8562 -0.2710
 3890SOL     OW23131   4.138   2.688   0.715  0.4440  0.6754  0.1249
 3890SOL    HW123132   4.064   2.628   0.726  0.9110 -0.2560 -1.8726
 3890SOL    HW223133   4.122   2.751   0.786 -1.5670  1.2799 -0.8373
 3891SOL     OW23134   1.537   0.562  10.264 -0.1067  0.7442  0.6963
 3891SOL    HW123135   1.591   0.602  10.332  1.4953 -1.1544  0.5356
 3891SOL    HW223136   1.600   0.584  10.196 -1.2101  0.7892 -0.3081
 3892SOL     OW23137   2.771   4.708  11.611  0.1522  0.0394 -0.0890
 3892SOL    HW123138   2.684   0.020  11.594  0.7788  3.1334  3.0907
 3892SOL    HW223139   2.750   4.620  11.642  1.0003 -0.6344 -1.4495
 3893SOL     OW23140   3.894   0.051   0.107  0.9103  0.2920  0.0896
 3893SOL    HW123141   3.894   0.136   0.064 -2.6014  0.2044 -0.0702
 3893SOL    HW223142   3.959   4.722   0.060  0.1586  0.3722 -1.0394
 3894SOL     OW23143   0.120   4.083   1.317  0.1394 -0.3924 -0.1857
 3894SOL    HW123144   0.128   4.017   1.386 -2.3427  0.7348  1.1783
 3894SOL    HW223145   0.027   4.103   1.327  0.3404 -0.2219  1.3459
 3895SOL     OW23146   3.566   4.271   4.882  0.4247  0.3584  0.6412
 3895SOL    HW123147   3.563   4.216   4.961 -0.1438 -0.3006  0.1615
 3895SOL    HW223148   3.646   4.239   4.838 -0.3806  0.5734 -0.9766
 3896SOL     OW23149   4.076   2.641   3.604  0.3571  0.4505  0.1497
 3896SOL    HW123150   4.072   2.709   3.671 -0.7776 -1.2258  1.7945
 3896SOL    HW223151   3.982   2.625   3.602  0.4755 -0.6093  2.5765
 3897SOL     OW23152   4.069   0.612   2.550  0.0864  0.2073 -0.4729
 3897SOL    HW123153   4.141   0.616   2.487 -0.8864 -2.9830 -1.7719
 3897SOL    HW223154   4.041   0.521   2.539  1.8743 -0.5541  1.2428
 3898SOL     OW23155   3.070   3.383  11.504  0.1500 -0.3796 -0.2038
 3898SOL    HW123156   3.108   3.300  11.473 -1.3352 -0.9750 -0.4344
 3898SOL    HW223157   3.048   3.422  11.420  0.9103 -1.4181 -0.8987
 3899SOL     OW23158   3.914   0.406  13.584  0.4667  0.2608 -0.7497
 3899SOL    HW123159   3.874   0.440  13.664 -1.8288  2.1185 -2.6763
 3899SOL    HW223160   3.959   0.331  13.623 -0.9069  1.2971  2.7638
 3900SOL     OW23161   0.778   3.604  10.250  0.1836 -0.5808 -0.5321
 3900SOL    HW123162   0.816   3.691  10.234  1.0248 -0.8996 -0.2380
 3900SOL    HW223163   0.838   3.580  10.320  0.4403 -0.0213 -0.5621
 3901SOL     OW23164   0.297   2.482   3.015 -0.4809 -0.5280  0.1722
 3901SOL    HW123165   0.376   2.503   2.966  0.0871  0.3241  1.4456
 3901SOL    HW223166   0.303   2.529   3.098 -0.3439 -0.9437  0.3972
 3902SOL     OW23167   2.995   4.070   0.867  0.0391 -0.0752 -0.0539
 3902SOL    HW123168   3.008   4.165   0.875 -0.9442  0.0503  0.1064
 3902SOL    HW223169   3.036   4.037   0.947  1.8271  2.3453  0.0468
 3903SOL     OW23170   3.020   4.008   5.154 -0.0157  0.0028  0.2087
 3903SOL    HW123171   2.971   3.945   5.206 -0.1146 -0.4008 -0.3670
 3903SOL    HW223172   3.089   4.025   5.218 -0.6069  1.5569  0.4226
 3904SOL     OW23173   4.461   3.978   3.978  0.9114  0.2992  0.4652
 3904SOL    HW123174   4.527   4.041   4.006 -0.7339  1.3686  1.9249
 3904SOL    HW223175   4.506   3.899   4.010  0.4158  0.3550  1.2900
 3905SOL     OW23176   3.315   0.598   9.045  0.3172  0.2666  0.0542
 3905SOL    HW123177   3.366   0.572   9.122 -0.7296 -0.2770  0.5632
 3905SOL    HW223178   3.227   0.595   9.081  0.7891  0.9571  1.2819
 3906SOL     OW23179   3.321   3.711   4.212 -0.2080  0.1846  0.6735
 3906SOL    HW123180   3.339   3.720   4.306 -0.4467 -0.7640  0.8045
 3906SOL    HW223181   3.294   3.803   4.201  0.5093  0.0465 -2.1653
 3907SOL     OW23182   3.283   3.431   8.303 -0.0805  0.0815 -0.2578
 3907SOL    HW123183   3.275   3.340   8.330 -0.3876 -0.2938 -1.5915
 3907SOL    HW223184   3.374   3.446   8.330  0.4437 -2.0037 -0.8496
 3908SOL     OW23185   1.774   0.552  16.320 -0.2639 -0.4366  0.3760
 3908SOL    HW123186   1.839   0.486  16.296 -1.0661 -0.0418 -2.7915
 3908SOL    HW223187   1.792   0.623  16.258  0.7194 -0.4165  0.6924
 3909SOL     OW23188   1.793   2.043   8.692  0.0034 -0.0546  0.5391
 3909SOL    HW123189   1.790   2.020   8.785 -1.4417 -0.7811  0.3243
 3909SOL    HW223190   1.866   1.984   8.674 -0.9998 -0.5569 -1.8427
 3910SOL     OW23191   1.405   3.515   1.698  0.3569 -0.6553  0.0759
 3910SOL    HW123192   1.450   3.597   1.680  1.1588 -1.4332 -1.4073
 3910SOL    HW223193   1.315   3.537   1.671  0.2766 -0.5311  0.4434
 3911SOL     OW23194   4.458   2.602   7.089 -0.0707  0.6415 -0.4945
 3911SOL    HW123195   4.400   2.583   7.163 -1.9832 -1.4992 -2.4959
 3911SOL    HW223196   4.479   2.695   7.098 -0.3149  0.7058 -0.5673
 3912SOL     OW23197   2.254   3.192  11.472  0.3641 -0.2798  0.0138
 3912SOL    HW123198   2.223   3.263  11.416 -0.8072 -1.3529 -0.6843
 3912SOL    HW223199   2.214   3.115  11.433  0.0363 -0.8372  1.4712
 3913SOL     OW23200   0.077   0.841   9.234  0.2505  0.2113 -0.0826
 3913SOL    HW123201   0.051   0.749   9.222  0.3805  0.2126 -0.3904
 3913SOL    HW223202   0.122   0.860   9.151  1.2248  1.3073  0.6996
 3914SOL     OW23203   1.928   2.377   4.048 -0.6920 -0.3958 -0.3336
 3914SOL    HW123204   1.867   2.370   4.121 -0.6637  1.7450 -0.1167
 3914SOL    HW223205   1.998   2.324   4.088  1.5881  2.3103 -0.7105
 3915SOL     OW23206   0.818   2.172  14.496  0.3205 -0.1135  0.1263
 3915SOL    HW123207   0.735   2.217  14.479  0.6357 -0.6795 -2.8738
 3915SOL    HW223208   0.804   2.127  14.579  0.4998 -1.3001 -0.4995
 3916SOL     OW23209   0.990   0.650   5.860  0.0751 -0.6894 -0.2999
 3916SOL    HW123210   1.046   0.727   5.857 -2.5830  1.2109 -1.1965
 3916SOL    HW223211   1.029   0.597   5.929  0.6721 -2.3080 -1.8791
 3917SOL     OW23212   2.835   0.037  12.323  0.0324  0.1606 -0.0318
 3917SOL    HW123213   2.827   0.117  12.375 -1.6850  0.5200 -0.8633
 3917SOL    HW223214   2.916   0.050  12.274  0.1866 -0.2406  0.1151
 3918SOL     OW23215   1.197   4.446   9.602  0.5137  0.4149 -0.3298
 3918SOL    HW123216   1.265   4.407   9.546 -1.8847  1.9925 -4.3380
 3918SOL    HW223217   1.123   4.404   9.558  1.5341 -1.6534 -0.0533
 3919SOL     OW23218   1.542   1.738   2.012  0.1308 -0.0009  0.0509
 3919SOL    HW123219   1.636   1.737   1.994  0.0023 -0.1131 -0.5981
 3919SOL    HW223220   1.555   1.710   2.103  0.5032 -1.6147 -0.4945
 3920SOL     OW23221   2.489   3.741  17.486  0.6548 -0.5112 -0.0581
 3920SOL    HW123222   2.487   3.808  17.555  2.1885  1.1689 -1.6506
 3920SOL    HW223223   2.479   3.779  17.399 -0.2290  0.6606  0.5456
 3921SOL     OW23224   3.008   2.285  17.254 -0.3131 -1.2677  0.5670
 3921SOL    HW123225   2.965   2.349  17.198 -0.4092 -0.3846  1.6494
 3921SOL    HW223226   3.082   2.258  17.200  0.5642 -1.0666  1.6616
 3922SOL     OW23227   0.116   1.394  12.240 -0.6740  0.2931  0.1040
 3922SOL    HW123228   0.125   1.475  12.189 -0.7904  0.4718  0.3651
 3922SOL    HW223229   0.042   1.424  12.293 -0.6233 -0.7545  0.7764
 3923SOL     OW23230   3.435   3.232  16.409  0.2740  0.3891  0.2999
 3923SOL    HW123231   3.455   3.203  16.498  0.9776  0.0127  0.0168
 3923SOL    HW223232   3.489   3.176  16.354 -0.3515 -0.1970  0.2725
 3924SOL     OW23233   3.303   3.155   7.969 -0.5299 -0.4869 -0.0260
 3924SOL    HW123234   3.264   3.107   8.042 -0.8193 -1.1324 -0.6058
 3924SOL    HW223235   3.245   3.228   7.947  0.2850  0.5960  1.4046
 3925SOL     OW23236   0.054   1.077   1.849  0.1172  0.8447 -0.3743
 3925SOL    HW123237   0.025   1.103   1.937 -1.2302  0.3300 -0.6719
 3925SOL    HW223238   4.721   1.009   1.813  0.2362  0.4902  0.1102
 3926SOL     OW23239   2.432   3.012  13.126  0.4706  0.2371 -0.6993
 3926SOL    HW123240   2.443   2.953  13.201  1.1767  1.3774  0.0975
 3926SOL    HW223241   2.361   3.073  13.146 -0.6795 -1.6173  0.9044
 3927SOL     OW23242   0.827   0.954  16.586 -0.2588 -0.0967  0.5300
 3927SOL    HW123243   0.827   1.047  16.561 -1.9517 -0.4452 -0.7230
 3927SOL    HW223244   0.735   0.937  16.567 -0.0217 -1.8025  0.9113
 3928SOL     OW23245   2.648   3.142  12.310 -0.7962  0.2178  0.0021
 3928SOL    HW123246   2.724   3.110  12.262  0.8846  1.6795  1.6501
 3928SOL    HW223247   2.670   3.228  12.345  0.3420 -0.1062  0.0745
 3929SOL     OW23248   3.363   3.566  14.075  0.0607  0.3495 -0.1508
 3929SOL    HW123249   3.356   3.496  14.140  1.0730  0.8654  0.5123
 3929SOL    HW223250   3.273   3.574  14.044  0.4817  0.1924 -1.4043
 3930SOL     OW23251   3.716   2.914   1.699  0.3172  0.0938  0.1840
 3930SOL    HW123252   3.648   2.848   1.717  0.0342  0.3244 -0.0374
 3930SOL    HW223253   3.789   2.853   1.690  0.5679  0.4067  0.1292
 3931SOL     OW23254   2.411   1.896   5.093  0.1924  0.3147  0.1997
 3931SOL    HW123255   2.439   1.950   5.167  0.8456 -0.0234  0.1996
 3931SOL    HW223256   2.374   1.818   5.134 -1.0599  1.4819  1.2902
 3932SOL     OW23257   1.019   0.297  15.613  0.7311 -0.4907 -0.6184
 3932SOL    HW123258   0.930   0.277  15.582 -0.4328  2.5281  0.7953
 3932SOL    HW223259   1.033   0.376  15.561  2.1682 -0.0152  0.4959
 3933SOL     OW23260   0.397   0.789  11.876 -0.0035  0.2859  0.5623
 3933SOL    HW123261   0.406   0.727  11.948 -1.2879  0.3928  0.7995
 3933SOL    HW223262   0.367   0.733  11.805  0.4197 -1.2310  1.5826
 3934SOL     OW23263   0.641   0.499   5.034  0.4348  0.3856  0.2980
 3934SOL    HW123264   0.602   0.579   5.068 -0.1909  0.5436 -0.8175
 3934SOL    HW223265   0.725   0.533   5.002 -0.4155  0.5485 -1.7533
 3935SOL     OW23266   4.720   2.896   4.997  0.2514 -0.1755 -0.8644
 3935SOL    HW123267   4.717   2.968   5.060  3.3124 -1.3030  0.5671
 3935SOL    HW223268   0.015   2.944   4.916  0.0425  0.4309 -0.5584
 3936SOL     OW23269   3.936   4.488   9.747  0.4189  0.1079 -0.0726
 3936SOL    HW123270   4.005   4.536   9.793  0.2299  0.0549  0.2737
 3936SOL    HW223271   3.852   4.500   9.792 -0.0755  0.9954 -1.2159
 3937SOL     OW23272   3.726   4.195   3.206 -0.0565  0.2959 -0.1827
 3937SOL    HW123273   3.657   4.192   3.140 -1.4197  0.8245  1.2004
 3937SOL    HW223274   3.683   4.218   3.289  1.7911  0.5377  0.7068
 3938SOL     OW23275   2.163   2.999   4.829 -0.6509 -0.3126  0.6044
 3938SOL    HW123276   2.095   2.941   4.794 -0.6221  0.5722 -0.9060
 3938SOL    HW223277   2.136   3.018   4.919 -1.7448 -0.2567  0.2577
 3939SOL     OW23278   2.307   4.582  16.362 -0.4709  0.5600 -0.3622
 3939SOL    HW123279   2.276   4.669  16.385 -2.9100 -0.5586  0.6370
 3939SOL    HW223280   2.397   4.591  16.331 -0.1188 -0.9837  0.2178
 3940SOL     OW23281   1.714   0.329   5.186 -0.6593 -0.6156  0.0841
 3940SOL    HW123282   1.710   0.233   5.190  1.1458 -0.7573 -2.0393
 3940SOL    HW223283   1.679   0.363   5.268 -2.8730  1.0221 -1.5609
 3941SOL     OW23284   0.454   1.392   5.126 -0.3137  0.4039 -0.1732
 3941SOL    HW123285   0.549   1.384   5.117 -0.4948 -0.0662 -1.6633
 3941SOL    HW223286   0.443   1.383   5.221 -1.3405  1.1733 -0.2160
 3942SOL     OW23287   1.129   0.507   3.806 -0.4309  0.2758 -0.0661
 3942SOL    HW123288   1.182   0.557   3.867 -0.1197 -1.2292  0.8829
 3942SOL    HW223289   1.195   0.442   3.784 -0.1032  0.7609 -0.4968
 3943SOL     OW23290   1.454   2.703   9.425 -0.0423  0.2466 -0.0424
 3943SOL    HW123291   1.404   2.763   9.481 -0.5024 -0.4202  0.2728
 3943SOL    HW223292   1.442   2.625   9.480  0.4070 -0.7627 -1.3881
 3944SOL     OW23293   3.819   2.945   8.938  0.8530  0.0097 -0.4440
 3944SOL    HW123294   3.834   2.916   9.028 -1.0945  0.3480 -0.0329
 3944SOL    HW223295   3.907   2.977   8.915  0.8269  1.1246  1.0345
 3945SOL     OW23296   3.903   0.170  10.120  0.1722  0.1711 -0.4121
 3945SOL    HW123297   3.901   0.192  10.027  1.1300  1.3347 -0.1637
 3945SOL    HW223298   3.825   0.115  10.126  0.9349 -1.0046 -1.2441
 3946SOL     OW23299   0.586   0.593   3.724  0.5717  0.0654 -0.4763
 3946SOL    HW123300   0.558   0.504   3.741  1.0303  0.3293  1.5907
 3946SOL    HW223301   0.669   0.589   3.772  0.5723 -0.3811 -0.5148
 3947SOL     OW23302   2.014   1.224   0.716 -0.4285  0.6190 -0.4504
 3947SOL    HW123303   2.010   1.261   0.627  2.5473 -2.7016 -1.9185
 3947SOL    HW223304   2.040   1.305   0.760 -0.3955  1.1078 -1.3601
 3948SOL     OW23305   1.795   1.013  15.638 -0.4515  0.1159 -0.2835
 3948SOL    HW123306   1.729   0.949  15.665  1.0892 -1.2104  0.3013
 3948SOL    HW223307   1.795   1.068  15.717  0.7167  3.6177 -2.7042
 3949SOL     OW23308   1.567   0.315   4.424 -0.3192 -0.2102  0.0389
 3949SOL    HW123309   1.606   0.344   4.506  1.2765  1.5388 -1.3197
 3949SOL    HW223310   1.475   0.333   4.442 -0.4499 -0.3034 -0.5148
 3950SOL     OW23311   1.683   2.001   4.338 -0.0412 -0.3662 -0.5235
 3950SOL    HW123312   1.760   2.014   4.393 -1.9966  0.0851  2.0955
 3950SOL    HW223313   1.697   1.912   4.304 -2.1435 -1.4083  1.3244
 3951SOL     OW23314   0.237   1.882   6.358 -0.1407 -0.0481  0.3242
 3951SOL    HW123315   0.300   1.815   6.384  0.5214  0.7350  0.7401
 3951SOL    HW223316   0.216   1.855   6.269  1.4461  0.2042 -0.1408
 3952SOL     OW23317   0.338   0.138   4.794 -0.2452  0.0609 -0.8818
 3952SOL    HW123318   0.284   0.159   4.718 -0.3627  1.2899 -0.4549
 3952SOL    HW223319   0.274   0.157   4.863 -1.0960  1.4683 -2.0659
 3953SOL     OW23320   2.944   0.728  15.479 -0.0409  0.5425 -0.0038
 3953SOL    HW123321   3.026   0.705  15.435 -0.3439  2.3393 -1.4971
 3953SOL    HW223322   2.910   0.796  15.420  1.5657  1.6439  0.3225
 3954SOL     OW23323   1.602   2.480  11.845  0.3104 -0.2977  0.3438
 3954SOL    HW123324   1.631   2.452  11.759  1.0099 -0.9168  0.7773
 3954SOL    HW223325   1.645   2.417  11.903  0.0863  0.7807  1.7107
 3955SOL     OW23326   3.742   1.417   7.533  0.1295 -0.2607  0.7322
 3955SOL    HW123327   3.708   1.353   7.596 -2.0016  0.8653  0.7251
 3955SOL    HW223328   3.680   1.414   7.460  0.5761 -0.5042  0.3644
 3956SOL     OW23329   0.772   3.180   7.011 -0.0387 -0.2777 -0.3380
 3956SOL    HW123330   0.682   3.154   7.030 -0.2844  1.1248  0.4182
 3956SOL    HW223331   0.809   3.095   6.986  2.6544  0.3414  1.6713
 3957SOL     OW23332   1.488   3.069  14.501  0.0819  0.0597  0.4319
 3957SOL    HW123333   1.410   3.015  14.516 -0.0753  0.1242 -0.1267
 3957SOL    HW223334   1.500   3.139  14.564  1.8530  0.3429 -0.2151
 3958SOL     OW23335   3.723   3.707   4.981  0.3590 -0.4333  0.4447
 3958SOL    HW123336   3.739   3.619   4.950 -0.3514 -0.6672  0.7326
 3958SOL    HW223337   3.785   3.751   4.923  0.6565 -1.3355  0.0909
 3959SOL     OW23338   1.659   2.309   5.244  0.0980 -0.0651 -0.1791
 3959SOL    HW123339   1.698   2.230   5.206  1.4296  0.2905  0.4900
 3959SOL    HW223340   1.569   2.288   5.216  0.0981 -1.9188  1.2657
 3960SOL     OW23341   1.528   0.967   9.789  0.1620  0.4924 -0.1303
 3960SOL    HW123342   1.464   1.011   9.733 -0.9390 -0.6516  0.2322
 3960SOL    HW223343   1.506   1.006   9.873  1.5456  1.8857 -0.4123
 3961SOL     OW23344   3.381   2.757   9.842  0.6843 -0.4049 -0.3736
 3961SOL    HW123345   3.299   2.806   9.853  0.7918 -0.9245  2.7096
 3961SOL    HW223346   3.343   2.686   9.790  0.9251 -0.3469 -0.6250
 3962SOL     OW23347   3.686   1.273   8.197  0.1482  0.0718 -0.3734
 3962SOL    HW123348   3.676   1.224   8.279 -0.3969  1.5561  0.4600
 3962SOL    HW223349   3.618   1.340   8.206  0.8148  0.5307  1.3834
 3963SOL     OW23350   4.140   0.197   3.712  0.8902  0.2319 -0.0640
 3963SOL    HW123351   4.065   0.232   3.664 -0.9617 -1.8944  1.2460
 3963SOL    HW223352   4.214   0.231   3.661  0.8637  0.5325  0.0983
 3964SOL     OW23353   0.165   3.695   7.140  0.0918 -0.2181  0.2352
 3964SOL    HW123354   0.227   3.639   7.093  2.5098  2.7033 -0.0805
 3964SOL    HW223355   0.140   3.633   7.208 -1.2174 -0.6557 -0.6439
 3965SOL     OW23356   4.681   2.924   4.510  0.5447  0.1110 -0.1465
 3965SOL    HW123357   4.625   2.885   4.577 -1.2878  1.3386 -0.9422
 3965SOL    HW223358   4.639   2.885   4.433 -0.5396 -0.9112  0.9557
 3966SOL     OW23359   0.408   3.726  13.903  0.3755  0.0308  0.3134
 3966SOL    HW123360   0.492   3.738  13.947 -0.9494  5.3297  1.4152
 3966SOL    HW223361   0.445   3.753  13.819  0.4059  0.4713  0.4692
 3967SOL     OW23362   0.017   3.579  14.896  0.0787 -0.5157 -0.3232
 3967SOL    HW123363   0.021   3.587  14.801  1.3122  1.7839 -0.0890
 3967SOL    HW223364   0.060   3.497  14.917  0.0573 -0.5099 -0.2567
 3968SOL     OW23365   3.321   1.658   8.704  0.0167  0.1400 -0.1607
 3968SOL    HW123366   3.361   1.731   8.751  1.7468  0.1820 -1.7283
 3968SOL    HW223367   3.259   1.619   8.766  0.5596 -0.8824 -0.2545
 3969SOL     OW23368   4.589   3.141  11.518 -0.1631 -0.1121 -0.2979
 3969SOL    HW123369   4.636   3.183  11.446  1.4823 -3.1190 -0.9939
 3969SOL    HW223370   4.553   3.062  11.477 -3.4345  0.7481  0.9641
 3970SOL     OW23371   4.179   0.091   1.590  0.1895  0.0779  0.0943
 3970SOL    HW123372   4.102   0.037   1.608  0.8267 -0.6975  0.4638
 3970SOL    HW223373   4.157   0.129   1.505 -2.6171 -1.3858  0.1841
 3971SOL     OW23374   2.776   4.516   7.492 -0.5351 -0.0527  0.0681
 3971SOL    HW123375   2.813   4.454   7.429  1.2175  1.8924 -0.8136
 3971SOL    HW223376   2.853   4.530   7.547  0.2214  0.5383 -1.1188
 3972SOL     OW23377   1.806   1.944   6.246  0.4927 -0.0483  0.4339
 3972SOL    HW123378   1.850   1.873   6.294 -0.3037 -2.8222 -2.9031
 3972SOL    HW223379   1.836   2.025   6.287 -0.4123  1.4579 -1.8915
 3973SOL     OW23380   1.199   2.173  12.625 -0.4884 -0.2400 -0.0177
 3973SOL    HW123381   1.201   2.112  12.699  0.6955 -0.6294 -0.3633
 3973SOL    HW223382   1.261   2.241  12.654 -1.8057  1.6934 -1.7858
 3974SOL     OW23383   0.874   0.797  14.944 -0.4593  1.0569 -0.4746
 3974SOL    HW123384   0.788   0.756  14.940 -1.1057  2.5426 -1.8675
 3974SOL    HW223385   0.878   0.821  15.036  0.6371 -0.9507  0.0147
 3975SOL     OW23386   4.537   2.405   8.113  0.0598  0.1055 -0.5080
 3975SOL    HW123387   4.545   2.462   8.189 -1.9711 -0.9508  0.4882
 3975SOL    HW223388   4.511   2.464   8.042  0.4105  0.3395 -0.4403
 3976SOL     OW23389   0.942   1.019   5.437  0.5047  0.1252  0.5647
 3976SOL    HW123390   0.931   1.046   5.528  1.4335 -1.2310  1.0731
 3976SOL    HW223391   0.913   1.093   5.383  2.0759  0.1319 -0.2643
 3977SOL     OW23392   3.545   2.594   1.433  0.1320  0.1704  0.2405
 3977SOL    HW123393   3.483   2.521   1.438 -0.0334  0.4345  1.8304
 3977SOL    HW223394   3.596   2.589   1.514 -0.8958 -0.9611  0.8284
 3978SOL     OW23395   1.348   3.812   4.080 -0.5884  0.5725 -0.2328
 3978SOL    HW123396   1.344   3.741   4.144 -1.5404  1.9119  1.1856
 3978SOL    HW223397   1.263   3.849   4.103 -1.3645 -0.0435 -2.0581
 3979SOL     OW23398   2.878   3.927  16.388  0.3047  0.1496  0.0453
 3979SOL    HW123399   2.952   3.874  16.415  0.5899  1.3269  1.5577
 3979SOL    HW223400   2.857   3.958  16.476 -2.4425  1.8628 -1.1951
 3980SOL     OW23401   2.590   3.125   8.780 -0.2605  0.2558  0.5963
 3980SOL    HW123402   2.617   3.203   8.829  1.0213 -0.1991  0.6098
 3980SOL    HW223403   2.563   3.164   8.697 -0.2362  1.9879  1.3878
 3981SOL     OW23404   3.606   2.818  10.536 -0.7409  0.2771 -0.3471
 3981SOL    HW123405   3.569   2.850  10.618  3.4144  0.9109  1.2645
 3981SOL    HW223406   3.646   2.900  10.505 -1.5624 -0.5220 -3.5426
 3982SOL     OW23407   0.093   3.897   7.860 -0.1697  0.1096  0.5633
 3982SOL    HW123408   0.089   3.986   7.826  0.5189 -1.4914 -3.7061
 3982SOL    HW223409   0.188   3.883   7.855 -0.2593 -1.1967  2.7000
 3983SOL     OW23410   1.113   3.257   4.416  0.1636 -0.2299  0.5583
 3983SOL    HW123411   1.093   3.214   4.499  1.1144 -2.5554 -0.4240
 3983SOL    HW223412   1.045   3.324   4.414 -0.0394 -0.3855  2.2033
 3984SOL     OW23413   4.702   3.499   4.229 -0.6591 -0.2829 -0.1768
 3984SOL    HW123414   4.685   3.582   4.184 -1.6563  0.2425  1.1845
 3984SOL    HW223415   4.693   3.438   4.155 -0.6525 -1.6009  0.8975
 3985SOL     OW23416   2.196   2.239   8.095 -0.1665 -0.4971 -0.0402
 3985SOL    HW123417   2.140   2.180   8.145 -0.9905  0.1605 -0.1911
 3985SOL    HW223418   2.203   2.306   8.163  0.6741 -1.2651  0.6299
 3986SOL     OW23419   0.367   2.392  12.720  0.1146  0.1252  0.0836
 3986SOL    HW123420   0.459   2.416  12.730  0.5256 -1.2685 -0.3999
 3986SOL    HW223421   0.361   2.346  12.637 -0.6311 -0.2697  0.3607
 3987SOL     OW23422   2.147   2.238   6.136 -0.4180 -1.3785  0.2653
 3987SOL    HW123423   2.063   2.283   6.143  0.6873  0.6969  0.3170
 3987SOL    HW223424   2.195   2.303   6.084  0.1290 -0.9470  1.3174
 3988SOL     OW23425   2.545   1.109   1.816 -0.0460  0.2200 -0.1834
 3988SOL    HW123426   2.514   1.199   1.810 -0.9095  0.0014  0.9918
 3988SOL    HW223427   2.621   1.118   1.874 -1.1502 -2.1763  1.6400
 3989SOL     OW23428   3.866   2.230   7.506  0.2770 -0.5085 -0.0165
 3989SOL    HW123429   3.828   2.281   7.434 -2.1445 -0.9151  0.9761
 3989SOL    HW223430   3.786   2.200   7.550  0.8665 -0.5534  0.9988
 3990SOL     OW23431   0.900   1.540   8.825  0.4332 -0.4101 -0.1697
 3990SOL    HW123432   0.895   1.507   8.914  0.0634  0.0779 -0.0161
 3990SOL    HW223433   0.990   1.508   8.812  0.2269 -0.3988 -1.6214
 3991SOL     OW23434   2.066   4.371   9.773  0.4674  0.5434 -0.1977
 3991SOL    HW123435   2.159   4.352   9.762  0.0435 -0.4131 -2.1918
 3991SOL    HW223436   2.034   4.329   9.853  1.3156  1.2759  0.5204
 3992SOL     OW23437   3.840   2.512   4.292 -0.6696  0.2926  0.2343
 3992SOL    HW123438   3.883   2.434   4.327  3.5856  2.4990 -0.0334
 3992SOL    HW223439   3.763   2.527   4.347  0.4888  3.4467  0.9846
 3993SOL     OW23440   4.271   3.952  10.176 -0.0564 -0.3284 -0.2793
 3993SOL    HW123441   4.294   3.987  10.262 -0.4366  2.1522 -1.1792
 3993SOL    HW223442   4.328   3.875  10.169 -0.5903 -0.7318 -0.1752
 3994SOL     OW23443   1.863   0.545   0.684  0.3789 -0.4536 -0.1334
 3994SOL    HW123444   1.938   0.558   0.626 -0.6590  0.7724 -1.1853
 3994SOL    HW223445   1.897   0.499   0.762 -2.8379 -3.9252 -0.7868
 3995SOL     OW23446   2.261   2.660   4.181  0.2576 -0.2460  0.5792
 3995SOL    HW123447   2.202   2.633   4.110 -1.2984 -0.0577  1.7997
 3995SOL    HW223448   2.282   2.579   4.227  1.5498 -0.7010 -0.7943
 3996SOL     OW23449   2.474   4.226  10.040 -0.4429  0.3961 -1.3422
 3996SOL    HW123450   2.512   4.143  10.013 -1.0133 -0.1756 -0.3839
 3996SOL    HW223451   2.547   4.282  10.014 -0.3890  1.4439  1.0434
 3997SOL     OW23452   2.448   4.535  12.754 -0.3631  0.2712 -0.2097
 3997SOL    HW123453   2.383   4.600  12.726 -1.6545 -1.9032 -2.3303
 3997SOL    HW223454   2.429   4.529  12.847  0.0542 -2.3458 -0.3056
 3998SOL     OW23455   3.192   3.213   6.539 -0.4045 -0.2311  0.2556
 3998SOL    HW123456   3.259   3.237   6.603 -1.1638 -1.5679  1.5464
 3998SOL    HW223457   3.182   3.121   6.563 -0.8067 -0.4146 -0.6049
 3999SOL     OW23458   3.124   2.880   2.963 -0.0500  0.0802  0.6700
 3999SOL    HW123459   3.119   2.970   2.930 -0.5388  0.1230  0.8620
 3999SOL    HW223460   3.171   2.836   2.891  0.4647  0.4476  0.7789
 4000SOL     OW23461   3.141   4.005   5.613  0.4801 -0.4113 -0.3444
 4000SOL    HW123462   3.153   3.979   5.522 -2.5248 -0.8812 -0.6025
 4000SOL    HW223463   3.050   4.035   5.612  0.1171 -1.6327 -2.5288
 4001SOL     OW23464   1.465   3.120   3.087 -0.2436 -0.5248  0.2109
 4001SOL    HW123465   1.456   3.030   3.057 -2.3694 -0.9519  2.1287
 4001SOL    HW223466   1.376   3.147   3.109 -0.5433 -0.7239 -0.8062
 4002SOL     OW23467   3.423   3.545   2.035  0.1280 -1.0678 -0.0166
 4002SOL    HW123468   3.334   3.581   2.030 -0.8833 -3.4064  0.7794
 4002SOL    HW223469   3.400   3.457   2.005 -1.5842 -0.7325  0.3012
 4003SOL     OW23470   2.576   4.113   7.565  0.0244 -0.1068 -0.3720
 4003SOL    HW123471   2.657   4.138   7.610  0.3570  0.5022 -1.3012
 4003SOL    HW223472   2.523   4.193   7.561  1.8915  1.2369  1.7010
 4004SOL     OW23473   0.358   4.563   8.668 -0.3120 -0.1576  0.0104
 4004SOL    HW123474   0.309   4.513   8.604 -0.9113 -1.8393  1.7798
 4004SOL    HW223475   0.438   4.567   8.615 -0.3876 -1.3737 -0.1918
 4005SOL     OW23476   0.374   0.825  15.175  0.1042 -0.4159 -0.4535
 4005SOL    HW123477   0.291   0.808  15.130 -0.3583  1.2094 -0.2065
 4005SOL    HW223478   0.403   0.741  15.211  2.0488  1.0532  1.4390
 4006SOL     OW23479   1.890   0.761  16.755 -0.7112 -0.5214  0.1772
 4006SOL    HW123480   1.854   0.691  16.700  0.1552 -1.8948  1.3418
 4006SOL    HW223481   1.985   0.745  16.753 -0.6641 -0.3203  0.7878
 4007SOL     OW23482   2.873   1.286   7.795  0.0560  0.0983  0.2465
 4007SOL    HW123483   2.897   1.338   7.719  1.1755 -1.6788 -0.6033
 4007SOL    HW223484   2.959   1.248   7.811  0.2522  0.3584 -0.1942
 4008SOL     OW23485   1.256   4.650   0.220  0.0448  0.0431  0.6716
 4008SOL    HW123486   1.252   0.005   0.165 -1.5692 -0.7411 -0.3178
 4008SOL    HW223487   1.346   4.618   0.226  0.2935  0.6211  0.0109
 4009SOL     OW23488   2.026   4.138   3.131 -0.4079 -0.1155  0.3765
 4009SOL    HW123489   1.995   4.104   3.047  1.2010 -2.5091  0.7651
 4009SOL    HW223490   2.101   4.082   3.151 -0.8945 -0.9721 -0.2188
 4010SOL     OW23491   0.575   0.930  16.940  0.2064  0.2202 -0.4931
 4010SOL    HW123492   0.574   1.026  16.945 -0.3252  0.0755  2.1872
 4010SOL    HW223493   0.562   0.915  16.846 -0.8226 -1.5839 -0.0556
 4011SOL     OW23494   4.032   1.524   2.028 -0.0457 -0.5294 -0.1524
 4011SOL    HW123495   4.097   1.595   2.036  0.1862 -0.9389  1.4589
 4011SOL    HW223496   3.972   1.545   2.099 -2.7019 -2.5824 -1.7788
 4012SOL     OW23497   3.544   4.527   5.036 -0.3744  0.0932 -0.0958
 4012SOL    HW123498   3.605   4.598   5.054 -2.2169  1.2787  1.4265
 4012SOL    HW223499   3.598   4.467   4.984 -1.8393 -1.3278  0.0275
 4013SOL     OW23500   2.436   1.218   8.607 -0.0484 -0.0127 -0.1308
 4013SOL    HW123501   2.372   1.287   8.625  0.8887  1.2349 -1.5142
 4013SOL    HW223502   2.461   1.184   8.693  0.7862 -0.5925 -0.5984
 4014SOL     OW23503   2.181   4.355  16.314  0.8627 -0.3589 -0.0447
 4014SOL    HW123504   2.231   4.300  16.375 -0.3607  0.8069  1.9804
 4014SOL    HW223505   2.239   4.431  16.319  0.5137 -0.1136  0.2179
 4015SOL     OW23506   4.047   0.315  14.689  0.2143  0.3950 -0.1049
 4015SOL    HW123507   4.038   0.266  14.608 -1.2150 -2.7067  1.9354
 4015SOL    HW223508   3.958   0.347  14.698  0.1887  0.4258 -0.4755
 4016SOL     OW23509   0.919   1.910  12.014 -0.5421 -0.0224 -0.2687
 4016SOL    HW123510   1.009   1.936  11.998 -1.1625  1.3640 -1.4730
 4016SOL    HW223511   0.929   1.911  12.109  2.4395  1.5599 -0.6168
 4017SOL     OW23512   1.175   1.772   3.490 -0.0255  0.1519  0.1918
 4017SOL    HW123513   1.226   1.852   3.477  1.5017 -0.6736  1.1130
 4017SOL    HW223514   1.226   1.715   3.432  0.3239 -0.7567  1.3905
 4018SOL     OW23515   2.572   2.103   9.942 -0.0352 -0.0650 -0.5535
 4018SOL    HW123516   2.663   2.131   9.934 -0.1798  0.3473 -0.7369
 4018SOL    HW223517   2.554   2.140  10.029 -0.2840 -1.1592 -0.1425
 4019SOL     OW23518   0.781   4.268   3.397  0.0778  0.1723  0.2454
 4019SOL    HW123519   0.738   4.236   3.317 -1.2135 -1.9147  1.7675
 4019SOL    HW223520   0.796   4.359   3.370  1.2204 -0.2187 -0.4336
 4020SOL     OW23521   3.925   4.363  16.936  0.3470 -0.0903 -0.1961
 4020SOL    HW123522   3.928   4.454  16.968 -0.6670 -0.0225 -0.2811
 4020SOL    HW223523   3.832   4.339  16.937  0.5300 -0.7930  1.0578
 4021SOL     OW23524   0.800   4.325   3.011 -0.3128 -0.4459  0.1285
 4021SOL    HW123525   0.755   4.406   3.033 -1.8791 -1.2177 -0.2647
 4021SOL    HW223526   0.872   4.355   2.954 -1.2096 -1.7203 -1.6730
 4022SOL     OW23527   3.490   2.452   2.777  0.0492  0.1870 -0.0492
 4022SOL    HW123528   3.546   2.380   2.747 -0.2537 -0.6640  1.4446
 4022SOL    HW223529   3.492   2.446   2.872  2.1766  1.5174  0.0064
 4023SOL     OW23530   3.168   4.714   2.917  0.1665 -0.3486  0.3266
 4023SOL    HW123531   3.212   0.075   2.914 -1.5171  0.4687 -1.3865
 4023SOL    HW223532   3.113   0.013   2.992 -0.4739 -0.7262 -0.0290
 4024SOL     OW23533   0.407   0.844   3.435 -0.2308  0.3917 -0.1012
 4024SOL    HW123534   0.371   0.833   3.523  0.5326 -3.5208 -0.2682
 4024SOL    HW223535   0.405   0.940   3.431 -1.4485  0.4425  1.7040
 4025SOL     OW23536   1.528   0.989   3.430  0.4477 -0.3784 -0.3551
 4025SOL    HW123537   1.439   1.002   3.461  0.9313 -0.8905  1.2324
 4025SOL    HW223538   1.578   1.053   3.481 -0.8725 -0.7052  1.3113
 4026SOL     OW23539   3.262   0.558   7.451 -0.1399 -0.0740 -0.6346
 4026SOL    HW123540   3.313   0.492   7.499 -1.9188 -0.5838  0.5662
 4026SOL    HW223541   3.214   0.598   7.524  1.4731  0.5743  0.0714
 4027SOL     OW23542   0.244   0.323  17.509  0.4557 -1.0025  0.3417
 4027SOL    HW123543   0.174   0.271  17.549 -0.1159 -2.4284 -2.5348
 4027SOL    HW223544   0.190   0.384  17.461  0.9074  0.0776  1.2026
 4028SOL     OW23545   3.844   0.728  13.776  0.9122 -0.6560  0.4045
 4028SOL    HW123546   3.856   0.796  13.843  0.3767  0.6721 -0.8318
 4028SOL    HW223547   3.900   0.662  13.817 -0.5769 -0.2965  3.0217
 4029SOL     OW23548   4.687   4.297  11.405  0.4016  0.3977 -0.3652
 4029SOL    HW123549   4.642   4.214  11.419  1.2298  0.0528  0.2713
 4029SOL    HW223550   0.016   4.267  11.330  1.2274  0.8587  0.0250
 4030SOL     OW23551   2.852   0.695   1.914 -0.0683 -0.2123 -0.1165
 4030SOL    HW123552   2.757   0.680   1.908  0.1422 -2.3553  1.8022
 4030SOL    HW223553   2.892   0.634   1.852  0.0396  0.3929 -0.6298
 4031SOL     OW23554   2.349   1.974   8.117 -0.4094 -0.1991  0.0986
 4031SOL    HW123555   2.382   2.018   8.195 -0.8840  0.0799  0.1429
 4031SOL    HW223556   2.266   2.022   8.115  0.1697  0.7347 -1.8018
 4032SOL     OW23557   3.944   3.137   5.677  0.2158 -0.2648 -0.5822
 4032SOL    HW123558   3.904   3.171   5.597 -1.2423 -1.8079 -0.5136
 4032SOL    HW223559   3.888   3.185   5.738  0.5117 -1.1724  0.4200
 4033SOL     OW23560   1.212   1.367   9.711  0.4196  0.4631 -0.2711
 4033SOL    HW123561   1.143   1.426   9.680  0.3232  0.8413  0.6471
 4033SOL    HW223562   1.159   1.341   9.787 -0.1581 -1.3371 -1.2984
 4034SOL     OW23563   2.639   0.842   3.885 -0.6663 -0.5889  0.5305
 4034SOL    HW123564   2.594   0.890   3.815 -0.2746  0.0626  0.7206
 4034SOL    HW223565   2.707   0.904   3.913 -0.9293  0.0182 -0.1853
 4035SOL     OW23566   0.743   1.513   4.588  0.0925  0.6112  0.1183
 4035SOL    HW123567   0.676   1.567   4.545 -0.7508 -1.7249 -1.4909
 4035SOL    HW223568   0.731   1.433   4.537  1.7386  0.4673 -0.0481
 4036SOL     OW23569   4.193   2.028   7.639  0.1240  0.2803 -0.5397
 4036SOL    HW123570   4.132   2.016   7.567 -0.0313 -1.3516 -0.1202
 4036SOL    HW223571   4.128   2.025   7.709  0.2066  0.4642 -0.4540
 4037SOL     OW23572   0.382   1.327  16.481  0.1612 -0.0699  0.9104
 4037SOL    HW123573   0.305   1.383  16.475 -0.8356 -1.3728  1.4354
 4037SOL    HW223574   0.415   1.346  16.394 -1.6439 -1.0327  0.0162
 4038SOL     OW23575   3.648   3.008   9.927  1.0782  0.1975 -0.6523
 4038SOL    HW123576   3.702   2.992   9.850  3.1597  2.5371  0.3277
 4038SOL    HW223577   3.612   3.094   9.903 -0.5763 -0.3549 -0.1923
 4039SOL     OW23578   1.399   2.336  12.713 -0.0750  0.0278 -0.2523
 4039SOL    HW123579   1.440   2.260  12.755  0.8643  1.0811  0.7528
 4039SOL    HW223580   1.467   2.401  12.729  0.9570 -1.5216  1.6623
 4040SOL     OW23581   4.721   1.736  10.363 -0.4277 -0.3634 -0.0246
 4040SOL    HW123582   0.070   1.787  10.399 -1.0779  1.8677 -1.8174
 4040SOL    HW223583   0.029   1.646  10.362 -1.0018 -0.5658 -0.1822
 4041SOL     OW23584   2.597   2.841   5.767  0.4074 -0.3738 -0.1817
 4041SOL    HW123585   2.642   2.925   5.763  1.5306 -0.9118  1.2965
 4041SOL    HW223586   2.564   2.852   5.856 -0.3641  0.8415 -0.6273
 4042SOL     OW23587   4.161   2.033  15.730  0.4459  0.2271  0.3236
 4042SOL    HW123588   4.086   2.066  15.681 -0.4911  0.1063  1.6848
 4042SOL    HW223589   4.192   1.963  15.672 -0.0377  1.4494 -1.4013
 4043SOL     OW23590   3.878   2.346   2.602  1.0513  0.3591 -0.0762
 4043SOL    HW123591   3.783   2.346   2.590  1.0966  0.3095 -0.4289
 4043SOL    HW223592   3.893   2.416   2.539  0.9323  1.3025  0.9524
 4044SOL     OW23593   2.157   2.353   8.321 -0.4881 -0.0032  0.4709
 4044SOL    HW123594   2.082   2.334   8.377 -1.0178 -1.3965 -0.7153
 4044SOL    HW223595   2.194   2.433   8.357  1.5740 -0.8670  0.2675
 4045SOL     OW23596   4.173   2.791   6.721  0.3289 -0.3909 -0.0259
 4045SOL    HW123597   4.195   2.746   6.639  1.0505  0.0251 -0.0585
 4045SOL    HW223598   4.237   2.768   6.788 -1.4219  0.0613  1.8206
 4046SOL     OW23599   3.225   3.605   2.608  0.2219 -0.0814 -0.0017
 4046SOL    HW123600   3.189   3.692   2.628  1.2048  0.3122  0.0566
 4046SOL    HW223601   3.290   3.613   2.538 -1.1279 -1.0244 -1.3642
 4047SOL     OW23602   1.326   2.532   8.512 -0.1004  0.2510  0.1615
 4047SOL    HW123603   1.361   2.443   8.521  0.8247  0.6760  0.6737
 4047SOL    HW223604   1.342   2.549   8.419  0.6777  0.2194  0.2925
 4048SOL     OW23605   3.376   2.777   7.351  0.3742 -0.2254 -0.2397
 4048SOL    HW123606   3.335   2.795   7.267 -0.2949  0.5825  0.2573
 4048SOL    HW223607   3.427   2.701   7.324  0.1097 -1.0840  1.6795
 4049SOL     OW23608   0.982   3.143   7.773 -0.0024  0.3459 -0.1823
 4049SOL    HW123609   0.898   3.163   7.814  0.7515  3.0465  0.0415
 4049SOL    HW223610   1.049   3.137   7.842 -0.7608  0.8492  0.5819
 4050SOL     OW23611   4.448   1.537   0.357 -0.2701  0.2779  0.3535
 4050SOL    HW123612   4.464   1.613   0.414  0.5245  0.0168  0.4873
 4050SOL    HW223613   4.416   1.478   0.425 -0.0210 -0.8890 -0.5402
 4051SOL     OW23614   2.911   2.357  12.903 -0.0637  0.0457 -0.2379
 4051SOL    HW123615   2.980   2.420  12.882  0.6267 -0.2860  1.0940
 4051SOL    HW223616   2.852   2.401  12.964  0.6842  0.6847  0.0226
 4052SOL     OW23617   2.766   1.226   0.355  0.5727 -0.3918 -0.3117
 4052SOL    HW123618   2.765   1.320   0.372  1.5881 -0.5493  0.6327
 4052SOL    HW223619   2.759   1.188   0.442  1.6425  2.8466  1.1641
 4053SOL     OW23620   1.283   2.244   4.475  1.1378  0.1960 -0.0723
 4053SOL    HW123621   1.312   2.330   4.507 -0.2143  0.3520  0.7100
 4053SOL    HW223622   1.339   2.229   4.398  1.2001  1.6684 -0.3219
 4054SOL     OW23623   4.077   4.669  12.458 -0.7042 -0.0170  0.4435
 4054SOL    HW123624   4.100   0.038  12.446  2.4981 -0.5220  2.8017
 4054SOL    HW223625   4.124   4.657  12.540  0.5141 -0.0693 -0.2586
 4055SOL     OW23626   1.996   1.402   6.478  0.1578  0.1367  0.1763
 4055SOL    HW123627   2.035   1.350   6.408  0.1942 -0.7283  0.8383
 4055SOL    HW223628   1.913   1.354   6.482 -0.1609  0.6615 -0.2180
 4056SOL     OW23629   2.943   1.069   1.733 -0.3894 -0.2711  0.6344
 4056SOL    HW123630   2.944   1.049   1.640 -1.2532 -0.9970  0.7785
 4056SOL    HW223631   3.008   1.005   1.761 -0.6128  0.2913  2.4901
 4057SOL     OW23632   3.435   0.186   1.473 -0.6137 -0.8388 -0.2683
 4057SOL    HW123633   3.425   0.273   1.436 -0.6675 -0.0967  1.5039
 4057SOL    HW223634   3.346   0.156   1.487 -1.9554  3.9277  1.3930
 4058SOL     OW23635   1.378   2.572   4.496 -0.3415 -0.5899  0.2547
 4058SOL    HW123636   1.415   2.660   4.497 -1.6469 -0.0387  0.3981
 4058SOL    HW223637   1.430   2.531   4.427 -2.1000 -1.2126 -0.7204
 4059SOL     OW23638   2.454   3.928   4.686 -0.0051 -0.1098 -0.0353
 4059SOL    HW123639   2.505   3.948   4.608 -0.8734 -0.4524 -0.6978
 4059SOL    HW223640   2.367   3.952   4.653 -0.1823 -0.2793  0.3018
 4060SOL     OW23641   1.834   1.712   2.728 -0.1569  0.0705  0.5596
 4060SOL    HW123642   1.746   1.747   2.715 -0.0253  1.0789  2.4624
 4060SOL    HW223643   1.829   1.646   2.659 -1.0615  0.3040  0.4066
 4061SOL     OW23644   0.524   2.407   9.190 -0.3100  0.4371 -0.1299
 4061SOL    HW123645   0.507   2.478   9.129 -1.6137  1.8374  1.8739
 4061SOL    HW223646   0.565   2.337   9.138  0.2551  0.6473  0.0368
 4062SOL     OW23647   1.625   2.689  15.244  0.6068 -0.1232  0.3007
 4062SOL    HW123648   1.683   2.624  15.203  1.2279  1.2907 -1.0656
 4062SOL    HW223649   1.642   2.674  15.337  2.8123  0.9334  0.0914
 4063SOL     OW23650   2.987   3.142   1.461  0.2405 -0.2042  0.1039
 4063SOL    HW123651   2.975   3.047   1.453 -1.4215  0.0378 -0.2693
 4063SOL    HW223652   2.900   3.172   1.434  0.5821  0.8161  0.1448
 4064SOL     OW23653   2.516   1.182   4.421 -0.6116  0.0492  0.1838
 4064SOL    HW123654   2.533   1.204   4.330 -1.9929  1.9591  0.3905
 4064SOL    HW223655   2.426   1.215   4.415 -0.2360  0.7688 -1.6093
 4065SOL     OW23656   3.011   2.451   4.374  0.7891  0.1021 -0.8479
 4065SOL    HW123657   2.952   2.462   4.448  1.7991 -0.5829  0.0529
 4065SOL    HW223658   2.950   2.446   4.299 -0.9896 -1.6951  0.7310
 4066SOL     OW23659   3.919   2.923  16.767 -0.0147  0.1269 -0.2098
 4066SOL    HW123660   3.860   2.920  16.842  1.4914  0.9541  0.9909
 4066SOL    HW223661   3.889   3.001  16.720 -2.4464 -0.8555 -0.2955
 4067SOL     OW23662   4.249   4.626  11.586  0.7633  0.4208 -0.2733
 4067SOL    HW123663   4.289   4.562  11.527  0.5939  1.6673 -1.7610
 4067SOL    HW223664   4.323   4.669  11.630  2.1899 -1.9522 -0.3599
 4068SOL     OW23665   1.717   1.623   8.876 -0.1071  0.2475  0.0305
 4068SOL    HW123666   1.737   1.564   8.803  0.4352  0.7343 -0.2159
 4068SOL    HW223667   1.793   1.681   8.877 -0.6892  1.0858 -3.1802
 4069SOL     OW23668   2.767   4.231   4.496 -1.1682 -0.4069  0.2303
 4069SOL    HW123669   2.833   4.193   4.438 -0.0018  1.4220  0.3502
 4069SOL    HW223670   2.780   4.325   4.479 -1.1312 -0.0629  2.1084
 4070SOL     OW23671   3.991   2.480  16.561 -0.5792 -0.4615  0.0147
 4070SOL    HW123672   3.928   2.416  16.593  0.0599 -1.2341 -0.2848
 4070SOL    HW223673   4.065   2.436  16.602 -0.1964 -1.0490 -1.2976
 4071SOL     OW23674   2.740   1.104   2.647 -0.0135 -0.5323 -0.4687
 4071SOL    HW123675   2.716   1.012   2.659  1.7894 -0.9094  0.2356
 4071SOL    HW223676   2.768   1.098   2.555  0.7639 -1.0799 -0.2010
 4072SOL     OW23677   0.105   2.660  15.642  0.2264  0.4325 -0.5563
 4072SOL    HW123678   0.040   2.600  15.605 -0.1762  1.4886 -1.5492
 4072SOL    HW223679   0.101   2.642  15.736  1.0970  1.4345 -0.3360
 4073SOL     OW23680   1.672   0.149   7.031 -0.4384 -0.4211 -0.3446
 4073SOL    HW123681   1.736   0.177   7.097 -1.0419 -1.4364  0.6731
 4073SOL    HW223682   1.642   0.061   7.051 -3.2141  0.4181 -0.7287
 4074SOL     OW23683   3.591   3.717  13.164  0.5416  0.3322 -0.3702
 4074SOL    HW123684   3.622   3.692  13.077 -0.6649  2.4435 -1.4206
 4074SOL    HW223685   3.674   3.693  13.203  1.7678  1.0184 -2.5303
 4075SOL     OW23686   4.420   4.678   1.582 -0.3570 -0.3206 -0.0951
 4075SOL    HW123687   4.334   4.717   1.591  0.8427  2.0095  1.2176
 4075SOL    HW223688   4.437   4.690   1.488  2.4033 -1.6546  0.2106
 4076SOL     OW23689   3.388   1.563  14.527  0.4559 -0.1498 -0.3694
 4076SOL    HW123690   3.407   1.511  14.448  1.1453  2.7424 -2.1043
 4076SOL    HW223691   3.311   1.612  14.496  0.1813  0.8133  1.8461
 4077SOL     OW23692   4.425   0.128  16.190  0.3275 -0.0518 -0.8407
 4077SOL    HW123693   4.412   0.034  16.172  0.5571 -0.2943  0.2788
 4077SOL    HW223694   4.380   0.165  16.114  1.7365  3.2019 -0.0665
 4078SOL     OW23695   2.581   4.302   7.905  0.2263  0.0014 -0.0301
 4078SOL    HW123696   2.517   4.371   7.922 -1.6270 -1.6244 -0.4275
 4078SOL    HW223697   2.537   4.234   7.956  0.0021 -0.4761 -0.8623
 4079SOL     OW23698   2.860   0.030   4.339  0.1683  0.1216 -0.3054
 4079SOL    HW123699   2.950   0.057   4.324 -0.0456  1.2664  0.4806
 4079SOL    HW223700   2.862   0.025   4.435 -2.0756  1.3040 -0.1874
 4080SOL     OW23701   3.980   3.723   7.273  0.3410 -0.0897 -0.3049
 4080SOL    HW123702   3.910   3.714   7.209 -1.1688 -0.3800  1.3902
 4080SOL    HW223703   3.947   3.786   7.337  0.2661 -0.2466 -0.1872
 4081SOL     OW23704   3.951   3.252  10.467 -0.1841 -0.6605  0.0497
 4081SOL    HW123705   3.992   3.170  10.493  2.2209 -0.1879 -2.2087
 4081SOL    HW223706   3.913   3.263  10.554  0.2446  1.4019 -0.0147
 4082SOL     OW23707   0.723   1.909   9.007  0.1313 -0.5502 -0.1955
 4082SOL    HW123708   0.691   1.994   8.977 -0.5298 -1.2798 -1.5868
 4082SOL    HW223709   0.777   1.937   9.081 -0.8689 -1.1013  0.7339
 4083SOL     OW23710   2.626   1.485   4.411  0.6445  0.3546 -0.2906
 4083SOL    HW123711   2.642   1.410   4.467 -0.0607  1.8183  1.8828
 4083SOL    HW223712   2.672   1.554   4.460  0.3652  0.1623  0.2409
 4084SOL     OW23713   4.551   2.810   5.983 -0.4069  0.8610 -0.0777
 4084SOL    HW123714   4.504   2.822   6.066  0.1924  2.9750 -0.0461
 4084SOL    HW223715   4.477   2.798   5.924 -0.8908  2.8516  0.1140
 4085SOL     OW23716   2.478   4.065  17.639 -0.6212 -0.6227  0.5379
 4085SOL    HW123717   2.478   4.161  17.637 -2.6697 -0.6094  1.1094
 4085SOL    HW223718   2.528   4.050  17.559 -0.4519 -1.1594  0.7477
 4086SOL     OW23719   0.261   1.491   9.124  0.7710 -0.0244  0.6555
 4086SOL    HW123720   0.266   1.535   9.039  1.3776  2.0285  1.7701
 4086SOL    HW223721   0.187   1.436   9.100  1.6497 -0.8974 -0.0455
 4087SOL     OW23722   0.087   1.015   7.897 -0.0111 -0.5321 -0.6936
 4087SOL    HW123723   0.119   0.925   7.891 -0.0652 -0.4570 -2.0268
 4087SOL    HW223724   0.100   1.055   7.811 -0.0436  0.2124 -0.3506
 4088SOL     OW23725   0.298   4.589   1.258 -0.0144  0.1680  0.2270
 4088SOL    HW123726   0.225   4.528   1.266  0.0484  0.6342  4.3420
 4088SOL    HW223727   0.242   4.659   1.223  1.5053  1.5600  0.5631
 4089SOL     OW23728   4.325   0.244   2.641  0.4800 -0.1497  0.0512
 4089SOL    HW123729   4.370   0.167   2.608 -1.2440 -1.3103  0.4305
 4089SOL    HW223730   4.370   0.312   2.590 -0.5476  1.2245  0.9654
 4090SOL     OW23731   1.502   3.450  11.245 -0.2811 -0.1859 -0.1441
 4090SOL    HW123732   1.523   3.489  11.329 -2.1250  1.3366 -0.3956
 4090SOL    HW223733   1.575   3.479  11.190 -0.6544  0.2504 -0.4029
 4091SOL     OW23734   2.700   2.462   2.551  0.2043 -0.0398 -0.0275
 4091SOL    HW123735   2.763   2.415   2.498 -0.3134 -0.2061 -0.4934
 4091SOL    HW223736   2.739   2.439   2.636  3.2344 -0.9737 -1.6917
 4092SOL     OW23737   3.363   1.353   8.010 -0.0442 -0.3724 -0.0731
 4092SOL    HW123738   3.384   1.403   8.089  1.1927  0.4319 -0.9148
 4092SOL    HW223739   3.286   1.315   8.052 -0.6745  1.2524  0.2372
 4093SOL     OW23740   2.811   3.787  14.838  0.9531 -0.4973 -0.4429
 4093SOL    HW123741   2.722   3.805  14.807  0.4620  1.0367  1.8419
 4093SOL    HW223742   2.794   3.740  14.919  0.1039  1.2135  0.3676
 4094SOL     OW23743   4.492   3.891   6.351  0.1833 -0.1661  0.3672
 4094SOL    HW123744   4.464   3.949   6.421 -0.6431  1.5808 -1.4306
 4094SOL    HW223745   4.508   3.815   6.408 -0.4574  0.2094  1.0435
 4095SOL     OW23746   0.385   1.648  11.943 -0.6528  0.0475 -0.1129
 4095SOL    HW123747   0.453   1.587  11.974 -1.2144 -0.3671  0.3019
 4095SOL    HW223748   0.423   1.669  11.858  1.7667 -1.7702  0.5118
 4096SOL     OW23749   1.377   3.914   9.506  0.5207 -0.0010  0.1370
 4096SOL    HW123750   1.409   3.846   9.565  1.7065  0.8504  0.4743
 4096SOL    HW223751   1.449   3.917   9.443 -0.2662 -3.2115 -0.9324
 4097SOL     OW23752   0.700   1.776   6.904  0.8062 -0.5248 -0.0254
 4097SOL    HW123753   0.622   1.735   6.866  0.4292 -1.0063  1.2878
 4097SOL    HW223754   0.659   1.818   6.979 -2.6228  0.3666 -2.3796
 4098SOL     OW23755   4.545   0.548   3.778 -0.1689 -0.1669  0.1367
 4098SOL    HW123756   4.595   0.470   3.803  0.4133  1.1354  3.0358
 4098SOL    HW223757   4.567   0.546   3.685 -0.2168 -1.0191  0.1361
 4099SOL     OW23758   1.922   3.298   4.491  0.1104  0.1087  0.0893
 4099SOL    HW123759   1.857   3.288   4.560  1.0904 -0.6995  0.8944
 4099SOL    HW223760   1.988   3.338   4.548 -0.3411  0.5718  0.2894
 4100SOL     OW23761   1.479   3.245  15.332 -0.4467 -0.2421 -0.2067
 4100SOL    HW123762   1.533   3.310  15.287 -1.6535  0.7596 -0.2185
 4100SOL    HW223763   1.389   3.274  15.315 -0.7458  0.4687  2.5193
 4101SOL     OW23764   2.062   3.784   8.217 -0.4401 -0.1372  0.6428
 4101SOL    HW123765   1.980   3.833   8.217 -0.9277 -0.9487 -0.4957
 4101SOL    HW223766   2.061   3.744   8.305  2.3530  2.0348  1.6793
 4102SOL     OW23767   1.729   1.295   4.221  0.6428  0.5049  0.7895
 4102SOL    HW123768   1.662   1.239   4.181  2.5955 -0.9752 -0.4679
 4102SOL    HW223769   1.807   1.247   4.192 -0.4819 -0.4117 -0.7326
 4103SOL     OW23770   2.201   1.426  11.840  0.3744 -0.0499 -0.6277
 4103SOL    HW123771   2.285   1.379  11.836  0.7596  0.5944 -0.2064
 4103SOL    HW223772   2.223   1.496  11.779 -0.9589  1.8190  1.0243
 4104SOL     OW23773   3.351   4.249   7.892 -0.6554  0.0379  0.0855
 4104SOL    HW123774   3.437   4.242   7.850 -0.6399  1.5998 -0.1546
 4104SOL    HW223775   3.291   4.195   7.840 -1.4972  2.0001 -0.9991
 4105SOL     OW23776   3.169   1.537   4.058  0.4034  0.3613 -0.6973
 4105SOL    HW123777   3.246   1.501   4.014  1.1986  0.4445  0.6216
 4105SOL    HW223778   3.206   1.597   4.123 -1.9932 -0.0403  1.0280
 4106SOL     OW23779   1.118   0.100   4.149  0.1922 -0.1762  0.0254
 4106SOL    HW123780   1.094   0.013   4.117 -0.3199 -0.5511  1.4492
 4106SOL    HW223781   1.187   0.085   4.214  2.8193  1.4684 -2.3583
 4107SOL     OW23782   1.624   4.304   3.370 -0.4374  0.0898  0.6039
 4107SOL    HW123783   1.715   4.331   3.378 -0.3110 -0.0279 -0.4938
 4107SOL    HW223784   1.633   4.253   3.290 -1.3996  0.8213  0.0304
 4108SOL     OW23785   3.206   1.889   1.908 -0.2411  0.1179  0.9511
 4108SOL    HW123786   3.258   1.921   1.833 -0.6794 -1.1028  0.1345
 4108SOL    HW223787   3.188   1.975   1.947 -2.2854 -0.1107  0.5341
 4109SOL     OW23788   2.262   0.036   0.813 -0.0906  0.0766 -0.6630
 4109SOL    HW123789   2.306   0.056   0.731  1.6430 -2.9060 -0.4556
 4109SOL    HW223790   2.300   0.097   0.876  0.8023  0.6767 -1.7975
 4110SOL     OW23791   3.712   4.329   5.715 -0.5906  0.0512  0.4421
 4110SOL    HW123792   3.783   4.357   5.657 -0.8026 -1.0381 -0.3514
 4110SOL    HW223793   3.755   4.258   5.764 -1.9902 -0.1064  1.4163
 4111SOL     OW23794   0.364   0.648   5.140 -0.2343 -0.9539 -0.1361
 4111SOL    HW123795   0.368   0.641   5.235  1.3720 -1.1496 -0.2114
 4111SOL    HW223796   0.428   0.718   5.127 -1.1715 -0.1009 -0.1093
 4112SOL     OW23797   1.283   3.164  15.869  0.4552  0.5164 -0.6411
 4112SOL    HW123798   1.266   3.248  15.826 -1.2816  1.1758  1.3084
 4112SOL    HW223799   1.322   3.110  15.801  1.9462  0.1611  0.5098
 4113SOL     OW23800   0.243   2.186   4.568 -0.2433  0.3697 -0.4277
 4113SOL    HW123801   0.237   2.278   4.596  2.5002  0.7428 -1.0639
 4113SOL    HW223802   0.290   2.188   4.484 -1.6718  1.9350 -1.1843
 4114SOL     OW23803   3.841   4.184   6.560 -0.1148  0.4227  0.4262
 4114SOL    HW123804   3.914   4.232   6.522  1.7075 -3.0994 -0.5331
 4114SOL    HW223805   3.876   4.100   6.589  1.2755  1.6476  2.2823
 4115SOL     OW23806   1.609   3.168   8.815  0.0545 -0.4917 -0.3505
 4115SOL    HW123807   1.587   3.257   8.843  0.7318 -0.4727  0.1202
 4115SOL    HW223808   1.531   3.136   8.769 -2.6110  1.2662  3.0118
 4116SOL     OW23809   3.538   2.451   7.872 -0.4187  0.1026  0.0649
 4116SOL    HW123810   3.492   2.367   7.868 -1.8620  0.8059  2.1787
 4116SOL    HW223811   3.570   2.448   7.782 -0.1015 -1.4147  0.2224
 4117SOL     OW23812   2.213   3.514   8.510 -0.3768 -0.0203  0.0184
 4117SOL    HW123813   2.262   3.493   8.431 -0.7037  1.1867 -0.4948
 4117SOL    HW223814   2.285   3.526   8.571 -0.8380 -2.7759  1.1219
 4118SOL     OW23815   3.582   1.162   9.293 -0.6038  1.1739  0.0044
 4118SOL    HW123816   3.516   1.127   9.233  0.1795 -1.7532  0.8421
 4118SOL    HW223817   3.607   1.249   9.260  2.2540  0.4514  0.2214
 4119SOL     OW23818   0.896   0.398   8.460 -0.1610 -0.0320  0.4237
 4119SOL    HW123819   0.903   0.494   8.468 -0.2949  0.1391 -1.4567
 4119SOL    HW223820   0.815   0.388   8.509 -0.0275 -2.0973  0.1895
 4120SOL     OW23821   0.486   3.476  11.873 -0.1755  0.1986 -0.3955
 4120SOL    HW123822   0.391   3.476  11.864 -0.1048  0.3068 -1.1169
 4120SOL    HW223823   0.514   3.447  11.786 -1.3910  0.6347 -0.9325
 4121SOL     OW23824   2.964   2.219  13.337  0.5908  0.1343  0.0217
 4121SOL    HW123825   2.901   2.256  13.399 -0.9654 -0.2575 -1.2963
 4121SOL    HW223826   2.919   2.139  13.309 -0.1467  1.2964 -2.1930
 4122SOL     OW23827   3.420   2.790   6.651  0.1100  0.0142 -0.1394
 4122SOL    HW123828   3.358   2.862   6.660  0.4866  0.4133 -0.7260
 4122SOL    HW223829   3.445   2.757   6.737  1.5803  1.5855  0.0376
 4123SOL     OW23830   3.068   4.405   4.801  0.5390  0.2793 -0.0871
 4123SOL    HW123831   3.143   4.374   4.852  0.1920 -0.6297 -0.1256
 4123SOL    HW223832   2.996   4.378   4.858  0.1562 -0.6335 -1.0197
 4124SOL     OW23833   0.601   4.383   8.206 -0.2454  0.6526  0.1749
 4124SOL    HW123834   0.659   4.451   8.170 -0.4208  1.6108  1.7028
 4124SOL    HW223835   0.522   4.435   8.221 -0.0071  0.2360  2.9899
 4125SOL     OW23836   1.649   2.215  13.685  0.2500 -0.1562 -0.2902
 4125SOL    HW123837   1.637   2.173  13.600  1.2564 -2.0703  0.5012
 4125SOL    HW223838   1.555   2.229  13.699  0.2946  2.9031 -3.1500
 4126SOL     OW23839   4.426   2.922  11.446 -0.3405 -0.3826 -0.1255
 4126SOL    HW123840   4.353   2.890  11.498 -0.1829  0.2664  0.4918
 4126SOL    HW223841   4.432   2.857  11.376  0.4364 -0.6138  0.1537
 4127SOL     OW23842   2.342   1.704   5.275 -0.9486 -0.7040 -0.2914
 4127SOL    HW123843   2.297   1.714   5.358  0.8216  0.3477  0.5495
 4127SOL    HW223844   2.304   1.622   5.243 -1.7486 -1.2243  1.9648
 4128SOL     OW23845   1.632   0.298   2.719 -0.7836  0.2630 -0.1379
 4128SOL    HW123846   1.584   0.344   2.787  0.2757 -2.1415  2.2158
 4128SOL    HW223847   1.616   0.205   2.735  2.7479 -0.3103  0.1762
 4129SOL     OW23848   3.265   0.396   0.717 -0.0501  0.0813  0.4071
 4129SOL    HW123849   3.175   0.423   0.737 -0.6019 -1.4375 -0.0400
 4129SOL    HW223850   3.294   0.473   0.667 -2.4347  0.9271  0.3079
 4130SOL     OW23851   0.372   0.058  13.329 -0.3193 -0.3806  0.1663
 4130SOL    HW123852   0.303   0.113  13.367  2.9133  4.3303 -0.7400
 4130SOL    HW223853   0.442   0.123  13.320  0.0802 -1.0205 -1.4157
 4131SOL     OW23854   1.751   4.441   6.868 -0.1196  0.2252 -0.6039
 4131SOL    HW123855   1.677   4.399   6.911 -0.4457  0.8033 -0.6127
 4131SOL    HW223856   1.781   4.508   6.929 -2.3018 -0.0996  0.7952
 4132SOL     OW23857   4.222   1.250  11.239 -0.1961 -0.2677 -0.2074
 4132SOL    HW123858   4.200   1.274  11.149 -1.8124 -2.3089 -0.3629
 4132SOL    HW223859   4.288   1.182  11.223  2.3150  1.8768  1.0290
 4133SOL     OW23860   2.768   0.959  10.374 -0.1731 -0.0429 -0.1938
 4133SOL    HW123861   2.687   0.908  10.371  0.1277 -0.6135  1.5576
 4133SOL    HW223862   2.733   1.040  10.412  2.4882  1.6543 -1.3364
 4134SOL     OW23863   3.370   3.197   0.067  0.2681  0.0428 -0.6015
 4134SOL    HW123864   3.440   3.263   0.065 -0.0837  0.4527  0.4449
 4134SOL    HW223865   3.367   3.176   0.160  0.3619 -0.0870 -0.6285
 4135SOL     OW23866   3.649   2.703   1.940  0.7141  0.4336  0.0346
 4135SOL    HW123867   3.578   2.706   1.877  2.2493 -0.1038 -1.7331
 4135SOL    HW223868   3.615   2.644   2.007  0.5508  1.0327  0.4810
 4136SOL     OW23869   4.479   0.012   6.134  0.0585 -0.8379  0.1056
 4136SOL    HW123870   4.471   4.698   6.047  0.6121 -0.0577 -0.2836
 4136SOL    HW223871   4.418   0.085   6.127  0.9560  0.0600  1.5950
 4137SOL     OW23872   0.113   3.296   8.164  0.7810 -0.1931  0.4389
 4137SOL    HW123873   0.027   3.266   8.195  1.2018 -1.3374  0.4976
 4137SOL    HW223874   0.167   3.220   8.184  2.6114  0.5730 -1.5945
 4138SOL     OW23875   0.223   3.822   0.389  0.2873 -0.5358  0.2654
 4138SOL    HW123876   0.136   3.858   0.375  0.4908 -0.3746 -0.6143
 4138SOL    HW223877   0.222   3.776   0.473  1.8655 -0.3937  0.3763
 4139SOL     OW23878   2.671   0.871  16.760 -0.3083 -0.6658  0.8698
 4139SOL    HW123879   2.667   0.861  16.665  0.2987 -0.0962  0.7887
 4139SOL    HW223880   2.718   0.954  16.773 -0.2135 -0.7505  1.0569
 4140SOL     OW23881   0.277   3.980   0.688 -0.3116  0.3957 -0.1486
 4140SOL    HW123882   0.358   3.966   0.640  0.1813 -2.1882  1.4321
 4140SOL    HW223883   0.223   3.900   0.683  1.9944 -1.1669  0.0130
 4141SOL     OW23884   3.698   1.201   2.088  0.3493 -0.2388 -0.1300
 4141SOL    HW123885   3.626   1.139   2.084 -1.1360  1.5254 -0.6929
 4141SOL    HW223886   3.711   1.204   2.183 -0.1857  3.5422 -0.1812
 4142SOL     OW23887   0.661   1.864   0.208 -0.0197 -0.4102 -0.8302
 4142SOL    HW123888   0.600   1.902   0.145 -0.3247  1.7693  0.7837
 4142SOL    HW223889   0.601   1.792   0.225  0.6714 -0.9088 -0.5149
 4143SOL     OW23890   3.871   3.780   7.758 -1.0085  0.8776 -0.1472
 4143SOL    HW123891   3.872   3.687   7.736 -0.2319  0.5803  1.1571
 4143SOL    HW223892   3.787   3.784   7.804 -0.4156 -0.8095  1.0743
 4144SOL     OW23893   4.715   4.047   4.205 -0.0321  0.6821 -0.3961
 4144SOL    HW123894   0.021   4.064   4.116 -1.4486  0.7504 -0.8560
 4144SOL    HW223895   0.061   3.996   4.246 -0.8104  0.5803  0.7961
 4145SOL     OW23896   0.649   3.406  13.393  0.0180 -0.7254 -0.2057
 4145SOL    HW123897   0.558   3.394  13.418  0.5722 -1.9832  1.2375
 4145SOL    HW223898   0.658   3.335  13.330 -0.4534 -0.6287 -0.3781
 4146SOL     OW23899   3.745   3.731  13.966  0.4503  0.1067 -0.2205
 4146SOL    HW123900   3.819   3.758  13.911  0.4057  0.2390 -0.2149
 4146SOL    HW223901   3.679   3.775  13.914 -1.2950  0.0238  1.9282
 4147SOL     OW23902   1.330   1.232  12.853  1.0922 -0.1210 -0.4248
 4147SOL    HW123903   1.337   1.190  12.767  0.9427 -0.4895 -0.2618
 4147SOL    HW223904   1.373   1.176  12.918  1.2239  1.8313  1.1663
 4148SOL     OW23905   3.567   0.825   2.442 -0.0604 -0.0379  0.0630
 4148SOL    HW123906   3.541   0.749   2.389  0.8607  0.5730 -1.2715
 4148SOL    HW223907   3.481   0.857   2.471  0.9954  2.2729  0.6357
 4149SOL     OW23908   0.985   4.629  12.861  0.0640 -0.4541 -0.3587
 4149SOL    HW123909   1.037   4.710  12.860 -0.4733 -0.1337 -2.4150
 4149SOL    HW223910   0.902   4.658  12.822  0.0870  0.7139  0.4499
 4150SOL     OW23911   1.743   2.278  11.985  0.2149 -0.0845  0.3757
 4150SOL    HW123912   1.817   2.217  11.988  0.6154  0.3201 -1.7308
 4150SOL    HW223913   1.704   2.248  12.068  0.1523 -0.9144  0.0457
 4151SOL     OW23914   0.131   4.002   7.584 -0.1224  0.4435  0.0256
 4151SOL    HW123915   0.223   3.983   7.565 -0.0624  0.3084  0.4607
 4151SOL    HW223916   0.090   3.919   7.559 -0.6684  0.7724 -0.1750
 4152SOL     OW23917   1.129   4.033   4.577  0.6988 -0.0461 -0.0281
 4152SOL    HW123918   1.048   4.021   4.626  1.2449 -0.1923  0.8361
 4152SOL    HW223919   1.150   4.125   4.592 -1.0137  0.5101 -1.1663
 4153SOL     OW23920   1.473   2.901   6.467  0.3602 -0.5051 -0.0220
 4153SOL    HW123921   1.438   2.852   6.393 -0.2230  2.3276 -1.6585
 4153SOL    HW223922   1.540   2.959   6.430  0.5533 -0.4384  0.4351
 4154SOL     OW23923   1.621   1.789  11.150 -0.2972  0.2113 -0.1815
 4154SOL    HW123924   1.624   1.882  11.170  0.1162  0.4955 -1.5298
 4154SOL    HW223925   1.556   1.756  11.212  1.1556 -0.5899  0.8973
 4155SOL     OW23926   1.836   3.264  17.585 -0.2442 -0.0836  0.2138
 4155SOL    HW123927   1.889   3.281  17.663 -0.8470  0.2552  0.5545
 4155SOL    HW223928   1.777   3.202  17.628  1.2820 -1.2619  0.6258
 4156SOL     OW23929   0.853   1.399   3.308  0.1158  0.4384 -0.0974
 4156SOL    HW123930   0.915   1.467   3.282 -0.1875  0.9157  0.4456
 4156SOL    HW223931   0.873   1.331   3.243  1.5318 -0.2399  1.0456
 4157SOL     OW23932   4.001   3.850  14.181 -0.2904 -0.2646 -0.0799
 4157SOL    HW123933   4.000   3.879  14.090 -0.0566 -3.1018 -0.9903
 4157SOL    HW223934   4.088   3.811  14.181  0.4885  1.4834  1.5609
 4158SOL     OW23935   0.709   3.625   4.120  0.0867 -0.5069  0.0591
 4158SOL    HW123936   0.719   3.710   4.077 -2.0120 -0.5978 -0.6274
 4158SOL    HW223937   0.682   3.657   4.206  2.2291  0.8532  0.2285
 4159SOL     OW23938   1.427   2.446   7.012  0.3875 -0.4517  0.0399
 4159SOL    HW123939   1.393   2.480   6.929  1.0262 -1.0120 -0.4463
 4159SOL    HW223940   1.439   2.353   6.995  3.6174  0.1346 -0.7926
 4160SOL     OW23941   2.984   2.638   7.457  0.6606 -0.0513 -0.3890
 4160SOL    HW123942   2.977   2.601   7.370 -2.7605 -2.1978  0.7767
 4160SOL    HW223943   2.941   2.565   7.502 -0.1523  0.5282 -0.2182
 4161SOL     OW23944   1.034   2.892   8.527 -0.1582 -0.2795 -0.0046
 4161SOL    HW123945   1.058   2.812   8.574  1.2061  0.2530  0.1989
 4161SOL    HW223946   1.104   2.890   8.461 -0.2389 -2.1020 -0.0407
 4162SOL     OW23947   2.725   1.663   9.426 -0.7182  0.3490  0.5420
 4162SOL    HW123948   2.753   1.619   9.346 -1.8936  0.1342  0.2412
 4162SOL    HW223949   2.683   1.592   9.474 -2.2785 -0.9313 -2.6642
 4163SOL     OW23950   0.527   2.058   4.785 -0.1260 -0.0418  0.5506
 4163SOL    HW123951   0.457   2.120   4.807 -1.5032 -0.7927 -1.7679
 4163SOL    HW223952   0.532   2.002   4.863 -2.7189  1.2829  1.6753
 4164SOL     OW23953   1.609   2.822   3.410  0.5110  0.4355 -0.1786
 4164SOL    HW123954   1.552   2.854   3.480 -0.1233  1.2860 -1.0944
 4164SOL    HW223955   1.533   2.768   3.387  1.0884 -0.3053 -0.3666
 4165SOL     OW23956   0.179   3.499   7.314  0.6892  0.0849 -0.3123
 4165SOL    HW123957   0.145   3.419   7.355  2.4911  1.2866  3.4784
 4165SOL    HW223958   0.271   3.503   7.338  0.1466 -0.3703  1.8245
 4166SOL     OW23959   4.245   4.415   0.714  0.3848  0.1512 -0.2930
 4166SOL    HW123960   4.175   4.477   0.737 -0.8953 -1.4268  0.0901
 4166SOL    HW223961   4.226   4.349   0.780  5.8389 -0.3164  0.7208
 4167SOL     OW23962   0.836   3.822  12.790 -0.1108 -0.1646  0.2812
 4167SOL    HW123963   0.875   3.859  12.869  0.3895 -0.5901  0.2291
 4167SOL    HW223964   0.914   3.777  12.758 -1.5838 -2.8394  0.4526
 4168SOL     OW23965   2.069   1.745   1.962 -0.1100 -0.3562  0.1315
 4168SOL    HW123966   2.115   1.720   2.043 -0.8693 -0.2421  0.6016
 4168SOL    HW223967   2.052   1.837   1.982 -1.7355 -0.9509  1.4582
 4169SOL     OW23968   2.010   1.315   4.992 -0.2187 -0.5555  0.2080
 4169SOL    HW123969   2.076   1.326   4.924  0.2856 -2.2151  0.4396
 4169SOL    HW223970   2.049   1.370   5.061 -2.3131  0.2577  0.7602
 4170SOL     OW23971   3.333   4.543   1.957  0.5542 -0.3069  0.2613
 4170SOL    HW123972   3.309   4.616   2.013 -2.0601 -1.0699  0.1433
 4170SOL    HW223973   3.376   4.495   2.028  3.2737  1.7837  0.0323
 4171SOL     OW23974   1.469   0.916   1.843 -0.0208  0.4445  0.2859
 4171SOL    HW123975   1.491   1.006   1.817 -3.1499  1.6170  1.7856
 4171SOL    HW223976   1.386   0.909   1.796 -0.1069  0.7300  0.3957
 4172SOL     OW23977   1.967   0.756   6.321 -0.5081 -0.8300 -0.4421
 4172SOL    HW123978   1.929   0.758   6.233 -1.1364  0.0777 -0.1426
 4172SOL    HW223979   2.033   0.686   6.320 -0.3027 -0.6554  2.5262
 4173SOL     OW23980   3.264   1.276  11.243 -0.1693  0.0234  0.2767
 4173SOL    HW123981   3.214   1.207  11.199 -1.5897  2.0507 -1.2996
 4173SOL    HW223982   3.353   1.252  11.217  0.8177  2.4329  1.4359
 4174SOL     OW23983   3.953   1.828   7.043  0.2048 -0.3247 -0.1213
 4174SOL    HW123984   3.868   1.845   7.085 -0.0497 -0.0360 -0.7519
 4174SOL    HW223985   4.001   1.890   7.098 -1.6903  0.2377  0.9228
 4175SOL     OW23986   4.321   2.587   4.373 -0.2051 -0.1069 -0.4609
 4175SOL    HW123987   4.250   2.644   4.402 -2.4007 -2.5885 -1.0226
 4175SOL    HW223988   4.400   2.634   4.400 -1.2599  1.8632 -0.8293
 4176SOL     OW23989   2.539   3.655   6.031 -0.4260 -0.6487  0.5409
 4176SOL    HW123990   2.481   3.610   5.970 -1.0215  0.1169  0.5344
 4176SOL    HW223991   2.554   3.735   5.981  0.3905  0.4491  2.5264
 4177SOL     OW23992   2.756   3.590  14.625  0.0699 -0.2668 -0.1739
 4177SOL    HW123993   2.679   3.602  14.681 -1.5050 -0.7265 -2.2354
 4177SOL    HW223994   2.757   3.503  14.585  2.4443  0.0749 -0.8322
 4178SOL     OW23995   2.203   4.429  10.345  0.2807 -0.5828 -0.1956
 4178SOL    HW123996   2.112   4.407  10.325  0.0403  0.8185 -0.6128
 4178SOL    HW223997   2.191   4.495  10.413 -0.0621 -0.3218 -0.5091
 4179SOL     OW23998   1.041   1.642   4.004  0.4435  0.3338  0.0357
 4179SOL    HW123999   1.113   1.583   3.981  0.6185  0.4091  0.3852
 4179SOL    HW224000   1.083   1.715   4.050  1.6214 -1.0414  1.1224
 4180SOL     OW24001   1.277   3.584  11.457 -0.1776 -0.5568  0.1104
 4180SOL    HW124002   1.274   3.597  11.552  1.0022  0.7392 -0.0216
 4180SOL    HW224003   1.370   3.571  11.435  0.0665  1.4447 -0.0701
 4181SOL     OW24004   1.459   3.508   0.266  0.3158 -0.0617 -0.4132
 4181SOL    HW124005   1.417   3.578   0.316 -0.3491 -0.5267 -0.3325
 4181SOL    HW224006   1.493   3.455   0.337  0.7957  1.0360  0.1848
 4182SOL     OW24007   0.110   2.297   7.005  0.0239  0.3019 -0.4265
 4182SOL    HW124008   0.055   2.229   6.966 -0.4202  1.2193 -1.4075
 4182SOL    HW224009   0.051   2.317   7.078  0.6364  0.7020 -0.0412
 4183SOL     OW24010   0.933   1.771   6.577 -0.3962  0.2918 -0.1949
 4183SOL    HW124011   0.937   1.746   6.669 -2.6119 -0.0222 -0.1818
 4183SOL    HW224012   0.849   1.728   6.559  0.6500 -0.7560 -2.6767
 4184SOL     OW24013   1.261   3.245   5.354  0.4977 -0.6634  0.2345
 4184SOL    HW124014   1.207   3.258   5.276 -1.9384  2.4005  2.3922
 4184SOL    HW224015   1.344   3.229   5.309  1.3330  2.2025  0.7396
 4185SOL     OW24016   0.900   3.521   8.489  0.0922  0.5459  0.2146
 4185SOL    HW124017   0.851   3.575   8.427 -0.5323 -0.0079  0.2307
 4185SOL    HW224018   0.911   3.592   8.553  2.3318  1.3965 -1.1130
 4186SOL     OW24019   1.856   3.396  15.945  0.2794 -0.0378  0.0199
 4186SOL    HW124020   1.811   3.419  15.864  1.0284  0.2431 -0.3203
 4186SOL    HW224021   1.945   3.428  15.931  1.6060 -3.1098  1.3745
 4187SOL     OW24022   3.046   3.587  14.514  0.4304  0.1016 -0.7762
 4187SOL    HW124023   2.999   3.540  14.444  0.0882 -2.6340  1.2555
 4187SOL    HW224024   3.132   3.601  14.475  2.5902 -0.0965  3.9369
 4188SOL     OW24025   0.549   1.059   3.035 -0.0407  0.2361 -0.2430
 4188SOL    HW124026   0.535   1.015   3.119  2.0193 -2.4249 -1.2493
 4188SOL    HW224027   0.461   1.059   2.998 -0.1765 -1.1017  0.0699
 4189SOL     OW24028   2.015   1.724   8.038  0.1434  0.1054  0.0818
 4189SOL    HW124029   1.965   1.659   8.087  1.6681 -2.2465 -1.4612
 4189SOL    HW224030   2.049   1.668   7.968  0.2708 -1.1005  1.1068
 4190SOL     OW24031   3.432   2.742   8.435 -0.4407 -0.2392 -0.6880
 4190SOL    HW124032   3.449   2.800   8.360 -2.3435 -0.1598 -1.0505
 4190SOL    HW224033   3.374   2.802   8.483 -2.6974 -0.3093 -3.3299
 4191SOL     OW24034   3.822   2.503   6.424 -0.2257 -0.0115  0.5042
 4191SOL    HW124035   3.747   2.446   6.442 -0.6257  0.5022  0.4546
 4191SOL    HW224036   3.792   2.543   6.343  2.0665 -0.3082 -0.4776
 4192SOL     OW24037   0.614   2.286  15.842 -0.8011 -0.1886 -0.0179
 4192SOL    HW124038   0.609   2.316  15.752  2.3039 -2.2605 -0.8929
 4192SOL    HW224039   0.537   2.229  15.838 -1.8714  1.2015  0.9935
 4193SOL     OW24040   0.356   1.423   5.424 -0.6907 -0.0032 -0.6359
 4193SOL    HW124041   0.261   1.436   5.425 -0.6043  0.4077  1.5074
 4193SOL    HW224042   0.389   1.504   5.385 -2.4771  0.2821 -1.5618
 4194SOL     OW24043   3.961   4.601   4.035 -0.6950  0.1926  0.2970
 4194SOL    HW124044   3.898   4.633   3.970  1.7804  1.2758 -1.5856
 4194SOL    HW224045   4.026   4.545   3.992 -3.3510 -1.4485 -1.5963
 4195SOL     OW24046   4.284   4.271   3.621  0.4048  0.3939 -0.2943
 4195SOL    HW124047   4.283   4.226   3.705 -1.1388 -3.4713 -2.3472
 4195SOL    HW224048   4.232   4.346   3.651  0.4621 -0.4926  1.9838
 4196SOL     OW24049   1.732   2.638   8.314 -0.3876  0.2119 -0.4837
 4196SOL    HW124050   1.703   2.610   8.227  0.7912 -0.6317 -0.6081
 4196SOL    HW224051   1.724   2.554   8.359  2.2432 -1.1989 -2.6305
 4197SOL     OW24052   1.359   1.725   4.512  0.5038  0.1482  0.0302
 4197SOL    HW124053   1.442   1.761   4.544  0.2402 -0.0138  0.8956
 4197SOL    HW224054   1.384   1.641   4.475 -0.5245 -0.3567  0.4700
 4198SOL     OW24055   1.269   1.286   1.283  0.2881  0.6891  0.3993
 4198SOL    HW124056   1.199   1.254   1.339 -0.5632 -1.2317 -1.7980
 4198SOL    HW224057   1.231   1.358   1.232 -1.1198 -2.6972 -3.2722
 4199SOL     OW24058   2.319   3.083   8.136 -0.3664 -0.2102 -0.6985
 4199SOL    HW124059   2.412   3.107   8.137 -0.6803  0.8928  1.4877
 4199SOL    HW224060   2.321   3.012   8.199  0.2811 -1.3660 -2.0105
 4200SOL     OW24061   3.255   2.292   8.656 -0.0974  0.1534 -0.1374
 4200SOL    HW124062   3.178   2.239   8.675 -0.5307  1.4914  1.8789
 4200SOL    HW224063   3.323   2.229   8.679 -1.9957 -1.9523 -0.2906
 4201SOL     OW24064   2.352   1.166   5.427  0.5766 -0.1471 -0.1893
 4201SOL    HW124065   2.446   1.154   5.439  0.3973 -1.3001  0.0337
 4201SOL    HW224066   2.325   1.237   5.486  0.3082  0.5517 -1.1665
 4202SOL     OW24067   4.249   1.951   3.480  0.4658 -0.0709 -0.0069
 4202SOL    HW124068   4.271   1.943   3.387  1.6608 -2.7984  0.5120
 4202SOL    HW224069   4.158   1.980   3.474  0.0321 -1.7962 -1.7187
 4203SOL     OW24070   1.661   3.851   5.587  0.2845  0.1516 -0.5947
 4203SOL    HW124071   1.679   3.927   5.642 -0.9876 -0.7952  1.1448
 4203SOL    HW224072   1.747   3.825   5.555  0.4101  0.2424 -0.3276
 4204SOL     OW24073   2.378   2.150   9.457 -0.2131 -0.6604  0.1582
 4204SOL    HW124074   2.416   2.216   9.516  0.5159 -1.1773  0.2646
 4204SOL    HW224075   2.292   2.143   9.497  0.0147 -1.4511  0.5173
 4205SOL     OW24076   2.796   2.605  13.511  0.6970 -0.0308  0.1154
 4205SOL    HW124077   2.801   2.640  13.421  1.2411 -1.3317 -0.3632
 4205SOL    HW224078   2.762   2.681  13.559  0.5078 -0.6719  0.9848
 4206SOL     OW24079   4.693   1.441   5.919  0.0590 -0.1356  0.2354
 4206SOL    HW124080   0.065   1.440   5.920  0.0697  1.0655  0.3295
 4206SOL    HW224081   4.683   1.352   5.952 -1.9613 -0.5569 -1.4479
 4207SOL     OW24082   1.383   3.805   6.408 -0.3744  0.6698  0.2243
 4207SOL    HW124083   1.322   3.864   6.363 -0.6033  0.6008  0.4447
 4207SOL    HW224084   1.324   3.778   6.478 -0.8125  2.2876  0.4842
 4208SOL     OW24085   3.369   0.766  15.767 -0.1121 -0.4802  0.0509
 4208SOL    HW124086   3.312   0.729  15.700  0.9914  0.3120 -1.3139
 4208SOL    HW224087   3.340   0.708  15.837 -1.9161 -1.3730 -1.4556
 4209SOL     OW24088   2.742   3.620   8.731  0.0413  0.1446 -0.1655
 4209SOL    HW124089   2.735   3.632   8.637 -1.9230  0.2097 -0.0090
 4209SOL    HW224090   2.835   3.641   8.745  0.1107 -1.9104  2.4937
 4210SOL     OW24091   3.978   4.443   8.222 -0.0849  0.3037  0.2173
 4210SOL    HW124092   3.992   4.434   8.127  0.1712  1.1244  0.1777
 4210SOL    HW224093   3.990   4.352   8.249  3.2500  0.1874 -1.6011
 4211SOL     OW24094   2.341   4.719  11.332 -0.1209 -0.0415  0.3767
 4211SOL    HW124095   2.386   0.077  11.312  1.6253 -0.5266  2.2694
 4211SOL    HW224096   2.256   4.720  11.289 -0.3427  0.6330  0.8395
 4212SOL     OW24097   3.601   2.934   9.417  0.1238  0.4472 -0.2838
 4212SOL    HW124098   3.604   2.915   9.511 -1.5618 -1.6963 -0.6476
 4212SOL    HW224099   3.529   2.882   9.380 -0.8010  0.6211  1.2728
 4213SOL     OW24100   4.548   0.723   1.112 -0.1887  0.2624 -0.2872
 4213SOL    HW124101   4.611   0.699   1.045 -1.8613 -2.6967 -0.8242
 4213SOL    HW224102   4.580   0.813   1.123 -0.2209  0.6093 -2.9909
 4214SOL     OW24103   4.626   3.155   2.934 -0.5818 -0.6865 -0.0205
 4214SOL    HW124104   4.668   3.101   2.868 -0.0957  0.2762 -0.5064
 4214SOL    HW224105   4.565   3.090   2.968 -1.7367  1.2172  1.6199
 4215SOL     OW24106   3.953   3.866   2.619  0.1126 -0.5414  0.0601
 4215SOL    HW124107   3.987   3.951   2.592  0.6935 -0.0365  2.3669
 4215SOL    HW224108   4.030   3.837   2.669 -1.4304  1.2742  3.4900
 4216SOL     OW24109   1.599   1.836  10.588  0.0972  0.0730 -0.6944
 4216SOL    HW124110   1.625   1.750  10.555  0.0584 -0.0670 -0.3685
 4216SOL    HW224111   1.671   1.862  10.646 -1.5881 -0.1771  1.4930
 4217SOL     OW24112   0.002   3.321   3.328  0.7083 -0.0187  0.1900
 4217SOL    HW124113   0.069   3.320   3.260 -0.5031  0.8672 -1.0034
 4217SOL    HW224114   0.047   3.292   3.408  1.2834  1.6550  0.4636
 4218SOL     OW24115   1.522   2.756   5.283 -0.6254  0.2102 -0.6246
 4218SOL    HW124116   1.577   2.682   5.256  2.9467  2.4128  0.5732
 4218SOL    HW224117   1.446   2.706   5.311 -1.0937  0.8084 -0.8454
 4219SOL     OW24118   4.414   0.325   4.918  0.2864  0.3886  0.1833
 4219SOL    HW124119   4.321   0.328   4.896  0.6927 -1.5521 -1.8120
 4219SOL    HW224120   4.413   0.254   4.983 -4.4383 -1.5134 -1.9624
 4220SOL     OW24121   2.115   1.350   7.159 -0.0888  0.6568 -1.1372
 4220SOL    HW124122   2.062   1.416   7.204 -3.0517 -1.2053 -1.8229
 4220SOL    HW224123   2.196   1.365   7.206 -2.3276  2.0893  2.2749
 4221SOL     OW24124   4.085   3.149   7.732 -0.3059  0.0568  0.1886
 4221SOL    HW124125   4.144   3.086   7.773  0.0411 -1.7383 -3.0225
 4221SOL    HW224126   4.158   3.210   7.725  0.4311 -0.7338  1.0630
 4222SOL     OW24127   4.093   1.084   7.014  0.0370 -0.1042  0.3924
 4222SOL    HW124128   4.113   1.089   7.107  0.0863  0.7772  0.3309
 4222SOL    HW224129   4.033   1.011   7.000  0.3028 -0.5554  1.6134
 4223SOL     OW24130   2.423   1.189   4.883  0.4981 -0.3253  0.2014
 4223SOL    HW124131   2.506   1.157   4.850  0.8433  0.8642 -0.0756
 4223SOL    HW224132   2.376   1.125   4.829 -0.8662 -0.4298  1.5127
 4224SOL     OW24133   3.887   2.728   9.501  0.1278  0.3428  0.1724
 4224SOL    HW124134   3.825   2.764   9.437  0.4819 -0.2947 -0.5340
 4224SOL    HW224135   3.970   2.747   9.457 -0.0210 -0.6579 -0.5260
 4225SOL     OW24136   1.779   4.175   9.779  0.9415  0.4248  0.0057
 4225SOL    HW124137   1.856   4.131   9.743  0.0145  0.6943 -2.3222
 4225SOL    HW224138   1.712   4.119   9.741 -0.4971  0.8502  1.9203
 4226SOL     OW24139   2.104   4.595  16.125 -0.0256  0.8130  0.0639
 4226SOL    HW124140   2.126   4.535  16.053  0.6884  1.0714  0.0695
 4226SOL    HW224141   2.139   4.549  16.201 -0.3252  0.9497  0.2831
 4227SOL     OW24142   0.930   3.468   3.253 -0.0106 -0.2695 -0.2156
 4227SOL    HW124143   0.879   3.548   3.267  3.0088  1.1204  2.7788
 4227SOL    HW224144   0.861   3.402   3.257 -0.2842 -0.0215 -0.7654
 4228SOL     OW24145   0.992   1.747   2.157  0.2174  0.0320 -0.0440
 4228SOL    HW124146   0.960   1.823   2.109  1.5763  1.0947  0.7247
 4228SOL    HW224147   0.984   1.775   2.248  0.5541  0.1353 -0.0458
 4229SOL     OW24148   0.576   1.163   5.691  0.3872 -0.0975 -0.2587
 4229SOL    HW124149   0.601   1.242   5.644  0.7397 -0.2193 -0.2731
 4229SOL    HW224150   0.540   1.104   5.624 -2.1141  0.5969  0.4520
 4230SOL     OW24151   0.852   0.051   1.139  0.1452  0.1957 -0.4345
 4230SOL    HW124152   0.797   4.700   1.118 -1.3062  0.9987  0.5025
 4230SOL    HW224153   0.933   0.015   1.175 -0.6099  0.5222  1.6103
 4231SOL     OW24154   0.769   0.739   7.065 -0.3481 -0.2893  1.0573
 4231SOL    HW124155   0.777   0.795   6.988  0.9523 -3.6452 -1.2341
 4231SOL    HW224156   0.859   0.724   7.093 -0.3450  0.3900  1.4272
 4232SOL     OW24157   2.137   1.202  10.458 -0.2913  0.3721 -0.0472
 4232SOL    HW124158   2.146   1.200  10.554  0.0817  3.2521 -0.0315
 4232SOL    HW224159   2.049   1.240  10.457  0.0116  0.9536 -2.4166
 4233SOL     OW24160   3.353   0.060   2.212  0.0964  0.2506  0.1624
 4233SOL    HW124161   3.416   0.094   2.148  0.4279 -3.0540 -1.2305
 4233SOL    HW224162   3.384   0.088   2.299 -2.0170 -2.2735  1.7133
 4234SOL     OW24163   2.883   2.063   7.033  0.0575  0.9461  0.0008
 4234SOL    HW124164   2.972   2.089   7.058  0.2416 -0.6257  1.0094
 4234SOL    HW224165   2.838   2.121   7.095 -1.5186 -1.3119  0.9622
 4235SOL     OW24166   0.062   0.678  14.017 -0.2547  0.2580 -0.4253
 4235SOL    HW124167   4.708   0.734  14.016 -1.3452 -1.2598 -1.2069
 4235SOL    HW224168   0.062   0.655  13.924  0.5382  2.2620 -0.9320
 4236SOL     OW24169   0.031   1.446   8.698 -0.2490  0.2014 -0.0199
 4236SOL    HW124170   4.693   1.390   8.744  0.7501  1.4329  2.7970
 4236SOL    HW224171   0.006   1.423   8.608  0.5127 -1.6284  0.2297
 4237SOL     OW24172   0.817   3.762   7.663  0.0053 -0.2899  0.0974
 4237SOL    HW124173   0.877   3.800   7.727  1.7583 -0.5146 -1.4209
 4237SOL    HW224174   0.861   3.684   7.631  0.7243  0.0530  0.2432
 4238SOL     OW24175   4.191   0.638   6.618 -0.0290  0.0118 -0.0988
 4238SOL    HW124176   4.153   0.564   6.570  0.2690 -0.5520  0.5323
 4238SOL    HW224177   4.203   0.608   6.709  0.5236  1.0571  0.1722
 4239SOL     OW24178   3.761   0.610   3.513 -0.7563  0.2080  0.3267
 4239SOL    HW124179   3.812   0.637   3.590 -1.5953  1.9442  0.2742
 4239SOL    HW224180   3.776   0.684   3.455 -2.3967  0.3164  0.0443
 4240SOL     OW24181   3.516   0.326   8.227 -0.5654 -0.2445 -0.0971
 4240SOL    HW124182   3.489   0.259   8.164  0.1139 -0.2037 -0.4275
 4240SOL    HW224183   3.474   0.293   8.307  1.6446  2.8965  2.3237
 4241SOL     OW24184   1.183   4.707  13.921  0.0255 -0.0666 -0.9068
 4241SOL    HW124185   1.229   4.704  14.005  1.4544  2.6738 -1.5674
 4241SOL    HW224186   1.149   0.072  13.918 -1.4216 -0.6157 -0.4890
 4242SOL     OW24187   2.173   1.369   3.559 -0.3633  0.1243  0.4566
 4242SOL    HW124188   2.236   1.326   3.501 -0.7424  1.3538 -0.8618
 4242SOL    HW224189   2.123   1.425   3.500  0.6259  0.1643 -0.3508
 4243SOL     OW24190   3.031   4.548   4.023 -0.2800 -0.0640  0.0496
 4243SOL    HW124191   3.076   4.541   4.107 -0.0351 -0.9314 -0.1547
 4243SOL    HW224192   3.046   4.461   3.986 -3.1459 -1.1771  1.4364
 4244SOL     OW24193   2.401   3.571   2.263  1.1280  0.1039  0.5389
 4244SOL    HW124194   2.441   3.520   2.333  1.4495  1.1983  1.1483
 4244SOL    HW224195   2.377   3.505   2.198  1.9484 -0.3685  0.7119
 4245SOL     OW24196   4.709   2.125   6.111  0.3058  0.2229 -0.2114
 4245SOL    HW124197   4.678   2.086   6.029  0.4680 -0.0809 -0.1294
 4245SOL    HW224198   4.646   2.197   6.117  0.7049  0.2805  3.6128
 4246SOL     OW24199   4.367   3.868  12.109 -0.2261 -0.3860 -0.2456
 4246SOL    HW124200   4.380   3.785  12.155 -0.9007 -2.6003 -4.0453
 4246SOL    HW224201   4.405   3.923  12.178  0.2719 -1.6599  0.4924
 4247SOL     OW24202   4.152   3.628  17.474  0.2801 -1.1139 -0.1313
 4247SOL    HW124203   4.082   3.566  17.452 -1.2122  0.4561  0.2016
 4247SOL    HW224204   4.111   3.711  17.447  1.2029 -0.9393 -1.0036
 4248SOL     OW24205   3.776   3.275   5.903 -0.3690 -0.3363 -0.0949
 4248SOL    HW124206   3.719   3.333   5.853  0.2288  0.6640  0.3661
 4248SOL    HW224207   3.710   3.212   5.932 -0.6885 -0.3738 -0.9274
 4249SOL     OW24208   3.999   1.585   5.357  0.2168  0.4831  0.0263
 4249SOL    HW124209   4.018   1.591   5.263  1.7798  2.1690  0.4453
 4249SOL    HW224210   4.081   1.555   5.396 -1.0843  0.2153  2.5627
 4250SOL     OW24211   1.797   0.256  16.609 -0.6978 -0.6379  0.4632
 4250SOL    HW124212   1.717   0.264  16.661 -1.3311  1.7404 -0.9196
 4250SOL    HW224213   1.767   0.225  16.524 -1.6006  0.6621  0.3219
 4251SOL     OW24214   0.334   1.582  10.635 -0.2680  0.0907  0.2081
 4251SOL    HW124215   0.404   1.542  10.584 -3.3007 -1.3755 -2.8114
 4251SOL    HW224216   0.361   1.674  10.633  0.0666 -0.0595 -1.7687
 4252SOL     OW24217   2.570   3.020   6.704 -0.1283 -0.1992 -0.1097
 4252SOL    HW124218   2.662   3.015   6.678  0.4328  0.0822  1.8152
 4252SOL    HW224219   2.564   3.116   6.700  0.6519 -0.1814 -0.9004
 4253SOL     OW24220   3.560   1.361   4.283  0.6692 -0.4402  0.5551
 4253SOL    HW124221   3.631   1.300   4.267  0.0931 -0.4950 -1.7680
 4253SOL    HW224222   3.562   1.352   4.378  0.9885 -0.6978  0.5213
 4254SOL     OW24223   0.596   1.453   7.846  0.6137  0.2396 -0.1640
 4254SOL    HW124224   0.629   1.482   7.930  1.4122  0.8971 -0.7021
 4254SOL    HW224225   0.659   1.499   7.790  0.1752 -0.1142 -0.9558
 4255SOL     OW24226   1.545   3.033   2.566 -0.1428 -0.3478 -0.4789
 4255SOL    HW124227   1.490   3.062   2.493  1.0306  1.1912 -0.7243
 4255SOL    HW224228   1.517   3.086   2.640 -0.2312 -0.1392 -0.6605
 4256SOL     OW24229   0.763   1.329   2.056  0.0364 -0.1152 -0.1008
 4256SOL    HW124230   0.829   1.281   2.006 -0.7660 -1.0541 -0.2598
 4256SOL    HW224231   0.823   1.400   2.079 -0.1304 -0.6571  1.9792
 4257SOL     OW24232   0.495   1.340   6.070  0.3337  0.0226 -0.6430
 4257SOL    HW124233   0.450   1.398   6.008 -2.4294  1.1583  2.4072
 4257SOL    HW224234   0.472   1.379   6.154 -0.0430 -0.9200 -0.3172
 4258SOL     OW24235   0.559   0.515   8.931  0.3712  0.3139  0.1032
 4258SOL    HW124236   0.498   0.548   8.864 -0.2444 -0.2546  0.3760
 4258SOL    HW224237   0.637   0.522   8.876 -1.0251  0.4645 -1.8564
 4259SOL     OW24238   1.074   3.028   5.774  0.4027  0.4339 -0.3119
 4259SOL    HW124239   1.036   3.102   5.821  1.9316  1.1481 -0.2097
 4259SOL    HW224240   1.168   3.038   5.793 -0.1197  2.8913  0.9595
 4260SOL     OW24241   2.678   2.571   8.003  0.1843  0.4083 -0.4600
 4260SOL    HW124242   2.734   2.648   7.997  0.3323  0.2861 -0.6663
 4260SOL    HW224243   2.742   2.503   7.981 -0.9177 -0.8678  0.3036
 4261SOL     OW24244   2.361   0.384   2.646 -0.8674 -0.0718 -0.2206
 4261SOL    HW124245   2.423   0.443   2.689  0.5021 -1.2828 -0.5232
 4261SOL    HW224246   2.306   0.351   2.717  0.6894 -3.3768 -0.5648
 4262SOL     OW24247   3.144   4.166  12.707 -0.0893 -0.2288 -0.0490
 4262SOL    HW124248   3.153   4.071  12.699 -0.8868 -0.1783 -1.5945
 4262SOL    HW224249   3.178   4.170  12.796 -0.0949 -3.2094  0.0807
 4263SOL     OW24250   4.055   0.464  11.458  0.0862  0.2041 -0.1030
 4263SOL    HW124251   4.053   0.559  11.467  1.7507  0.2184  0.1443
 4263SOL    HW224252   4.105   0.460  11.376  2.9323 -1.3401  1.7019
 4264SOL     OW24253   4.327   3.653   8.973  0.3748  0.1628 -0.1107
 4264SOL    HW124254   4.393   3.705   9.020 -0.5555 -0.2975  1.7018
 4264SOL    HW224255   4.247   3.685   9.014  0.8972  3.7586 -1.8676
 4265SOL     OW24256   3.429   1.109   8.580  0.0212  0.5273 -0.0567
 4265SOL    HW124257   3.449   1.092   8.672 -0.3850 -0.4267 -0.1511
 4265SOL    HW224258   3.385   1.031   8.546 -0.5554  1.7143 -2.0469
 4266SOL     OW24259   0.650   1.423  10.189 -0.1101  0.2042  0.1813
 4266SOL    HW124260   0.730   1.393  10.230 -0.6986 -2.1607 -0.3674
 4266SOL    HW224261   0.634   1.509  10.228  2.1266  0.0776  1.3527
 4267SOL     OW24262   0.866   3.852  10.246  0.0988  0.3907 -0.3175
 4267SOL    HW124263   0.923   3.847  10.322 -0.9200 -0.0422  0.4147
 4267SOL    HW224264   0.918   3.900  10.182  1.7801  1.4007  1.8193
 4268SOL     OW24265   3.280   1.361   6.983  0.3322 -0.2511  0.1611
 4268SOL    HW124266   3.213   1.365   6.915  0.1248 -0.5583  0.3466
 4268SOL    HW224267   3.361   1.359   6.932  0.7859 -0.9464  0.9043
 4269SOL     OW24268   4.665   1.357   2.567 -0.2482 -0.4282 -0.6339
 4269SOL    HW124269   4.605   1.402   2.508  0.2939 -0.8875 -1.5325
 4269SOL    HW224270   4.606   1.318   2.631 -0.8722 -0.1389 -1.0370
 4270SOL     OW24271   3.255   2.317  12.550 -0.5163 -0.1731 -0.0245
 4270SOL    HW124272   3.282   2.226  12.565 -1.7989 -0.2622  1.7446
 4270SOL    HW224273   3.284   2.324  12.459 -2.3185 -1.6654 -0.7067
 4271SOL     OW24274   0.457   0.048  10.342  0.1021  0.4142  0.4684
 4271SOL    HW124275   0.545   0.053  10.305  0.1375 -0.7166  0.4075
 4271SOL    HW224276   0.396   0.036  10.270 -1.4357 -1.8923  2.1555
 4272SOL     OW24277   0.034   0.157   2.606 -0.1929 -0.0740  0.2289
 4272SOL    HW124278   0.090   0.086   2.639  0.9416  0.0108 -1.5048
 4272SOL    HW224279   0.083   0.178   2.526 -1.8091 -3.0961 -1.5523
 4273SOL     OW24280   0.067   1.100   7.625 -0.2553 -0.2708 -0.0552
 4273SOL    HW124281   0.061   1.195   7.627  1.1390 -0.1506 -1.2680
 4273SOL    HW224282   0.080   1.071   7.535 -2.4717  0.6372 -0.6678
 4274SOL     OW24283   2.411   1.010   7.950 -0.4577  0.6512 -0.0390
 4274SOL    HW124284   2.402   0.916   7.967 -0.0259  0.4352 -1.0057
 4274SOL    HW224285   2.334   1.020   7.893 -1.6376  1.5906  1.7301
 4275SOL     OW24286   0.436   0.715   1.423  0.0991  0.1929  0.1770
 4275SOL    HW124287   0.443   0.622   1.399  0.5522  0.3639 -0.3525
 4275SOL    HW224288   0.345   0.736   1.441 -0.0233 -0.9876  0.9462
 4276SOL     OW24289   1.962   2.829  10.154  0.1803  0.3247 -0.0735
 4276SOL    HW124290   2.032   2.890  10.178  1.5337 -1.6414  1.0039
 4276SOL    HW224291   1.889   2.864  10.204  0.2391  1.1168 -0.5490
 4277SOL     OW24292   3.243   4.189   0.572  0.0819 -0.2374  0.4683
 4277SOL    HW124293   3.208   4.258   0.628  1.6701 -1.6909  3.2184
 4277SOL    HW224294   3.158   4.152   0.545  0.3279 -1.1939  1.0214
 4278SOL     OW24295   2.573   2.304   1.460  0.2776  0.0105 -0.1439
 4278SOL    HW124296   2.538   2.376   1.513  1.5420  0.5108  0.0048
 4278SOL    HW224297   2.535   2.226   1.501 -0.9727  0.8834  0.3427
 4279SOL     OW24298   4.373   1.474   3.160  0.3443  0.0119  0.0884
 4279SOL    HW124299   4.320   1.543   3.122 -1.4575 -1.4309 -0.0344
 4279SOL    HW224300   4.311   1.432   3.220 -3.4468 -1.6841 -5.0619
 4280SOL     OW24301   1.063   0.697   6.688 -0.5550 -0.2102  0.4806
 4280SOL    HW124302   1.039   0.766   6.627 -0.5412 -0.4579  0.1966
 4280SOL    HW224303   1.030   0.619   6.643 -0.6968 -1.0366  2.0262
 4281SOL     OW24304   1.267   4.392   3.039  0.1604  0.1369 -0.0023
 4281SOL    HW124305   1.247   4.460   2.975  1.5831  0.3517 -0.1994
 4281SOL    HW224306   1.335   4.341   2.994  2.4134  3.0381  0.1778
 4282SOL     OW24307   1.448   2.048   5.720 -0.7009  0.6729 -0.4846
 4282SOL    HW124308   1.532   2.032   5.764  0.4736  0.9603 -2.5924
 4282SOL    HW224309   1.483   2.065   5.632 -1.0183  0.8404 -0.5776
 4283SOL     OW24310   1.529   3.180  14.756  0.0445  0.0948 -0.0173
 4283SOL    HW124311   1.500   3.229  14.833 -0.2374 -1.3565  0.7836
 4283SOL    HW224312   1.624   3.181  14.773 -0.0677  0.4550  0.5565
 4284SOL     OW24313   0.552   1.405  16.239  0.6963 -0.4307 -0.2831
 4284SOL    HW124314   0.602   1.458  16.178  0.7985  0.9127  0.9666
 4284SOL    HW224315   0.516   1.480  16.286  0.2390 -0.7617 -0.1013
 4285SOL     OW24316   3.156   2.644   4.477  0.0545  0.3814  0.1236
 4285SOL    HW124317   3.094   2.577   4.448  1.5770 -1.8498  2.0507
 4285SOL    HW224318   3.160   2.696   4.396  2.5357 -0.3380 -0.2051
 4286SOL     OW24319   4.274   0.423   5.440 -0.1885 -0.2256 -0.1970
 4286SOL    HW124320   4.239   0.336   5.418 -0.1611 -0.4855  0.8173
 4286SOL    HW224321   4.284   0.456   5.351 -1.2884 -0.4828 -0.4200
 4287SOL     OW24322   3.935   3.880   4.413  0.4966  0.5197  0.1466
 4287SOL    HW124323   3.916   3.896   4.320 -0.1676 -0.2987  0.1468
 4287SOL    HW224324   3.967   3.967   4.440  1.2419  0.1533  0.4448
 4288SOL     OW24325   3.970   1.358   8.241 -0.6071  0.3011 -0.5454
 4288SOL    HW124326   3.974   1.403   8.157  1.1700 -1.1434 -1.2417
 4288SOL    HW224327   3.878   1.333   8.229 -0.5471 -0.2105  0.0796
 4289SOL     OW24328   1.569   3.329   0.451 -0.4397 -0.4142  0.0935
 4289SOL    HW124329   1.581   3.357   0.542 -0.1979 -1.6426  0.4462
 4289SOL    HW224330   1.501   3.261   0.456  0.3063 -1.1001  0.9477
 4290SOL     OW24331   1.893   1.609   4.187  0.6024  0.0423  0.2762
 4290SOL    HW124332   1.816   1.648   4.228  1.5314  0.7774  1.3328
 4290SOL    HW224333   1.944   1.591   4.265 -0.5334 -1.6525  0.6212
 4291SOL     OW24334   2.994   2.477  10.218  0.2443  0.7378 -0.0558
 4291SOL    HW124335   2.905   2.463  10.186  1.1138 -0.4923 -1.9609
 4291SOL    HW224336   2.982   2.560  10.265  0.1708  0.1584  0.9579
 4292SOL     OW24337   3.229   3.463  10.400  0.5143 -0.1861 -0.8434
 4292SOL    HW124338   3.304   3.449  10.458  0.6273 -0.1351 -0.9752
 4292SOL    HW224339   3.259   3.519  10.329  3.2050 -0.5550 -0.0015
 4293SOL     OW24340   3.560   3.892  16.805 -0.3013  0.3636 -0.2948
 4293SOL    HW124341   3.519   3.879  16.720  0.3314  0.7019 -0.6507
 4293SOL    HW224342   3.487   3.863  16.860 -0.6989  1.6250 -0.1508
 4294SOL     OW24343   3.010   3.546   6.609 -0.1560  0.1713 -0.3089
 4294SOL    HW124344   3.054   3.580   6.686  0.3626  0.5333 -0.7692
 4294SOL    HW224345   3.065   3.587   6.543  0.1918  0.7410  0.3329
 4295SOL     OW24346   0.892   0.497  14.377  0.4786  0.3563  0.2912
 4295SOL    HW124347   0.934   0.456  14.301  0.9324  3.2606 -1.0236
 4295SOL    HW224348   0.894   0.588  14.349 -2.1443  0.1221 -0.6335
 4296SOL     OW24349   1.094   2.604   4.501 -0.4659 -0.3492 -0.0578
 4296SOL    HW124350   1.087   2.530   4.561  1.5298  1.3034  2.2035
 4296SOL    HW224351   1.179   2.639   4.526 -1.3299  0.3002  1.9519
 4297SOL     OW24352   2.943   2.079   7.445  0.0829  1.0551 -0.0652
 4297SOL    HW124353   2.929   2.042   7.532 -1.0816  2.3917  0.3193
 4297SOL    HW224354   2.891   2.033   7.378  1.0623 -1.1871  0.7254
 4298SOL     OW24355   3.550   4.125   9.104 -0.1383  0.5618 -0.3510
 4298SOL    HW124356   3.500   4.123   9.186 -1.5702 -2.2444 -1.2705
 4298SOL    HW224357   3.520   4.042   9.067  0.6771 -0.0085  0.2689
 4299SOL     OW24358   1.214   4.587   2.859 -0.0422 -0.0517  0.8227
 4299SOL    HW124359   1.148   4.641   2.903 -0.5601 -0.7489  0.8952
 4299SOL    HW224360   1.255   4.645   2.794 -0.3181 -1.8296 -0.9113
 4300SOL     OW24361   3.098   3.166  11.328  0.2007  0.3605 -0.1277
 4300SOL    HW124362   3.187   3.135  11.344 -0.0134 -0.0985  0.1833
 4300SOL    HW224363   3.060   3.082  11.302  0.7632  1.2886 -3.9529
 4301SOL     OW24364   4.626   2.061   3.876 -0.4866 -0.6073  0.3791
 4301SOL    HW124365   4.708   2.014   3.863  0.0739  1.2532 -2.9231
 4301SOL    HW224366   4.576   2.048   3.795  0.3454 -1.7096  0.0334
 4302SOL     OW24367   1.498   2.291  17.331  0.1100 -0.3838 -0.0709
 4302SOL    HW124368   1.415   2.266  17.291  0.4703  1.9354 -2.2241
 4302SOL    HW224369   1.463   2.290  17.420  0.3355  0.6148  0.0242
 4303SOL     OW24370   0.476   2.360   6.262  0.2768 -0.2361  0.0905
 4303SOL    HW124371   0.471   2.410   6.180 -1.2762  0.5534  0.6682
 4303SOL    HW224372   0.462   2.423   6.333  1.1407  0.9030 -0.7353
 4304SOL     OW24373   4.215   1.271   4.445 -0.4197  0.4011 -0.1900
 4304SOL    HW124374   4.179   1.184   4.461  0.6581 -0.2608 -1.3511
 4304SOL    HW224375   4.308   1.256   4.430 -1.0467 -2.4206 -1.1470
 4305SOL     OW24376   2.939   1.324  16.657  0.2787  0.5426  0.1100
 4305SOL    HW124377   2.965   1.398  16.712  0.6954  2.3562 -2.5309
 4305SOL    HW224378   3.013   1.325  16.597 -1.6379 -1.1847 -2.2558
 4306SOL     OW24379   1.396   1.921  15.808  0.0205  0.0411 -0.3863
 4306SOL    HW124380   1.308   1.914  15.773  0.5657  0.0511 -1.7627
 4306SOL    HW224381   1.445   1.971  15.743  1.2930  1.7132  1.8320
 4307SOL     OW24382   3.750   1.133   7.387 -0.7616  0.3553 -0.3116
 4307SOL    HW124383   3.749   1.106   7.479 -0.9552 -2.8594 -1.2384
 4307SOL    HW224384   3.844   1.123   7.373 -0.1987  2.1905  2.1021
 4308SOL     OW24385   1.178   1.289   7.540  0.0252 -0.6260  0.5299
 4308SOL    HW124386   1.114   1.222   7.513 -1.8166  0.2927  2.5390
 4308SOL    HW224387   1.134   1.370   7.513  1.2547  0.1275  0.7807
 4309SOL     OW24388   2.422   3.460  13.652  0.3316  0.0370 -0.2202
 4309SOL    HW124389   2.507   3.417  13.647  0.2115 -0.0318 -1.5197
 4309SOL    HW224390   2.442   3.543  13.695  0.6855 -0.5253  0.7059
 4310SOL     OW24391   0.798   0.417   6.306  0.0472  0.0022 -0.2210
 4310SOL    HW124392   0.737   0.345   6.293  1.5048 -1.0588 -1.2275
 4310SOL    HW224393   0.878   0.370   6.282  1.3089  1.9966  0.1505
 4311SOL     OW24394   4.373   2.198   7.765 -0.0381 -0.0045 -0.7699
 4311SOL    HW124395   4.332   2.138   7.703 -0.5263 -0.3242 -0.1343
 4311SOL    HW224396   4.463   2.166   7.760 -0.6526 -1.8499 -0.0651
 4312SOL     OW24397   0.814   3.011   5.378  0.3725 -0.3478  0.3398
 4312SOL    HW124398   0.887   2.958   5.412  0.9672  0.6649  0.6326
 4312SOL    HW224399   0.858   3.095   5.364 -1.2371 -0.0162 -2.6851
 4313SOL     OW24400   1.792   1.140  11.560 -0.2114 -0.5688  0.1811
 4313SOL    HW124401   1.832   1.224  11.538 -0.7790 -0.6707 -1.2739
 4313SOL    HW224402   1.741   1.163  11.638 -2.0268  0.6572 -1.3776
 4314SOL     OW24403   2.209   4.262  17.410  0.1671 -0.4514 -0.1064
 4314SOL    HW124404   2.183   4.184  17.460  0.3931 -0.5327 -0.1155
 4314SOL    HW224405   2.259   4.313  17.474 -1.3753 -0.9588  1.5004
 4315SOL     OW24406   4.024   2.201   6.393 -0.3934  0.2607 -0.0367
 4315SOL    HW124407   4.018   2.268   6.462 -0.5123 -0.0926  0.2950
 4315SOL    HW224408   4.057   2.266   6.331 -0.8045 -0.0532 -0.5859
 4316SOL     OW24409   2.648   0.257   2.696 -0.3966  0.0655  0.4477
 4316SOL    HW124410   2.737   0.281   2.671 -1.1115  1.0078 -1.1928
 4316SOL    HW224411   2.636   0.341   2.740 -2.3731  0.0383 -0.0499
 4317SOL     OW24412   2.363   0.884   8.338  0.0506 -0.9582 -0.3254
 4317SOL    HW124413   2.387   0.967   8.378  0.3506 -0.5638 -1.3421
 4317SOL    HW224414   2.321   0.836   8.410 -0.2710  0.0490  0.1623
 4318SOL     OW24415   3.202   1.364  16.913 -0.2274 -0.1464 -0.4339
 4318SOL    HW124416   3.252   1.307  16.854 -0.9379 -0.3662 -0.8173
 4318SOL    HW224417   3.176   1.430  16.849 -1.3479  2.1537  2.3921
 4319SOL     OW24418   1.996   1.677   3.655  0.1705  0.3458  0.2995
 4319SOL    HW124419   1.911   1.648   3.689  1.8058 -0.9450  3.2013
 4319SOL    HW224420   1.995   1.628   3.572  1.2556 -1.5265  1.4029
 4320SOL     OW24421   3.379   0.634   8.766 -0.3169  0.0447  0.3318
 4320SOL    HW124422   3.310   0.688   8.726 -0.7490 -0.7157  0.0617
 4320SOL    HW224423   3.364   0.660   8.857 -3.7926 -0.7684  0.0027
 4321SOL     OW24424   0.556   0.767   6.133 -0.4897  0.1354  0.3176
 4321SOL    HW124425   0.521   0.714   6.205  0.2025  0.8035  1.1430
 4321SOL    HW224426   0.477   0.818   6.114  0.2249  0.3239 -2.1849
 4322SOL     OW24427   2.513   2.134  15.393 -0.3571 -0.2130 -0.0859
 4322SOL    HW124428   2.443   2.088  15.346  0.8021  0.7589 -2.7751
 4322SOL    HW224429   2.474   2.174  15.471  1.1166  1.6508 -0.3158
 4323SOL     OW24430   3.108   3.364   7.437 -0.3504  0.1448 -0.3124
 4323SOL    HW124431   3.147   3.280   7.414 -0.5986  0.5577 -2.2104
 4323SOL    HW224432   3.017   3.338   7.423 -0.2328 -0.0510 -0.6958
 4324SOL     OW24433   0.979   1.265   1.779  0.0344 -0.2757 -0.1925
 4324SOL    HW124434   0.926   1.246   1.702 -0.1501  0.9043 -0.3564
 4324SOL    HW224435   0.991   1.360   1.770  1.4390 -0.5293 -0.9201
 4325SOL     OW24436   1.653   0.305   7.495  0.5156 -0.1253  0.3195
 4325SOL    HW124437   1.723   0.371   7.504  2.3796 -1.7435 -2.3026
 4325SOL    HW224438   1.627   0.301   7.587 -1.3148  0.9504 -0.1436
 4326SOL     OW24439   1.811   3.745  15.607  0.5868  0.3801 -0.2230
 4326SOL    HW124440   1.903   3.757  15.583  0.0401  0.2882 -2.3647
 4326SOL    HW224441   1.812   3.776  15.698  0.2978 -1.0338  0.2763
 4327SOL     OW24442   2.407   1.423  12.125  0.1530  0.4265 -0.1882
 4327SOL    HW124443   2.452   1.506  12.141  0.4613 -0.1291  1.8723
 4327SOL    HW224444   2.452   1.404  12.043 -1.5925 -1.3115 -0.7323
 4328SOL     OW24445   4.138   3.175   0.950 -0.2635 -0.0544  0.1042
 4328SOL    HW124446   4.067   3.219   0.904 -0.7076 -0.5039  0.3556
 4328SOL    HW224447   4.079   3.137   1.015  1.0972 -0.2639  1.2196
 4329SOL     OW24448   4.518   3.752   3.150  0.2942  0.0092  0.0294
 4329SOL    HW124449   4.567   3.715   3.076  0.7764 -2.2936  1.4829
 4329SOL    HW224450   4.578   3.737   3.223  0.9443 -2.4550 -0.9852
 4330SOL     OW24451   2.577   2.694   2.571  0.0804  0.4635 -0.3115
 4330SOL    HW124452   2.590   2.692   2.666  1.7410 -1.5627 -0.5943
 4330SOL    HW224453   2.632   2.621   2.542 -1.5431 -0.1959 -1.6714
 4331SOL     OW24454   4.178   4.204  16.481  0.2272 -0.5132  0.0632
 4331SOL    HW124455   4.200   4.216  16.573  1.6055  2.9424 -0.7116
 4331SOL    HW224456   4.102   4.263  16.480  0.1813 -0.5830 -0.7396
 4332SOL     OW24457   0.010   0.305  13.185  0.0619  0.2525  0.6637
 4332SOL    HW124458   4.684   0.238  13.138 -0.5568  0.9896  0.2603
 4332SOL    HW224459   4.676   0.374  13.154  0.3299  1.0548  1.9749
 4333SOL     OW24460   4.497   0.093   2.482  0.1491  0.1994  0.9376
 4333SOL    HW124461   4.574   0.104   2.538  1.0948 -1.6281 -0.0069
 4333SOL    HW224462   4.497   0.177   2.437  0.6924 -0.0046  0.5575
 4334SOL     OW24463   0.447   1.672   0.053 -0.2014  0.0820  0.0895
 4334SOL    HW124464   0.447   1.634   0.141 -0.9448 -0.6523 -0.2363
 4334SOL    HW224465   0.445   1.766   0.071 -0.7680  0.0953 -0.0688
 4335SOL     OW24466   4.632   4.505   0.253 -0.1053 -0.0104 -0.4870
 4335SOL    HW124467   4.580   4.547   0.185 -1.9185 -1.4813  0.0106
 4335SOL    HW224468   4.682   4.582   0.283 -0.4757 -0.1987  0.6232
 4336SOL     OW24469   0.377   0.779   8.507  0.1474  0.7987  0.6635
 4336SOL    HW124470   0.457   0.821   8.475  0.4726 -0.1049  0.2759
 4336SOL    HW224471   0.384   0.806   8.599 -0.0761 -1.2907  1.2932
 4337SOL     OW24472   2.788   0.330  16.167  0.4899 -0.3557 -0.2822
 4337SOL    HW124473   2.857   0.263  16.169  0.3195 -0.5293 -0.1419
 4337SOL    HW224474   2.785   0.366  16.256  0.6743 -1.0590  0.0083
 4338SOL     OW24475   3.000   0.860  12.810 -0.0999  0.4674 -0.0902
 4338SOL    HW124476   3.080   0.824  12.847 -0.7290  0.1487  0.9786
 4338SOL    HW224477   3.015   0.954  12.816 -2.1608  0.9697 -3.1247
 4339SOL     OW24478   2.417   3.649   2.987  0.3988  0.5527 -0.0343
 4339SOL    HW124479   2.420   3.732   3.036 -2.4075  1.2488 -1.0428
 4339SOL    HW224480   2.368   3.599   3.053  0.3900 -0.0923 -0.5315
 4340SOL     OW24481   2.445   0.324   2.971 -0.5056 -0.1168 -0.0442
 4340SOL    HW124482   2.500   0.385   2.922 -0.6686 -2.4564 -3.1815
 4340SOL    HW224483   2.468   0.335   3.063  0.5394  2.1779 -0.5883
 4341SOL     OW24484   0.005   2.106  14.167 -0.3382 -0.1642 -0.2298
 4341SOL    HW124485   4.709   2.014  14.148 -1.1125 -0.5573  2.4512
 4341SOL    HW224486   4.641   2.144  14.173 -0.7745 -0.9434 -1.6257
 4342SOL     OW24487   1.003   0.838   4.477  0.0919  0.0789  0.3627
 4342SOL    HW124488   1.016   0.930   4.500  1.2952  0.2004 -0.8394
 4342SOL    HW224489   1.093   0.811   4.495  0.4654  1.1202  0.0698
 4343SOL     OW24490   2.739   4.610   6.960 -0.5963 -0.1169 -0.2244
 4343SOL    HW124491   2.656   4.651   6.935 -0.4729  0.2581 -0.0129
 4343SOL    HW224492   2.729   4.624   7.054  0.5369 -0.7981 -0.0028
 4344SOL     OW24493   0.615   3.929   6.236  0.3113 -0.1188 -0.1866
 4344SOL    HW124494   0.534   3.960   6.276 -0.3452  0.0559 -1.6553
 4344SOL    HW224495   0.592   3.910   6.144  1.4579 -2.9949  0.1097
 4345SOL     OW24496   3.523   3.771   6.435  0.1539  0.6025 -0.2677
 4345SOL    HW124497   3.464   3.844   6.456 -0.5264 -0.0176 -0.0143
 4345SOL    HW224498   3.538   3.727   6.519  1.1992 -1.0692 -1.3288
 4346SOL     OW24499   0.506   1.393   9.435  0.0458 -0.6769 -0.0849
 4346SOL    HW124500   0.472   1.478   9.406  0.4910 -0.9938 -1.5589
 4346SOL    HW224501   0.502   1.404   9.530  1.3180 -1.1639  0.0211
 4347SOL     OW24502   2.152   2.251  14.989 -0.8104  0.2508 -0.2186
 4347SOL    HW124503   2.098   2.328  14.972 -1.3921  0.3276  1.9899
 4347SOL    HW224504   2.090   2.179  15.002 -0.1392  0.0448  1.7099
 4348SOL     OW24505   4.334   1.306   8.531 -1.1079 -0.0388 -0.4170
 4348SOL    HW124506   4.282   1.276   8.456 -0.3044  1.4896 -1.5854
 4348SOL    HW224507   4.271   1.369   8.568 -2.1885 -1.9476  0.9983
 4349SOL     OW24508   1.382   2.972   8.160  0.1685 -0.9487 -0.2244
 4349SOL    HW124509   1.467   2.927   8.164 -0.4362 -2.2762 -2.4677
 4349SOL    HW224510   1.404   3.047   8.105 -1.2394 -0.2382  0.1927
 4350SOL     OW24511   4.242   0.554   6.866  1.0048  0.4452 -0.0469
 4350SOL    HW124512   4.335   0.570   6.876  0.7541  1.2215  0.9574
 4350SOL    HW224513   4.223   0.529   6.956 -1.0943 -2.4850 -1.2939
 4351SOL     OW24514   2.973   3.146   8.194 -0.4548  0.2440  0.7529
 4351SOL    HW124515   2.955   3.066   8.243 -0.9392  1.0857  1.9594
 4351SOL    HW224516   3.067   3.135   8.202 -0.4677 -0.8108 -0.5295
 4352SOL     OW24517   0.744   0.588   6.094  0.3018  0.0459  0.3160
 4352SOL    HW124518   0.670   0.647   6.106 -1.9634 -2.6327 -0.4579
 4352SOL    HW224519   0.747   0.544   6.179  0.8610  0.7294  0.6531
 4353SOL     OW24520   2.354   3.088  11.735 -0.0762  0.2857 -0.2161
 4353SOL    HW124521   2.422   3.021  11.724 -0.3248  0.3420 -2.0793
 4353SOL    HW224522   2.327   3.115  11.647  1.0824 -0.5398 -0.8175
 4354SOL     OW24523   2.018   2.074   0.433  0.2557 -0.5658 -0.0033
 4354SOL    HW124524   2.033   2.158   0.389 -0.3395  0.3846  1.5820
 4354SOL    HW224525   1.970   2.108   0.509 -1.7562 -1.2370 -0.9676
 4355SOL     OW24526   1.301   3.008  12.539 -0.0936 -0.4052 -0.5398
 4355SOL    HW124527   1.299   3.086  12.484 -0.8578  1.3011  1.9100
 4355SOL    HW224528   1.376   3.016  12.599 -1.0751 -0.9089  0.7476
 4356SOL     OW24529   2.978   3.989   7.046 -0.1601 -0.2964 -0.0419
 4356SOL    HW124530   2.907   3.928   7.027 -0.2806 -0.2508  0.2618
 4356SOL    HW224531   2.975   3.986   7.141  1.3708 -1.1230 -0.0271
 4357SOL     OW24532   3.404   3.745   9.305 -0.2389 -0.6862  0.2128
 4357SOL    HW124533   3.340   3.812   9.325  0.4105 -0.6402  2.0950
 4357SOL    HW224534   3.353   3.671   9.338 -1.0592  0.1042  0.7174
 4358SOL     OW24535   4.406   4.050   8.992 -0.2382  0.4609  0.1532
 4358SOL    HW124536   4.480   3.989   8.997 -1.2665 -0.7335  0.6468
 4358SOL    HW224537   4.334   3.995   8.963 -2.3915  4.1460 -1.4809
 4359SOL     OW24538   3.010   3.338   4.220 -0.0996  0.4032  0.0711
 4359SOL    HW124539   3.023   3.393   4.297 -1.1139  1.3964 -0.4587
 4359SOL    HW224540   2.970   3.264   4.266 -0.8922  0.2276 -0.9049
 4360SOL     OW24541   1.748   4.072   0.357 -0.3170 -0.0742 -0.1213
 4360SOL    HW124542   1.672   4.108   0.311 -0.1780  1.4598  0.8710
 4360SOL    HW224543   1.773   4.007   0.290 -0.2320  0.2967 -0.4477
 4361SOL     OW24544   3.140   3.767   3.268 -0.1855  0.3185 -0.3467
 4361SOL    HW124545   3.185   3.802   3.345 -0.2206 -1.4737  0.4757
 4361SOL    HW224546   3.071   3.833   3.256  1.5014  2.1360 -0.0813
 4362SOL     OW24547   4.536   1.006   6.460 -0.5871  0.6795 -0.2682
 4362SOL    HW124548   4.530   1.083   6.516 -1.6301 -0.6421  1.4458
 4362SOL    HW224549   4.494   0.938   6.512  1.9976  0.4654  1.5645
 4363SOL     OW24550   0.421   1.666   8.062  0.3522  0.0407  0.7488
 4363SOL    HW124551   0.487   1.717   8.108 -0.4277  0.7482  1.0795
 4363SOL    HW224552   0.339   1.674   8.111 -0.8082  0.3542 -1.2223
 4364SOL     OW24553   2.602   1.788   7.498 -0.6493 -0.4949  0.0278
 4364SOL    HW124554   2.645   1.819   7.578  0.7737  0.3276 -1.0536
 4364SOL    HW224555   2.568   1.706   7.533 -1.7345 -0.4205 -0.8396
 4365SOL     OW24556   1.723   1.996   7.910  0.0792 -0.4792  0.2868
 4365SOL    HW124557   1.813   2.027   7.896 -0.7028  1.8019  0.2099
 4365SOL    HW224558   1.666   2.068   7.881 -0.8975 -1.3217  0.1287
 4366SOL     OW24559   2.255   1.352   2.008 -0.7097 -0.1314  0.1032
 4366SOL    HW124560   2.161   1.334   2.004 -1.1082  1.7734  0.4375
 4366SOL    HW224561   2.280   1.347   1.916 -0.8823  1.3817 -0.0325
 4367SOL     OW24562   2.084   2.583  10.172 -0.7052  0.1411 -0.1472
 4367SOL    HW124563   2.096   2.600  10.265 -3.5501 -0.0202  0.2625
 4367SOL    HW224564   2.029   2.655  10.142  0.5841  0.6780 -1.1994
 4368SOL     OW24565   1.294   3.629   9.846 -0.9362  0.3440 -0.8893
 4368SOL    HW124566   1.247   3.634   9.929  0.0469 -0.3224 -0.2893
 4368SOL    HW224567   1.329   3.540   9.849 -0.6978  0.4166 -1.5719
 4369SOL     OW24568   3.132   2.078   6.798  0.2156 -0.3559  0.4170
 4369SOL    HW124569   3.077   2.125   6.736  0.7013  1.3965  1.3228
 4369SOL    HW224570   3.069   2.008   6.818 -0.2781  0.0593  0.2873
 4370SOL     OW24571   2.409   0.162   7.636  0.8185 -0.4579 -0.2716
 4370SOL    HW124572   2.482   0.219   7.614 -0.2815  0.7579 -0.7548
 4370SOL    HW224573   2.371   0.229   7.693 -0.8191 -2.0182  0.4511
 4371SOL     OW24574   4.629   3.291  14.985 -0.0872  0.2751 -0.5687
 4371SOL    HW124575   4.546   3.328  15.017 -0.1908 -0.7427  0.3365
 4371SOL    HW224576   4.681   3.328  15.056  0.1885 -0.1354 -0.5570
 4372SOL     OW24577   3.833   3.657   3.518 -0.2806  0.6866  0.1052
 4372SOL    HW124578   3.771   3.617   3.457  1.2644  0.6843 -1.4610
 4372SOL    HW224579   3.894   3.584   3.525 -0.9196  0.2429  0.9796
 4373SOL     OW24580   4.471   1.146   5.354  0.6490 -0.2930  0.5818
 4373SOL    HW124581   4.418   1.106   5.285  2.5900 -2.5879  0.4310
 4373SOL    HW224582   4.534   1.078   5.380 -0.1816 -1.7787 -1.2513
 4374SOL     OW24583   2.508   2.688   3.219 -0.2162 -0.5605  0.3231
 4374SOL    HW124584   2.473   2.726   3.300  2.1880  0.0968  1.0872
 4374SOL    HW224585   2.594   2.732   3.222 -0.8129  0.6688 -0.8394
 4375SOL     OW24586   1.719   3.198  15.448 -0.3785  0.6908 -0.3346
 4375SOL    HW124587   1.755   3.276  15.489 -0.4731 -0.2659  1.5892
 4375SOL    HW224588   1.631   3.220  15.417 -0.5719  1.1667  0.5625
 4376SOL     OW24589   0.876   4.394   4.599 -0.0496  0.6329  0.2728
 4376SOL    HW124590   0.844   4.464   4.657  0.0465  0.3719  0.6418
 4376SOL    HW224591   0.945   4.442   4.554  0.1626 -0.0287 -0.0917
 4377SOL     OW24592   0.573   2.363  15.586  0.8591  0.0714 -0.1928
 4377SOL    HW124593   0.607   2.387  15.500  2.8075 -0.0767  0.5101
 4377SOL    HW224594   0.561   2.447  15.632  1.5501  0.1736 -0.1852
 4378SOL     OW24595   3.058   1.442   3.457 -0.0837 -0.4898  0.5431
 4378SOL    HW124596   2.969   1.428   3.426  0.1703 -0.4893 -0.1940
 4378SOL    HW224597   3.080   1.361   3.503 -1.1062 -0.4202  1.1486
 4379SOL     OW24598   3.386   2.338  10.836 -0.4703 -0.5010 -0.3851
 4379SOL    HW124599   3.481   2.340  10.830 -0.5001  2.3010 -0.2572
 4379SOL    HW224600   3.378   2.243  10.839 -1.2149 -0.4687 -1.1990
 4380SOL     OW24601   0.691   4.586   3.007 -0.0939  0.5945 -0.1876
 4380SOL    HW124602   0.720   4.648   3.073  1.0848 -2.0959  1.7988
 4380SOL    HW224603   0.735   4.618   2.928 -1.7803  1.0798 -0.9531
 4381SOL     OW24604   2.789   3.394   3.748 -0.1953  0.0314  0.4035
 4381SOL    HW124605   2.713   3.433   3.705  0.0852  0.5292  0.3639
 4381SOL    HW224606   2.834   3.359   3.671 -3.5855 -3.1395 -0.1698
 4382SOL     OW24607   3.814   2.749   9.756  0.4378  0.0385 -0.2738
 4382SOL    HW124608   3.859   2.738   9.672  1.1218  4.2733 -0.4435
 4382SOL    HW224609   3.814   2.657   9.783 -1.6153  0.3807  0.8183
 4383SOL     OW24610   3.892   3.571   9.865  0.5893  0.9361  0.2594
 4383SOL    HW124611   3.886   3.667   9.862 -0.6741  0.8957  1.4307
 4383SOL    HW224612   3.874   3.558   9.958  2.5119  2.6353  0.8938
 4384SOL     OW24613   3.981   0.178  13.676 -0.2570 -0.0500  0.3198
 4384SOL    HW124614   3.998   0.185  13.770  1.3151  0.7176 -0.0141
 4384SOL    HW224615   4.054   0.121  13.652  0.2160  1.1792 -1.1179
 4385SOL     OW24616   3.353   2.934   9.088  0.2631 -0.1053 -0.3949
 4385SOL    HW124617   3.411   2.988   9.033  0.4598  0.8080  0.7257
 4385SOL    HW224618   3.349   2.851   9.039  2.2893  0.6651 -1.8809
 4386SOL     OW24619   1.131   3.195   8.192 -0.3607  0.1158 -0.5527
 4386SOL    HW124620   1.193   3.132   8.230 -1.0702  0.0372  0.4864
 4386SOL    HW224621   1.078   3.202   8.272  0.4459 -1.8996  0.1702
 4387SOL     OW24622   4.480   2.241   7.205  0.1385 -0.3359  0.1400
 4387SOL    HW124623   4.477   2.195   7.289 -3.0445 -2.3136 -1.0544
 4387SOL    HW224624   4.549   2.304   7.228 -0.4473  0.3910 -0.1019
 4388SOL     OW24625   0.940   0.394   3.281 -0.3196  0.0989  0.2800
 4388SOL    HW124626   0.984   0.313   3.255  0.6310  1.3531 -2.0561
 4388SOL    HW224627   0.847   0.374   3.282  0.0509 -1.6490  0.0440
 4389SOL     OW24628   0.453   2.585   5.401 -0.2934 -0.2118 -0.3015
 4389SOL    HW124629   0.493   2.540   5.475 -0.7212 -1.0286 -0.5690
 4389SOL    HW224630   0.513   2.555   5.332  1.3673 -0.7335  1.3967
 4390SOL     OW24631   3.170   3.842   6.109  0.0708 -0.0046  0.0797
 4390SOL    HW124632   3.167   3.803   6.022  1.0033  3.9514 -1.7244
 4390SOL    HW224633   3.262   3.827   6.130 -0.1275 -0.8745  0.3387
 4391SOL     OW24634   0.201   3.973   5.265 -0.1824 -0.1138 -0.0999
 4391SOL    HW124635   0.209   4.066   5.245  1.7714 -0.0278  1.0610
 4391SOL    HW224636   0.283   3.951   5.308  0.1108  1.4572  0.1481
 4392SOL     OW24637   1.912   2.219   3.416 -0.5217  0.2230 -0.1535
 4392SOL    HW124638   1.960   2.138   3.427 -0.2675  0.6045  1.5609
 4392SOL    HW224639   1.913   2.252   3.506  2.0237 -1.5403  0.4335
 4393SOL     OW24640   2.151   3.086   5.947 -0.4349  0.1475  0.1116
 4393SOL    HW124641   2.148   3.081   6.042 -1.0664  0.4782  0.1139
 4393SOL    HW224642   2.241   3.113   5.933 -0.2345 -1.8224 -2.3642
 4394SOL     OW24643   0.709   1.217   9.040 -0.0295  0.3575  1.1527
 4394SOL    HW124644   0.621   1.237   9.072 -0.9714 -0.9096 -0.6312
 4394SOL    HW224645   0.758   1.290   9.077 -0.2158  1.5716 -1.0420
 4395SOL     OW24646   2.661   4.143   6.011 -0.0173 -0.0744 -0.1780
 4395SOL    HW124647   2.651   4.051   5.989 -1.1497 -0.5238  2.1519
 4395SOL    HW224648   2.753   4.167   6.000  0.3544 -1.4048  0.1276
 4396SOL     OW24649   3.357   1.701   6.018 -0.1242 -0.1214 -0.1499
 4396SOL    HW124650   3.374   1.736   6.105 -0.7971 -0.7407  0.2338
 4396SOL    HW224651   3.395   1.768   5.960 -0.6107 -0.5420 -0.9464
 4397SOL     OW24652   0.747   0.029   3.244 -0.7172 -0.6704  0.8227
 4397SOL    HW124653   0.764   0.060   3.333  1.2309 -0.7585  0.4763
 4397SOL    HW224654   0.682   0.085   3.202 -1.1188 -1.2130  0.7302
 4398SOL     OW24655   0.895   2.573  13.267 -0.0583  0.0737 -0.4094
 4398SOL    HW124656   0.903   2.501  13.205  0.3865 -1.9278  1.9616
 4398SOL    HW224657   0.814   2.541  13.306  1.1569 -1.5810  0.7607
 4399SOL     OW24658   1.783   2.376   4.281 -0.0894  0.2985 -0.1421
 4399SOL    HW124659   1.691   2.401   4.280  0.0080  0.6634 -0.1747
 4399SOL    HW224660   1.820   2.465   4.275  0.5560  0.1169  1.1705
 4400SOL     OW24661   1.608   3.623  13.029  0.3843  0.0506  0.3821
 4400SOL    HW124662   1.623   3.560  13.100 -1.8424  0.5056  1.2496
 4400SOL    HW224663   1.521   3.654  13.055  0.5165  0.2118  0.6315
 4401SOL     OW24664   4.291   2.636   3.394  0.3712 -0.2614 -0.5834
 4401SOL    HW124665   4.363   2.614   3.453  0.1575  0.7806  0.0727
 4401SOL    HW224666   4.215   2.604   3.441  1.5056  0.7360  1.9519
 4402SOL     OW24667   4.064   1.175   5.884  0.2711  0.2628  0.1346
 4402SOL    HW124668   4.105   1.196   5.968 -2.2065  0.7349  1.2552
 4402SOL    HW224669   4.131   1.169   5.817 -0.3946  0.8669 -0.5929
 4403SOL     OW24670   2.839   4.225   9.061 -0.0331 -0.1230  0.0570
 4403SOL    HW124671   2.788   4.299   9.095  1.1941  0.4195  0.7341
 4403SOL    HW224672   2.848   4.180   9.145  0.5935 -1.5831 -0.7950
 4404SOL     OW24673   4.124   3.698   4.425 -0.3282 -0.0393  0.5528
 4404SOL    HW124674   4.036   3.730   4.409 -0.2399  1.1531  2.4205
 4404SOL    HW224675   4.172   3.738   4.352  1.0842 -1.4171  0.7285
 4405SOL     OW24676   1.850   0.017   4.075 -0.1831 -0.4133  0.0100
 4405SOL    HW124677   1.759   0.002   4.051  0.1601 -2.2971 -0.1356
 4405SOL    HW224678   1.892   0.034   3.990  0.3024 -1.4173  0.0467
 4406SOL     OW24679   3.461   1.811   6.235  0.2804  0.0866 -0.4660
 4406SOL    HW124680   3.450   1.905   6.248  1.2037  0.1563 -0.1956
 4406SOL    HW224681   3.539   1.798   6.288  0.5713  0.5630 -0.7820
 4407SOL     OW24682   3.716   0.603   1.870 -0.7936  0.2472 -0.4294
 4407SOL    HW124683   3.745   0.669   1.807 -0.7896  0.8581  0.2143
 4407SOL    HW224684   3.711   0.661   1.946 -1.6946  0.4705 -0.6605
 4408SOL     OW24685   2.752   3.612   4.389 -0.3563  0.0570  0.2325
 4408SOL    HW124686   2.838   3.637   4.356 -0.1353 -0.6887  0.2384
 4408SOL    HW224687   2.767   3.534   4.443  0.8329 -1.3459 -2.1132
 4409SOL     OW24688   2.411   0.901   5.201  0.2132  0.1810  0.2218
 4409SOL    HW124689   2.443   0.935   5.117  0.9475  0.4893  0.6237
 4409SOL    HW224690   2.316   0.897   5.190  0.2501  0.4771 -0.1874
 4410SOL     OW24691   4.111   2.232   2.607 -0.0902 -0.2037  0.1689
 4410SOL    HW124692   4.021   2.265   2.614 -0.8065 -1.7932 -1.4752
 4410SOL    HW224693   4.154   2.308   2.568  0.0311 -0.6333 -0.5346
 4411SOL     OW24694   0.065   3.662   1.943 -0.0745 -0.2375 -0.0822
 4411SOL    HW124695   0.066   3.757   1.956  0.7255 -0.6390  2.7702
 4411SOL    HW224696   4.701   3.659   1.981 -0.2688  0.1811 -0.4881
 4412SOL     OW24697   2.654   2.177   4.538  0.5329 -0.2587  0.2164
 4412SOL    HW124698   2.592   2.215   4.599  0.5507 -1.4713  0.9956
 4412SOL    HW224699   2.605   2.165   4.456 -2.3479 -1.8948  2.1617
 4413SOL     OW24700   2.143   0.645   4.769 -0.2696 -0.1448  0.0166
 4413SOL    HW124701   2.211   0.584   4.741 -0.7872 -0.2318 -1.0438
 4413SOL    HW224702   2.131   0.692   4.686  5.0560 -2.0393 -1.8091
 4414SOL     OW24703   3.083   2.618   9.484  0.2416  0.0898 -0.1577
 4414SOL    HW124704   3.093   2.706   9.521  0.4253  0.0769 -0.1775
 4414SOL    HW224705   3.172   2.600   9.452  0.4744  0.5398  0.2360
 4415SOL     OW24706   0.522   3.890   4.391 -0.0885  0.5953  0.6060
 4415SOL    HW124707   0.559   3.804   4.410  0.1014  0.4974 -0.2326
 4415SOL    HW224708   0.602   3.937   4.369 -0.0979 -0.3031 -1.2700
 4416SOL     OW24709   0.502   3.423   7.218  0.5064 -0.0258  0.4519
 4416SOL    HW124710   0.491   3.359   7.288 -0.9784 -0.8757 -0.5654
 4416SOL    HW224711   0.494   3.502   7.273  2.1366  0.8034 -0.5027
 4417SOL     OW24712   2.308   1.154   5.782  0.1240  0.3888 -0.2976
 4417SOL    HW124713   2.232   1.129   5.835  0.3701 -0.3955 -0.3062
 4417SOL    HW224714   2.373   1.137   5.849  0.9876 -5.3828 -2.5570
 4418SOL     OW24715   0.736   3.838  13.734  0.2002 -0.1629 -0.3900
 4418SOL    HW124716   0.825   3.845  13.769  0.9975  3.5092 -3.1345
 4418SOL    HW224717   0.700   3.799  13.814  1.1063  0.9840  0.5770
 4419SOL     OW24718   1.356   2.059   7.900 -0.3210 -0.0047  0.4518
 4419SOL    HW124719   1.374   2.040   7.808 -0.8065  0.7441  0.2005
 4419SOL    HW224720   1.375   1.978   7.947  1.8442  0.4722  0.3691
 4420SOL     OW24721   0.107   0.309  11.153 -0.2092 -0.6314 -0.5629
 4420SOL    HW124722   0.199   0.286  11.168 -0.2822  0.5734  1.8272
 4420SOL    HW224723   0.080   0.231  11.105 -0.7806 -1.7182  1.5523
 4421SOL     OW24724   4.275   0.685   7.746  0.4597 -0.5255  0.4266
 4421SOL    HW124725   4.201   0.636   7.712 -0.2259  0.0719  1.0593
 4421SOL    HW224726   4.321   0.617   7.796  1.5250  0.4258  0.7513
 4422SOL     OW24727   2.989   1.667   1.256 -0.2059 -0.0301  0.4062
 4422SOL    HW124728   3.040   1.597   1.215 -1.3422 -0.9368  0.5660
 4422SOL    HW224729   2.962   1.716   1.178  1.1205  0.8639  0.5007
 4423SOL     OW24730   0.483   0.357   6.535 -1.2864  0.2962 -0.0727
 4423SOL    HW124731   0.543   0.311   6.475 -2.5122  1.8351 -2.4812
 4423SOL    HW224732   0.543   0.427   6.560 -0.3812  0.0766 -1.5885
 4424SOL     OW24733   1.378   3.676  15.323  0.6277 -0.0798  0.7250
 4424SOL    HW124734   1.441   3.672  15.395 -1.7672  1.0621  2.8847
 4424SOL    HW224735   1.411   3.755  15.281  0.7797  0.0297  1.0466
 4425SOL     OW24736   4.003   3.969  13.890 -0.5829 -0.2796 -0.1366
 4425SOL    HW124737   4.075   3.942  13.832  0.9820 -0.2772  1.7897
 4425SOL    HW224738   3.928   3.982  13.833 -0.4267  0.5536 -0.1466
 4426SOL     OW24739   1.879   0.926   7.336 -0.6237 -0.2251  0.4057
 4426SOL    HW124740   1.929   0.845   7.335 -0.6341 -0.2194 -0.6193
 4426SOL    HW224741   1.928   0.983   7.276 -0.5317 -0.8720 -0.1329
 4427SOL     OW24742   0.713   3.201   7.860 -0.0679 -0.7673 -0.0845
 4427SOL    HW124743   0.725   3.273   7.921 -0.2935 -1.1084  0.3647
 4427SOL    HW224744   0.637   3.159   7.901 -0.1960  0.4549  0.8941
 4428SOL     OW24745   3.897   2.109   2.113 -0.6347  0.2107  0.4267
 4428SOL    HW124746   3.891   2.168   2.038  2.9367  0.4976  0.3639
 4428SOL    HW224747   3.944   2.168   2.172  0.0895  1.4353 -1.3487
 4429SOL     OW24748   1.581   3.557   4.538 -0.1195 -0.0211  0.7009
 4429SOL    HW124749   1.554   3.467   4.519 -0.4072  0.1261  0.4181
 4429SOL    HW224750   1.562   3.594   4.451  0.8661  1.7785  1.2537
 4430SOL     OW24751   0.904   1.039  11.033 -0.0100  0.2668 -0.3757
 4430SOL    HW124752   0.903   1.120  10.983 -4.3245 -0.2169 -1.0174
 4430SOL    HW224753   0.812   1.017  11.017  0.6517 -1.1664 -2.2096
 4431SOL     OW24754   1.785   2.151   9.554 -0.6732 -0.5423 -0.4849
 4431SOL    HW124755   1.819   2.182   9.638 -1.8394 -0.8525  0.0948
 4431SOL    HW224756   1.690   2.158   9.562 -0.5171  2.6176 -1.5328
 4432SOL     OW24757   1.234   2.969  11.985  0.1170 -0.2466  0.2759
 4432SOL    HW124758   1.259   3.029  12.055 -1.6080  1.9276 -0.9369
 4432SOL    HW224759   1.278   3.008  11.910  1.6581 -1.5328  0.5088
 4433SOL     OW24760   2.371   3.543   0.978  0.1435  0.1507  0.3203
 4433SOL    HW124761   2.374   3.451   0.950 -0.3171  0.1393  0.2980
 4433SOL    HW224762   2.394   3.593   0.900  1.8306  0.8342  1.2618
 4434SOL     OW24763   1.714   3.304   7.131 -0.4497  0.1182 -0.6799
 4434SOL    HW124764   1.727   3.395   7.158  1.1964 -0.2658 -0.1315
 4434SOL    HW224765   1.651   3.315   7.060  0.3535 -1.7455 -1.6905
 4435SOL     OW24766   3.673   1.360   4.954 -0.2490  0.6059  0.4594
 4435SOL    HW124767   3.609   1.380   5.022 -2.5071  0.8270 -1.7585
 4435SOL    HW224768   3.755   1.334   4.997 -0.6593  0.1367  0.9525
 4436SOL     OW24769   2.540   0.329  17.617  0.0906  0.2735 -0.0282
 4436SOL    HW124770   2.633   0.349  17.604  0.9175 -2.9996  0.7008
 4436SOL    HW224771   2.534   0.255  17.677 -0.4864  3.7754  4.2238
 4437SOL     OW24772   3.371   4.349   2.674  0.3844  0.6181 -0.0382
 4437SOL    HW124773   3.322   4.419   2.631  0.8594  0.7920 -0.2974
 4437SOL    HW224774   3.306   4.282   2.694  0.8244 -0.2765 -1.5534
 4438SOL     OW24775   2.882   3.982   7.599  0.2567 -0.0774  0.1976
 4438SOL    HW124776   2.880   4.077   7.593 -0.5551 -0.1918 -1.2295
 4438SOL    HW224777   2.863   3.955   7.509 -2.4590 -1.2824  1.1134
 4439SOL     OW24778   2.532   1.849   1.092 -0.7323 -0.0517  0.3328
 4439SOL    HW124779   2.594   1.897   1.037 -0.3921  0.4814  1.1802
 4439SOL    HW224780   2.563   1.863   1.182  0.8936  0.2126 -0.2680
 4440SOL     OW24781   3.574   3.431   7.900  0.0877  0.2894  0.5242
 4440SOL    HW124782   3.624   3.465   7.826  0.0868  0.4449  0.5952
 4440SOL    HW224783   3.486   3.463   7.881 -0.0923  0.0274  0.9345
 4441SOL     OW24784   4.500   2.229   8.356 -0.1276  0.1712 -0.0185
 4441SOL    HW124785   4.405   2.230   8.339  0.5230 -0.2935 -3.5975
 4441SOL    HW224786   4.530   2.245   8.267 -1.8767  1.2342 -0.4189
 4442SOL     OW24787   0.288   1.793  12.748 -0.2512  0.4010  0.4228
 4442SOL    HW124788   0.215   1.764  12.693  1.0500  0.1732 -1.1904
 4442SOL    HW224789   0.276   1.741  12.827  0.5272  1.5448  1.2943
 4443SOL     OW24790   3.837   4.629   4.290  0.5800 -0.1671  0.5636
 4443SOL    HW124791   3.748   4.620   4.257  1.0538 -0.2678 -0.6778
 4443SOL    HW224792   3.883   4.655   4.211  0.0389 -0.8858  0.0084
 4444SOL     OW24793   3.645   2.774   4.642 -0.7598  0.2773 -0.2913
 4444SOL    HW124794   3.590   2.813   4.710  0.3008  0.2768  0.5654
 4444SOL    HW224795   3.577   2.733   4.588 -1.1312  1.8705 -1.0400
 4445SOL     OW24796   2.600   4.488   5.856 -0.2518  0.2294  0.1716
 4445SOL    HW124797   2.613   4.532   5.940  2.4136  2.2305 -1.2969
 4445SOL    HW224798   2.686   4.498   5.815  0.5505 -0.4049  1.7223
 4446SOL     OW24799   0.458   1.370   3.961  0.6885  0.1699  0.4419
 4446SOL    HW124800   0.509   1.385   3.881 -1.6045 -0.0576 -1.0680
 4446SOL    HW224801   0.463   1.276   3.973  1.0525  0.1996  0.5182
 4447SOL     OW24802   2.500   2.736   6.516 -0.3973 -0.2222  0.2282
 4447SOL    HW124803   2.408   2.762   6.508 -0.7451 -0.5557  3.3169
 4447SOL    HW224804   2.545   2.808   6.561  0.1768 -1.0853  1.0233
 4448SOL     OW24805   4.603   3.583  12.400  0.3857  0.3401  0.0536
 4448SOL    HW124806   4.647   3.503  12.372 -0.2301  0.2004 -0.5098
 4448SOL    HW224807   4.667   3.643  12.438  4.0443 -2.0165 -2.3894
 4449SOL     OW24808   0.892   1.694  15.608  0.3720  0.2326  0.5709
 4449SOL    HW124809   0.896   1.773  15.660  0.1715  0.6547 -0.0500
 4449SOL    HW224810   0.888   1.717  15.515  0.2910  0.3607  0.6073
 4450SOL     OW24811   4.540   4.333   1.081  0.2763  0.4578  0.2357
 4450SOL    HW124812   4.557   4.347   0.988 -1.5558  1.6067  0.0706
 4450SOL    HW224813   4.450   4.298   1.078  1.2790 -2.0792 -0.6725
 4451SOL     OW24814   0.305   0.772   4.176 -0.0227 -0.4413  0.3675
 4451SOL    HW124815   0.360   0.751   4.251  0.3571  2.3832  0.8784
 4451SOL    HW224816   0.345   0.721   4.106 -2.0242 -2.1227  0.4310
 4452SOL     OW24817   2.426   0.693   2.698 -0.4366  0.4219 -0.0415
 4452SOL    HW124818   2.331   0.693   2.709 -0.3851 -2.1692  0.5267
 4452SOL    HW224819   2.452   0.745   2.622  3.1674  0.5117  1.2578
 4453SOL     OW24820   3.310   2.485   2.515  0.2070  0.0481  0.2609
 4453SOL    HW124821   3.318   2.427   2.590 -3.2967  1.8981  2.0463
 4453SOL    HW224822   3.321   2.431   2.437 -0.6837 -0.5896  0.5691
 4454SOL     OW24823   3.148   1.401   9.177 -0.5222  0.2380  0.0521
 4454SOL    HW124824   3.144   1.305   9.181  0.5618  0.2133  0.5585
 4454SOL    HW224825   3.055   1.416   9.159  0.0283 -0.3426 -3.2553
 4455SOL     OW24826   1.299   2.337   1.581 -0.7109  0.1738 -0.2552
 4455SOL    HW124827   1.327   2.400   1.514 -0.8381 -0.4740 -0.9248
 4455SOL    HW224828   1.305   2.254   1.533  2.1951 -0.4161  1.1596
 4456SOL     OW24829   1.043   4.100  16.803 -0.0871  0.1722  0.0575
 4456SOL    HW124830   1.137   4.089  16.810 -0.1314 -0.5194 -0.4734
 4456SOL    HW224831   1.018   4.152  16.879 -2.1545  0.1854 -0.6220
 4457SOL     OW24832   3.147   0.355   6.490 -0.5379 -0.0745  0.3976
 4457SOL    HW124833   3.193   0.328   6.411  1.8917  1.4449  1.2816
 4457SOL    HW224834   3.199   0.431   6.517 -1.4979 -0.1459  2.4560
 4458SOL     OW24835   4.181   2.216   3.034 -0.2759 -0.3428 -0.2318
 4458SOL    HW124836   4.202   2.176   2.949 -0.2768  1.0039 -0.8724
 4458SOL    HW224837   4.111   2.274   3.005  0.0204 -0.0981 -0.4712
 4459SOL     OW24838   1.833   3.940  11.214 -0.0041 -0.3253  0.2919
 4459SOL    HW124839   1.926   3.931  11.233  0.0723 -1.1979 -0.5137
 4459SOL    HW224840   1.835   3.934  11.118 -1.6334 -1.2462  0.3152
 4460SOL     OW24841   0.834   1.646   9.985  0.1982  0.0812 -0.0475
 4460SOL    HW124842   0.912   1.680  10.028 -0.1370  0.1890  0.4695
 4460SOL    HW224843   0.870   1.603   9.908 -1.0205  0.5386 -0.8719
 4461SOL     OW24844   4.688   1.052   8.266 -0.3224  0.2987  0.4705
 4461SOL    HW124845   4.703   0.963   8.234  0.0463  0.5525 -0.0586
 4461SOL    HW224846   4.682   1.025   8.358  1.5551 -0.2217  0.4435
 4462SOL     OW24847   1.597   0.513   8.646 -0.9812  0.3450 -0.1214
 4462SOL    HW124848   1.515   0.469   8.620 -0.3442 -1.2370  0.5485
 4462SOL    HW224849   1.560   0.561   8.720 -0.7151 -0.9623  0.8518
 4463SOL     OW24850   2.992   1.775   6.778 -0.5530 -0.1995  0.0013
 4463SOL    HW124851   2.933   1.701   6.790  1.6211 -1.7852  0.8956
 4463SOL    HW224852   3.055   1.752   6.847 -0.9073  0.2032  0.4582
 4464SOL     OW24853   3.300   1.330  14.034 -0.2777 -0.3161 -0.4841
 4464SOL    HW124854   3.259   1.258  14.083  1.8498 -1.7899 -0.8501
 4464SOL    HW224855   3.322   1.283  13.953 -0.3993 -1.3447  0.0784
 4465SOL     OW24856   3.620   2.813  12.269  0.2860  0.9109 -0.3115
 4465SOL    HW124857   3.550   2.791  12.207  0.9820 -1.5916 -0.2181
 4465SOL    HW224858   3.654   2.726  12.290  3.2217  2.8070  2.6848
 4466SOL     OW24859   2.883   2.545   1.786 -0.0753 -0.2284  0.1738
 4466SOL    HW124860   2.954   2.567   1.847 -1.5678 -1.1974  2.2771
 4466SOL    HW224861   2.923   2.476   1.733  0.0161  0.0742 -0.1498
 4467SOL     OW24862   0.873   3.966   6.687  0.0361  0.1870 -0.8468
 4467SOL    HW124863   0.854   3.879   6.651  0.5842 -0.2797 -0.0246
 4467SOL    HW224864   0.789   4.004   6.662 -1.4515 -1.9660  0.8153
 4468SOL     OW24865   0.319   1.634   5.223  0.0099 -0.1054 -0.1508
 4468SOL    HW124866   0.282   1.563   5.170 -0.4010  1.2984 -1.7345
 4468SOL    HW224867   0.280   1.709   5.179  0.4434 -0.8278 -1.7898
 4469SOL     OW24868   2.196   1.110   5.176 -0.0907 -0.5433  0.6789
 4469SOL    HW124869   2.224   1.121   5.267 -1.1737  1.2161  0.8047
 4469SOL    HW224870   2.251   1.177   5.136 -1.5122  0.6491  0.7699
 4470SOL     OW24871   3.770   4.618   2.200 -0.0893  0.2058 -0.3277
 4470SOL    HW124872   3.753   4.693   2.257 -0.5771  0.6883 -1.0933
 4470SOL    HW224873   3.772   4.546   2.262  1.1148  0.4334 -0.1007
 4471SOL     OW24874   3.296   3.552   3.521 -0.9772 -0.2605  0.5101
 4471SOL    HW124875   3.329   3.618   3.581  1.9750 -2.3024  1.1513
 4471SOL    HW224876   3.344   3.474   3.550 -0.7104  0.5988  2.3724
 4472SOL     OW24877   3.757   2.247  16.320  0.2045 -0.0823 -0.2607
 4472SOL    HW124878   3.786   2.277  16.234 -2.7028  0.9307 -0.8857
 4472SOL    HW224879   3.786   2.156  16.311  1.9475  0.2764  1.8484
 4473SOL     OW24880   1.418   2.882   2.952  0.5137 -0.7344  0.3937
 4473SOL    HW124881   1.390   2.837   2.872  0.5777  0.9931 -0.6061
 4473SOL    HW224882   1.413   2.811   3.015  0.0641  0.3809  1.6040
 4474SOL     OW24883   1.943   4.655   7.972  0.1199 -0.4739  0.1566
 4474SOL    HW124884   1.914   4.653   7.881  0.3494  0.1993  0.0702
 4474SOL    HW224885   1.930   0.023   7.997 -1.1171 -0.2232 -1.4100
 4475SOL     OW24886   1.531   0.317  16.592 -0.1254 -0.2600 -0.2918
 4475SOL    HW124887   1.511   0.343  16.502  1.3884  2.7920  0.2267
 4475SOL    HW224888   1.467   0.360  16.649  0.4649  0.2830 -0.0324
 4476SOL     OW24889   2.143   3.449   6.572  0.6773  0.0250 -0.0307
 4476SOL    HW124890   2.164   3.539   6.597 -0.0676 -0.0892  1.0301
 4476SOL    HW224891   2.058   3.426   6.608  1.0085 -3.1894 -1.3549
 4477SOL     OW24892   3.370   4.501   1.687 -0.0018 -0.1803 -0.1918
 4477SOL    HW124893   3.351   4.498   1.781 -2.8344 -1.1838 -0.8003
 4477SOL    HW224894   3.463   4.523   1.690  0.4574 -2.6453  2.9834
 4478SOL     OW24895   1.457   1.561   8.975 -0.1417 -0.0755 -0.5250
 4478SOL    HW124896   1.430   1.500   8.907 -0.2610 -1.4037  0.7265
 4478SOL    HW224897   1.545   1.585   8.945  0.8800 -1.9729  0.9652
 4479SOL     OW24898   2.470   2.769   5.534 -0.1570 -0.3979  0.3893
 4479SOL    HW124899   2.381   2.749   5.563 -0.5364  0.4463 -0.2106
 4479SOL    HW224900   2.506   2.828   5.599 -0.9418  0.4567  0.0435
 4480SOL     OW24901   4.004   0.948   5.656  0.0506 -0.5436 -0.1026
 4480SOL    HW124902   3.940   0.987   5.716  0.1821 -1.5367  0.7052
 4480SOL    HW224903   4.051   1.022   5.618  0.9743 -1.6384 -1.0880
 4481SOL     OW24904   1.394   3.321   8.483 -0.7469  0.0278  0.0604
 4481SOL    HW124905   1.329   3.391   8.483 -0.4992  0.2588  0.7417
 4481SOL    HW224906   1.472   3.372   8.462 -0.6992 -0.2356 -0.3953
 4482SOL     OW24907   4.159   2.818   2.946  0.2373 -0.6037 -0.1282
 4482SOL    HW124908   4.191   2.807   3.036  0.4054  1.4585  0.0668
 4482SOL    HW224909   4.147   2.913   2.949 -1.0530 -0.7822  0.4465
 4483SOL     OW24910   1.198   2.011   3.122 -0.5806 -0.0234  0.0710
 4483SOL    HW124911   1.237   2.017   3.034  1.9609  2.5771  1.3770
 4483SOL    HW224912   1.106   1.996   3.099 -0.1886 -0.1028 -1.4510
 4484SOL     OW24913   0.055   4.405   7.369 -0.6759 -0.1010  0.4599
 4484SOL    HW124914   0.110   4.397   7.446 -2.1693 -2.7447  1.2510
 4484SOL    HW224915   0.118   4.421   7.299 -0.7912 -0.5123  0.2590
 4485SOL     OW24916   0.077   3.906   7.257  0.1635  0.3598  0.0031
 4485SOL    HW124917   0.054   3.950   7.175 -0.3610  1.5843  0.8080
 4485SOL    HW224918   0.107   3.820   7.229  3.5723  1.3129  0.6679
 4486SOL     OW24919   1.884   1.696   9.229  0.1123 -0.5449  0.3497
 4486SOL    HW124920   1.796   1.660   9.216  0.2874 -0.9223  0.2098
 4486SOL    HW224921   1.908   1.652   9.311  0.5889 -2.5799 -0.8886
 4487SOL     OW24922   1.475   4.062  11.289 -0.4484 -0.1358 -0.2421
 4487SOL    HW124923   1.489   4.156  11.300  0.2084 -0.1915 -0.5695
 4487SOL    HW224924   1.437   4.049  11.202  1.6637  0.7100 -1.2836
 4488SOL     OW24925   3.208   3.871   2.668  0.0746  0.8422  0.0415
 4488SOL    HW124926   3.210   3.933   2.742  1.5240 -2.8364  3.0671
 4488SOL    HW224927   3.295   3.884   2.630 -0.8595  0.2757 -2.2572
 4489SOL     OW24928   4.348   4.026   6.542  0.4981 -0.0914  0.3454
 4489SOL    HW124929   4.321   4.039   6.633  1.8695  0.7460  0.6263
 4489SOL    HW224930   4.263   3.988   6.519  1.2950 -1.3157 -0.5686
 4490SOL     OW24931   0.511   1.769   8.759 -0.5516  0.8769 -0.0964
 4490SOL    HW124932   0.534   1.832   8.691  0.1110 -0.9561 -1.5739
 4490SOL    HW224933   0.600   1.741   8.784 -2.0576 -1.3583  2.8639
 4491SOL     OW24934   0.859   1.279  10.348  0.1927 -0.2864  0.3546
 4491SOL    HW124935   0.933   1.232  10.385  0.1679  0.6597  1.6295
 4491SOL    HW224936   0.787   1.227  10.385  0.5032 -1.7695 -1.1564
 4492SOL     OW24937   3.563   2.568   8.603  0.3767  0.0087 -0.2309
 4492SOL    HW124938   3.518   2.620   8.537  0.4210 -0.4974 -0.6620
 4492SOL    HW224939   3.623   2.624   8.652 -1.1111  1.4369 -0.0340
 4493SOL     OW24940   1.404   3.479  12.820  0.4218 -0.4910  0.2392
 4493SOL    HW124941   1.488   3.485  12.865  0.4909 -1.5806  0.2512
 4493SOL    HW224942   1.430   3.504  12.732  0.1159  3.0207  1.1283
 4494SOL     OW24943   4.146   0.162  10.233 -0.1229 -0.2209  0.1991
 4494SOL    HW124944   4.058   0.143  10.200  0.0957  0.9122 -1.0579
 4494SOL    HW224945   4.134   0.126  10.321  2.2329 -1.9034 -0.1920
 4495SOL     OW24946   2.804   3.542   5.509  0.2881 -0.4766 -0.1014
 4495SOL    HW124947   2.884   3.587   5.485 -0.0587  0.4335  0.4435
 4495SOL    HW224948   2.823   3.453   5.480  1.5328 -0.1670 -0.2230
 4496SOL     OW24949   4.389   2.457   3.712 -0.3928 -0.5059 -0.0193
 4496SOL    HW124950   4.431   2.525   3.659  0.9379  0.1279  1.8394
 4496SOL    HW224951   4.453   2.440   3.781 -0.2785 -0.0319 -0.0080
 4497SOL     OW24952   0.031   0.873  12.794  0.0387 -0.0703 -0.6818
 4497SOL    HW124953   0.112   0.823  12.803 -0.3797 -1.2472 -3.5093
 4497SOL    HW224954   4.700   0.809  12.839 -1.6388  0.8886 -1.3807
 4498SOL     OW24955   1.587   0.700   9.804  0.0906 -0.4554  0.7094
 4498SOL    HW124956   1.542   0.669   9.725  1.7428  1.0893 -0.8233
 4498SOL    HW224957   1.576   0.794   9.792  1.9544 -0.3616 -0.2087
 4499SOL     OW24958   0.241   4.221   5.281  0.1268 -0.4703 -0.5331
 4499SOL    HW124959   0.296   4.253   5.210  1.6018 -0.1384  0.7531
 4499SOL    HW224960   0.239   4.302   5.333 -0.9839 -0.7995 -0.0537
 4500SOL     OW24961   4.517   2.815   7.699 -0.4612 -0.4721 -0.3228
 4500SOL    HW124962   4.524   2.905   7.668 -1.0266  0.2484  1.6525
 4500SOL    HW224963   4.599   2.780   7.663  0.4534  2.2324 -0.8478
 4501SOL     OW24964   1.398   4.329   7.530 -0.0956 -0.2364  0.2060
 4501SOL    HW124965   1.386   4.346   7.623 -1.5966 -0.9226  0.1225
 4501SOL    HW224966   1.492   4.311   7.541 -0.0975  0.6744  1.7568
 4502SOL     OW24967   2.405   0.483   3.405 -0.4680  0.1536  0.3064
 4502SOL    HW124968   2.470   0.493   3.335 -1.8223 -0.1594 -1.0012
 4502SOL    HW224969   2.403   0.572   3.442 -0.0293 -0.6737  2.2992
 4503SOL     OW24970   3.097   0.603   3.734  0.0909  0.0252  0.2089
 4503SOL    HW124971   3.022   0.626   3.680 -1.1872 -1.3117  1.4192
 4503SOL    HW224972   3.125   0.680   3.784  1.8049  0.2641 -1.1327
 4504SOL     OW24973   2.323   2.516   5.757  0.1134 -0.3531 -0.1113
 4504SOL    HW124974   2.418   2.514   5.745  0.4237 -0.8102  2.4353
 4504SOL    HW224975   2.290   2.574   5.688  1.3638  0.1527 -0.2721
 4505SOL     OW24976   0.404   0.840   8.771  0.1269 -0.3774 -0.5233
 4505SOL    HW124977   0.387   0.933   8.784 -2.5302 -0.5622 -2.6471
 4505SOL    HW224978   0.403   0.809   8.862  0.2676 -2.0233 -1.0741
 4506SOL     OW24979   3.594   1.164   2.620  0.1551  0.1784  0.4674
 4506SOL    HW124980   3.515   1.144   2.671  0.8332  1.9061  2.1737
 4506SOL    HW224981   3.632   1.225   2.683 -1.2170  2.0691 -0.5388
 4507SOL     OW24982   3.783   0.531  17.382 -0.5751  0.0409  0.2538
 4507SOL    HW124983   3.878   0.543  17.382 -0.6087  0.3433 -0.6249
 4507SOL    HW224984   3.773   0.436  17.376  1.6468 -0.1655  0.0099
 4508SOL     OW24985   1.762   2.345  17.369 -0.0965  0.4913  0.0819
 4508SOL    HW124986   1.748   2.353  17.463 -1.2177  1.5169 -0.1758
 4508SOL    HW224987   1.671   2.331  17.343 -0.3601  2.2647  0.0704
 4509SOL     OW24988   1.247   1.634   7.001 -0.4286  0.1152  0.1013
 4509SOL    HW124989   1.295   1.650   6.920  0.2169 -0.4028  0.3873
 4509SOL    HW224990   1.221   1.543   6.983 -2.2377  0.2320  2.2323
 4510SOL     OW24991   2.831   3.434  10.226 -0.1685  0.2664  0.2542
 4510SOL    HW124992   2.784   3.454  10.145  1.2857  2.8117  0.0276
 4510SOL    HW224993   2.923   3.440  10.201 -0.3640 -0.2639 -0.5940
 4511SOL     OW24994   3.154   2.066   1.501  0.3587 -0.0373 -0.6040
 4511SOL    HW124995   3.094   2.035   1.433 -0.1818 -1.3705  0.4852
 4511SOL    HW224996   3.160   1.978   1.539  0.8038 -0.2582 -1.1738
 4512SOL     OW24997   3.836   4.172   4.470  0.7169  0.0361 -0.0976
 4512SOL    HW124998   3.851   4.220   4.388 -2.0885  0.0012 -0.6164
 4512SOL    HW224999   3.767   4.112   4.443  0.0491  0.1850  1.2921
 4513SOL     OW25000   4.313   0.818  11.463 -0.0261 -0.5127 -0.7420
 4513SOL    HW125001   4.312   0.885  11.531  1.5673  0.8759 -2.0873
 4513SOL    HW225002   4.375   0.754  11.496  0.9405  1.5539  1.4471
 4514SOL     OW25003   2.899   3.835  10.820 -0.1373  0.1423  0.3737
 4514SOL    HW125004   2.939   3.761  10.776 -2.3488 -0.9528  0.2203
 4514SOL    HW225005   2.864   3.794  10.899  0.1100 -0.6266  0.0841
 4515SOL     OW25006   4.084   0.740   1.990 -0.1401  0.5005 -0.4675
 4515SOL    HW125007   4.028   0.702   2.058  0.6622 -1.9049 -1.1301
 4515SOL    HW225008   4.094   0.664   1.933  2.9427 -0.0957  0.8818
 4516SOL     OW25009   4.363   0.349  10.223 -0.3809 -0.1159  0.5779
 4516SOL    HW125010   4.280   0.305  10.203  0.1979 -0.5763 -0.8234
 4516SOL    HW225011   4.401   0.345  10.135  3.2544 -1.0935  2.2016
 4517SOL     OW25012   1.706   2.317   0.203  0.0654 -0.0896  0.2547
 4517SOL    HW125013   1.693   2.319   0.298  1.5238 -1.1650  0.4764
 4517SOL    HW225014   1.796   2.349   0.200 -0.2107  0.6557  0.0302
 4518SOL     OW25015   2.573   2.884   9.229  0.5896  1.0202 -0.1820
 4518SOL    HW125016   2.552   2.843   9.145 -0.6232 -2.9008  2.0351
 4518SOL    HW225017   2.655   2.925   9.201  0.0178  2.8519  0.8469
 4519SOL     OW25018   1.380   2.177   8.995  0.1631 -0.1866  0.4062
 4519SOL    HW125019   1.408   2.254   8.945 -1.4014 -0.5487 -1.0393
 4519SOL    HW225020   1.436   2.102   8.975  0.1631 -0.5257  1.6859
 4520SOL     OW25021   3.755   4.251   2.101  0.1409 -0.1736 -0.1964
 4520SOL    HW125022   3.823   4.263   2.167 -1.4797  0.1331  1.4125
 4520SOL    HW225023   3.758   4.156   2.084 -0.6440 -0.6309  2.1630
 4521SOL     OW25024   3.730   0.715   4.089 -0.0453  0.0126 -0.0942
 4521SOL    HW125025   3.824   0.715   4.071  0.1168 -0.5045  0.7326
 4521SOL    HW225026   3.726   0.625   4.123 -0.5308  0.0805  0.0215
 4522SOL     OW25027   1.243   4.313  16.642  0.4571  0.8753  0.2459
 4522SOL    HW125028   1.245   4.406  16.664  0.6279  0.8524  0.3319
 4522SOL    HW225029   1.282   4.276  16.721 -1.0461 -0.0341  0.5544
 4523SOL     OW25030   0.452   1.107   7.758  0.1654  0.0812  0.2877
 4523SOL    HW125031   0.395   1.169   7.803  0.9382  1.6461 -0.9057
 4523SOL    HW225032   0.412   1.021   7.773 -0.4136  0.7047  2.3217
 4524SOL     OW25033   1.056   4.719   3.036  0.2112 -0.5065 -0.1125
 4524SOL    HW125034   1.012   0.046   2.968 -2.3745 -0.3160  1.7573
 4524SOL    HW225035   1.110   0.065   3.073  4.4232 -3.0437 -1.3583
 4525SOL     OW25036   4.326   1.442   4.815 -0.4489  0.3439  0.0549
 4525SOL    HW125037   4.279   1.490   4.747  0.5097 -1.1137 -1.6411
 4525SOL    HW225038   4.362   1.365   4.771 -1.1019 -0.4087  0.8260
 4526SOL     OW25039   1.036   3.769  10.435  0.4983  0.6135 -0.5395
 4526SOL    HW125040   1.102   3.703  10.457 -0.5315  0.2568  1.5091
 4526SOL    HW225041   1.096   3.838  10.405  1.4488 -0.7431 -1.7243
 4527SOL     OW25042   4.505   4.414   4.868 -0.2412  0.2797 -0.1866
 4527SOL    HW125043   4.503   4.385   4.960  0.5441 -0.3337 -0.3539
 4527SOL    HW225044   4.451   4.493   4.864  1.2104  1.2615 -0.4297
 4528SOL     OW25045   2.336   3.932   3.441  0.0586  0.0162  0.6689
 4528SOL    HW125046   2.323   3.914   3.534 -1.2826 -1.1690  0.2547
 4528SOL    HW225047   2.424   3.968   3.448  0.5199 -0.6143 -1.5460
 4529SOL     OW25048   1.602   2.302   6.055 -0.6540  0.1381 -0.3839
 4529SOL    HW125049   1.544   2.251   6.112 -1.0493 -1.2097 -2.0162
 4529SOL    HW225050   1.614   2.243   5.981  2.2407 -1.0127  0.9871
 4530SOL     OW25051   2.888   3.566  11.759 -0.3967 -0.2296  0.1223
 4530SOL    HW125052   2.804   3.542  11.721 -0.1954  0.3063 -0.6837
 4530SOL    HW225053   2.874   3.620  11.837 -0.3154 -0.1127  0.0571
 4531SOL     OW25054   3.365   1.876  14.626  0.3050  0.3922  0.2718
 4531SOL    HW125055   3.294   1.818  14.655  0.0390 -0.6147 -2.4333
 4531SOL    HW225056   3.363   1.934  14.703  2.9821 -1.4491  1.7170
 4532SOL     OW25057   1.270   1.491  12.914  0.3760  0.0677  0.5415
 4532SOL    HW125058   1.295   1.407  12.876  1.6963  0.4298  0.5974
 4532SOL    HW225059   1.251   1.469  13.005 -0.1412  3.0032  1.1330
 4533SOL     OW25060   3.147   3.432  15.037 -0.1895  0.2100  0.2421
 4533SOL    HW125061   3.152   3.458  15.130  0.1036  2.5436 -0.4233
 4533SOL    HW225062   3.232   3.444  14.995 -0.3032  1.5528  0.3928
 4534SOL     OW25063   3.200   4.250  10.352  0.1576  0.6454  0.0251
 4534SOL    HW125064   3.115   4.260  10.395 -0.1329 -0.1847 -0.3523
 4534SOL    HW225065   3.245   4.335  10.352 -1.0107  1.2690  0.7653
 4535SOL     OW25066   1.163   1.906   4.523  0.3249 -0.2429 -0.0229
 4535SOL    HW125067   1.238   1.851   4.501  0.7525  0.8784 -1.4147
 4535SOL    HW225068   1.103   1.834   4.538 -0.5704  0.4111 -0.4513
 4536SOL     OW25069   3.524   4.454   6.771  0.6688 -0.0411  0.1371
 4536SOL    HW125070   3.439   4.412   6.760  0.6599 -0.5169  2.0039
 4536SOL    HW225071   3.567   4.395   6.834 -2.3754  0.0954  2.3371
 4537SOL     OW25072   1.947   4.492   4.228 -0.2824  0.0505  0.1507
 4537SOL    HW125073   1.911   4.565   4.177 -0.3118 -0.6583 -0.8386
 4537SOL    HW225074   2.021   4.542   4.263 -0.2099  0.3392 -0.4248
 4538SOL     OW25075   2.437   1.954   5.841  0.5225 -0.2504  0.0096
 4538SOL    HW125076   2.373   1.901   5.888  0.3711 -0.8153 -0.8190
 4538SOL    HW225077   2.513   1.899   5.858  0.7782  0.4762  1.1896
 4539SOL     OW25078   0.518   3.976   0.547 -0.0858 -0.1739  0.6369
 4539SOL    HW125079   0.514   3.882   0.561 -1.4741  0.0752  2.0037
 4539SOL    HW225080   0.587   4.006   0.606  1.5631 -1.0524 -0.8587
 4540SOL     OW25081   0.039   4.369   2.486 -0.5865  0.2739  0.5399
 4540SOL    HW125082   4.721   4.330   2.409 -1.1260  0.1057  0.9173
 4540SOL    HW225083   0.068   4.293   2.538 -2.5318 -0.0815  1.1290
 4541SOL     OW25084   2.610   3.422   8.462  0.1291  0.0803 -0.2134
 4541SOL    HW125085   2.558   3.356   8.509 -0.1291  0.8007  0.5232
 4541SOL    HW225086   2.696   3.382   8.452 -0.4740 -1.2311 -0.2022
 4542SOL     OW25087   1.598   3.956   9.371  0.0593 -0.2499 -0.2610
 4542SOL    HW125088   1.562   4.030   9.321 -1.4954 -1.6272 -1.1547
 4542SOL    HW225089   1.659   3.922   9.304 -2.4298 -1.1853 -2.0502
 4543SOL     OW25090   3.255   1.369  15.937 -0.3773  0.2323 -0.6779
 4543SOL    HW125091   3.254   1.368  15.842 -1.1455  0.9122 -0.6686
 4543SOL    HW225092   3.347   1.363  15.965 -0.5507  0.8918  0.0409
 4544SOL     OW25093   4.026   4.191   7.843  0.5209  0.0647 -0.3099
 4544SOL    HW125094   4.052   4.121   7.783 -0.5167 -0.2193 -0.4284
 4544SOL    HW225095   4.065   4.159   7.924  0.3819  0.7136  0.0119
 4545SOL     OW25096   3.839   2.548   4.711 -0.1596 -0.0303  0.1149
 4545SOL    HW125097   3.808   2.601   4.638 -1.4523 -0.9594 -0.0056
 4545SOL    HW225098   3.913   2.500   4.673  0.2077 -1.0914  2.1809
 4546SOL     OW25099   1.101   3.848   4.957 -0.3145 -0.3794 -0.0309
 4546SOL    HW125100   1.177   3.905   4.968 -2.3093  1.9224  1.7807
 4546SOL    HW225101   1.026   3.906   4.942  0.6618  0.8198 -0.2684
 4547SOL     OW25102   1.247   0.135   3.164 -0.0994 -0.4073 -0.2110
 4547SOL    HW125103   1.314   0.197   3.139 -0.0760 -1.1299 -1.9611
 4547SOL    HW225104   1.257   0.128   3.259 -0.6741  0.5957 -0.0817
 4548SOL     OW25105   1.045   0.034   4.730  0.6006  0.3218 -0.3001
 4548SOL    HW125106   1.121   4.702   4.714  0.1893  0.0158 -1.1806
 4548SOL    HW225107   1.061   0.098   4.661  0.8854 -0.0768 -0.6093
 4549SOL     OW25108   1.181   0.875   1.413 -0.1292  0.1437  0.3850
 4549SOL    HW125109   1.165   0.894   1.320  0.1891  3.6779  1.0475
 4549SOL    HW225110   1.098   0.833   1.434 -0.3546 -1.4037 -3.5213
 4550SOL     OW25111   3.899   4.572   3.143 -0.5374 -0.8037  0.2054
 4550SOL    HW125112   3.925   4.650   3.193 -0.9028 -1.9111  2.1100
 4550SOL    HW225113   3.856   4.524   3.213  1.8851 -1.9342  0.8850
 4551SOL     OW25114   4.599   3.178   8.296 -0.2285  0.0484  0.2311
 4551SOL    HW125115   4.619   3.173   8.389  1.4613  3.7501  0.0834
 4551SOL    HW225116   4.539   3.105   8.280 -1.4666  1.3587 -1.0821
 4552SOL     OW25117   4.591   2.097   5.643  0.6025 -0.1078  0.2396
 4552SOL    HW125118   4.677   2.137   5.657 -1.1210  3.8132 -0.3782
 4552SOL    HW225119   4.559   2.145   5.566  1.4752  0.5028  0.2530
 4553SOL     OW25120   2.709   3.945   9.243  0.2119 -0.6370  0.2608
 4553SOL    HW125121   2.707   3.944   9.147  2.6512 -0.5563  0.1997
 4553SOL    HW225122   2.617   3.946   9.269 -0.2662 -2.3975 -1.3385
 4554SOL     OW25123   1.633   2.587   6.742 -0.7212 -0.0166  0.4364
 4554SOL    HW125124   1.675   2.609   6.825 -1.1697 -0.7653  0.8537
 4554SOL    HW225125   1.596   2.674   6.722 -2.3416 -0.5950  0.9233
 4555SOL     OW25126   1.764   0.299  12.208  0.1408  0.0767  0.0926
 4555SOL    HW125127   1.761   0.300  12.303 -0.6350 -0.8498  0.0770
 4555SOL    HW225128   1.711   0.378  12.196  1.5474  1.0362  0.1569
 4556SOL     OW25129   3.044   0.499   4.579  0.1622 -0.1968 -0.4196
 4556SOL    HW125130   2.996   0.431   4.625  1.3199 -0.1101  0.9182
 4556SOL    HW225131   3.079   0.454   4.501  1.3542  1.7053 -0.9887
 4557SOL     OW25132   2.355   3.296   2.898 -0.3054 -0.3850 -0.3365
 4557SOL    HW125133   2.362   3.203   2.876  0.9309  0.1068 -1.9965
 4557SOL    HW225134   2.440   3.305   2.941 -0.8188 -2.8752  1.1681
 4558SOL     OW25135   1.952   3.683   1.580 -0.3477 -0.0418 -0.2258
 4558SOL    HW125136   1.960   3.748   1.511  0.5920  0.0267 -0.0495
 4558SOL    HW225137   1.859   3.669   1.562 -0.5064 -0.0386  0.5925
 4559SOL     OW25138   1.324   0.318  15.864  0.0217  0.0638  0.7444
 4559SOL    HW125139   1.386   0.315  15.790  0.7382  0.8348  1.3180
 4559SOL    HW225140   1.374   0.351  15.938  0.5401  1.7780 -0.3665
 4560SOL     OW25141   3.890   3.376   7.200 -0.0794  0.1224  0.0887
 4560SOL    HW125142   3.882   3.471   7.204  1.6488  0.3502 -2.1665
 4560SOL    HW225143   3.869   3.345   7.289  1.6337  1.6548  1.0348
 4561SOL     OW25144   3.750   1.053   7.084  0.7619 -0.0328  0.7081
 4561SOL    HW125145   3.822   1.038   7.146  0.7778 -0.0508  0.6850
 4561SOL    HW225146   3.673   1.023   7.132  0.7148 -0.7596  0.1770
 4562SOL     OW25147   2.699   3.391   2.634  0.2750  0.0101  0.0878
 4562SOL    HW125148   2.778   3.445   2.636  1.0410 -1.1486  1.3812
 4562SOL    HW225149   2.664   3.418   2.719  0.4700  1.8598 -0.4214
 4563SOL     OW25150   0.252   2.442   2.260 -0.7304  0.0560  0.2416
 4563SOL    HW125151   0.324   2.393   2.300 -0.5374 -1.0644 -1.5123
 4563SOL    HW225152   0.295   2.528   2.256  1.0196 -0.6899  2.5795
 4564SOL     OW25153   3.797   3.280   9.593  0.0324  0.6704 -0.9467
 4564SOL    HW125154   3.763   3.341   9.658 -0.6479  1.3933 -1.9769
 4564SOL    HW225155   3.710   3.254   9.560  1.0915 -2.8261 -0.9985
 4565SOL     OW25156   1.136   3.433   5.729  0.6427  0.0933  0.1651
 4565SOL    HW125157   1.208   3.443   5.666  2.9569 -0.8743  2.6062
 4565SOL    HW225158   1.131   3.515   5.776 -3.0668  0.6219 -1.2036
 4566SOL     OW25159   3.752   1.817   1.597 -0.2447 -0.6993  0.3135
 4566SOL    HW125160   3.694   1.805   1.522 -1.5070 -1.4243  1.4022
 4566SOL    HW225161   3.703   1.872   1.659 -1.5871 -2.1250  0.5235
 4567SOL     OW25162   1.297   3.254   7.309 -1.1754  0.0539 -0.0957
 4567SOL    HW125163   1.213   3.300   7.318 -1.2505 -0.3203  1.0521
 4567SOL    HW225164   1.263   3.172   7.273 -1.8808  0.5055 -0.4671
 4568SOL     OW25165   0.701   2.711   8.297  0.0216  0.2582 -0.0787
 4568SOL    HW125166   0.681   2.619   8.315 -1.9573  0.6567 -0.1971
 4568SOL    HW225167   0.672   2.755   8.377 -0.2300  0.0245 -0.0412
 4569SOL     OW25168   0.751   3.064   7.611 -0.2573  0.2252  0.2655
 4569SOL    HW125169   0.746   3.071   7.706  1.5240 -0.4440  0.4043
 4569SOL    HW225170   0.828   3.008   7.610  1.1686  2.1702  0.2706
 4570SOL     OW25171   1.499   3.836   2.827 -0.1151 -0.0484 -0.3227
 4570SOL    HW125172   1.489   3.885   2.745 -1.0716 -1.2331 -0.9313
 4570SOL    HW225173   1.586   3.802   2.805 -0.0630  0.2549 -0.5907
 4571SOL     OW25174   2.920   3.328  12.695  0.4805  0.7542  0.2253
 4571SOL    HW125175   2.938   3.335  12.601 -0.0320  0.6416  0.1210
 4571SOL    HW225176   3.004   3.367  12.721  0.3180  0.7305  0.7771
 4572SOL     OW25177   4.135   2.395   0.901 -0.1899  0.7431 -0.1772
 4572SOL    HW125178   4.230   2.395   0.911 -0.2124 -0.6927  0.0059
 4572SOL    HW225179   4.138   2.397   0.805 -0.8155 -0.6141 -0.2197
 4573SOL     OW25180   0.800   4.567  14.395 -0.3744  0.5179 -0.1398
 4573SOL    HW125181   0.862   4.543  14.464  0.1073  1.2933 -0.3038
 4573SOL    HW225182   0.745   4.626  14.447 -2.1426  0.8051 -2.3178
 4574SOL     OW25183   0.162   4.638   3.196  0.1710  0.0414 -0.3014
 4574SOL    HW125184   0.103   4.630   3.271  0.2085 -0.4818 -0.3215
 4574SOL    HW225185   0.126   4.716   3.154 -1.7370 -0.8907 -0.4148
 4575SOL     OW25186   4.699   0.128   3.584 -0.5975  0.0120  0.3361
 4575SOL    HW125187   0.011   0.177   3.509 -1.2363  0.7648  0.5245
 4575SOL    HW225188   0.049   0.072   3.606 -0.7771 -0.8497 -1.2344
 4576SOL     OW25189   0.568   0.404   9.774  0.6076  0.2390 -0.0421
 4576SOL    HW125190   0.525   0.440   9.852  1.8549 -1.1763  1.2999
 4576SOL    HW225191   0.594   0.317   9.804 -1.3699 -0.2555  0.2421
 4577SOL     OW25192   4.474   2.064  15.296  0.3583  0.2387 -0.2704
 4577SOL    HW125193   4.559   2.085  15.335  1.2916  0.8504 -2.5818
 4577SOL    HW225194   4.450   2.147  15.254 -0.3983  0.1145 -0.0818
 4578SOL     OW25195   1.149   2.552   7.966  0.1830  0.1507  0.1454
 4578SOL    HW125196   1.074   2.604   7.936 -0.1740  0.1068  0.9639
 4578SOL    HW225197   1.112   2.466   7.946  0.3714 -0.5993  2.9534
 4579SOL     OW25198   1.793   3.311   8.000  0.4351 -0.5739 -0.3023
 4579SOL    HW125199   1.747   3.308   8.083 -3.4999  1.6892 -2.3942
 4579SOL    HW225200   1.884   3.317   8.026 -0.0718  3.0620  0.5880
 4580SOL     OW25201   4.190   3.272   7.201  0.3613 -0.0598 -0.2581
 4580SOL    HW125202   4.102   3.311   7.208  0.5350 -0.1958  2.9076
 4580SOL    HW225203   4.213   3.260   7.294 -1.4675 -0.8947  0.0981
 4581SOL     OW25204   1.932   3.443   4.772 -0.0256 -0.3118 -0.3727
 4581SOL    HW125205   1.877   3.366   4.755 -0.8094  0.7340 -2.5374
 4581SOL    HW225206   2.018   3.402   4.778  1.0535  2.0830  0.2868
 4582SOL     OW25207   3.978   2.965   9.661  0.4929 -0.2683 -0.3124
 4582SOL    HW125208   3.929   2.900   9.711  0.2480 -0.5155 -0.8647
 4582SOL    HW225209   4.065   2.946   9.696  0.9161 -0.7107 -1.5699
 4583SOL     OW25210   3.310   2.642   2.057 -0.2799  0.6469 -0.5756
 4583SOL    HW125211   3.395   2.606   2.085 -1.9085 -0.0073  3.4533
 4583SOL    HW225212   3.303   2.710   2.125 -1.1890  1.8132 -1.8392
 4584SOL     OW25213   4.156   3.684   2.304 -0.4805  0.4887  0.1808
 4584SOL    HW125214   4.066   3.673   2.275  0.0953 -0.0051 -1.4357
 4584SOL    HW225215   4.185   3.751   2.242 -0.9109 -0.5461 -1.1548
 4585SOL     OW25216   2.693   2.574   4.276 -0.5707 -0.7039  0.1040
 4585SOL    HW125217   2.628   2.598   4.343  0.4479 -0.3811  0.9906
 4585SOL    HW225218   2.665   2.487   4.250 -0.3298  0.1137 -2.8244
 4586SOL     OW25219   2.738   4.220   1.850 -0.4652 -0.2031 -0.0367
 4586SOL    HW125220   2.716   4.202   1.941  2.2515 -1.7722  0.3149
 4586SOL    HW225221   2.798   4.150   1.824  0.9989  0.8274  0.5856
 4587SOL     OW25222   2.398   0.576   4.919 -0.3796  0.2061 -0.4244
 4587SOL    HW125223   2.383   0.501   4.862  2.2812  0.8929 -2.0437
 4587SOL    HW225224   2.473   0.610   4.869  0.6985 -2.0672 -0.3587
 4588SOL     OW25225   4.067   2.604   8.410 -0.0143  0.1598 -0.5043
 4588SOL    HW125226   3.995   2.553   8.373 -1.2313  0.7445  1.0530
 4588SOL    HW225227   4.054   2.695   8.387 -0.3229  0.8647  2.3842
 4589SOL     OW25228   3.172   2.681   6.347 -0.0520  0.2496 -0.1277
 4589SOL    HW125229   3.153   2.660   6.439  1.9183  1.9581  0.6641
 4589SOL    HW225230   3.211   2.768   6.353  1.5983 -0.5194  0.3221
 4590SOL     OW25231   4.010   1.726   6.748 -0.6086  0.4289 -0.1502
 4590SOL    HW125232   3.989   1.688   6.833  1.4209 -3.2404 -1.2551
 4590SOL    HW225233   3.932   1.703   6.698 -1.2243 -1.3421  1.6204
 4591SOL     OW25234   2.291   4.163  11.984 -0.1750 -0.0845  0.1011
 4591SOL    HW125235   2.284   4.069  11.998 -0.4844  0.1174  1.3845
 4591SOL    HW225236   2.266   4.166  11.892  2.9485 -1.3329 -0.7994
 4592SOL     OW25237   1.679   0.044  11.616 -0.1045  0.3940  0.2312
 4592SOL    HW125238   1.710   0.135  11.621  1.5616 -0.2612  1.7908
 4592SOL    HW225239   1.643   0.030  11.529 -1.5141 -1.5061  1.1307
 4593SOL     OW25240   2.830   0.896   9.938 -0.1379  0.3478 -0.3704
 4593SOL    HW125241   2.875   0.924  10.018 -0.0673 -0.8470  0.0074
 4593SOL    HW225242   2.899   0.867   9.878  0.2828  0.9216 -0.1564
 4594SOL     OW25243   2.844   1.526   8.826 -0.2423 -0.4434  0.1308
 4594SOL    HW125244   2.801   1.607   8.800  1.1659 -0.2813 -1.7133
 4594SOL    HW225245   2.803   1.465   8.765  0.5315  0.1491 -0.9764
 4595SOL     OW25246   1.985   0.957   0.480  0.1758  0.5832  0.0643
 4595SOL    HW125247   2.002   1.047   0.451  3.1045 -0.2325 -0.6799
 4595SOL    HW225248   1.969   0.949   0.386  0.7817  1.9355 -0.1549
 4596SOL     OW25249   0.420   4.058   6.373  0.4431  0.0247 -0.7189
 4596SOL    HW125250   0.415   4.150   6.348  0.3253 -0.5191 -2.6722
 4596SOL    HW225251   0.334   4.050   6.413  0.0698  0.4619 -1.4423
 4597SOL     OW25252   0.222   1.058  14.456 -0.0698 -0.5511 -0.4866
 4597SOL    HW125253   0.170   1.027  14.381 -3.5231 -0.2673  1.8198
 4597SOL    HW225254   0.163   1.048  14.531 -0.1682 -0.5067 -0.5580
 4598SOL     OW25255   3.019   2.326   0.170 -1.0379  0.0537 -0.0531
 4598SOL    HW125256   3.062   2.300   0.088  2.4784  0.2313  1.7180
 4598SOL    HW225257   2.997   2.238   0.200  0.3001 -0.6634 -1.1735
 4599SOL     OW25258   2.115   2.331  12.002  0.1510  0.1094  0.1055
 4599SOL    HW125259   2.107   2.376  12.086  0.5809 -0.0121  0.2130
 4599SOL    HW225260   2.048   2.367  11.945  0.2739 -0.0373 -0.1314
 4600SOL     OW25261   0.139   4.150   2.171  0.5854 -0.4217 -0.0064
 4600SOL    HW125262   0.064   4.178   2.223  0.8645  1.2201 -0.4781
 4600SOL    HW225263   0.217   4.183   2.215 -0.5310  0.5931  1.1922
 4601SOL     OW25264   1.630   0.340  13.862  0.0838 -0.3245 -0.4168
 4601SOL    HW125265   1.723   0.355  13.877  0.1129 -2.8021  1.7688
 4601SOL    HW225266   1.598   0.430  13.868  1.6281  0.2595 -1.0238
 4602SOL     OW25267   0.333   2.885  11.257  0.0266 -0.5994 -0.3932
 4602SOL    HW125268   0.261   2.902  11.196  0.6250 -0.0596 -0.9502
 4602SOL    HW225269   0.342   2.793  11.233 -2.3009 -1.2544  1.1817
 4603SOL     OW25270   3.147   3.531  11.968  0.4087 -0.0215 -0.3420
 4603SOL    HW125271   3.099   3.586  12.031 -0.9151 -1.1210 -0.3778
 4603SOL    HW225272   3.171   3.453  12.018 -0.9553  1.4706  2.6402
 4604SOL     OW25273   1.163   1.519   8.475 -0.4929  0.1087  0.1615
 4604SOL    HW125274   1.245   1.557   8.504 -0.6744  0.4396  0.2443
 4604SOL    HW225275   1.192   1.491   8.389  0.4186 -0.0960  0.5373
 4605SOL     OW25276   0.960   3.839   8.419  0.1460  0.4947 -0.3214
 4605SOL    HW125277   0.875   3.814   8.383 -1.1644  1.0621  2.3797
 4605SOL    HW225278   0.951   3.932   8.439  0.0976  0.9150 -2.3167
 4606SOL     OW25279   4.242   4.094   9.555  0.1418  0.2391 -0.0047
 4606SOL    HW125280   4.227   4.188   9.554  1.6553  0.4759 -0.1761
 4606SOL    HW225281   4.159   4.070   9.598  0.7157  0.4264  1.2176
 4607SOL     OW25282   1.191   2.754   1.062  0.2223 -0.2847  0.2755
 4607SOL    HW125283   1.162   2.697   1.133  1.8882 -1.9302 -0.3795
 4607SOL    HW225284   1.131   2.829   1.066  2.2738  1.3433  0.5426
 4608SOL     OW25285   2.340   1.010  14.628  0.6342  0.3460  0.0646
 4608SOL    HW125286   2.364   1.019  14.536  0.4873  1.3247  0.1202
 4608SOL    HW225287   2.343   1.096  14.669  1.3785  0.4577 -0.2185
 4609SOL     OW25288   4.379   2.374   3.099  0.3311 -0.9577 -0.2406
 4609SOL    HW125289   4.328   2.455   3.112  0.7945 -0.2311 -2.9284
 4609SOL    HW225290   4.312   2.308   3.084  0.7212 -1.0690 -1.5225
 4610SOL     OW25291   1.942   3.406   2.363 -0.1114  0.2389 -0.1968
 4610SOL    HW125292   1.871   3.359   2.407 -0.0468 -1.3518 -1.7953
 4610SOL    HW225293   2.005   3.336   2.345 -0.1350  0.3185 -0.5973
 4611SOL     OW25294   0.486   2.225   4.326 -0.2291  0.1841 -0.1027
 4611SOL    HW125295   0.512   2.151   4.272  1.5557  0.9679 -0.3175
 4611SOL    HW225296   0.542   2.293   4.288  1.1466 -0.6335  0.4646
 4612SOL     OW25297   3.102   1.196   5.340 -0.0457 -0.0782 -0.2448
 4612SOL    HW125298   3.193   1.206   5.369 -0.6657 -0.2408  1.7850
 4612SOL    HW225299   3.065   1.277   5.375 -2.0518 -1.8132  1.6750
 4613SOL     OW25300   4.116   3.540   7.965  0.0232 -0.0785 -0.3046
 4613SOL    HW125301   4.152   3.546   7.876 -0.6492  0.6061 -0.5312
 4613SOL    HW225302   4.183   3.505   8.024 -1.5401  0.0706  1.5307
 4614SOL     OW25303   3.548   3.626   0.820  0.5337 -0.2744  0.5116
 4614SOL    HW125304   3.507   3.692   0.876 -0.4470  1.0656 -1.7971
 4614SOL    HW225305   3.582   3.681   0.749  0.8146  0.8292  1.4983
 4615SOL     OW25306   4.197   1.673  12.744  0.1934  0.5246  0.4344
 4615SOL    HW125307   4.167   1.683  12.834 -0.5127  2.8151 -0.0655
 4615SOL    HW225308   4.233   1.587  12.766  0.3548 -0.0318 -1.9066
 4616SOL     OW25309   0.370   0.988  12.452 -0.3309 -0.9907 -0.4376
 4616SOL    HW125310   0.358   0.957  12.362 -1.4704  0.1617 -0.6749
 4616SOL    HW225311   0.313   1.064  12.442 -1.3853 -1.7015  0.0370
 4617SOL     OW25312   4.612   0.271   5.495  0.5649  0.1212  0.0365
 4617SOL    HW125313   4.543   0.308   5.550 -0.2340 -2.8186  0.9676
 4617SOL    HW225314   4.603   0.176   5.501 -1.2982  0.3318  0.4688
 4618SOL     OW25315   3.287   3.696   2.333 -0.3230 -0.7562 -0.0857
 4618SOL    HW125316   3.264   3.771   2.277 -1.5479 -1.0374  0.0416
 4618SOL    HW225317   3.375   3.677   2.301 -0.0730  1.7728 -0.9768
 4619SOL     OW25318   0.221   0.812   8.265  0.7776 -0.4308 -0.5957
 4619SOL    HW125319   0.144   0.758   8.288  1.1890 -0.4646  0.7030
 4619SOL    HW225320   0.262   0.822   8.351 -0.2923  2.8354 -0.4769
 4620SOL     OW25321   2.621   1.222  15.898  0.2357 -0.1592  0.5910
 4620SOL    HW125322   2.627   1.237  15.992 -1.0884  1.0895  0.4835
 4620SOL    HW225323   2.705   1.254  15.866 -1.1343  2.2402 -0.5913
 4621SOL     OW25324   1.923   0.260   3.326  0.4142  0.1195  0.3486
 4621SOL    HW125325   1.965   0.198   3.266  0.5114  1.2390 -0.7502
 4621SOL    HW225326   1.989   0.330   3.328  0.7618 -0.1999  0.0482
 4622SOL     OW25327   2.269   4.326   2.006 -0.0880  0.0274  0.2228
 4622SOL    HW125328   2.225   4.260   2.060  1.1126 -0.2004  0.9247
 4622SOL    HW225329   2.282   4.398   2.067 -1.2349 -0.6273  1.2390
 4623SOL     OW25330   2.121   1.885   3.026 -0.0635 -0.9660 -0.2796
 4623SOL    HW125331   2.136   1.828   2.951 -0.1833  1.6528 -2.2982
 4623SOL    HW225332   2.029   1.875   3.051 -0.1881  0.0654 -0.3345
 4624SOL     OW25333   3.520   1.937   1.113 -0.1701  0.3792  0.1906
 4624SOL    HW125334   3.585   1.887   1.065 -1.1869 -1.8487  1.1401
 4624SOL    HW225335   3.556   2.024   1.100 -0.6246  0.4042 -0.9237
 4625SOL     OW25336   1.812   0.798  13.754  0.2942 -0.6516  0.3837
 4625SOL    HW125337   1.771   0.827  13.836 -0.6875  1.4824 -0.8698
 4625SOL    HW225338   1.799   0.878  13.704 -0.7385 -1.4931 -0.6848
 4626SOL     OW25339   1.835   2.877  12.388 -0.7712 -0.0350 -0.2215
 4626SOL    HW125340   1.926   2.901  12.370 -0.5529 -0.9662 -0.3879
 4626SOL    HW225341   1.800   2.966  12.387 -0.4577  0.0930 -0.0169
 4627SOL     OW25342   2.739   2.943   1.208  0.3945 -0.4378  0.1963
 4627SOL    HW125343   2.737   3.022   1.154 -1.2446 -1.3655 -1.1044
 4627SOL    HW225344   2.660   2.949   1.261  0.7281  0.0988  0.6352
 4628SOL     OW25345   0.133   3.279  13.427 -0.4117 -0.5308 -0.2345
 4628SOL    HW125346   0.096   3.302  13.512  0.7557 -1.7053  0.5916
 4628SOL    HW225347   0.219   3.322  13.426 -0.6043 -0.1366  0.1092
 4629SOL     OW25348   3.544   0.868   3.404  0.5562 -0.8304 -0.0069
 4629SOL    HW125349   3.542   0.847   3.498 -0.0477  1.1771  0.4334
 4629SOL    HW225350   3.563   0.961   3.418  0.6069 -0.6751 -1.1620
 4630SOL     OW25351   3.095   3.154   3.965 -0.3497 -0.1532 -0.1791
 4630SOL    HW125352   3.182   3.148   4.004 -0.6800  0.5917  0.6803
 4630SOL    HW225353   3.055   3.208   4.034  2.0432 -0.8784  1.7871
 4631SOL     OW25354   0.851   1.432   3.896  0.4360 -0.1778  0.3563
 4631SOL    HW125355   0.813   1.506   3.943  0.7209 -0.7582  1.5059
 4631SOL    HW225356   0.943   1.449   3.916  0.2055 -0.8266  1.9906
 4632SOL     OW25357   0.742   3.382   8.862  0.3202  0.3795  0.2727
 4632SOL    HW125358   0.837   3.372   8.865  0.2710  0.0796  0.8352
 4632SOL    HW225359   0.727   3.321   8.789  1.6862 -1.1893  1.2908
 4633SOL     OW25360   0.033   4.656   5.274 -0.1019 -0.5850 -0.7067
 4633SOL    HW125361   0.056   4.598   5.201 -0.8649  0.8113 -2.0495
 4633SOL    HW225362   0.115   4.690   5.309  0.3650 -1.8666 -0.5270
 4634SOL     OW25363   0.919   4.012   9.051 -0.0477 -0.2431  0.1359
 4634SOL    HW125364   0.830   4.031   9.021 -0.0640  1.3926  1.2729
 4634SOL    HW225365   0.910   3.917   9.060  0.2535 -0.3646 -0.8386
 4635SOL     OW25366   1.234   1.303   2.217 -0.2827  0.1120 -0.7337
 4635SOL    HW125367   1.141   1.277   2.217 -0.0512 -0.7177 -0.4874
 4635SOL    HW225368   1.281   1.226   2.186 -0.4152  0.9165 -2.9803
 4636SOL     OW25369   0.943   2.855  17.665  0.6112  0.0409 -0.1860
 4636SOL    HW125370   0.891   2.784  17.627  1.9919 -0.1431 -1.7389
 4636SOL    HW225371   1.025   2.858  17.615  0.9579  2.3503  0.5158
 4637SOL     OW25372   1.837   1.725   6.764  0.3282 -0.0207 -0.1736
 4637SOL    HW125373   1.787   1.689   6.691 -1.1810  2.9814 -0.6431
 4637SOL    HW225374   1.788   1.710   6.844  2.5348 -1.2140  0.9608
 4638SOL     OW25375   3.094   4.720   8.337 -0.2560  0.0760 -0.3669
 4638SOL    HW125376   3.065   0.014   8.426  3.1323 -0.7621  0.8990
 4638SOL    HW225377   3.134   4.633   8.334 -2.2663 -0.8989  1.3947
 4639SOL     OW25378   4.137   2.057  11.931 -0.1449  0.4146  0.8790
 4639SOL    HW125379   4.161   2.019  11.846 -1.8780  0.5404  0.3381
 4639SOL    HW225380   4.064   2.115  11.909 -2.0968 -1.6915  1.7366
 4640SOL     OW25381   0.017   3.431   7.040 -0.0441  0.6756  0.4114
 4640SOL    HW125382   0.085   3.445   6.975  0.3347 -0.8045  0.5006
 4640SOL    HW225383   0.042   3.488   7.113 -2.1861  0.7537  1.0752
 4641SOL     OW25384   0.480   1.927   6.613 -0.1097  0.1909  0.0098
 4641SOL    HW125385   0.467   1.868   6.539  0.9067  1.2245 -0.9870
 4641SOL    HW225386   0.542   1.991   6.579  0.0472 -0.0489 -0.1490
 4642SOL     OW25387   4.023   0.338  16.475  0.4354  0.2139 -0.4592
 4642SOL    HW125388   3.970   0.368  16.401 -0.2502  0.2612  0.0432
 4642SOL    HW225389   4.093   0.294  16.427 -0.3267 -0.0175 -1.3439
 4643SOL     OW25390   3.249   4.420  11.842 -0.1186 -0.2814 -0.3872
 4643SOL    HW125391   3.305   4.490  11.876 -0.5485  0.7000 -1.6992
 4643SOL    HW225392   3.178   4.413  11.907  0.2894  2.4853  0.3559
 4644SOL     OW25393   1.876   3.673  13.318 -0.4961 -0.2654  0.5408
 4644SOL    HW125394   1.813   3.714  13.258 -0.9674 -1.8302 -0.0113
 4644SOL    HW225395   1.825   3.598  13.348  2.3560 -2.9055 -1.2724
 4645SOL     OW25396   4.541   3.577   5.489  0.3576 -0.1992  0.4246
 4645SOL    HW125397   4.479   3.613   5.427  1.4404 -0.6760 -0.9273
 4645SOL    HW225398   4.555   3.647   5.553  2.9758  0.8068 -1.2355
 4646SOL     OW25399   4.006   3.511   4.594 -0.7431 -0.3107  0.2255
 4646SOL    HW125400   4.059   3.578   4.551 -1.0690 -0.4263 -0.3487
 4646SOL    HW225401   3.980   3.458   4.519  1.0255 -0.2258 -0.4274
 4647SOL     OW25402   3.437   2.231   2.395  0.2866 -0.5221 -0.8468
 4647SOL    HW125403   3.341   2.238   2.395  0.3282  0.1138  0.1381
 4647SOL    HW225404   3.444   2.149   2.347 -1.0739 -1.3189  0.3068
 4648SOL     OW25405   2.476   1.540  13.192  0.1596  0.1638  0.0813
 4648SOL    HW125406   2.540   1.609  13.211  2.0083 -1.3969 -0.4343
 4648SOL    HW225407   2.528   1.465  13.221  0.4720  0.3820  0.0869
 4649SOL     OW25408   0.828   1.797   5.890  0.3261  0.4419  0.1610
 4649SOL    HW125409   0.842   1.844   5.808 -0.2011  0.8539  0.3096
 4649SOL    HW225410   0.913   1.804   5.934  0.2940  0.6495  0.1891
 4650SOL     OW25411   1.627   0.211   6.533 -0.4848  0.3806 -0.1982
 4650SOL    HW125412   1.693   0.166   6.585 -1.2313  0.1564  0.5532
 4650SOL    HW225413   1.549   0.209   6.588 -0.1144 -2.1909  0.2342
 4651SOL     OW25414   0.118   1.189   4.340  0.0522 -0.2088  0.6824
 4651SOL    HW125415   0.127   1.200   4.245 -1.9327  0.3826  0.5576
 4651SOL    HW225416   0.100   1.277   4.373 -0.8621 -0.3764  0.6387
 4652SOL     OW25417   4.575   0.619   3.063 -0.0209  0.7308  0.4050
 4652SOL    HW125418   4.495   0.582   3.099 -0.2638  0.8244 -0.0366
 4652SOL    HW225419   4.562   0.611   2.968 -0.3852  0.0758  0.5083
 4653SOL     OW25420   2.421   0.784   0.990 -0.4660 -0.4047  0.2044
 4653SOL    HW125421   2.424   0.757   0.898 -0.7391  1.3050 -0.3036
 4653SOL    HW225422   2.459   0.702   1.023 -0.8096 -0.4252  0.5438
 4654SOL     OW25423   2.750   1.253   4.701 -0.2301  0.5251 -0.1817
 4654SOL    HW125424   2.730   1.292   4.787  0.0775  1.7977 -0.6809
 4654SOL    HW225425   2.714   1.166   4.717  1.5344 -0.2949 -0.6368
 4655SOL     OW25426   3.945   3.411   2.708  0.2840  0.3258 -0.2377
 4655SOL    HW125427   3.941   3.366   2.792 -1.2229 -0.2717 -0.6346
 4655SOL    HW225428   3.879   3.480   2.715  1.0160  0.9978  0.0605
 4656SOL     OW25429   1.125   0.314  14.958  0.5047  0.3572  0.1729
 4656SOL    HW125430   1.121   0.409  14.945  0.1213  0.1775 -1.0627
 4656SOL    HW225431   1.036   0.296  14.930  0.4495  0.4215  0.3085
 4657SOL     OW25432   4.057   3.969   7.660  0.3672  0.4117 -0.2169
 4657SOL    HW125433   3.995   3.897   7.652 -0.4043  0.9790  0.6260
 4657SOL    HW225434   4.142   3.925   7.657 -1.5596 -3.0970 -1.8809
 4658SOL     OW25435   0.349   0.634  13.274  0.4657  0.2272  0.5091
 4658SOL    HW125436   0.380   0.670  13.357 -0.4723  2.8452 -0.2768
 4658SOL    HW225437   0.263   0.674  13.278 -0.9530 -2.5741 -1.7671
 4659SOL     OW25438   1.479   2.944   5.073  0.4798  0.4521  0.0541
 4659SOL    HW125439   1.474   2.872   5.137 -2.1614  0.2576 -0.3391
 4659SOL    HW225440   1.516   2.892   5.002  1.4507 -2.6042  2.8114
 4660SOL     OW25441   2.464   3.195   1.383  0.1269 -0.0058  0.2273
 4660SOL    HW125442   2.509   3.116   1.414  0.4729 -0.2689 -0.9565
 4660SOL    HW225443   2.391   3.160   1.331  0.5234 -1.5505  0.7159
 4661SOL     OW25444   3.060   3.173  10.089 -0.6122  0.9832  0.0509
 4661SOL    HW125445   3.014   3.095  10.058  0.8843 -0.5513  1.6651
 4661SOL    HW225446   3.126   3.182  10.021 -2.0073  2.3944 -1.1183
 4662SOL     OW25447   2.645   4.181   4.805  0.3704  0.0571 -0.4589
 4662SOL    HW125448   2.591   4.196   4.727  1.3631  0.8195 -0.9983
 4662SOL    HW225449   2.621   4.095   4.840  2.2519 -0.3354 -0.1615
 4663SOL     OW25450   2.051   2.379   4.899 -0.0836  0.0489 -0.4988
 4663SOL    HW125451   2.130   2.326   4.902  2.1450  3.4913  1.3551
 4663SOL    HW225452   2.086   2.467   4.888  0.3472 -0.3506 -2.2939
 4664SOL     OW25453   1.077   2.636   9.299  0.2442 -0.3786  0.1883
 4664SOL    HW125454   1.067   2.728   9.273 -2.0539 -0.8656 -0.6740
 4664SOL    HW225455   1.111   2.599   9.219  0.7953  0.0003  0.2457
 4665SOL     OW25456   0.963   3.540   4.140 -0.1293  0.1114  0.1244
 4665SOL    HW125457   0.876   3.570   4.117 -1.1334 -1.1884  2.1902
 4665SOL    HW225458   1.010   3.573   4.064 -1.4473  1.5805 -0.0336
 4666SOL     OW25459   1.801   3.807   0.715  0.3058 -0.9191 -0.1064
 4666SOL    HW125460   1.878   3.834   0.664 -1.6095  2.9739 -0.9306
 4666SOL    HW225461   1.819   3.851   0.799 -1.5966  0.2646 -0.3139
 4667SOL     OW25462   0.171   0.777   6.735 -0.0493  0.4079  0.3801
 4667SOL    HW125463   0.262   0.747   6.732 -0.0510  0.6347 -1.8757
 4667SOL    HW225464   0.128   0.722   6.669  0.1684 -1.4535  1.7766
 4668SOL     OW25465   3.351   4.495   0.741  0.8212  0.1431 -0.4202
 4668SOL    HW125466   3.302   4.547   0.804  0.7411 -3.7734  2.6723
 4668SOL    HW225467   3.297   4.492   0.662  1.0611 -1.1000 -0.5409
 4669SOL     OW25468   2.094   0.130   7.069  0.3166 -0.2206  0.4409
 4669SOL    HW125469   2.118   0.070   7.140  1.1483 -1.8599 -1.2544
 4669SOL    HW225470   2.092   0.079   6.989 -3.1561  1.9124 -0.8349
 4670SOL     OW25471   2.559   2.754   4.836 -0.9212  0.5304 -0.2188
 4670SOL    HW125472   2.532   2.716   4.919 -1.3948 -1.8031 -1.4524
 4670SOL    HW225473   2.482   2.795   4.797  0.2732  0.7626 -2.3732
 4671SOL     OW25474   4.588   3.254   3.682  0.4645  0.5417 -0.3441
 4671SOL    HW125475   4.568   3.346   3.697  3.5126  1.3126 -0.9198
 4671SOL    HW225476   4.669   3.257   3.631  0.4314  0.3211 -0.4086
 4672SOL     OW25477   4.469   3.451   6.187 -0.0805  0.3278 -0.2933
 4672SOL    HW125478   4.393   3.507   6.172  0.9436  2.6486  3.3149
 4672SOL    HW225479   4.474   3.422   6.096  0.4542  1.4742 -0.6311
 4673SOL     OW25480   3.328   2.557   9.649 -0.2683 -0.0024  0.0115
 4673SOL    HW125481   3.380   2.577   9.571  0.3118  1.4980  0.7906
 4673SOL    HW225482   3.359   2.473   9.684  1.1868 -0.2498 -1.8589
 4674SOL     OW25483   0.475   4.690   2.608  0.3202  0.1858 -0.6147
 4674SOL    HW125484   0.517   4.662   2.526 -1.1017  0.6120 -1.4732
 4674SOL    HW225485   0.389   4.652   2.591  0.2918  0.4697 -1.0881
 4675SOL     OW25486   1.586   0.794   0.431  0.1153  0.2645 -0.3322
 4675SOL    HW125487   1.669   0.747   0.426 -0.2660 -0.3907 -0.5572
 4675SOL    HW225488   1.540   0.740   0.496  0.2001 -1.5186 -1.7336
 4676SOL     OW25489   0.243   2.631   8.311 -0.0793 -0.1713 -0.0969
 4676SOL    HW125490   0.160   2.661   8.349 -0.5107 -0.2056 -1.0051
 4676SOL    HW225491   0.266   2.572   8.382 -0.4375 -1.6355 -1.2008
 4677SOL     OW25492   4.192   1.735   4.976 -0.2336  0.0587 -0.2996
 4677SOL    HW125493   4.112   1.755   5.024 -0.2826  2.0861 -1.2344
 4677SOL    HW225494   4.190   1.640   4.986 -1.0654  0.1982  0.9008
 4678SOL     OW25495   3.593   0.388   7.814  0.0388  0.0528  0.1666
 4678SOL    HW125496   3.531   0.335   7.864  0.3012  0.7645  1.2456
 4678SOL    HW225497   3.669   0.390   7.872  0.8387  1.2180 -0.8988
 4679SOL     OW25498   1.523   2.905   8.519  0.1569  0.5326  0.4183
 4679SOL    HW125499   1.465   2.974   8.552 -0.2345  0.3099  0.2097
 4679SOL    HW225500   1.556   2.856   8.594 -1.2371 -0.2965  0.4995
 4680SOL     OW25501   1.982   2.292  17.219  0.2849 -0.5051  0.1327
 4680SOL    HW125502   2.055   2.298  17.281  0.8379 -0.8800 -0.4739
 4680SOL    HW225503   1.904   2.328  17.260 -0.0433  0.0751 -0.9938
 4681SOL     OW25504   3.076   4.261   2.665 -0.1755 -1.1827 -0.2062
 4681SOL    HW125505   3.045   4.346   2.634 -0.9408 -1.6576 -0.7383
 4681SOL    HW225506   3.073   4.207   2.586 -2.1194  1.1211 -1.7064
 4682SOL     OW25507   2.739   0.239   5.382 -0.4427  0.3531  0.4250
 4682SOL    HW125508   2.659   0.205   5.423 -1.7734  0.6426 -1.9219
 4682SOL    HW225509   2.751   0.317   5.436  1.1140 -1.2898  2.4359
 4683SOL     OW25510   3.579   1.507  12.522  0.3799  0.0337  0.1548
 4683SOL    HW125511   3.634   1.506  12.444 -1.8984  0.1300 -1.4626
 4683SOL    HW225512   3.550   1.417  12.534 -4.1723  1.4183 -0.4089
 4684SOL     OW25513   0.089   4.559   0.825  0.2001  0.4962 -0.6714
 4684SOL    HW125514   4.718   4.559   0.841 -0.0129 -0.2058 -1.9976
 4684SOL    HW225515   0.116   4.583   0.914  1.3035 -1.4958 -0.4833
 4685SOL     OW25516   2.298   4.647  10.732 -0.3336  0.7479 -0.1975
 4685SOL    HW125517   2.229   4.617  10.673 -0.6465  0.2661  0.4073
 4685SOL    HW225518   2.252   0.001  10.764 -0.0732  1.5559 -1.8095
 4686SOL     OW25519   2.800   3.542   2.312 -0.0895  0.5276  0.3425
 4686SOL    HW125520   2.868   3.518   2.375  0.4209  0.0208 -0.3975
 4686SOL    HW225521   2.731   3.573   2.370 -1.0044 -2.5538  0.8623
 4687SOL     OW25522   0.019   3.818   2.955 -0.5959  0.4685  0.3045
 4687SOL    HW125523   4.662   3.854   2.918 -0.3527 -0.5810 -1.2557
 4687SOL    HW225524   0.078   3.838   2.883 -0.1791 -1.2687  0.1728
 4688SOL     OW25525   3.054   3.500   8.396  0.2369 -0.0800 -0.1600
 4688SOL    HW125526   3.137   3.458   8.372  0.1924  0.5022 -1.3566
 4688SOL    HW225527   3.021   3.461   8.477  0.0778  1.7080  0.6297
 4689SOL     OW25528   3.910   4.127  10.880 -0.3768 -0.4355  0.4896
 4689SOL    HW125529   3.923   4.086  10.965  1.4874  0.1721  0.4774
 4689SOL    HW225530   3.878   4.213  10.905  1.2721  0.2223  0.3178
 4690SOL     OW25531   2.064   0.902   1.314  0.2016 -0.1136 -0.4409
 4690SOL    HW125532   2.159   0.906   1.309  0.2653  1.3861  2.0295
 4690SOL    HW225533   2.035   0.852   1.238 -1.3644  1.3703 -0.8265
 4691SOL     OW25534   3.752   0.074   9.871 -0.7231 -0.3160  0.2837
 4691SOL    HW125535   3.717   0.163   9.867 -2.0151 -0.8960 -1.8579
 4691SOL    HW225536   3.813   0.062   9.798 -1.2139 -0.8719 -0.0356
 4692SOL     OW25537   0.441   3.881   8.116 -0.8801 -0.2472  0.5506
 4692SOL    HW125538   0.428   3.898   8.023  3.2888  1.7417  0.3194
 4692SOL    HW225539   0.418   3.969   8.147  3.3705  0.7868  0.7598
 4693SOL     OW25540   4.172   2.344   6.190 -0.1188  0.4286  0.0489
 4693SOL    HW125541   4.132   2.414   6.138 -0.5211 -0.7343 -1.2225
 4693SOL    HW225542   4.222   2.296   6.123 -0.8792  0.8205 -0.7984
 4694SOL     OW25543   0.878   3.517  13.457 -0.1199 -0.5272  0.3436
 4694SOL    HW125544   0.841   3.525  13.545  0.0469  2.2805  0.1542
 4694SOL    HW225545   0.804   3.464  13.427  0.3582 -0.4910 -0.8940
 4695SOL     OW25546   4.549   1.321   4.241 -0.0635 -0.0031  0.1933
 4695SOL    HW125547   4.564   1.235   4.202 -0.1597  0.2679 -0.4386
 4695SOL    HW225548   4.607   1.386   4.203  0.5336 -0.0977  0.9413
 4696SOL     OW25549   3.183   2.645   6.631  0.6729  0.4809 -0.7928
 4696SOL    HW125550   3.169   2.556   6.662  2.5084  0.5750  0.3031
 4696SOL    HW225551   3.278   2.654   6.635  0.6402  0.3244  0.5373
 4697SOL     OW25552   3.969   0.639   5.381 -0.3457 -0.4443  0.2363
 4697SOL    HW125553   4.008   0.643   5.469 -0.9777  1.8164  0.4017
 4697SOL    HW225554   3.930   0.726   5.389  0.7508  0.1324 -0.7414
 4698SOL     OW25555   2.661   3.758  15.397 -0.1012  0.0853  0.4715
 4698SOL    HW125556   2.603   3.820  15.442 -1.5996 -0.9058 -0.1120
 4698SOL    HW225557   2.602   3.717  15.334  0.6363  1.2863 -1.0018
 4699SOL     OW25558   0.473   0.747   6.740 -0.2942  0.2779  0.4461
 4699SOL    HW125559   0.541   0.716   6.680 -2.5571  2.2200 -3.1742
 4699SOL    HW225560   0.506   0.837   6.747 -1.0390  0.6459 -0.8046
 4700SOL     OW25561   4.609   3.873   9.069 -0.1491  0.0851 -0.3625
 4700SOL    HW125562   4.672   3.896   9.137 -0.7805 -1.1268  0.6425
 4700SOL    HW225563   4.661   3.836   8.998  2.1466  0.0592  1.3383
 4701SOL     OW25564   3.345   2.346  11.669 -0.3785  0.6059  0.1283
 4701SOL    HW125565   3.284   2.366  11.597 -0.0568  0.3458 -0.2172
 4701SOL    HW225566   3.429   2.372  11.631  0.3362 -0.9843  0.6355
 4702SOL     OW25567   2.516   4.312   5.012  0.1369 -0.5554  0.0943
 4702SOL    HW125568   2.446   4.251   5.034 -1.6560  0.6182 -2.4101
 4702SOL    HW225569   2.562   4.262   4.944  0.6767 -0.5619  0.4655
 4703SOL     OW25570   2.459   0.996   3.711  0.0226  0.4329  0.3270
 4703SOL    HW125571   2.372   0.961   3.731 -0.7142  2.5331  0.7659
 4703SOL    HW225572   2.459   1.004   3.616 -0.3665 -1.4425  0.1582
 4704SOL     OW25573   0.381   1.066   7.032  0.1796 -0.0211  0.1059
 4704SOL    HW125574   0.469   1.062   7.068  0.4509  0.6001 -0.5026
 4704SOL    HW225575   0.354   0.975   7.024 -1.0844  0.4724 -1.2066
 4705SOL     OW25576   1.344   1.362   7.182 -0.3335 -0.3671  0.1284
 4705SOL    HW125577   1.423   1.331   7.137 -0.6730 -1.1955  0.1088
 4705SOL    HW225578   1.375   1.375   7.272 -2.0998 -1.1511  0.8421
 4706SOL     OW25579   0.554   3.545   1.450  0.4831  0.1940 -0.1703
 4706SOL    HW125580   0.545   3.638   1.429 -2.0927 -0.1523 -0.6526
 4706SOL    HW225581   0.528   3.498   1.371 -0.3354 -2.8315  1.8866
 4707SOL     OW25582   1.562   0.862   3.216 -0.2170  0.5730  0.0651
 4707SOL    HW125583   1.654   0.887   3.209  0.8904 -3.3346  0.7062
 4707SOL    HW225584   1.548   0.893   3.306 -0.1610 -1.3417  0.7265
 4708SOL     OW25585   1.160   3.344  13.226  0.0099  0.5678 -0.8269
 4708SOL    HW125586   1.238   3.323  13.174 -0.4454 -1.6210 -0.6339
 4708SOL    HW225587   1.112   3.269  13.190 -0.1619  0.0923  0.4166
 4709SOL     OW25588   3.859   1.714   8.051  0.2261  0.4185 -0.3026
 4709SOL    HW125589   3.892   1.797   8.086  1.3425 -0.1358 -0.0332
 4709SOL    HW225590   3.783   1.696   8.105 -0.8183 -0.6091 -2.0980
 4710SOL     OW25591   0.049   4.107   6.317 -0.3357  0.1098  0.3483
 4710SOL    HW125592   0.046   4.021   6.274 -2.0984 -0.8359  2.3676
 4710SOL    HW225593   0.115   4.086   6.384  0.2345 -0.8883 -0.5280
 4711SOL     OW25594   0.625   1.764   9.865  0.4230  0.6757 -0.0262
 4711SOL    HW125595   0.691   1.704   9.897  0.3584  0.7044  0.1601
 4711SOL    HW225596   0.631   1.839   9.924  0.1744 -1.4861  2.7423
 4712SOL     OW25597   4.132   1.889  17.068 -0.1405 -0.2349 -0.1705
 4712SOL    HW125598   4.062   1.839  17.027 -1.0431 -0.8969  2.2051
 4712SOL    HW225599   4.130   1.973  17.022 -0.5801  1.1014  2.3016
 4713SOL     OW25600   3.624   3.045   1.452  0.4671 -0.4960 -0.5808
 4713SOL    HW125601   3.637   3.030   1.545 -0.8792 -1.0902 -0.4791
 4713SOL    HW225602   3.639   3.139   1.444  0.5880 -0.4523  0.2190
 4714SOL     OW25603   1.770   0.072   6.743 -0.1676  0.2537 -0.1760
 4714SOL    HW125604   1.689   0.025   6.763  1.3047 -2.3156 -0.2438
 4714SOL    HW225605   1.775   0.130   6.819  0.1122 -0.6964  0.5311
 4715SOL     OW25606   1.196   4.567  10.406  0.2780  1.2490 -0.0971
 4715SOL    HW125607   1.202   4.662  10.413  0.5377  1.0127  2.7646
 4715SOL    HW225608   1.122   4.556  10.346 -0.6260  1.8546  0.9196
 4716SOL     OW25609   0.498   4.678  10.615  0.0854  0.2012 -0.7792
 4716SOL    HW125610   0.505   0.028  10.553  0.4700  1.1538  0.3970
 4716SOL    HW225611   0.403   4.682  10.630  0.3805 -1.5915  1.5051
 4717SOL     OW25612   0.925   1.617   8.405 -0.2007  0.0299  0.0359
 4717SOL    HW125613   0.971   1.645   8.326  0.6123  0.7123  0.7560
 4717SOL    HW225614   0.999   1.577   8.450  0.5974 -0.7993 -2.0147
 4718SOL     OW25615   0.299   0.945  15.805  0.0982  0.6979  0.0949
 4718SOL    HW125616   0.206   0.961  15.817 -0.1910  1.3389 -2.9964
 4718SOL    HW225617   0.300   0.868  15.748  0.5956 -0.2328  1.3593
 4719SOL     OW25618   3.156   0.773   2.636 -0.6361  0.2886  0.2002
 4719SOL    HW125619   3.153   0.769   2.540 -1.5425  2.0154  0.1576
 4719SOL    HW225620   3.250   0.781   2.648 -0.6422  0.4439  0.1455
 4720SOL     OW25621   0.866   4.688   5.872 -0.2603 -0.0026  0.0340
 4720SOL    HW125622   0.951   4.646   5.882 -0.6031 -0.3473  1.4484
 4720SOL    HW225623   0.879   0.059   5.860  0.5767  0.0165  1.1069
 4721SOL     OW25624   0.052   4.253   1.577 -0.1833  0.5058 -0.6549
 4721SOL    HW125625   0.078   4.233   1.667 -0.7389  2.4778 -0.0583
 4721SOL    HW225626   0.053   4.164   1.541  0.7191  0.4153 -0.4048
 4722SOL     OW25627   4.455   3.874   8.381  0.4714 -0.1009  0.0575
 4722SOL    HW125628   4.523   3.894   8.317 -0.2625 -1.2095 -1.0617
 4722SOL    HW225629   4.467   3.941   8.448 -1.6323  1.9444 -1.5807
 4723SOL     OW25630   1.271   0.822  12.470 -0.8061  0.2708 -0.4241
 4723SOL    HW125631   1.269   0.793  12.561  0.0273  0.7543 -0.2484
 4723SOL    HW225632   1.210   0.766  12.422  0.2186  1.5532 -3.1881
 4724SOL     OW25633   3.576   1.516   2.318  0.1851 -0.0771 -0.6069
 4724SOL    HW125634   3.484   1.526   2.292  0.3195  0.1309 -1.0092
 4724SOL    HW225635   3.571   1.561   2.402  0.7977  0.7003 -0.9798
 4725SOL     OW25636   2.931   0.149  16.315 -0.0511 -0.3287 -0.2927
 4725SOL    HW125637   2.868   0.186  16.377  0.1880  0.6630 -0.6559
 4725SOL    HW225638   3.013   0.182  16.351 -0.3207 -0.3909  0.3876
 4726SOL     OW25639   3.726   1.600  14.565 -0.0111  0.0531 -0.5092
 4726SOL    HW125640   3.809   1.562  14.594 -1.5250 -2.4984  0.4514
 4726SOL    HW225641   3.721   1.545  14.487  1.5995 -1.1325  0.2273
 4727SOL     OW25642   1.132   4.078   8.025 -0.0188  0.3774 -0.3703
 4727SOL    HW125643   1.045   4.083   8.065  0.1006 -0.2154 -0.0200
 4727SOL    HW225644   1.178   4.085   8.109  2.1199 -1.6149 -1.3497
 4728SOL     OW25645   1.269   3.561   7.449 -0.6251 -0.3968  0.1182
 4728SOL    HW125646   1.266   3.503   7.525 -1.2984 -0.8000 -0.2170
 4728SOL    HW225647   1.187   3.541   7.405  0.7263 -2.2692 -1.5161
 4729SOL     OW25648   1.845   2.484   4.750  0.4872  0.1872  0.1718
 4729SOL    HW125649   1.895   2.550   4.702 -0.0415  1.9699  2.0519
 4729SOL    HW225650   1.910   2.418   4.777 -0.7835 -0.6670  1.1432
 4730SOL     OW25651   1.886   0.853   2.003 -0.2080  0.6122 -0.3709
 4730SOL    HW125652   1.957   0.910   1.972 -1.0437  1.5670 -0.5312
 4730SOL    HW225653   1.868   0.883   2.092 -0.9791 -3.7087  0.9508
 4731SOL     OW25654   4.201   3.818   4.188 -0.3056 -0.2859  0.3947
 4731SOL    HW125655   4.265   3.883   4.216 -2.0613  0.9604  1.5539
 4731SOL    HW225656   4.160   3.868   4.117 -1.5553 -1.9505 -0.0677
 4732SOL     OW25657   2.917   2.667  15.819  0.3106 -0.2517 -0.4799
 4732SOL    HW125658   2.863   2.692  15.744  0.7316  2.1209 -0.0071
 4732SOL    HW225659   2.874   2.586  15.847 -1.8968  0.9906 -0.3195
 4733SOL     OW25660   3.959   1.978  10.250 -0.8318 -0.6193 -0.8857
 4733SOL    HW125661   4.038   1.976  10.198 -1.3274  0.9082 -1.6914
 4733SOL    HW225662   4.001   1.955  10.333 -0.9730 -0.4679 -0.7716
 4734SOL     OW25663   3.780   2.677   3.897 -0.4291 -0.3530  0.1701
 4734SOL    HW125664   3.850   2.622   3.931  1.4043  1.8739  0.0040
 4734SOL    HW225665   3.827   2.753   3.862  2.3599 -3.5866 -3.0552
 4735SOL     OW25666   2.252   2.434   3.499 -0.1592  0.2636 -0.0755
 4735SOL    HW125667   2.196   2.401   3.569 -1.0945  1.5075 -0.2297
 4735SOL    HW225668   2.337   2.414   3.539 -0.9690  0.9521  1.9642
 4736SOL     OW25669   2.038   4.395  14.216 -0.1148 -0.5450  0.2816
 4736SOL    HW125670   2.034   4.390  14.120 -2.7942  0.1050  0.3449
 4736SOL    HW225671   2.026   4.301  14.235 -0.2301 -0.4607  0.6300
 4737SOL     OW25672   1.091   1.978   8.254  0.9160  0.2742  0.1018
 4737SOL    HW125673   1.098   1.946   8.343 -1.7105 -1.7004 -0.4129
 4737SOL    HW225674   1.112   2.070   8.270  0.4818  0.3003  0.4987
 4738SOL     OW25675   0.119   3.678   0.634  0.3217  0.0485 -0.0063
 4738SOL    HW125676   0.035   3.723   0.643  0.5870  0.6242 -0.4308
 4738SOL    HW225677   0.086   3.602   0.587  2.3733 -1.4505  0.9831
 4739SOL     OW25678   3.750   1.576   7.188  0.6163 -0.2425 -0.2622
 4739SOL    HW125679   3.714   1.499   7.144 -0.0086  0.5197 -1.0798
 4739SOL    HW225680   3.742   1.535   7.274  1.6650 -1.5068 -0.7655
 4740SOL     OW25681   0.389   1.031  10.316 -0.5315 -0.0378 -0.2438
 4740SOL    HW125682   0.397   1.022  10.221  0.9438 -2.3186  0.1104
 4740SOL    HW225683   0.295   1.036  10.332 -0.7788 -1.1904 -1.3348
 4741SOL     OW25684   3.563   1.332   7.325  0.4411 -0.5904  0.1407
 4741SOL    HW125685   3.632   1.271   7.351 -1.3365 -2.8670 -0.5030
 4741SOL    HW225686   3.525   1.285   7.251  0.7563  1.6822 -1.4744
 4742SOL     OW25687   0.574   4.309   4.024  0.5559 -0.1890  0.1956
 4742SOL    HW125688   0.613   4.340   3.942 -1.1831 -0.4019 -0.7115
 4742SOL    HW225689   0.652   4.276   4.067 -0.8435 -0.8005  2.2605
 4743SOL     OW25690   3.141   0.416   7.745  0.5152 -0.2804 -0.4909
 4743SOL    HW125691   3.105   0.381   7.663 -1.1348  0.4004 -0.0604
 4743SOL    HW225692   3.235   0.411   7.729  0.6682  1.6170 -0.2402
 4744SOL     OW25693   1.752   0.329   5.909 -0.5961 -0.4626 -0.7088
 4744SOL    HW125694   1.705   0.406   5.940 -0.0143 -0.3248 -0.1734
 4744SOL    HW225695   1.766   0.285   5.993 -0.3624 -0.2320 -0.6295
 4745SOL     OW25696   1.857   1.699  11.077  0.2181  0.5400 -0.0100
 4745SOL    HW125697   1.776   1.747  11.095 -1.0951 -1.4787 -0.6033
 4745SOL    HW225698   1.847   1.620  11.129  0.3252  0.5389  0.0077
 4746SOL     OW25699   2.158   2.234   8.917  0.2969  0.4613 -0.2828
 4746SOL    HW125700   2.119   2.274   8.995  2.7098  0.5603  0.8753
 4746SOL    HW225701   2.247   2.267   8.915 -0.7872  3.3636 -0.3268
 4747SOL     OW25702   3.255   0.228   0.489 -0.2789 -0.1886 -0.2491
 4747SOL    HW125703   3.215   0.266   0.567  0.0565 -1.5958  0.6027
 4747SOL    HW225704   3.320   0.294   0.464  1.1533 -2.5713 -2.7488
 4748SOL     OW25705   4.374   2.215  12.857 -0.2767 -0.0418 -0.1369
 4748SOL    HW125706   4.394   2.284  12.920 -1.0976 -1.1175  1.3037
 4748SOL    HW225707   4.328   2.278  12.802  0.3045  0.7502  0.2857
 4749SOL     OW25708   1.801   3.329  14.913 -0.2985  0.1250 -0.4718
 4749SOL    HW125709   1.767   3.414  14.942 -1.3906 -0.2506 -0.6806
 4749SOL    HW225710   1.764   3.272  14.980 -0.6918  1.7680  0.6930
 4750SOL     OW25711   2.881   0.754   4.633 -0.0408  0.2418  0.0962
 4750SOL    HW125712   2.846   0.773   4.719  0.2708  1.2938 -0.0040
 4750SOL    HW225713   2.930   0.671   4.638 -2.5277 -1.1258  1.3753
 4751SOL     OW25714   2.100   0.390  16.494 -0.1728  0.2102 -0.0571
 4751SOL    HW125715   2.196   0.395  16.502 -0.4627  1.2300  2.6059
 4751SOL    HW225716   2.079   0.301  16.523  1.7295 -1.0617 -2.4944
 4752SOL     OW25717   0.065   1.028   1.246 -0.3906 -0.1273 -0.1904
 4752SOL    HW125718   0.090   1.114   1.282 -4.7331  0.9593  0.2472
 4752SOL    HW225719   0.136   1.030   1.182  0.4822 -0.8248  0.7473
 4753SOL     OW25720   1.692   3.096   3.249  0.1702  0.3325 -0.6679
 4753SOL    HW125721   1.678   3.002   3.265  1.0447  0.0920 -1.2681
 4753SOL    HW225722   1.629   3.124   3.183  0.4468 -2.0088 -1.9409
 4754SOL     OW25723   3.872   2.035  16.839  0.3065 -0.0506  0.5832
 4754SOL    HW125724   3.942   2.067  16.896 -0.4053 -0.1592  1.5072
 4754SOL    HW225725   3.801   2.098  16.847  0.5287  0.2003  0.5998
 4755SOL     OW25726   3.790   2.909  16.268  0.0349  0.3355  0.2142
 4755SOL    HW125727   3.786   2.816  16.247  0.4680  0.4610 -0.4217
 4755SOL    HW225728   3.861   2.905  16.333  0.5706 -0.4216 -0.4056
 4756SOL     OW25729   3.961   4.477   2.899 -0.9264 -0.3776 -0.0795
 4756SOL    HW125730   3.916   4.396   2.921 -1.4454 -0.6767 -2.2839
 4756SOL    HW225731   3.958   4.518   2.985 -0.3122  0.8857 -0.6553
 4757SOL     OW25732   2.634   2.673   0.377  0.2636  0.1800  0.3807
 4757SOL    HW125733   2.686   2.754   0.378 -0.5384  0.7281 -2.2182
 4757SOL    HW225734   2.638   2.650   0.284 -0.3854  0.2064  0.3458
 4758SOL     OW25735   1.932   2.834   6.768 -0.3528 -0.8991  0.2474
 4758SOL    HW125736   1.898   2.765   6.711 -1.7639  0.3108 -0.3926
 4758SOL    HW225737   2.026   2.816   6.766 -0.1585 -0.1759  3.6520
 4759SOL     OW25738   4.701   4.401   8.356  0.1941 -0.4468 -0.0029
 4759SOL    HW125739   4.618   4.391   8.402 -0.0388  0.2835 -0.2595
 4759SOL    HW225740   4.665   4.399   8.268  1.6779 -0.9297 -0.6067
 4760SOL     OW25741   0.754   4.227   6.327 -0.4241  0.2805 -0.0475
 4760SOL    HW125742   0.736   4.179   6.408 -0.8568  0.1994 -0.1859
 4760SOL    HW225743   0.794   4.305   6.364 -0.7605 -0.1387  1.2042
 4761SOL     OW25744   4.320   0.174   7.978  1.0222  0.4059  0.1795
 4761SOL    HW125745   4.348   0.082   7.980  1.4030  0.4987 -1.2134
 4761SOL    HW225746   4.350   0.203   7.892 -1.9032  1.9013 -0.3348
 4762SOL     OW25747   1.126   3.875   4.329  0.1415 -0.1242 -0.4380
 4762SOL    HW125748   1.118   3.795   4.380  0.4829  0.1812  0.0901
 4762SOL    HW225749   1.117   3.946   4.392  0.7067 -1.1897  0.8422
 4763SOL     OW25750   1.663   0.411   4.646  0.0777 -0.0660  0.1115
 4763SOL    HW125751   1.650   0.486   4.704 -0.0253  0.4974 -0.6366
 4763SOL    HW225752   1.736   0.441   4.591  1.1552 -1.9677  0.4766
 4764SOL     OW25753   2.394   3.380  13.421 -0.4721 -0.5945  0.6617
 4764SOL    HW125754   2.428   3.463  13.386  0.8076 -1.3610  0.0995
 4764SOL    HW225755   2.378   3.401  13.513  1.6361  2.2337  0.4062
 4765SOL     OW25756   2.495   1.489   6.887  0.0206 -0.0094 -0.4732
 4765SOL    HW125757   2.513   1.452   6.800 -0.2191  1.8116 -1.3030
 4765SOL    HW225758   2.459   1.410   6.927  0.2202 -0.7538 -1.7569
 4766SOL     OW25759   3.255   3.687   4.522  0.1779  0.3272 -0.1747
 4766SOL    HW125760   3.321   3.658   4.584 -1.2871  0.6734  1.5574
 4766SOL    HW225761   3.268   3.779   4.546 -0.4068 -0.0040  1.3582
 4767SOL     OW25762   2.565   3.151   8.215 -0.0586  0.0349  0.3380
 4767SOL    HW125763   2.622   3.116   8.283  0.2941 -0.5028 -0.2319
 4767SOL    HW225764   2.605   3.108   8.140  0.1396  0.9034 -0.0491
 4768SOL     OW25765   1.879   4.261   5.685 -0.3864 -0.0608 -0.5818
 4768SOL    HW125766   1.936   4.219   5.620 -0.3934  0.1172 -0.7032
 4768SOL    HW225767   1.799   4.209   5.689 -0.2015 -0.4062 -1.3561
 4769SOL     OW25768   2.533   2.315   9.655  0.1380 -0.2218  0.7426
 4769SOL    HW125769   2.530   2.406   9.627 -0.4085  0.1650  2.0621
 4769SOL    HW225770   2.496   2.318   9.744 -1.0655 -0.7071  0.2596
 4770SOL     OW25771   3.810   1.827   3.520  0.2434  0.4441 -0.2139
 4770SOL    HW125772   3.731   1.852   3.568 -0.9045  0.9602 -2.3675
 4770SOL    HW225773   3.777   1.741   3.494  0.4928  0.2913 -0.0234
 4771SOL     OW25774   3.865   3.194   2.532  0.3269 -0.4562 -0.4145
 4771SOL    HW125775   3.910   3.261   2.583  0.1442 -1.7191  1.4278
 4771SOL    HW225776   3.785   3.239   2.506 -0.1788 -0.2536  1.5408
 4772SOL     OW25777   1.237   0.366   2.002  0.3459 -0.2559 -0.9163
 4772SOL    HW125778   1.164   0.312   1.973 -2.7898  3.1161  0.5147
 4772SOL    HW225779   1.291   0.379   1.924  0.3692 -1.2370 -1.0559
 4773SOL     OW25780   4.709   3.926  13.831 -0.0850  0.1457  0.0845
 4773SOL    HW125781   0.030   4.003  13.796  0.9633  0.4112  2.0022
 4773SOL    HW225782   0.052   3.862  13.805  0.4575  1.0395 -0.7463
 4774SOL     OW25783   3.310   3.947   4.573  0.4084 -0.0923  0.6147
 4774SOL    HW125784   3.291   4.028   4.525 -1.1190  0.9772  3.0249
 4774SOL    HW225785   3.305   3.983   4.662  0.5560  1.2098  0.1003
 4775SOL     OW25786   2.330   4.607   6.565 -0.2444 -0.3234  0.1670
 4775SOL    HW125787   2.260   4.645   6.512 -1.0328 -1.1438  0.6222
 4775SOL    HW225788   2.401   4.667   6.540 -1.0144 -0.0168 -1.2844
 4776SOL     OW25789   0.559   0.547   7.094  0.5973 -0.1814  0.9782
 4776SOL    HW125790   0.616   0.493   7.149  0.6618 -1.4541 -0.3230
 4776SOL    HW225791   0.617   0.619   7.068  1.1979 -0.5291  1.3699
 4777SOL     OW25792   1.733   4.031   6.685  0.9022 -0.0831  0.5889
 4777SOL    HW125793   1.768   4.078   6.761  2.5008 -0.2244 -0.0550
 4777SOL    HW225794   1.752   4.101   6.623  1.4385 -0.3896  0.4018
 4778SOL     OW25795   1.404   3.988  11.925 -0.4613  0.2736 -0.0739
 4778SOL    HW125796   1.491   3.956  11.901 -0.9765 -1.3660  0.2583
 4778SOL    HW225797   1.375   3.934  11.998  0.9076 -2.2831 -1.4243
 4779SOL     OW25798   2.920   3.743   3.579  1.0271 -1.1349 -0.8392
 4779SOL    HW125799   2.890   3.796   3.505 -1.8090  2.3253  2.8376
 4779SOL    HW225800   2.973   3.673   3.540  1.6789 -1.4765  0.6736
 4780SOL     OW25801   0.116   3.731  15.935  0.0699  0.6790  0.6666
 4780SOL    HW125802   0.045   3.669  15.948 -0.7632  0.9808 -2.4349
 4780SOL    HW225803   0.158   3.709  15.852  2.9453 -0.1617  2.3517
 4781SOL     OW25804   4.278   1.849   7.093 -0.0847  0.4992 -0.9301
 4781SOL    HW125805   4.248   1.779   7.151  1.7981  0.4118 -0.0924
 4781SOL    HW225806   4.373   1.838   7.093  0.2245  2.9700  1.7463
 4782SOL     OW25807   1.268   4.057   6.898  0.4880  0.1071 -0.2480
 4782SOL    HW125808   1.213   4.086   6.825  0.5183  0.5968 -0.0785
 4782SOL    HW225809   1.206   4.075   6.969  0.1285 -2.8287  0.1816
 4783SOL     OW25810   2.436   4.057   3.936  0.3038  0.0221 -0.2814
 4783SOL    HW125811   2.525   4.047   3.905  0.3134  0.0668 -0.2682
 4783SOL    HW225812   2.403   3.990   3.876 -1.6143 -0.0248  0.8246
 4784SOL     OW25813   3.190   0.415  12.147 -0.3133 -0.0043 -0.2731
 4784SOL    HW125814   3.169   0.323  12.130  1.4136 -0.3758 -0.3886
 4784SOL    HW225815   3.178   0.414  12.242  0.1832  0.9603 -0.1975
 4785SOL     OW25816   1.785   3.138  12.338  0.3118  0.1938 -0.2250
 4785SOL    HW125817   1.759   3.124  12.247  0.3331  1.9534 -0.5100
 4785SOL    HW225818   1.727   3.212  12.357  0.0243 -0.0034 -0.3349
 4786SOL     OW25819   1.856   3.846  11.647 -0.3367  0.0121 -0.7924
 4786SOL    HW125820   1.884   3.937  11.656  1.5318 -0.6037 -0.3480
 4786SOL    HW225821   1.790   3.846  11.578 -0.6551  0.5325 -0.4884
 4787SOL     OW25822   1.296   1.148   1.597  0.1603  0.4643  0.1212
 4787SOL    HW125823   1.374   1.143   1.543 -0.2889  1.1749 -0.5948
 4787SOL    HW225824   1.324   1.202   1.671  1.9869  0.8362 -0.8477
 4788SOL     OW25825   2.838   1.433   4.223 -0.1190  1.2087  0.5112
 4788SOL    HW125826   2.756   1.471   4.254  0.0749  2.1977 -0.1831
 4788SOL    HW225827   2.874   1.400   4.306  0.4022  0.7370  0.0998
 4789SOL     OW25828   2.641   0.608   1.611 -0.1648  0.1883 -0.2805
 4789SOL    HW125829   2.622   0.649   1.695  0.9543  0.5010 -0.1792
 4789SOL    HW225830   2.685   0.683   1.571  2.7335 -1.9928 -1.1610
 4790SOL     OW25831   2.382   3.057   9.059  0.2155  0.5174 -0.2097
 4790SOL    HW125832   2.331   3.134   9.033 -1.7758  0.4519  3.4988
 4790SOL    HW225833   2.412   3.077   9.147  2.1508  0.9916 -0.9740
 4791SOL     OW25834   3.580   4.330   8.876  0.1907  0.4629  0.2521
 4791SOL    HW125835   3.618   4.281   8.803 -2.2719  1.0183 -1.4189
 4791SOL    HW225836   3.566   4.255   8.933  0.5470  0.6889  0.6301
 4792SOL     OW25837   1.026   0.245  11.869 -0.2212  0.7634  0.1582
 4792SOL    HW125838   1.021   0.214  11.960  0.8761  0.6158  0.1712
 4792SOL    HW225839   1.116   0.279  11.870  0.5098 -1.1260 -0.8144
 4793SOL     OW25840   1.605   2.857   7.597 -0.0455 -0.5707 -0.3709
 4793SOL    HW125841   1.622   2.846   7.504  0.4124  0.9145 -0.4660
 4793SOL    HW225842   1.694   2.851   7.632 -0.6825 -2.5952  0.9191
 4794SOL     OW25843   2.036   3.135   5.091  0.5382 -0.5553  0.4009
 4794SOL    HW125844   2.014   3.217   5.048 -0.2379 -0.9005  0.1559
 4794SOL    HW225845   1.972   3.130   5.162  2.5102  1.0854  2.2878
 4795SOL     OW25846   3.462   4.670   4.716  0.6459  0.5532 -0.0286
 4795SOL    HW125847   3.390   4.607   4.724  1.0116  0.0727 -0.5594
 4795SOL    HW225848   3.427   0.010   4.779 -0.5684 -0.4761  0.3484
 4796SOL     OW25849   2.554   0.182   6.654 -0.3309 -0.2240  0.5217
 4796SOL    HW125850   2.509   0.140   6.580 -0.8794  0.8806  0.2172
 4796SOL    HW225851   2.502   0.262   6.660  2.2797  1.7052 -2.1549
 4797SOL     OW25852   2.010   1.307   5.679  0.7036  0.2311 -0.3595
 4797SOL    HW125853   1.992   1.226   5.728  0.6065  0.3782 -0.1519
 4797SOL    HW225854   1.932   1.360   5.691 -0.6261 -1.6291 -0.8944
 4798SOL     OW25855   0.122   3.234  11.602  0.6121  0.0462  0.2521
 4798SOL    HW125856   0.182   3.172  11.561  0.0284 -1.2885  1.4205
 4798SOL    HW225857   0.036   3.197  11.581  1.2500 -3.3653  3.6173
 4799SOL     OW25858   1.535   0.895  12.064  0.3946 -0.3360 -0.2937
 4799SOL    HW125859   1.521   0.981  12.105 -0.8387 -0.4468 -0.4718
 4799SOL    HW225860   1.506   0.850  12.144 -0.5457 -0.4721 -0.7109
 4800SOL     OW25861   2.269   2.834   9.941 -0.1725 -0.6709  0.1513
 4800SOL    HW125862   2.237   2.808   9.855 -0.8386  0.0993  0.1604
 4800SOL    HW225863   2.345   2.778   9.952  0.4860  0.3219  0.7364
 4801SOL     OW25864   4.583   4.029   1.663  0.6152 -0.2926  0.3279
 4801SOL    HW125865   4.494   3.998   1.648  0.8718 -0.4860 -0.7981
 4801SOL    HW225866   4.580   4.021   1.758  2.2052  3.4143  0.6976
 4802SOL     OW25867   2.086   2.477  16.449  0.3316 -0.0360 -0.1894
 4802SOL    HW125868   2.114   2.482  16.541 -0.1710 -1.0629  0.0174
 4802SOL    HW225869   2.056   2.391  16.421 -1.1433  0.4628 -0.1421
 4803SOL     OW25870   3.038   1.749   2.809  0.0286 -0.1479  0.3867
 4803SOL    HW125871   3.082   1.788   2.885  1.1870  1.1808 -0.9534
 4803SOL    HW225872   3.005   1.667   2.845 -0.8568 -0.8706 -2.0625
 4804SOL     OW25873   3.528   2.451   3.949  0.2767  0.4868 -0.5569
 4804SOL    HW125874   3.558   2.425   4.036 -1.1944  0.7827  0.0451
 4804SOL    HW225875   3.496   2.369   3.911 -2.0089  0.9918  0.2994
 4805SOL     OW25876   2.733   0.094  17.626 -0.0714 -0.3998  0.1320
 4805SOL    HW125877   2.712   0.107   0.021  1.0743 -1.3026  0.5266
 4805SOL    HW225878   2.825   0.122  17.626  0.1976 -1.2237 -2.0366
 4806SOL     OW25879   3.857   1.386   9.454  0.2967 -0.0787 -0.3124
 4806SOL    HW125880   3.829   1.413   9.367  1.9895 -0.7378 -1.0395
 4806SOL    HW225881   3.786   1.323   9.464  0.7692 -0.7443 -1.2879
 4807SOL     OW25882   2.518   0.519   5.850  0.2156 -0.3626 -0.1078
 4807SOL    HW125883   2.513   0.548   5.941  1.4099 -0.8738  0.1194
 4807SOL    HW225884   2.426   0.501   5.832 -0.2572  1.6425  0.2315
 4808SOL     OW25885   3.322   2.267   3.607 -0.6769 -0.9639  0.1711
 4808SOL    HW125886   3.264   2.191   3.600 -2.1055  0.1030  0.4838
 4808SOL    HW225887   3.275   2.325   3.547  1.2973 -0.1789 -0.6181
 4809SOL     OW25888   4.136   4.183   5.577 -0.2292  0.4630  0.9019
 4809SOL    HW125889   4.091   4.112   5.531  0.1157 -0.4977  2.0494
 4809SOL    HW225890   4.136   4.150   5.667 -1.6628  1.8484  1.4196
 4810SOL     OW25891   1.872   2.867  15.002 -0.6974  0.6274 -0.2012
 4810SOL    HW125892   1.885   2.917  15.083 -0.0002  1.0314 -0.5571
 4810SOL    HW225893   1.936   2.798  15.017 -1.6848  0.0913  1.4590
 4811SOL     OW25894   1.126   0.811   8.382  0.0592 -0.6995 -0.4488
 4811SOL    HW125895   1.056   0.771   8.434 -1.3935  1.0582 -1.0544
 4811SOL    HW225896   1.129   0.897   8.424 -4.3730 -0.4882 -0.6155
 4812SOL     OW25897   2.395   1.133  16.656 -0.6268 -0.0843 -0.9777
 4812SOL    HW125898   2.403   1.076  16.733 -1.8499  2.1519  0.7899
 4812SOL    HW225899   2.487   1.157  16.647 -1.1656  1.2150 -3.0126
 4813SOL     OW25900   3.293   4.569  10.634  0.5752  0.8209 -0.7733
 4813SOL    HW125901   3.258   4.577  10.545  1.6204 -1.3993 -1.3910
 4813SOL    HW225902   3.216   4.548  10.687 -0.0118  0.8536 -1.6189
 4814SOL     OW25903   4.366   1.593   8.007  0.2264  0.5743 -0.1117
 4814SOL    HW125904   4.298   1.626   7.948  1.6851  3.8513  0.0295
 4814SOL    HW225905   4.414   1.525   7.959  0.1299 -0.0994  0.7395
 4815SOL     OW25906   1.523   0.356  13.011 -0.3937 -0.6564 -0.0951
 4815SOL    HW125907   1.539   0.388  13.099 -1.0698  0.6754 -0.4570
 4815SOL    HW225908   1.514   0.262  13.026 -2.1468 -0.5002 -0.1215
 4816SOL     OW25909   3.077   2.994  11.705 -0.5973  0.0751 -0.2860
 4816SOL    HW125910   3.165   2.956  11.700  0.2973  2.1398 -0.1354
 4816SOL    HW225911   3.022   2.928  11.661  0.0471 -0.2951 -0.5289
 4817SOL     OW25912   3.236   2.370   9.871 -0.0223  0.2450 -0.2119
 4817SOL    HW125913   3.194   2.303   9.924  0.5550  0.9745  1.2003
 4817SOL    HW225914   3.329   2.364   9.894  0.6165 -0.2983 -2.9823
 4818SOL     OW25915   1.608   2.656   7.062 -0.4165  0.1289  0.6166
 4818SOL    HW125916   1.541   2.591   7.040 -1.1501  1.7245 -1.8003
 4818SOL    HW225917   1.572   2.740   7.035 -0.8452  0.5891  2.6137
 4819SOL     OW25918   2.178   3.551   4.566 -0.2926 -0.1684  0.2361
 4819SOL    HW125919   2.267   3.556   4.600 -0.5271  1.1977  0.6572
 4819SOL    HW225920   2.142   3.483   4.623 -0.1958 -1.2310 -0.9637
 4820SOL     OW25921   1.138   3.472   6.834 -0.5027 -0.2610 -0.4754
 4820SOL    HW125922   1.177   3.548   6.877 -0.0340 -0.5600 -0.3669
 4820SOL    HW225923   1.216   3.415   6.832 -1.6825 -1.9891  1.9427
 4821SOL     OW25924   0.003   4.258   9.889  0.1887  0.1553  0.2158
 4821SOL    HW125925   0.082   4.229   9.844  0.6512  0.4391  0.8376
 4821SOL    HW225926   0.014   4.220   9.976 -2.7827 -1.1159  0.0398
 4822SOL     OW25927   3.687   4.119   7.534 -0.0662 -0.0241 -0.4563
 4822SOL    HW125928   3.762   4.154   7.582 -0.0432 -1.7420  0.7521
 4822SOL    HW225929   3.633   4.095   7.609  0.7524 -1.9652 -0.4864
 4823SOL     OW25930   1.084   4.180   6.768 -0.1636  0.6621  0.2324
 4823SOL    HW125931   0.998   4.141   6.752  0.4987 -0.0036 -1.6822
 4823SOL    HW225932   1.052   4.264   6.801 -0.3832  0.0511  1.5815
 4824SOL     OW25933   1.198   3.505   6.280 -0.1901 -0.6373  0.2432
 4824SOL    HW125934   1.190   3.577   6.218  0.5990 -1.7711 -1.1782
 4824SOL    HW225935   1.175   3.435   6.218 -0.3837 -1.9390  1.7828
 4825SOL     OW25936   4.288   0.693   4.922 -0.0299 -0.1260 -0.3463
 4825SOL    HW125937   4.306   0.673   4.830 -1.7741 -1.1286 -0.4667
 4825SOL    HW225938   4.196   0.671   4.934  0.9346 -2.2228  3.3294
 4826SOL     OW25939   0.464   4.147  17.374 -0.0339  0.3310  0.1549
 4826SOL    HW125940   0.446   4.098  17.294 -1.5122  0.6652  0.2925
 4826SOL    HW225941   0.488   4.230  17.334 -0.1780  0.5064  0.4278
 4827SOL     OW25942   4.680   3.710   8.448  0.0743  0.8603 -0.3803
 4827SOL    HW125943   4.657   3.618   8.443  2.5508  0.2086  0.0999
 4827SOL    HW225944   4.601   3.740   8.402  0.5633  2.7953  0.0350
 4828SOL     OW25945   2.117   1.480   1.051  0.8674 -0.2417  0.1561
 4828SOL    HW125946   2.058   1.487   1.126 -0.4621  0.3744 -0.9362
 4828SOL    HW225947   2.104   1.386   1.042  1.8582 -0.4275  0.7129
 4829SOL     OW25948   0.822   0.972  14.291  0.7960 -0.5768  0.0698
 4829SOL    HW125949   0.755   1.026  14.334  1.7467 -0.5747  1.5654
 4829SOL    HW225950   0.876   0.947  14.366 -0.8118  0.5391  1.6157
 4830SOL     OW25951   0.585   4.021   5.462 -0.4783 -0.3901  0.5577
 4830SOL    HW125952   0.583   4.065   5.547  0.0889 -0.4641  0.6118
 4830SOL    HW225953   0.669   4.051   5.427 -1.5564  1.1378 -0.6934
 4831SOL     OW25954   1.024   3.647   9.286  0.0113 -0.5139  0.2418
 4831SOL    HW125955   1.096   3.654   9.348 -0.0200 -1.0942  0.3412
 4831SOL    HW225956   1.018   3.552   9.280 -0.1346 -0.5555  1.1086
 4832SOL     OW25957   4.263   2.008   3.212 -0.3245  0.0181  0.4739
 4832SOL    HW125958   4.230   2.062   3.140  0.2049  1.2487  1.1613
 4832SOL    HW225959   4.313   1.944   3.161 -1.1732  0.1414 -0.5314
 4833SOL     OW25960   3.298   0.576   4.636  0.2820 -0.2192  0.2322
 4833SOL    HW125961   3.322   0.659   4.595 -2.4060  1.2469  1.6843
 4833SOL    HW225962   3.209   0.550   4.612  0.7289 -1.8098  0.2867
 4834SOL     OW25963   2.730   3.247  10.789  0.1432  0.2313  0.5845
 4834SOL    HW125964   2.797   3.280  10.730 -0.1743  1.0902  0.6960
 4834SOL    HW225965   2.729   3.323  10.847  2.1117 -0.4698  1.5288
 4835SOL     OW25966   2.164   3.420   7.643  0.8515 -0.7853  0.4314
 4835SOL    HW125967   2.112   3.396   7.566 -0.1203  1.2860  0.4447
 4835SOL    HW225968   2.196   3.334   7.671 -0.1321 -0.8991  1.2117
 4836SOL     OW25969   4.692   0.398   7.204 -0.4770 -0.2408 -0.4464
 4836SOL    HW125970   4.712   0.340   7.277 -0.5661 -1.3102 -1.2802
 4836SOL    HW225971   4.620   0.458   7.224  0.8023  1.4704 -0.9860
 4837SOL     OW25972   4.475   0.407   4.631  0.0189  0.0258  0.0470
 4837SOL    HW125973   4.446   0.324   4.592 -0.3578  0.0501  0.2722
 4837SOL    HW225974   4.396   0.423   4.683 -0.2865 -1.3160  0.0152
 4838SOL     OW25975   4.097   3.449   6.468 -0.4313 -0.1904 -0.0472
 4838SOL    HW125976   4.074   3.433   6.376  1.1116 -0.9947 -0.2880
 4838SOL    HW225977   4.162   3.383   6.494 -2.0357 -2.9306 -2.8562
 4839SOL     OW25978   0.520   2.482   6.706 -0.4630 -0.1327 -0.1840
 4839SOL    HW125979   0.565   2.504   6.787  0.1369  1.3289 -0.9090
 4839SOL    HW225980   0.437   2.452   6.744 -1.9277  0.1089 -3.1756
 4840SOL     OW25981   4.410   3.549  16.993  0.5517 -0.6697  0.1430
 4840SOL    HW125982   4.459   3.569  17.073  0.1496 -1.6454  0.6346
 4840SOL    HW225983   4.353   3.480  17.029  0.3445 -0.6575 -0.1651
 4841SOL     OW25984   3.929   0.664   0.311  0.0683 -0.2743  0.4996
 4841SOL    HW125985   3.961   0.716   0.384 -1.7442  2.3314 -0.5365
 4841SOL    HW225986   3.946   0.575   0.339 -1.9999 -0.4355  1.2259
 4842SOL     OW25987   2.621   2.253   9.011 -0.6991 -0.3311 -0.0517
 4842SOL    HW125988   2.562   2.242   9.086  0.4195 -2.3550  0.5298
 4842SOL    HW225989   2.631   2.348   9.009 -0.3151 -0.3553  1.0146
 4843SOL     OW25990   4.549   3.050   7.353 -0.8141 -0.3617  0.1864
 4843SOL    HW125991   4.491   3.125   7.360 -0.3139 -0.0513  1.0666
 4843SOL    HW225992   4.578   3.047   7.444  0.7181  0.5098 -0.2729
 4844SOL     OW25993   1.499   1.466  13.817  0.2762  0.6119 -0.3543
 4844SOL    HW125994   1.471   1.526  13.886  0.8147  0.8951 -0.3863
 4844SOL    HW225995   1.568   1.518  13.776  0.6084  1.1970  0.9622
 4845SOL     OW25996   3.954   4.176  11.618 -0.3429 -0.8662 -0.0940
 4845SOL    HW125997   3.904   4.198  11.697 -1.7714 -1.4379 -0.8358
 4845SOL    HW225998   3.882   4.141  11.565 -0.5021 -0.9323  0.1653
 4846SOL     OW25999   0.463   3.800  13.657 -0.4264  0.4583  0.2660
 4846SOL    HW126000   0.492   3.891  13.653 -1.5197  0.7529 -0.9565
 4846SOL    HW226001   0.528   3.760  13.600  0.1983  2.0455 -0.1271
 4847SOL     OW26002   3.911   1.725   0.938  0.3341  0.0210 -0.3005
 4847SOL    HW126003   3.993   1.774   0.929  0.0189  0.5809 -0.1274
 4847SOL    HW226004   3.870   1.779   1.006  2.1458  2.1327 -0.8773
 4848SOL     OW26005   1.794   1.562   7.675 -0.0314 -0.1263 -0.4307
 4848SOL    HW126006   1.717   1.597   7.720 -0.4080  0.2686 -1.3921
 4848SOL    HW226007   1.783   1.467   7.683  3.9896 -0.5468  0.1970
 4849SOL     OW26008   2.066   0.668   5.053  0.8385 -0.2650  0.1661
 4849SOL    HW126009   2.062   0.764   5.050 -1.5488 -0.3113  1.8214
 4849SOL    HW226010   2.109   0.658   4.968  0.2040 -0.7595 -0.0985
 4850SOL     OW26011   2.069   0.644   8.213  0.5117  1.3491 -0.1034
 4850SOL    HW126012   2.055   0.630   8.307  0.2382 -1.0747 -0.5200
 4850SOL    HW226013   2.090   0.556   8.183 -2.4778  1.2030 -1.7164
 4851SOL     OW26014   2.718   3.915   8.615 -0.3513  0.3222 -0.4311
 4851SOL    HW126015   2.723   3.831   8.570  1.0046 -0.6183  1.4816
 4851SOL    HW226016   2.625   3.910   8.638 -0.2226 -0.6305 -0.1132
 4852SOL     OW26017   0.928   0.036   7.730 -0.9603 -0.1511 -0.3078
 4852SOL    HW126018   0.934   4.682   7.785  1.8112 -0.0598 -0.4883
 4852SOL    HW226019   0.939   4.719   7.645 -2.8890  0.2252 -0.7402
 4853SOL     OW26020   4.459   1.997   3.652 -0.1042 -0.2058 -0.4606
 4853SOL    HW126021   4.516   2.013   3.576 -0.5244 -0.4992 -0.8388
 4853SOL    HW226022   4.377   2.001   3.603 -1.2504 -3.2053  1.2088
 4854SOL     OW26023   3.820   0.998   3.583 -0.4823  0.1566 -0.6284
 4854SOL    HW126024   3.901   0.954   3.609 -1.2072 -0.9521 -0.2611
 4854SOL    HW226025   3.837   1.075   3.636  0.7817  0.8427 -2.0285
 4855SOL     OW26026   0.577   0.190   1.365 -0.4400 -0.3066  0.4145
 4855SOL    HW126027   0.485   0.175   1.386 -0.8640 -0.1105 -1.2702
 4855SOL    HW226028   0.614   0.104   1.348  0.3228 -0.2903  1.9463
 4856SOL     OW26029   1.012   1.832   7.573 -0.2490  0.2140 -0.0607
 4856SOL    HW126030   1.001   1.879   7.656  1.3020 -0.0104  0.2764
 4856SOL    HW226031   1.101   1.854   7.544 -0.1203 -1.1453 -0.6852
 4857SOL     OW26032   2.438   3.611  12.706  0.1087  0.3632  0.3360
 4857SOL    HW126033   2.486   3.681  12.662 -1.4426  1.2424  0.0415
 4857SOL    HW226034   2.516   3.559  12.726  0.7859  0.6263 -1.5509
 4858SOL     OW26035   2.699   4.510   9.144  0.4124  0.5776  0.3593
 4858SOL    HW126036   2.734   4.599   9.149 -3.0531  1.8884  1.2192
 4858SOL    HW226037   2.733   4.476   9.226 -1.1813 -0.4238  0.6077
 4859SOL     OW26038   1.881   0.996   8.281 -0.0585 -0.2285 -0.3038
 4859SOL    HW126039   1.953   0.971   8.224  0.4493  0.2522  0.1298
 4859SOL    HW226040   1.926   0.998   8.366  1.4780  0.9152 -1.1604
 4860SOL     OW26041   4.402   0.737  15.138  0.2317  0.3918  0.1316
 4860SOL    HW126042   4.481   0.765  15.092 -1.2613 -1.8485 -3.7656
 4860SOL    HW226043   4.341   0.768  15.071  0.4972  1.6664  0.4860
 4861SOL     OW26044   3.861   1.440   3.618 -0.2915  0.4255 -0.5445
 4861SOL    HW126045   3.896   1.528   3.605  0.1677  0.1566 -1.1247
 4861SOL    HW226046   3.836   1.418   3.529  0.4126 -1.9685 -0.1506
 4862SOL     OW26047   1.884   2.977   5.287  0.5542  0.2317  0.3316
 4862SOL    HW126048   1.926   2.963   5.371 -0.5349 -1.0969  0.6708
 4862SOL    HW226049   1.792   2.993   5.307  0.2078 -0.8253 -0.3823
 4863SOL     OW26050   1.224   2.637   2.189 -0.2824 -0.2428 -0.3025
 4863SOL    HW126051   1.313   2.613   2.164  0.5041 -0.5460  2.7974
 4863SOL    HW226052   1.208   2.572   2.258  2.4547  0.5308  1.0567
 4864SOL     OW26053   2.386   0.900  16.858 -0.2901  0.4180 -0.5659
 4864SOL    HW126054   2.465   0.852  16.885 -0.1547 -0.7588 -3.1016
 4864SOL    HW226055   2.319   0.850  16.906  0.5832 -0.0400  0.1774
 4865SOL     OW26056   0.753   1.449  11.388 -0.6185 -0.5540  0.1304
 4865SOL    HW126057   0.784   1.405  11.467 -0.4976 -0.5240  0.0999
 4865SOL    HW226058   0.756   1.372  11.332  0.4868 -1.5833  1.6184
 4866SOL     OW26059   4.267   0.986  14.405 -0.7816  0.5361  0.0955
 4866SOL    HW126060   4.250   0.941  14.487  0.3772 -0.7473 -0.3571
 4866SOL    HW226061   4.198   1.052  14.406  0.2355  1.6133 -0.0001
 4867SOL     OW26062   1.889   2.923   3.076  0.0909  0.4696  0.3944
 4867SOL    HW126063   1.957   2.986   3.099  0.8289  0.3760 -1.5070
 4867SOL    HW226064   1.933   2.838   3.083 -1.4279 -0.3762 -0.2895
 4868SOL     OW26065   4.049   1.045  12.114  0.3085  0.2189  0.3116
 4868SOL    HW126066   3.975   1.027  12.171 -0.3862  1.8528 -0.0865
 4868SOL    HW226067   4.101   1.103  12.169  1.7182  0.0538 -0.8488
 4869SOL     OW26068   0.769   3.224  14.538  0.2225 -0.5567 -0.3010
 4869SOL    HW126069   0.826   3.207  14.463  1.6776  4.6955 -0.3793
 4869SOL    HW226070   0.759   3.319  14.533 -0.9497 -0.7413 -1.2388
 4870SOL     OW26071   2.219   0.127  16.323 -0.5971  0.5772 -0.5767
 4870SOL    HW126072   2.126   0.107  16.320 -0.8037  1.3366  0.7426
 4870SOL    HW226073   2.221   0.216  16.287  0.2289 -0.1385 -2.2652
 4871SOL     OW26074   4.466   4.441  11.423  0.2587  0.3216 -0.1037
 4871SOL    HW126075   4.511   4.524  11.436 -0.2683  0.7211 -0.8279
 4871SOL    HW226076   4.539   4.380  11.432  2.0709  2.3616 -1.0076
 4872SOL     OW26077   4.228   1.851   4.062  0.1845  0.0626 -0.0676
 4872SOL    HW126078   4.228   1.858   3.967  0.4127  3.2736  0.1709
 4872SOL    HW226079   4.136   1.827   4.076  0.5895 -1.8146 -0.5266
 4873SOL     OW26080   4.396   4.107   6.807 -0.5177 -0.0887 -0.5791
 4873SOL    HW126081   4.444   4.026   6.822 -2.1508 -1.1903 -1.2501
 4873SOL    HW226082   4.341   4.099   6.885  0.2393  0.0792 -0.0290
 4874SOL     OW26083   1.263   0.497   7.560  0.1016  0.8799 -0.1583
 4874SOL    HW126084   1.275   0.526   7.650 -0.9344  1.2259 -0.1293
 4874SOL    HW226085   1.196   0.432   7.580 -0.8850  1.5931 -1.1205
 4875SOL     OW26086   0.576   1.587   8.319 -0.1376  0.0163 -0.5678
 4875SOL    HW126087   0.512   1.650   8.351 -0.2263 -0.7906  0.8297
 4875SOL    HW226088   0.617   1.563   8.403 -1.2607  0.5784  0.1369
 4876SOL     OW26089   0.617   4.120   7.882 -0.3352 -0.2310 -0.3721
 4876SOL    HW126090   0.550   4.082   7.825  1.2292 -0.0365 -2.3816
 4876SOL    HW226091   0.678   4.049   7.902 -1.1410 -0.7903  0.0607
 4877SOL     OW26092   1.469   0.030   1.633 -0.1655  0.2153  0.1381
 4877SOL    HW126093   1.487   0.069   1.718  0.5712 -0.0469  0.1068
 4877SOL    HW226094   1.391   4.702   1.647  1.2743 -1.7428  0.8339
 4878SOL     OW26095   4.301   3.490   4.391  0.0062  0.1028  0.1964
 4878SOL    HW126096   4.384   3.538   4.393 -0.1977  0.3929  1.5017
 4878SOL    HW226097   4.237   3.559   4.404  0.1756  0.0311  1.3950
 4879SOL     OW26098   0.206   1.700  12.412 -0.2068 -0.1275  0.6088
 4879SOL    HW126099   0.139   1.639  12.441  1.0043 -1.5859  0.3192
 4879SOL    HW226100   0.285   1.646  12.405  0.4509  0.9001  0.0882
 4880SOL     OW26101   4.187   4.507   1.356  0.3267 -0.1793  0.8551
 4880SOL    HW126102   4.140   4.549   1.429 -1.4561 -0.6497 -0.0132
 4880SOL    HW226103   4.267   4.558   1.353 -0.6354  1.0960 -3.2886
 4881SOL     OW26104   0.913   0.539  17.281 -0.1281 -0.3922  0.2696
 4881SOL    HW126105   0.979   0.480  17.246  1.7873  0.1927  2.8690
 4881SOL    HW226106   0.843   0.474  17.274  1.2841 -1.6910 -1.6157
 4882SOL     OW26107   1.670   0.079   0.895  0.0270 -0.2742 -0.0456
 4882SOL    HW126108   1.597   0.069   0.955 -1.2272 -0.5586 -1.6322
 4882SOL    HW226109   1.726   0.141   0.943 -1.2064  0.7630  0.0392
 4883SOL     OW26110   2.791   1.382  15.475 -0.6004 -0.2269 -0.6113
 4883SOL    HW126111   2.810   1.437  15.399 -0.3945 -0.4656 -0.7325
 4883SOL    HW226112   2.810   1.298  15.433 -1.2568  0.1691 -1.6943
 4884SOL     OW26113   0.548   2.595   4.193  0.1709 -0.0192 -0.5876
 4884SOL    HW126114   0.461   2.632   4.203 -0.4838 -1.1757 -2.0524
 4884SOL    HW226115   0.556   2.576   4.099 -0.7481  1.5741 -0.9925
 4885SOL     OW26116   3.474   3.204   1.987 -0.5516  0.1496 -0.3955
 4885SOL    HW126117   3.378   3.205   1.991 -0.3945  0.7910  3.4019
 4885SOL    HW226118   3.486   3.152   1.907 -1.0558 -0.2122 -0.2344
 4886SOL     OW26119   1.270   2.922   0.065  0.2479 -0.3482  0.9160
 4886SOL    HW126120   1.213   2.856   0.025  3.4606 -1.9563 -0.9582
 4886SOL    HW226121   1.355   2.888   0.037 -0.5707  0.3114 -2.3632
 4887SOL     OW26122   0.683   0.931  11.915  0.3080 -0.5007  0.0554
 4887SOL    HW126123   0.594   0.905  11.940 -0.6741  0.7282 -2.0884
 4887SOL    HW226124   0.711   0.858  11.859 -1.1375 -0.5905 -0.5651
 4888SOL     OW26125   2.899   3.771   6.206 -0.0784  0.2458  0.0315
 4888SOL    HW126126   2.977   3.796   6.157  0.1354 -0.9082 -0.2189
 4888SOL    HW226127   2.930   3.697   6.258  1.5803  0.2092 -1.0149
 4889SOL     OW26128   0.896   4.495  10.760  0.2138  0.2394  0.1138
 4889SOL    HW126129   0.893   4.515  10.667  1.3085  0.6519  0.1679
 4889SOL    HW226130   0.804   4.467  10.766 -0.1747  1.5385  0.2377
 4890SOL     OW26131   3.411   3.336   3.056  0.1087  0.2754  0.2645
 4890SOL    HW126132   3.417   3.369   2.967  0.0019 -0.3372  0.0286
 4890SOL    HW226133   3.332   3.377   3.090 -0.2303 -1.6332  1.8043
 4891SOL     OW26134   3.509   3.460   0.540 -0.0556  0.6395 -0.2350
 4891SOL    HW126135   3.461   3.520   0.482  1.1718  0.2555 -1.6529
 4891SOL    HW226136   3.500   3.498   0.627  0.1060  0.3147 -0.0779
 4892SOL     OW26137   2.436   3.304   3.799 -0.3249 -0.2113  0.3029
 4892SOL    HW126138   2.487   3.225   3.816 -1.7602 -0.8124  1.7193
 4892SOL    HW226139   2.376   3.308   3.873 -1.1086  3.0380 -0.4744
 4893SOL     OW26140   1.042   4.404   6.966  0.3414 -0.5202 -0.5629
 4893SOL    HW126141   1.058   4.497   6.986 -0.3521 -0.3184 -0.9358
 4893SOL    HW226142   0.985   4.410   6.889 -0.6961 -1.8308  0.1065
 4894SOL     OW26143   0.764   2.562   6.268  0.4012  0.0766  0.3399
 4894SOL    HW126144   0.723   2.621   6.332 -2.2205 -0.3293 -0.9463
 4894SOL    HW226145   0.842   2.605   6.233  0.8090 -0.5154  0.5207
 4895SOL     OW26146   4.365   0.941   3.462  0.0775  0.1413 -0.4260
 4895SOL    HW126147   4.373   0.852   3.496 -0.2257 -0.1664 -1.1551
 4895SOL    HW226148   4.405   0.918   3.379  1.3364 -2.1911  0.8177
 4896SOL     OW26149   2.662   3.425   8.035 -0.4336 -0.0546  0.1115
 4896SOL    HW126150   2.754   3.404   8.023 -0.7838 -0.9501 -0.9981
 4896SOL    HW226151   2.608   3.358   7.994  1.2603  0.1863 -2.5254
 4897SOL     OW26152   1.197   2.170   7.144 -0.2995  0.3811  0.0247
 4897SOL    HW126153   1.116   2.136   7.182 -0.5481  1.0511  0.0887
 4897SOL    HW226154   1.210   2.117   7.065 -0.8739  1.0422 -0.5159
 4898SOL     OW26155   0.644   2.476   9.424 -0.1318  0.0080  0.0988
 4898SOL    HW126156   0.721   2.421   9.433 -0.2904 -0.4346 -1.2590
 4898SOL    HW226157   0.620   2.450   9.335 -2.7534 -0.5467  0.9596
 4899SOL     OW26158   2.405   2.720  13.847 -0.0485  0.0427  0.1175
 4899SOL    HW126159   2.499   2.715  13.866  0.5379  1.7468 -2.4044
 4899SOL    HW226160   2.382   2.629  13.829  0.5492  0.1791 -1.2719
 4900SOL     OW26161   2.362   2.961   6.869 -0.5696 -0.6860  0.1132
 4900SOL    HW126162   2.448   2.987   6.834 -0.8470 -1.8851 -1.4551
 4900SOL    HW226163   2.323   3.044   6.897  0.5219  0.0508 -0.5140
 4901SOL     OW26164   3.607   3.683   4.160 -0.3876  0.4559  0.0859
 4901SOL    HW126165   3.631   3.769   4.125  0.9049 -0.3633 -1.0643
 4901SOL    HW226166   3.512   3.692   4.155 -0.3774  0.2948 -0.4666
 4902SOL     OW26167   0.261   2.110   6.137 -0.2140 -0.3277 -0.2573
 4902SOL    HW126168   0.235   2.044   6.201 -0.7635 -0.8565 -1.0136
 4902SOL    HW226169   0.173   2.112   6.099 -0.0823  0.6252 -0.4994
 4903SOL     OW26170   3.488   0.476   2.717  0.4784 -0.1524  0.2718
 4903SOL    HW126171   3.472   0.461   2.624 -0.3363 -0.8635  0.5284
 4903SOL    HW226172   3.582   0.484   2.731  0.4793 -2.5042  1.7376
 4904SOL     OW26173   3.993   1.429   5.706 -0.0997  0.6998  0.0360
 4904SOL    HW126174   4.021   1.339   5.722 -0.1984  0.2784 -2.0573
 4904SOL    HW226175   4.074   1.472   5.733 -0.8789  1.2158  1.5132
 4905SOL     OW26176   0.315   3.089   5.009  0.3800 -0.2088  0.2817
 4905SOL    HW126177   0.330   3.000   5.039 -1.5222 -1.5737 -2.8214
 4905SOL    HW226178   0.407   3.111   4.998  0.1846  0.2508 -0.4897
 4906SOL     OW26179   0.966   0.138   8.308 -0.0216 -0.0510  0.1443
 4906SOL    HW126180   1.039   0.194   8.281  0.0185  0.0512  0.4616
 4906SOL    HW226181   0.922   0.187   8.377  0.2131 -0.8976  0.8877
 4907SOL     OW26182   2.131   2.284   8.659  0.3763 -0.1900 -0.5472
 4907SOL    HW126183   2.131   2.268   8.753 -0.7933  1.6255 -0.2507
 4907SOL    HW226184   2.107   2.376   8.648  1.5020  0.1690 -0.0878
 4908SOL     OW26185   2.609   3.939   6.919 -0.1165 -0.2712  0.2771
 4908SOL    HW126186   2.652   3.999   6.859 -0.9600  0.5608  0.4968
 4908SOL    HW226187   2.689   3.897   6.949 -1.9369 -3.4991  0.6640
 4909SOL     OW26188   1.172   0.357  12.401  0.2748 -0.5109  0.1894
 4909SOL    HW126189   1.223   0.422  12.450  1.0755 -0.6202 -0.4947
 4909SOL    HW226190   1.234   0.341  12.330  0.5674 -0.1018  0.3547
 4910SOL     OW26191   4.360   4.649   2.314  0.3029 -0.5539  0.2949
 4910SOL    HW126192   4.411   4.705   2.372 -0.3783 -0.3730  0.7166
 4910SOL    HW226193   4.359   4.566   2.363  1.5030 -1.2203 -0.7957
 4911SOL     OW26194   0.035   4.687   8.448  0.0411  0.1333  0.1778
 4911SOL    HW126195   0.031   0.038   8.507  1.1064  0.3996 -0.0906
 4911SOL    HW226196   0.020   4.609   8.502  1.0107  1.3004  2.0953
 4912SOL     OW26197   2.576   1.491   7.241 -0.4515  0.0855  0.6122
 4912SOL    HW126198   2.575   1.428   7.169 -0.4560 -0.0167  0.7035
 4912SOL    HW226199   2.559   1.567   7.185 -1.1247 -0.1432  0.5137
 4913SOL     OW26200   2.373   2.329   8.807  0.7739  0.2038  0.2344
 4913SOL    HW126201   2.427   2.378   8.745  2.3188 -0.2443  1.1888
 4913SOL    HW226202   2.436   2.283   8.863  0.1520 -0.5453  0.3091
 4914SOL     OW26203   4.435   1.474   4.539  0.6091  0.2190  0.7057
 4914SOL    HW126204   4.494   1.550   4.538  0.6238  0.1845 -1.4012
 4914SOL    HW226205   4.355   1.510   4.499 -0.0843 -0.7339  1.2462
 4915SOL     OW26206   4.567   0.856   1.937  0.2938 -0.2324  0.3714
 4915SOL    HW126207   4.530   0.928   1.885  1.6043  0.2990  0.1790
 4915SOL    HW226208   4.490   0.805   1.962 -0.7799  0.3788 -1.6699
 4916SOL     OW26209   1.113   0.228   7.322 -0.3619  0.1363  0.5312
 4916SOL    HW126210   1.115   0.252   7.415 -0.1645 -2.2221  1.1262
 4916SOL    HW226211   1.035   0.175   7.311  0.3646 -0.8254  0.0630
 4917SOL     OW26212   0.827   3.433  17.071  0.0014  0.3540 -0.7308
 4917SOL    HW126213   0.887   3.459  17.000  0.4841 -1.0491 -0.8317
 4917SOL    HW226214   0.742   3.469  17.048 -0.5804  1.7850  3.7484
 4918SOL     OW26215   2.267   2.853   6.263  0.2809  0.0993 -1.1514
 4918SOL    HW126216   2.252   2.860   6.358  3.0551  0.3079 -0.7341
 4918SOL    HW226217   2.285   2.945   6.247  0.5024 -0.0008 -1.4702
 4919SOL     OW26218   0.579   1.103   5.979 -0.1473 -0.4473  0.2901
 4919SOL    HW126219   0.599   1.115   5.886  0.4372 -2.0509  0.2064
 4919SOL    HW226220   0.537   1.185   6.006 -0.1047 -0.5881  0.7816
 4920SOL     OW26221   4.483   3.668   9.226 -0.0856  0.1668  0.0798
 4920SOL    HW126222   4.534   3.647   9.304  0.3318  0.0040 -0.2375
 4920SOL    HW226223   4.522   3.752   9.199  2.0822 -0.9846 -0.3266
 4921SOL     OW26224   0.955   4.152   9.275  0.3846 -0.5441 -0.0823
 4921SOL    HW126225   0.868   4.134   9.312  0.0260  2.5028  0.5728
 4921SOL    HW226226   0.958   4.089   9.203  0.1578 -0.6939  0.0381
 4922SOL     OW26227   1.543   4.663   6.816  0.0694  0.0380 -0.8709
 4922SOL    HW126228   1.555   4.589   6.875  2.1447  0.0500 -1.2693
 4922SOL    HW226229   1.458   4.700   6.841  0.8112  0.6745  0.7235
 4923SOL     OW26230   1.652   3.263   4.979 -0.4659  0.0643  0.4058
 4923SOL    HW126231   1.600   3.190   5.014 -0.9732  0.1231 -0.2255
 4923SOL    HW226232   1.652   3.321   5.055 -3.0222 -0.8710  1.1281
 4924SOL     OW26233   3.751   1.194  14.406 -0.1940  0.2486 -0.0814
 4924SOL    HW126234   3.671   1.146  14.387 -0.9941  0.1477  3.5136
 4924SOL    HW226235   3.723   1.266  14.462  1.9797 -1.0302  2.6175
 4925SOL     OW26236   2.566   3.136   2.344  0.0135 -0.8193 -0.0704
 4925SOL    HW126237   2.601   3.073   2.407  0.5552 -1.4214 -0.9915
 4925SOL    HW226238   2.639   3.199   2.344 -1.3357  0.7330 -2.9742
 4926SOL     OW26239   1.750   0.942  14.105 -0.1093  0.4039  0.1573
 4926SOL    HW126240   1.684   0.899  14.050  0.4376  0.8916 -0.8805
 4926SOL    HW226241   1.762   1.021  14.053  1.2236  0.8502  1.1474
 4927SOL     OW26242   1.362   0.739   5.340  0.2112  0.0604 -0.3036
 4927SOL    HW126243   1.329   0.806   5.400  2.4159 -0.2927  1.2953
 4927SOL    HW226244   1.427   0.695   5.395 -0.1269 -0.0426  0.0108
 4928SOL     OW26245   0.972   0.051  11.594 -0.1478 -0.0956  0.0223
 4928SOL    HW126246   1.028   0.055  11.671 -0.9248 -0.2121  0.5997
 4928SOL    HW226247   0.965   4.680  11.580  0.5351 -0.3681  1.5835
 4929SOL     OW26248   3.455   1.004   4.265  0.2322  0.4428  0.0588
 4929SOL    HW126249   3.396   1.053   4.321  0.9283  2.3155 -0.8655
 4929SOL    HW226250   3.398   0.927   4.257  1.2211 -0.5285  2.3281
 4930SOL     OW26251   1.387   2.215  16.047  0.0966 -0.7026  0.0642
 4930SOL    HW126252   1.450   2.272  16.090 -0.5260 -1.6782  2.3007
 4930SOL    HW226253   1.317   2.209  16.113  0.2537  0.8178  0.3550
 4931SOL     OW26254   3.259   2.314  12.057 -0.3281 -0.1541 -0.0926
 4931SOL    HW126255   3.328   2.327  11.992 -0.2985  0.9283  0.1523
 4931SOL    HW226256   3.207   2.250  12.008 -0.5019 -0.2281  0.1919
 4932SOL     OW26257   0.585   0.306  17.436  0.2369 -0.3748 -0.4966
 4932SOL    HW126258   0.617   0.339  17.352  0.6698  0.6093  0.0569
 4932SOL    HW226259   0.563   0.389  17.479  2.4671 -0.1090  0.1195
 4933SOL     OW26260   1.868   2.162  15.736  0.4257 -0.0994 -0.2791
 4933SOL    HW126261   1.818   2.115  15.802  2.1742  0.8366  1.7309
 4933SOL    HW226262   1.862   2.247  15.780 -1.6004  0.5969 -1.9177
 4934SOL     OW26263   2.500   3.335   4.339 -0.4126  0.4507  0.4413
 4934SOL    HW126264   2.514   3.247   4.305  2.0289  0.6790  0.8714
 4934SOL    HW226265   2.528   3.388   4.264 -0.2489 -0.4846 -0.1469
 4935SOL     OW26266   0.451   1.694   7.463 -0.0389  0.6017 -0.0652
 4935SOL    HW126267   0.535   1.699   7.509  1.7048  0.0293 -3.1418
 4935SOL    HW226268   0.434   1.778   7.420 -1.3117  0.2567 -0.2394
 4936SOL     OW26269   4.649   2.556  16.852  0.4414  0.0744 -0.1376
 4936SOL    HW126270   0.019   2.534  16.853  0.8283  1.5624 -3.0957
 4936SOL    HW226271   4.658   2.644  16.890 -0.8638  0.9144 -1.7803
 4937SOL     OW26272   3.400   0.591   2.966 -0.0005  0.3922  0.2660
 4937SOL    HW126273   3.451   0.557   2.892  3.5057  0.1921  2.7637
 4937SOL    HW226274   3.468   0.629   3.022 -1.3362  2.7668  0.2983
 4938SOL     OW26275   2.563   4.615   8.250  0.2485  0.0462  0.0171
 4938SOL    HW126276   2.539   4.698   8.211  0.1239  1.1951  2.5145
 4938SOL    HW226277   2.554   4.562   8.171  1.3163 -0.0312 -0.0588
 4939SOL     OW26278   1.606   1.831   4.093  0.3815  0.0593  0.1335
 4939SOL    HW126279   1.622   1.790   4.178  0.5940  0.7262  0.4203
 4939SOL    HW226280   1.536   1.776   4.059 -1.0528  1.5986  0.5209
 4940SOL     OW26281   2.425   0.677   3.159 -0.3901 -0.4313 -0.0701
 4940SOL    HW126282   2.482   0.743   3.119 -2.2325  0.3505 -1.4107
 4940SOL    HW226283   2.482   0.600   3.160  0.6650  0.3189 -0.6127
 4941SOL     OW26284   3.207   0.711  13.964 -0.1411 -0.1321 -0.2086
 4941SOL    HW126285   3.155   0.643  13.921  0.0987 -0.8380  0.6052
 4941SOL    HW226286   3.256   0.740  13.888 -0.7274  1.4855  0.0242
 4942SOL     OW26287   4.041   1.595   4.295 -0.0287  0.0060 -0.0232
 4942SOL    HW126288   4.026   1.569   4.386  2.5102 -1.2076  0.0643
 4942SOL    HW226289   4.124   1.642   4.298 -0.8641  1.4195  1.1209
 4943SOL     OW26290   1.733   3.516  16.877 -0.0309 -0.8003  0.3600
 4943SOL    HW126291   1.791   3.480  16.945  1.1914 -0.0850 -0.3124
 4943SOL    HW226292   1.668   3.568  16.924  1.0209  1.3812 -0.6526
 4944SOL     OW26293   2.402   2.758   2.959 -0.0047 -0.1493 -0.2003
 4944SOL    HW126294   2.432   2.785   3.045  1.1100 -1.3876 -0.2085
 4944SOL    HW226295   2.449   2.676   2.946 -0.1688 -0.3457  0.4705
 4945SOL     OW26296   2.800   0.796  15.826 -0.0185 -0.0225  0.0894
 4945SOL    HW126297   2.810   0.817  15.918 -3.2321  1.2017  0.1682
 4945SOL    HW226298   2.724   0.736  15.825  1.0772 -1.4144 -1.0547
 4946SOL     OW26299   3.652   3.467   9.768  0.0925  0.8035 -0.2126
 4946SOL    HW126300   3.595   3.536   9.801 -0.4515 -0.5518  1.6657
 4946SOL    HW226301   3.732   3.507   9.803  1.3833  1.1372 -3.4887
 4947SOL     OW26302   1.259   2.750   7.382  0.3624 -0.1328 -0.2119
 4947SOL    HW126303   1.324   2.791   7.325 -1.1054  0.5849 -1.3570
 4947SOL    HW226304   1.290   2.761   7.472  0.8662 -2.1493 -0.1442
 4948SOL     OW26305   1.753   0.596   2.709  0.6725 -0.2720 -0.0310
 4948SOL    HW126306   1.737   0.504   2.727  0.2385 -0.2366 -0.2250
 4948SOL    HW226307   1.663   0.624   2.689  0.9345  1.3240  1.0363
 4949SOL     OW26308   2.061   1.534   7.585  0.0345 -0.6085 -0.0809
 4949SOL    HW126309   2.043   1.502   7.497 -1.9170  1.0825 -0.2797
 4949SOL    HW226310   1.975   1.548   7.624  1.3640  0.3441  2.5182
 4950SOL     OW26311   3.048   3.231   9.391  0.4079  0.1392  0.2447
 4950SOL    HW126312   3.107   3.199   9.322  0.0173  2.3714 -1.1146
 4950SOL    HW226313   3.109   3.269   9.454  0.4644 -1.0263  0.8980
 4951SOL     OW26314   2.888   0.325   6.516 -0.6000  0.4105 -0.2608
 4951SOL    HW126315   2.864   0.413   6.486  0.5225  0.3040 -1.4885
 4951SOL    HW226316   2.983   0.335   6.512 -0.5241 -0.1483  0.3210
 4952SOL     OW26317   0.666   3.905   7.226  0.0201 -0.5133 -0.1769
 4952SOL    HW126318   0.743   3.851   7.212 -0.6391 -1.9954  1.8775
 4952SOL    HW226319   0.633   3.926   7.138  1.0425  1.6788 -0.0094
 4953SOL     OW26320   1.144   4.599   5.863  0.3016  0.1559  0.3181
 4953SOL    HW126321   1.172   4.513   5.834 -0.9244  0.3903 -1.5467
 4953SOL    HW226322   1.144   4.587   5.958  0.2021 -1.0783  0.1565
 4954SOL     OW26323   4.395   3.998  11.786  0.2663  0.4342 -0.1241
 4954SOL    HW126324   4.399   3.926  11.848  0.7347  1.0410  0.5545
 4954SOL    HW226325   4.302   4.009  11.764 -0.0696 -1.2907  0.5042
 4955SOL     OW26326   0.678   1.220   3.455  0.2206  0.1784  0.0572
 4955SOL    HW126327   0.738   1.272   3.402  1.1305  0.3156  1.2083
 4955SOL    HW226328   0.717   1.231   3.542 -0.5873  0.1783  0.4254
 4956SOL     OW26329   0.118   1.663   4.590  0.0023 -0.4203  0.2249
 4956SOL    HW126330   0.131   1.639   4.682  0.4804 -0.0328  0.2573
 4956SOL    HW226331   0.181   1.735   4.586 -1.6416  0.8868 -2.0183
 4957SOL     OW26332   0.393   2.021   5.167 -0.1786 -0.5362 -1.0492
 4957SOL    HW126333   0.334   2.026   5.091 -0.4123 -0.0993 -0.8389
 4957SOL    HW226334   0.457   2.087   5.140  0.0393  1.2125  3.8533
 4958SOL     OW26335   0.004   2.337   4.306  0.1241 -0.5776  0.3588
 4958SOL    HW126336   4.693   2.319   4.219  1.4169 -1.8413  0.0883
 4958SOL    HW226337   0.087   2.288   4.303  0.1159 -0.5258 -0.5905
 4959SOL     OW26338   1.412   3.370   2.390  0.2391 -0.3446  0.3773
 4959SOL    HW126339   1.397   3.321   2.309  0.8526  1.6272 -0.9280
 4959SOL    HW226340   1.338   3.430   2.386  0.3370 -0.1143  1.9661
 4960SOL     OW26341   0.803   3.595   4.964 -0.2532  0.4711  0.4428
 4960SOL    HW126342   0.715   3.561   4.981 -0.9243  1.3608 -1.2808
 4960SOL    HW226343   0.815   3.651   5.040  0.1970 -0.4762  1.0702
 4961SOL     OW26344   2.105   2.559   8.633 -0.6365 -0.4146  0.2673
 4961SOL    HW126345   2.031   2.596   8.585 -1.9240 -1.9077  1.1193
 4961SOL    HW226346   2.178   2.587   8.578  1.9474 -1.5867  3.0741
 4962SOL     OW26347   0.977   4.442   9.297  0.4906  0.7042  0.3731
 4962SOL    HW126348   0.925   4.447   9.378 -0.0930  4.3862 -0.2264
 4962SOL    HW226349   0.958   4.353   9.267  0.3201  0.7514  0.3384
 4963SOL     OW26350   4.304   0.981  13.726  0.2818 -0.8436  0.7108
 4963SOL    HW126351   4.242   0.941  13.787 -0.7611 -2.0940 -1.1413
 4963SOL    HW226352   4.347   0.904  13.688  0.8553  0.4372 -1.2123
 4964SOL     OW26353   4.543   4.383   8.605 -0.2005  0.6587  0.5526
 4964SOL    HW126354   4.605   4.438   8.653 -0.1613 -1.6372  3.1767
 4964SOL    HW226355   4.459   4.425   8.627 -0.5812  0.8306 -1.2737
 4965SOL     OW26356   0.623   1.089  12.448 -0.3697 -0.4119 -0.1704
 4965SOL    HW126357   0.535   1.053  12.453  0.0022 -1.2991  0.0509
 4965SOL    HW226358   0.651   1.061  12.361 -0.7292 -0.0343 -0.4035
 4966SOL     OW26359   0.648   4.535  12.798 -0.3070 -0.2641  0.1152
 4966SOL    HW126360   0.678   4.614  12.752  0.4606 -0.6461 -0.0326
 4966SOL    HW226361   0.600   4.562  12.877 -1.9369 -0.3185 -0.8595
 4967SOL     OW26362   0.805   4.110  11.321  0.7085  0.5862  0.4227
 4967SOL    HW126363   0.754   4.150  11.391  2.5668  1.7324  1.1225
 4967SOL    HW226364   0.818   4.184  11.261  0.8343  0.3763  0.1888
 4968SOL     OW26365   2.997   0.389  15.388  0.1176  0.1280  0.6079
 4968SOL    HW126366   2.950   0.359  15.466  0.1658  1.8846  1.3138
 4968SOL    HW226367   3.053   0.312  15.386 -2.6551 -1.8208 -2.4186
 4969SOL     OW26368   2.775   3.736  11.028 -0.2148  0.3436  0.2303
 4969SOL    HW126369   2.732   3.768  11.108  0.7700 -0.8165  1.2160
 4969SOL    HW226370   2.827   3.660  11.053  0.4271  0.2184 -1.5166
 4970SOL     OW26371   3.252   3.937   3.469  0.0854  0.6041 -0.1658
 4970SOL    HW126372   3.346   3.924   3.487 -0.0170 -0.4766 -0.4110
 4970SOL    HW226373   3.249   4.030   3.447  0.7284  0.5595 -0.4504
 4971SOL     OW26374   4.424   3.648   8.704  0.1450  0.1182 -0.3093
 4971SOL    HW126375   4.426   3.740   8.733 -1.4865 -0.1571  0.6698
 4971SOL    HW226376   4.394   3.601   8.781 -0.2914 -1.1018 -1.2280
 4972SOL     OW26377   3.711   2.002  16.614 -0.2524  0.2227 -0.1485
 4972SOL    HW126378   3.793   1.970  16.650 -0.7327 -0.2042  0.5652
 4972SOL    HW226379   3.716   1.981  16.521  0.8156  1.8242 -0.4551
 4973SOL     OW26380   3.047   2.054   1.119  0.5156  0.1714  0.2259
 4973SOL    HW126381   3.105   1.981   1.141  0.6109 -0.1157 -0.9777
 4973SOL    HW226382   3.083   2.074   1.033 -0.6783  0.2270 -0.2513
 4974SOL     OW26383   0.939   4.396  14.554  0.0055 -0.3649 -0.1626
 4974SOL    HW126384   0.991   4.399  14.635  1.1945  1.0719 -0.9800
 4974SOL    HW226385   0.849   4.408  14.586  0.7356  1.8835  1.0572
 4975SOL     OW26386   3.887   1.224   5.382  0.0571 -0.1356  0.1471
 4975SOL    HW126387   3.979   1.223   5.356  0.6228  0.0143  2.1706
 4975SOL    HW226388   3.887   1.244   5.475  0.0080  1.1959 -0.1450
 4976SOL     OW26389   0.275   3.151   3.983 -0.2317 -0.3698  0.2253
 4976SOL    HW126390   0.370   3.138   3.986 -0.4893 -1.5472  3.1252
 4976SOL    HW226391   0.278   3.190   3.895  1.6974  0.0260  0.4789
 4977SOL     OW26392   0.343   3.917   5.038  0.1873  0.2042  0.0033
 4977SOL    HW126393   0.323   3.999   4.993 -0.4171  0.5207  0.8586
 4977SOL    HW226394   0.289   3.928   5.116 -0.6312  0.9959 -0.6703
 4978SOL     OW26395   1.326   0.942   4.799  0.4195 -0.0577  0.0473
 4978SOL    HW126396   1.342   0.904   4.885  3.0510 -0.0685 -0.4413
 4978SOL    HW226397   1.231   0.953   4.798  0.4155  0.1858  3.9714
 4979SOL     OW26398   2.582   0.094  12.592  0.1859  0.3052  0.0751
 4979SOL    HW126399   2.664   0.143  12.582  0.2273 -0.0182 -1.2318
 4979SOL    HW226400   2.596   0.001  12.575 -1.8634 -0.1347  0.8783
 4980SOL     OW26401   4.363   4.352   4.282 -0.3969  0.3645 -0.1716
 4980SOL    HW126402   4.375   4.419   4.350 -1.6475 -1.2651  1.6595
 4980SOL    HW226403   4.444   4.305   4.302 -0.4085  0.2107 -0.4860
 4981SOL     OW26404   3.614   4.050  11.081  0.0948 -0.2075 -0.3049
 4981SOL    HW126405   3.628   4.018  10.992  0.0497  2.5786 -1.3118
 4981SOL    HW226406   3.680   4.120  11.083  1.6060 -1.6707  0.9063
 4982SOL     OW26407   0.086   0.318   1.622 -0.0875  0.0085 -0.0054
 4982SOL    HW126408   0.076   0.223   1.631 -2.1762  0.0472 -1.9523
 4982SOL    HW226409   0.008   0.352   1.667  1.7044  3.4936  0.4370
 4983SOL     OW26410   3.709   1.098   8.855 -0.2638 -0.4146  0.4298
 4983SOL    HW126411   3.752   1.127   8.935 -0.6516 -0.8356  0.7879
 4983SOL    HW226412   3.784   1.058   8.810  0.5536  1.2616  0.2764
 4984SOL     OW26413   1.265   4.099  16.481 -0.7359 -0.0497  0.2805
 4984SOL    HW126414   1.348   4.096  16.432 -1.0468  0.7054 -0.3018
 4984SOL    HW226415   1.277   4.181  16.529  1.7964 -1.0781  1.4573
 4985SOL     OW26416   4.561   2.002   8.812  0.2671 -0.3812  0.1056
 4985SOL    HW126417   4.515   1.980   8.731  1.1335 -0.6601 -0.3096
 4985SOL    HW226418   4.543   1.932   8.875  0.3046  0.6413  1.2548
 4986SOL     OW26419   2.544   3.069   3.896  0.1359 -0.4039  0.3674
 4986SOL    HW126420   2.540   2.981   3.858 -1.0525  0.9930 -2.8168
 4986SOL    HW226421   2.630   3.101   3.869  0.3767 -2.8994 -1.8732
 4987SOL     OW26422   4.570   2.595   8.300  0.0921  0.0650 -0.3471
 4987SOL    HW126423   4.624   2.603   8.378 -0.7374 -0.3410  0.2791
 4987SOL    HW226424   4.483   2.601   8.340  0.5615  1.2470  0.4817
 4988SOL     OW26425   0.274   1.804  17.178  0.2822  0.1727 -0.3205
 4988SOL    HW126426   0.212   1.876  17.171  0.6774  0.8192  3.2370
 4988SOL    HW226427   0.296   1.794  17.085  2.2803 -1.4855  0.3275
 4989SOL     OW26428   3.943   3.763   9.330 -0.4838  0.2348 -0.4649
 4989SOL    HW126429   4.005   3.791   9.398  0.6445 -1.0352 -0.9691
 4989SOL    HW226430   3.874   3.746   9.395 -0.0416 -0.0619 -0.0668
 4990SOL     OW26431   0.501   2.282   6.967  0.0243  0.6926 -0.5344
 4990SOL    HW126432   0.524   2.222   7.039 -3.9872 -0.3275 -0.0884
 4990SOL    HW226433   0.424   2.245   6.923 -1.2749  2.9266 -0.1416
 4991SOL     OW26434   3.692   2.238  17.627  0.2801  0.6724  0.0311
 4991SOL    HW126435   3.619   2.298  17.644 -0.6798  0.1367 -2.2631
 4991SOL    HW226436   3.762   2.303  17.628 -0.0301  1.0057  0.3229
 4992SOL     OW26437   2.902   3.926   2.540  0.4978  0.3153  0.2502
 4992SOL    HW126438   2.959   3.868   2.489  2.8253  2.8157 -0.0144
 4992SOL    HW226439   2.937   4.015   2.538 -1.4220  1.0279 -1.6566
 4993SOL     OW26440   1.751   4.353  15.190 -0.3063  0.4574 -0.0635
 4993SOL    HW126441   1.741   4.448  15.190 -1.8422  0.2873 -0.4916
 4993SOL    HW226442   1.700   4.321  15.116 -0.0765 -1.1556  0.4632
 4994SOL     OW26443   1.951   2.707  11.722  0.0055  0.0688 -0.2390
 4994SOL    HW126444   1.990   2.758  11.793 -1.2377  0.6830 -0.0004
 4994SOL    HW226445   1.993   2.621  11.724 -0.6931 -0.2709 -0.1597
 4995SOL     OW26446   3.016   1.311   4.064 -0.1063  0.7736  0.5712
 4995SOL    HW126447   2.935   1.356   4.089  0.0267  2.0508 -1.2602
 4995SOL    HW226448   3.059   1.396   4.054 -0.1879  0.4127 -2.8904
 4996SOL     OW26449   3.370   0.222   7.948  0.4603 -0.5195  0.3159
 4996SOL    HW126450   3.340   0.156   7.885  1.6410 -1.6468  0.9548
 4996SOL    HW226451   3.322   0.191   8.025  2.6522  0.4114  2.0610
 4997SOL     OW26452   1.472   0.132  13.837  0.3250  0.3478  0.0736
 4997SOL    HW126453   1.394   0.184  13.858 -0.4316 -0.3067 -1.1003
 4997SOL    HW226454   1.532   0.205  13.851 -0.0391  1.1091 -2.3206
 4998SOL     OW26455   1.309   0.563   9.391  0.3293 -0.0935 -0.3727
 4998SOL    HW126456   1.229   0.608   9.421  0.4656 -0.4896  0.6001
 4998SOL    HW226457   1.276   0.489   9.341 -1.6046 -0.7892  1.9295
 4999SOL     OW26458   0.312   3.280   5.614 -0.0100  0.1880  0.5613
 4999SOL    HW126459   0.362   3.250   5.690 -0.9996 -1.7436  0.4636
 4999SOL    HW226460   0.290   3.194   5.578  0.2076  0.0773  0.6938
 5000SOL     OW26461   0.476   0.420   4.756 -0.3444  0.0673  0.0308
 5000SOL    HW126462   0.384   0.438   4.773 -0.5077 -0.4142 -0.3381
 5000SOL    HW226463   0.506   0.408   4.846 -0.5738 -0.9453 -0.0256
 5001SOL     OW26464   3.717   0.934   1.941  0.1363  0.8462  0.3238
 5001SOL    HW126465   3.808   0.946   1.971 -0.4447  0.9605  2.0528
 5001SOL    HW226466   3.682   0.866   1.998  2.5075 -1.8767 -1.4325
 5002SOL     OW26467   4.066   2.141  16.998  0.2300  0.2360 -0.4737
 5002SOL    HW126468   4.041   2.232  16.986 -0.4269  0.2981  1.3047
 5002SOL    HW226469   4.093   2.145  17.090 -0.4868  1.2603 -0.3138
 5003SOL     OW26470   1.461   1.209   1.828  0.2540  0.0000 -0.1672
 5003SOL    HW126471   1.533   1.226   1.890  0.6837  0.1696 -0.7142
 5003SOL    HW226472   1.436   1.301   1.823  2.1508  0.6471  1.7204
 5004SOL     OW26473   0.649   0.117  13.131  0.1406  0.2611 -0.2212
 5004SOL    HW126474   0.601   0.162  13.201 -0.9542  0.3182 -1.0064
 5004SOL    HW226475   0.724   0.080  13.178  0.6071  0.3662 -0.8940
 5005SOL     OW26476   1.387   2.081   7.588 -0.0906  0.5088  0.0271
 5005SOL    HW126477   1.297   2.113   7.588  0.3482  1.7181  0.5792
 5005SOL    HW226478   1.409   2.067   7.496 -2.0118 -0.6156 -0.2692
 5006SOL     OW26479   4.449   1.364   0.143 -0.0620  0.1126  0.3076
 5006SOL    HW126480   4.448   1.427   0.215  0.0874 -2.8399  2.9085
 5006SOL    HW226481   4.498   1.416   0.079 -0.6171 -0.3304 -0.4677
 5007SOL     OW26482   1.389   1.719  11.316 -0.0669  1.1452  0.0180
 5007SOL    HW126483   1.334   1.652  11.357 -1.7472  3.0991  0.8845
 5007SOL    HW226484   1.356   1.799  11.356 -2.3739  0.1413  0.1506
 5008SOL     OW26485   1.288   0.589  15.740  0.2702  0.1086 -0.2056
 5008SOL    HW126486   1.235   0.519  15.702 -0.7029  0.2171  0.9526
 5008SOL    HW226487   1.235   0.601  15.819  1.6495  1.0868  0.5697
 5009SOL     OW26488   3.752   2.083  10.790  0.3187  0.0348  0.6805
 5009SOL    HW126489   3.681   2.019  10.791  1.2252 -0.9715  0.5613
 5009SOL    HW226490   3.808   2.031  10.848  0.2010 -0.8489 -0.0010
 5010SOL     OW26491   2.792   1.568   6.783  0.0135 -0.0051 -0.3641
 5010SOL    HW126492   2.819   1.506   6.715  0.3415  1.3070 -1.4291
 5010SOL    HW226493   2.712   1.608   6.748 -0.5661 -0.1642  0.7831
 5011SOL     OW26494   1.774   3.445   9.307  0.0725  0.4314  0.2881
 5011SOL    HW126495   1.813   3.366   9.269 -0.7087  0.2994 -0.2550
 5011SOL    HW226496   1.788   3.512   9.240  2.1786 -0.6591 -0.3747
 5012SOL     OW26497   2.993   3.804   4.402  0.4230 -0.7359  0.0067
 5012SOL    HW126498   2.950   3.838   4.480  1.0255 -2.9575  1.3118
 5012SOL    HW226499   3.078   3.781   4.440  0.8315 -1.0220 -1.0774
 5013SOL     OW26500   0.378   4.393   9.276 -0.3843 -0.2349  0.2242
 5013SOL    HW126501   0.382   4.454   9.349  0.6993 -0.0484  0.0223
 5013SOL    HW226502   0.360   4.309   9.317  3.1223 -0.9712  0.2702
 5014SOL     OW26503   0.204   1.696   8.221  0.1798 -0.0806 -0.0735
 5014SOL    HW126504   0.132   1.734   8.172  0.4479  0.1955 -0.2563
 5014SOL    HW226505   0.187   1.712   8.314  1.3373  3.6329 -0.4738
 5015SOL     OW26506   0.819   4.423   5.325 -0.4887 -0.1038  0.6093
 5015SOL    HW126507   0.746   4.432   5.264 -1.0851  0.3699  1.3951
 5015SOL    HW226508   0.777   4.431   5.410 -2.1678  3.0396 -0.5000
 5016SOL     OW26509   2.484   3.597   4.418  0.1360 -0.3448  0.5180
 5016SOL    HW126510   2.481   3.505   4.392 -0.1111 -0.2075  0.0510
 5016SOL    HW226511   2.580   3.601   4.419  0.0714  1.6465 -0.3989
 5017SOL     OW26512   2.617   4.150   7.284 -0.0672  0.0825  0.1323
 5017SOL    HW126513   2.541   4.113   7.240 -0.9414  0.6452  1.1659
 5017SOL    HW226514   2.617   4.090   7.359 -1.4844 -0.9782 -0.7210
 5018SOL     OW26515   1.787   3.658   6.971 -0.2503 -0.2846  0.0388
 5018SOL    HW126516   1.712   3.694   6.924  1.1451  1.5709 -0.7731
 5018SOL    HW226517   1.773   3.698   7.057  1.1473 -2.9034  1.4997
 5019SOL     OW26518   0.277   1.654   7.103  0.4133  0.3959  0.5587
 5019SOL    HW126519   0.260   1.677   7.194 -4.8185 -0.1254 -0.3349
 5019SOL    HW226520   0.277   1.739   7.059 -0.6137  0.8128  1.3876
 5020SOL     OW26521   0.087   3.340   0.735 -0.2602 -0.5529  0.5489
 5020SOL    HW126522   0.059   3.386   0.656  0.5056  1.5931  1.5315
 5020SOL    HW226523   0.019   3.273   0.737  0.3900 -1.2450 -0.0279
 5021SOL     OW26524   2.398   0.969   7.561 -0.0158  0.4047 -0.3358
 5021SOL    HW126525   2.480   0.983   7.514 -1.0174  2.0715 -1.5810
 5021SOL    HW226526   2.386   1.056   7.600  0.8169  1.3020 -2.1082
 5022SOL     OW26527   1.066   4.677   6.990  0.1438 -0.4027  0.0915
 5022SOL    HW126528   1.156   4.709   6.983 -0.4720  1.1076 -0.7300
 5022SOL    HW226529   1.028   0.038   6.968  0.7373 -0.7445 -2.1798
 5023SOL     OW26530   2.009   2.514   7.973  0.0116 -0.2272  0.4066
 5023SOL    HW126531   1.944   2.502   7.904  1.5552 -3.2036 -0.5383
 5023SOL    HW226532   2.015   2.423   8.000  0.2208 -0.6563 -1.0970
 5024SOL     OW26533   4.703   4.606   6.218  0.1903 -0.3615  0.2756
 5024SOL    HW126534   4.628   4.666   6.208  0.5651 -0.1337 -1.0846
 5024SOL    HW226535   0.000   4.571   6.132  2.0827 -2.3611  1.5729
 5025SOL     OW26536   4.420   2.839   8.477 -0.1336  0.1950 -0.6045
 5025SOL    HW126537   4.376   2.756   8.460  2.7505 -1.6187  0.8619
 5025SOL    HW226538   4.397   2.885   8.396  0.7465  0.7447 -0.5398
 5026SOL     OW26539   2.274   4.561  11.004 -0.1022  0.6549 -0.3581
 5026SOL    HW126540   2.305   4.591  10.918  0.7842  0.5426 -0.0725
 5026SOL    HW226541   2.235   4.641  11.041  1.3201  0.7318  0.9837
 5027SOL     OW26542   0.330   3.723   8.294  0.1370  0.1433  0.1185
 5027SOL    HW126543   0.248   3.766   8.319 -0.2753  0.1709 -1.2817
 5027SOL    HW226544   0.362   3.783   8.226 -0.7861  0.0913 -0.3613
 5028SOL     OW26545   4.657   2.451   7.202  0.4009 -0.1292  0.0391
 5028SOL    HW126546   4.596   2.502   7.147 -0.0371  0.9143  1.5087
 5028SOL    HW226547   4.719   2.524   7.206 -0.4010  0.7622 -3.4919
 5029SOL     OW26548   0.641   0.464  17.233 -0.2989  0.3987 -0.1545
 5029SOL    HW126549   0.569   0.523  17.253  0.5731  0.2497  3.3131
 5029SOL    HW226550   0.675   0.503  17.152 -0.6260 -1.4631 -1.1938
 5030SOL     OW26551   0.507   3.350   8.455  0.6786  0.5103 -0.2658
 5030SOL    HW126552   0.545   3.304   8.531  1.1049 -0.4381 -1.0587
 5030SOL    HW226553   0.569   3.324   8.387  0.8515 -1.3312  0.5839
 5031SOL     OW26554   1.046   0.773   2.881  0.2844  0.2927 -0.0967
 5031SOL    HW126555   1.080   0.791   2.969  1.3526 -2.2782  0.0196
 5031SOL    HW226556   1.115   0.820   2.835  1.0685 -1.1623 -0.3848
 5032SOL     OW26557   3.831   2.856   9.205  0.0342 -0.1014 -0.5238
 5032SOL    HW126558   3.825   2.941   9.248 -1.3120 -0.5766  0.2201
 5032SOL    HW226559   3.919   2.827   9.229 -1.2909 -1.0557  3.2155
 5033SOL     OW26560   3.718   3.994  14.389  0.1956  0.4337  0.0245
 5033SOL    HW126561   3.704   4.082  14.352 -2.7711  0.1208  0.4473
 5033SOL    HW226562   3.698   3.938  14.314  0.4580  0.3888 -0.0124
 5034SOL     OW26563   3.741   4.690   5.479  0.2349 -0.1870 -0.0785
 5034SOL    HW126564   3.735   4.604   5.438  0.5238  0.0177 -0.5520
 5034SOL    HW226565   3.835   4.709   5.480  0.1576  0.0636  2.0773
 5035SOL     OW26566   1.993   3.233   7.189  0.0862  0.5259 -0.1641
 5035SOL    HW126567   1.912   3.272   7.156  1.7544  2.6512 -1.7183
 5035SOL    HW226568   1.974   3.141   7.170  0.8675  0.1192  1.0362
 5036SOL     OW26569   0.218   3.444   1.342  0.7660  0.1497  0.0260
 5036SOL    HW126570   0.196   3.425   1.433 -1.5046  1.7253 -0.1891
 5036SOL    HW226571   0.304   3.406   1.326  0.5361  0.1948 -1.3561
 5037SOL     OW26572   0.191   1.424   2.513 -0.4402  0.3095  0.5701
 5037SOL    HW126573   0.210   1.472   2.593  2.3439  0.3796 -0.1414
 5037SOL    HW226574   0.101   1.398   2.533 -0.7727  0.7737 -0.3247
 5038SOL     OW26575   1.589   3.204   2.812 -0.1667 -0.0378  0.3765
 5038SOL    HW126576   1.521   3.203   2.879 -0.2146 -2.3484  0.2983
 5038SOL    HW226577   1.661   3.242   2.862 -1.1139  1.6143  0.4556
 5039SOL     OW26578   3.752   0.599   6.408  0.2099  0.2995  0.3072
 5039SOL    HW126579   3.830   0.574   6.357  1.0228 -0.8227  2.1247
 5039SOL    HW226580   3.701   0.519   6.402  0.5470  0.0102  1.3768
 5040SOL     OW26581   0.158   2.904   3.538 -0.1695 -0.2944  0.0716
 5040SOL    HW126582   0.232   2.952   3.501  1.2833 -1.9846  0.7789
 5040SOL    HW226583   0.203   2.826   3.571  0.1911  0.3657  1.1309
 5041SOL     OW26584   2.294   3.450   3.174  0.7171  0.5007  0.3479
 5041SOL    HW126585   2.265   3.376   3.226 -0.2728 -1.2152 -2.6293
 5041SOL    HW226586   2.306   3.508   3.249 -0.1864 -0.8658  1.5246
 5042SOL     OW26587   0.194   2.803  14.782  0.1659  0.3096 -0.5738
 5042SOL    HW126588   0.245   2.733  14.823 -0.9815  0.5630  1.2784
 5042SOL    HW226589   0.258   2.834  14.718 -0.3620  0.6077 -0.9504
 5043SOL     OW26590   4.076   4.669   3.640 -0.0734  0.2242 -0.2456
 5043SOL    HW126591   4.081   0.037   3.664  2.1492 -0.3726  1.5678
 5043SOL    HW226592   4.163   4.632   3.657 -0.1313 -0.8577 -2.1653
 5044SOL     OW26593   1.739   4.459  17.026 -0.1369 -0.2935  0.6068
 5044SOL    HW126594   1.833   4.470  17.007 -0.0588  0.3300  1.3694
 5044SOL    HW226595   1.715   4.551  17.015 -1.9397 -0.7949  0.4466
 5045SOL     OW26596   2.002   1.138   9.443 -0.3338  0.5763 -0.2365
 5045SOL    HW126597   1.954   1.064   9.407  2.1473 -1.2318  0.2008
 5045SOL    HW226598   2.087   1.125   9.401 -0.0557  0.1684  0.4483
 5046SOL     OW26599   4.538   3.939   1.292  0.2403 -0.1081  1.1894
 5046SOL    HW126600   4.493   3.884   1.357 -1.0525 -1.4196 -0.7981
 5046SOL    HW226601   4.526   4.028   1.324  0.2666 -0.9147  3.4961
 5047SOL     OW26602   2.884   0.961   6.018  0.2761  0.6308  0.2624
 5047SOL    HW126603   2.828   1.018   6.070 -0.2345 -0.5429  0.9979
 5047SOL    HW226604   2.862   1.003   5.934  0.6165 -1.3202 -0.7970
 5048SOL     OW26605   0.863   3.197   9.512  0.2373 -0.2037  0.0798
 5048SOL    HW126606   0.820   3.279   9.490 -0.8872 -0.8282 -0.0346
 5048SOL    HW226607   0.835   3.139   9.442 -1.1411  1.1925 -0.5271
 5049SOL     OW26608   2.019   1.278   2.438 -0.0822 -0.1590 -0.5588
 5049SOL    HW126609   1.948   1.214   2.432  1.1414 -1.4906 -0.7008
 5049SOL    HW226610   2.071   1.261   2.360 -1.1508 -1.4513 -0.9915
 5050SOL     OW26611   1.491   3.156   5.236  0.1848  0.1944  0.3215
 5050SOL    HW126612   1.531   3.103   5.305 -1.9731 -0.4959  1.0409
 5050SOL    HW226613   1.479   3.085   5.173  1.9930 -0.1957  0.4136
 5051SOL     OW26614   2.581   4.239   8.302  0.0477 -0.7459 -0.0794
 5051SOL    HW126615   2.524   4.305   8.344  0.7255 -0.3852  0.2814
 5051SOL    HW226616   2.669   4.275   8.316 -0.0883 -0.5889  0.3639
 5052SOL     OW26617   2.824   0.467  15.911  0.5491 -0.3396 -0.0798
 5052SOL    HW126618   2.786   0.427  15.989  2.7393 -1.5320  0.3953
 5052SOL    HW226619   2.898   0.409  15.891  2.2280  1.0107  2.1443
 5053SOL     OW26620   2.795   2.662   3.635 -0.3905 -0.1988 -0.1631
 5053SOL    HW126621   2.830   2.575   3.616 -0.6814 -0.1055 -1.1638
 5053SOL    HW226622   2.735   2.674   3.562 -0.5439  2.5939  0.4262
 5054SOL     OW26623   2.315   2.371   4.994  0.2407 -0.7509  0.3827
 5054SOL    HW126624   2.379   2.325   4.940  2.5062  0.1838  2.2916
 5054SOL    HW226625   2.348   2.352   5.082 -0.0640  0.8307  0.8425
 5055SOL     OW26626   0.843   3.078   0.100  1.0907 -0.1287  0.0179
 5055SOL    HW126627   0.880   2.991   0.083 -0.7888 -0.5810 -1.6821
 5055SOL    HW226628   0.838   3.073   0.196  0.1190  1.2794  0.0540
 5056SOL     OW26629   4.670   4.456  11.972  0.2808 -0.5950 -0.3103
 5056SOL    HW126630   4.617   4.379  11.952  1.5746 -0.9367 -2.4955
 5056SOL    HW226631   4.665   4.500  11.887  4.5663  0.7196  0.0951
 5057SOL     OW26632   3.448   3.790   1.275 -0.0546 -1.0029  0.3384
 5057SOL    HW126633   3.360   3.799   1.312 -0.6448 -1.4478 -0.9579
 5057SOL    HW226634   3.504   3.763   1.347  3.0172  1.6463 -1.0719
 5058SOL     OW26635   2.817   3.638  13.065  0.3999 -0.0342  0.3450
 5058SOL    HW126636   2.779   3.724  13.047  1.0574  0.6910  2.5155
 5058SOL    HW226637   2.910   3.644  13.046  0.1081  3.7790  0.1355
 5059SOL     OW26638   3.824   1.672   8.457  0.1471 -0.0793  0.0817
 5059SOL    HW126639   3.846   1.705   8.545 -0.8798  0.3831  0.1578
 5059SOL    HW226640   3.915   1.683   8.430  0.4651 -1.3483  0.5877
 5060SOL     OW26641   0.836   3.145   6.090 -0.2526  0.2626 -0.2478
 5060SOL    HW126642   0.747   3.129   6.122 -0.7648  2.8476 -0.3735
 5060SOL    HW226643   0.886   3.127   6.170  0.9645  3.2961 -0.3426
 5061SOL     OW26644   3.945   0.167   6.295 -0.3648  0.1162 -0.2258
 5061SOL    HW126645   3.852   0.170   6.276 -0.2832  0.1181 -0.6193
 5061SOL    HW226646   3.938   0.155   6.390 -0.5475  0.9380 -0.1388
 5062SOL     OW26647   3.299   0.728   0.981 -0.0696 -0.0962 -0.4889
 5062SOL    HW126648   3.354   0.729   0.903 -0.5835 -2.7042 -0.8808
 5062SOL    HW226649   3.323   0.642   1.014 -0.8010 -0.7267 -1.5932
 5063SOL     OW26650   2.159   1.044  12.095  0.2342  0.2336 -0.5575
 5063SOL    HW126651   2.088   1.024  12.034 -0.8757  2.2631  0.0654
 5063SOL    HW226652   2.107   1.111  12.139  1.0294  0.6749 -0.2794
 5064SOL     OW26653   3.339   2.302  12.309 -0.3862  0.4880  0.3657
 5064SOL    HW126654   3.319   2.316  12.217  1.7454  0.1500 -0.1635
 5064SOL    HW226655   3.380   2.215  12.302 -0.9630  0.2033  0.5491
 5065SOL     OW26656   2.239   1.882   6.926 -0.2432  0.0662 -0.1463
 5065SOL    HW126657   2.248   1.916   7.015  1.0991  0.7454 -0.5371
 5065SOL    HW226658   2.217   1.965   6.884 -1.6529 -0.0886  0.2754
 5066SOL     OW26659   0.555   4.372  10.416  0.6911  0.1902 -0.2409
 5066SOL    HW126660   0.497   4.297  10.417  2.1257 -0.9622 -3.6522
 5066SOL    HW226661   0.575   4.380  10.323 -0.9910 -1.9652 -0.7805
 5067SOL     OW26662   0.088   0.388   2.208 -0.5947 -0.0989 -0.0473
 5067SOL    HW126663   0.046   0.346   2.132  0.1141  0.9819 -1.0399
 5067SOL    HW226664   0.074   0.478   2.180 -0.0339  0.5549  1.8102
 5068SOL     OW26665   3.317   2.859  14.576  0.8257  0.0415  0.8653
 5068SOL    HW126666   3.312   2.843  14.481 -2.2345 -1.8802  1.3501
 5068SOL    HW226667   3.366   2.784  14.610  1.0432  0.0592  0.6002
 5069SOL     OW26668   1.209   3.408  16.790 -0.2104 -0.0591  0.4785
 5069SOL    HW126669   1.274   3.414  16.860  0.1338  0.5381  0.1091
 5069SOL    HW226670   1.140   3.464  16.826 -0.6625  0.3524 -1.0246
 5070SOL     OW26671   1.552   2.186   2.904  0.0876  0.4949  0.2761
 5070SOL    HW126672   1.628   2.236   2.933 -0.3391  0.6495  1.1036
 5070SOL    HW226673   1.496   2.198   2.980 -0.2193 -2.2588  0.4905
 5071SOL     OW26674   1.035   2.854   3.663 -0.9882 -0.0055 -0.6252
 5071SOL    HW126675   1.031   2.904   3.744 -1.1341  1.5313 -1.5827
 5071SOL    HW226676   1.064   2.926   3.607  1.4608 -0.0467  0.6263
 5072SOL     OW26677   0.830   0.798   8.794  0.3311  0.1812  0.1751
 5072SOL    HW126678   0.805   0.856   8.722  0.3831  0.6014  0.4891
 5072SOL    HW226679   0.798   0.847   8.870  0.9003  1.7870 -0.6183
 5073SOL     OW26680   0.255   1.046   6.637 -0.4496 -0.1416 -0.4749
 5073SOL    HW126681   0.321   1.019   6.573 -0.4537  1.5010 -1.1580
 5073SOL    HW226682   0.195   0.971   6.639 -0.8344  0.1399 -1.6030
 5074SOL     OW26683   1.154   2.382   5.214 -0.2041 -0.0947 -0.5242
 5074SOL    HW126684   1.159   2.335   5.297  3.8004 -2.0088 -1.8749
 5074SOL    HW226685   1.132   2.308   5.157  0.8944  0.2042 -1.3325
 5075SOL     OW26686   3.835   3.631   2.535 -0.6071 -0.2546 -0.3972
 5075SOL    HW126687   3.874   3.649   2.450 -2.3072  0.0337 -1.1149
 5075SOL    HW226688   3.873   3.708   2.578 -1.0677  0.2437 -0.8884
 5076SOL     OW26689   3.280   3.917   4.854 -0.2870  0.2724 -0.8266
 5076SOL    HW126690   3.232   3.841   4.888 -1.9299  0.7756 -2.0242
 5076SOL    HW226691   3.367   3.906   4.891 -1.6031  1.3394  2.5519
 5077SOL     OW26692   3.809   0.035   2.445 -0.5457 -0.5843 -0.0831
 5077SOL    HW126693   3.897   0.046   2.481 -0.1007 -1.1447 -0.9979
 5077SOL    HW226694   3.791   4.670   2.478  1.0844 -1.5833 -1.9105
 5078SOL     OW26695   4.364   4.159   2.261  0.1199  0.2964  0.6709
 5078SOL    HW126696   4.419   4.203   2.197  0.5443 -0.2529  0.6561
 5078SOL    HW226697   4.401   4.200   2.340 -0.3268 -0.2424  1.1635
 5079SOL     OW26698   0.998   3.699   2.503 -0.0241  0.2252  0.2675
 5079SOL    HW126699   1.001   3.740   2.590  1.8258  2.5480 -0.8911
 5079SOL    HW226700   1.070   3.746   2.461 -0.9851  2.1449  0.8119
 5080SOL     OW26701   3.207   2.997  10.417  0.1315  0.1834  0.3103
 5080SOL    HW126702   3.279   3.058  10.435  1.3409 -0.7327 -1.4727
 5080SOL    HW226703   3.142   3.058  10.381  1.4675  0.7233 -1.1846
 5081SOL     OW26704   3.224   3.906  10.836 -0.3332  0.4070 -0.1975
 5081SOL    HW126705   3.194   3.851  10.764  1.1600 -2.3444  1.2640
 5081SOL    HW226706   3.298   3.850  10.861 -1.0663 -0.2066  0.5910
 5082SOL     OW26707   0.315   0.956  17.382  0.2541  0.1326  0.1650
 5082SOL    HW126708   0.398   0.961  17.430  1.1900 -0.3264 -1.3986
 5082SOL    HW226709   0.349   0.953  17.293  0.3728 -1.6728  0.2700
 5083SOL     OW26710   2.195   4.337   7.886 -0.1347 -0.9111  0.0306
 5083SOL    HW126711   2.287   4.356   7.905 -0.6420 -0.4843  2.1150
 5083SOL    HW226712   2.160   4.389   7.959  0.4272  0.9135 -0.9958
 5084SOL     OW26713   1.748   2.315   3.039  0.1349  0.6503  0.0243
 5084SOL    HW126714   1.790   2.238   3.078 -0.0390  0.6344  0.1867
 5084SOL    HW226715   1.769   2.376   3.109 -2.2580  1.6676 -0.1578
 5085SOL     OW26716   2.050   1.199  11.898  0.0168  0.4318  0.0657
 5085SOL    HW126717   2.022   1.226  11.986  0.2687 -1.6817  0.8061
 5085SOL    HW226718   2.090   1.281  11.871  0.0970 -0.4530 -2.5251
 5086SOL     OW26719   2.973   3.878  14.550  0.3038 -0.3679 -0.2749
 5086SOL    HW126720   2.979   3.970  14.575  1.2897 -0.1095 -1.4785
 5086SOL    HW226721   2.913   3.879  14.476  1.5285  0.4638 -1.2626
 5087SOL     OW26722   0.154   2.763  13.039  0.8689 -0.4011  0.5046
 5087SOL    HW126723   0.161   2.675  13.078  0.4498  0.0431  1.6065
 5087SOL    HW226724   0.061   2.771  13.018  0.5741 -1.6268  1.3287
 5088SOL     OW26725   0.376   1.332   1.636  0.2718 -0.5334 -0.8349
 5088SOL    HW126726   0.444   1.388   1.672 -1.6589  1.4918 -0.3298
 5088SOL    HW226727   0.320   1.402   1.603 -1.0893 -0.9114  0.6689
 5089SOL     OW26728   1.827   0.696  15.796  0.1981 -0.0894 -0.0449
 5089SOL    HW126729   1.821   0.613  15.749 -0.9570 -1.4717  2.5881
 5089SOL    HW226730   1.747   0.741  15.769  1.4341  1.5082 -1.1110
 5090SOL     OW26731   3.733   1.529  10.159 -0.4719 -0.0189  0.3103
 5090SOL    HW126732   3.730   1.574  10.243  2.7863 -2.3529  1.6862
 5090SOL    HW226733   3.824   1.540  10.132 -1.8273 -0.2090 -4.3919
 5091SOL     OW26734   4.712   1.007   6.230 -0.1099 -0.5533  0.2172
 5091SOL    HW126735   4.696   0.921   6.192 -2.1100 -0.2415  0.3575
 5091SOL    HW226736   4.663   1.002   6.312 -0.4505  0.9785  0.1125
 5092SOL     OW26737   1.197   1.866   4.108 -0.2600 -0.5370 -0.1738
 5092SOL    HW126738   1.223   1.935   4.048  0.6753 -1.0950 -0.4091
 5092SOL    HW226739   1.179   1.919   4.186 -4.4915  0.8982 -2.1364
 5093SOL     OW26740   0.494   3.831   3.211  0.0812  0.3509  0.2281
 5093SOL    HW126741   0.485   3.914   3.162 -0.0232  0.7296  0.8935
 5093SOL    HW226742   0.422   3.837   3.273  1.0306  1.4214  1.2186
 5094SOL     OW26743   2.796   1.320  17.040 -0.8024 -0.4910 -0.4948
 5094SOL    HW126744   2.752   1.386  17.092 -0.0040 -2.1662  2.2915
 5094SOL    HW226745   2.864   1.357  16.984 -0.8191  1.6128  0.9096
 5095SOL     OW26746   3.991   2.381  13.515 -0.2730 -0.0873  0.4952
 5095SOL    HW126747   3.900   2.362  13.535  0.2515 -2.2743  0.8892
 5095SOL    HW226748   3.992   2.475  13.497 -1.3437  0.0543  1.1705
 5096SOL     OW26749   1.570   1.107   6.348  0.4113 -0.0482 -0.0756
 5096SOL    HW126750   1.529   1.033   6.392 -0.9203 -1.1425 -3.1642
 5096SOL    HW226751   1.617   1.073   6.272  0.4268  1.1605 -0.5936
 5097SOL     OW26752   2.624   4.594  12.254  0.2043 -0.1863  0.0324
 5097SOL    HW126753   2.682   4.666  12.278  0.8704 -0.3122 -1.2073
 5097SOL    HW226754   2.572   4.580  12.334  1.1845 -0.2757  0.6439
 5098SOL     OW26755   2.118   3.549  15.808  0.1690  0.3240  0.1804
 5098SOL    HW126756   2.183   3.601  15.856 -0.7404 -0.3015  2.1005
 5098SOL    HW226757   2.092   3.612  15.741 -0.4343 -0.7831 -0.6177
 5099SOL     OW26758   2.729   2.513   6.113 -0.0868  0.3809 -0.3329
 5099SOL    HW126759   2.705   2.428   6.076  0.2998  1.0128 -2.0427
 5099SOL    HW226760   2.786   2.548   6.044  0.2656 -0.1861 -0.3236
 5100SOL     OW26761   1.697   0.984   1.177  0.1900 -0.1023 -0.0624
 5100SOL    HW126762   1.653   1.062   1.210 -0.9095 -1.9307  2.7133
 5100SOL    HW226763   1.759   1.029   1.119  2.3191 -0.2868  2.1091
 5101SOL     OW26764   0.876   2.729   8.081 -0.1005 -0.9578  0.8201
 5101SOL    HW126765   0.818   2.723   8.157 -1.8629 -2.4821 -0.6537
 5101SOL    HW226766   0.957   2.748   8.128  0.2854 -1.6669  0.4453
 5102SOL     OW26767   3.685   4.479   6.087  0.1723 -0.1026  0.8947
 5102SOL    HW126768   3.771   4.440   6.077 -0.0173 -0.2063 -0.3974
 5102SOL    HW226769   3.687   4.498   6.181 -4.0521 -1.6311  1.2984
 5103SOL     OW26770   0.830   4.293   2.021  0.0295 -0.0551  0.2283
 5103SOL    HW126771   0.846   4.344   1.942  0.0154  1.7950  1.4342
 5103SOL    HW226772   0.888   4.327   2.089 -0.4424  1.2134 -0.0003
 5104SOL     OW26773   1.667   4.426   7.855 -0.4747 -0.2283  0.4715
 5104SOL    HW126774   1.759   4.421   7.829 -0.2568  1.0055  1.0199
 5104SOL    HW226775   1.624   4.398   7.774 -0.0365  1.3767 -0.3083
 5105SOL     OW26776   1.931   2.428  11.842  0.4629  0.0654 -0.0493
 5105SOL    HW126777   1.876   2.437  11.764  0.4174  1.3886  0.1455
 5105SOL    HW226778   1.868   2.390  11.903 -0.9290  1.8034 -0.4086
 5106SOL     OW26779   0.235   0.466   7.339 -0.1182  0.2253 -0.5563
 5106SOL    HW126780   0.295   0.538   7.318 -0.2506  0.2181 -0.9637
 5106SOL    HW226781   0.157   0.488   7.289  0.5456  2.2815 -0.6911
 5107SOL     OW26782   3.605   1.723   0.436 -0.2579  0.4058  0.3292
 5107SOL    HW126783   3.643   1.692   0.518 -2.1769  1.1808  1.5137
 5107SOL    HW226784   3.530   1.775   0.464  0.7558  1.5075  0.9581
 5108SOL     OW26785   1.310   2.308   1.830  0.1287 -0.0540 -0.0531
 5108SOL    HW126786   1.320   2.340   1.741  2.2714 -0.0177  0.2085
 5108SOL    HW226787   1.240   2.369   1.854 -0.3582 -0.3565 -0.6945
 5109SOL     OW26788   4.554   0.458   7.937 -0.5050 -0.0269 -0.1212
 5109SOL    HW126789   4.466   0.492   7.954 -0.7781 -1.4124  1.2373
 5109SOL    HW226790   4.526   0.405   7.862  1.6161  0.1850 -1.0498
 5110SOL     OW26791   1.613   4.288  16.807  0.0059  0.1295  0.4438
 5110SOL    HW126792   1.521   4.308  16.824  0.1405 -0.2217  1.6265
 5110SOL    HW226793   1.647   4.374  16.831  1.1692 -0.0954 -0.3833
 5111SOL     OW26794   2.999   1.269  15.147 -0.1463 -0.1211  0.1027
 5111SOL    HW126795   3.069   1.222  15.102  1.4395 -0.5364  3.0205
 5111SOL    HW226796   2.953   1.200  15.196 -1.0803 -1.0940 -2.1298
 5112SOL     OW26797   1.516   0.255   6.788  0.1702  0.1557 -0.1691
 5112SOL    HW126798   1.533   0.172   6.833  0.6580  0.8410  0.8939
 5112SOL    HW226799   1.425   0.237   6.765 -0.4232  0.6688  1.7985
 5113SOL     OW26800   2.975   2.309   1.204  0.5467  0.2274 -0.2758
 5113SOL    HW126801   3.007   2.220   1.185  0.7238 -0.2547  2.2495
 5113SOL    HW226802   2.915   2.293   1.277  1.9058  0.1411  0.8187
 5114SOL     OW26803   2.225   2.605   7.205  0.5018  0.0041  0.3735
 5114SOL    HW126804   2.279   2.556   7.143 -2.4336  0.7298 -2.8106
 5114SOL    HW226805   2.270   2.593   7.288  0.0624 -1.1783  0.4438
 5115SOL     OW26806   3.508   3.411   3.603  0.4564  0.0819  0.3404
 5115SOL    HW126807   3.599   3.382   3.607 -0.2707 -2.1591  0.7273
 5115SOL    HW226808   3.479   3.405   3.694 -2.0651  1.0083 -0.3985
 5116SOL     OW26809   4.162   1.140   7.314 -0.2021 -0.1235  0.3517
 5116SOL    HW126810   4.241   1.096   7.283  0.4196  0.7353  0.7239
 5116SOL    HW226811   4.199   1.200   7.378 -1.4544  2.9174 -1.7718
 5117SOL     OW26812   3.325   4.620   3.890  0.1888 -0.4307 -0.4522
 5117SOL    HW126813   3.412   4.613   3.851  0.1650 -0.7334 -0.4477
 5117SOL    HW226814   3.273   4.576   3.823 -1.1985  0.9518 -0.2945
 5118SOL     OW26815   4.108   3.859   1.871  0.1642  0.3819 -0.0020
 5118SOL    HW126816   4.057   3.806   1.933  0.2458  1.5792  1.0964
 5118SOL    HW226817   4.166   3.794   1.832 -0.1095 -0.1635  0.5091
 5119SOL     OW26818   2.769   1.030   3.386 -0.0510 -0.0834  0.2027
 5119SOL    HW126819   2.735   1.113   3.420 -0.7645 -0.9439  1.5558
 5119SOL    HW226820   2.817   1.005   3.465 -3.9581 -1.2444  2.1971
 5120SOL     OW26821   0.408   2.954  15.793  0.0614 -0.3316  0.4259
 5120SOL    HW126822   0.392   2.919  15.706  1.8006 -2.0293  0.7987
 5120SOL    HW226823   0.331   3.011  15.796 -0.0394 -0.5373  1.7848
 5121SOL     OW26824   3.357   4.314  10.733  0.0135 -0.0033  0.4103
 5121SOL    HW126825   3.273   4.325  10.779 -1.2003 -1.0267 -1.5763
 5121SOL    HW226826   3.375   4.403  10.704  1.3304 -0.1228  0.8696
 5122SOL     OW26827   3.656   3.701   5.600  0.8022 -0.4676 -0.0477
 5122SOL    HW126828   3.589   3.719   5.666  1.1376  0.0417  0.1508
 5122SOL    HW226829   3.599   3.702   5.523  0.7560 -0.8956 -0.0185
 5123SOL     OW26830   3.727   0.859   6.467  0.3932  0.4181  0.1161
 5123SOL    HW126831   3.818   0.885   6.483  0.6807 -1.5685  1.6979
 5123SOL    HW226832   3.735   0.769   6.435 -0.1629 -0.1110  1.4697
 5124SOL     OW26833   4.108   3.805   7.025 -0.4624 -0.0789 -0.5515
 5124SOL    HW126834   4.064   3.739   6.972 -0.8335 -0.0824 -0.2433
 5124SOL    HW226835   4.058   3.794   7.105  2.1732  0.2946  1.1421
 5125SOL     OW26836   1.566   4.081   9.997 -0.1450 -0.1910 -0.2039
 5125SOL    HW126837   1.605   4.008   9.949 -0.5385 -0.1445 -0.5997
 5125SOL    HW226838   1.475   4.088   9.966 -0.8855 -1.1956  1.7545
 5126SOL     OW26839   1.729   2.916   4.683 -0.5161 -0.4296 -0.0190
 5126SOL    HW126840   1.678   2.883   4.609  1.4728  1.3374 -2.1941
 5126SOL    HW226841   1.691   2.863   4.753 -0.2389 -0.9100 -0.2277
 5127SOL     OW26842   0.105   0.211  16.382 -0.3435  0.2037 -0.0323
 5127SOL    HW126843   0.089   0.292  16.333  0.9287  0.2395 -0.3904
 5127SOL    HW226844   0.029   0.192  16.437  0.1474 -0.9235  0.2616
 5128SOL     OW26845   1.398   3.575  17.653 -0.2666 -0.4697  0.4573
 5128SOL    HW126846   1.325   3.598   0.013 -0.4646 -1.4182  0.5998
 5128SOL    HW226847   1.358   3.606  17.572 -0.8278  0.8324  1.2332
 5129SOL     OW26848   1.993   1.690   8.922  0.3013  0.6244 -0.3403
 5129SOL    HW126849   2.085   1.676   8.899 -0.3787 -1.8438 -1.6755
 5129SOL    HW226850   1.990   1.617   8.985 -0.7664  0.8285 -0.1501
 5130SOL     OW26851   2.377   2.667   5.037 -0.1545 -0.1567  0.5999
 5130SOL    HW126852   2.366   2.575   5.063  0.5713 -0.4968 -0.3255
 5130SOL    HW226853   2.400   2.706   5.122 -0.9924  0.0161  0.7484
 5131SOL     OW26854   2.341   1.937   5.580  0.1669  0.0546  0.1497
 5131SOL    HW126855   2.264   1.987   5.607 -0.9166 -0.7276 -1.5204
 5131SOL    HW226856   2.388   1.941   5.664  0.0211  0.5695  0.2074
 5132SOL     OW26857   3.468   0.467   9.245 -0.0312  0.4450 -0.9022
 5132SOL    HW126858   3.477   0.467   9.341  1.5718 -0.9622 -1.0406
 5132SOL    HW226859   3.504   0.386   9.208  1.3422  1.0675 -0.9473
 5133SOL     OW26860   2.764   3.932   6.470 -0.2248  0.2417  0.0778
 5133SOL    HW126861   2.714   3.933   6.388 -0.8800 -1.1536  0.4615
 5133SOL    HW226862   2.775   3.841   6.499  1.7792  0.3109 -0.4669
 5134SOL     OW26863   3.619   2.676   9.207 -0.3586 -0.2607 -0.4328
 5134SOL    HW126864   3.690   2.740   9.205 -0.8911  0.3079 -1.2567
 5134SOL    HW226865   3.590   2.695   9.117  0.3208 -0.0608 -0.6129
 5135SOL     OW26866   3.249   2.366   6.456  0.1030  0.0865 -0.3723
 5135SOL    HW126867   3.205   2.385   6.539 -1.4884 -0.4429 -1.0784
 5135SOL    HW226868   3.277   2.275   6.470 -1.6656 -0.1742  1.6048
 5136SOL     OW26869   4.420   3.142   7.073 -0.7533 -0.7238 -0.0745
 5136SOL    HW126870   4.407   3.157   6.979 -1.5256  0.5348  0.2305
 5136SOL    HW226871   4.339   3.188   7.096 -0.8404  0.6974 -3.1644
 5137SOL     OW26872   3.085   4.682   4.822 -0.0307  0.3693 -0.3437
 5137SOL    HW126873   3.100   4.588   4.815 -0.6948  0.2186  0.2673
 5137SOL    HW226874   3.027   4.691   4.898 -0.2005 -0.8535 -0.3361
 5138SOL     OW26875   3.926   2.866   7.988 -0.4741 -0.1661 -0.3470
 5138SOL    HW126876   3.858   2.902   8.045 -1.4475 -0.0977 -1.5573
 5138SOL    HW226877   3.940   2.776   8.018  2.4580 -0.1259 -1.5166
 5139SOL     OW26878   3.043   3.263  14.637 -0.1669 -0.3900 -0.0804
 5139SOL    HW126879   3.085   3.200  14.579  0.6949 -0.1620  0.3026
 5139SOL    HW226880   3.104   3.336  14.637 -1.8891  1.0445  1.0979
 5140SOL     OW26881   3.798   0.662   4.832  0.1316 -0.5993  0.1753
 5140SOL    HW126882   3.772   0.745   4.791  2.8383  0.3306  0.3570
 5140SOL    HW226883   3.720   0.606   4.830  0.6511 -1.2629 -1.2161
 5141SOL     OW26884   2.442   4.020   7.119 -0.4148  0.1978 -0.1324
 5141SOL    HW126885   2.509   4.006   7.051 -1.7468  0.4106 -1.5043
 5141SOL    HW226886   2.404   3.932   7.120  1.1987 -0.4813  0.8164
 5142SOL     OW26887   0.283   3.331   6.306  0.0214  0.2878  0.0609
 5142SOL    HW126888   0.312   3.240   6.303  2.0719  0.9582 -0.0206
 5142SOL    HW226889   0.212   3.319   6.370  1.3677  1.4057  1.7663
 5143SOL     OW26890   3.108   0.825   6.023 -0.4683  0.4591 -0.1318
 5143SOL    HW126891   3.108   0.747   5.967 -1.3707 -0.6226  1.3549
 5143SOL    HW226892   3.035   0.877   5.990 -0.5596  0.1934 -0.3543
 5144SOL     OW26893   1.667   4.377   0.632  0.0133  0.3104  0.7064
 5144SOL    HW126894   1.614   4.362   0.710 -0.9232  1.3757  0.2685
 5144SOL    HW226895   1.699   4.465   0.653 -0.4681  0.6887 -0.1556
 5145SOL     OW26896   4.717   2.324   6.572  0.1749 -0.1754 -0.0220
 5145SOL    HW126897   0.039   2.322   6.488  0.3608 -1.7074  0.1136
 5145SOL    HW226898   4.683   2.234   6.573  2.0740 -0.8813 -0.0954
 5146SOL     OW26899   4.333   3.170   8.711  0.1305 -0.4711 -0.0189
 5146SOL    HW126900   4.357   3.173   8.618 -0.2195  0.0792 -0.0882
 5146SOL    HW226901   4.359   3.251   8.756  0.0962 -1.5316  1.9161
 5147SOL     OW26902   4.108   4.188   7.505  0.3697 -0.1537 -0.8501
 5147SOL    HW126903   4.088   4.168   7.414  2.5658  0.4256 -1.4472
 5147SOL    HW226904   4.091   4.104   7.548  2.4811 -0.4523 -0.5814
 5148SOL     OW26905   0.011   3.093  14.825 -0.2906 -0.1954  0.5115
 5148SOL    HW126906   0.026   3.185  14.847  0.0251 -1.0545  3.9379
 5148SOL    HW226907   4.645   3.101  14.794 -0.1331  0.1710  0.1361
 5149SOL     OW26908   2.440   3.238   8.562 -0.4824  0.3691 -0.1427
 5149SOL    HW126909   2.371   3.288   8.605 -0.2338 -0.2840  1.0238
 5149SOL    HW226910   2.419   3.247   8.469  0.1409 -0.5295 -0.3751
 5150SOL     OW26911   3.490   3.863   9.065 -0.1534 -0.8760 -0.1689
 5150SOL    HW126912   3.464   3.814   9.143  0.9188  0.1563  0.8359
 5150SOL    HW226913   3.580   3.830   9.058  1.0254  2.0784  0.9504
 5151SOL     OW26914   3.083   0.864   4.869 -0.1260 -0.3221 -0.4689
 5151SOL    HW126915   3.154   0.801   4.876 -0.0334 -0.0397  1.2033
 5151SOL    HW226916   3.044   0.844   4.955  1.9399  1.9684  1.0071
 5152SOL     OW26917   2.602   4.644   7.686 -0.4314  0.1593  0.0725
 5152SOL    HW126918   2.615   4.575   7.620 -2.0730 -0.8277  0.7969
 5152SOL    HW226919   2.638   4.723   7.645  1.1594 -0.1785  0.8064
 5153SOL     OW26920   0.990   2.376  10.532 -0.0030  0.0652  0.2550
 5153SOL    HW126921   0.924   2.405  10.469 -1.8242 -1.6107  1.3948
 5153SOL    HW226922   1.070   2.362  10.482  0.6195 -0.5738  1.4284
 5154SOL     OW26923   4.413   0.070   6.676 -0.0713 -0.3346 -0.2206
 5154SOL    HW126924   4.442   0.080   6.585 -0.4825  2.1574 -0.0789
 5154SOL    HW226925   4.441   0.152   6.718  2.4635 -0.0151 -2.4963
 5155SOL     OW26926   4.589   3.367  11.660 -0.3418  0.0283 -0.0847
 5155SOL    HW126927   4.545   3.292  11.621  0.1227  1.2231 -2.8575
 5155SOL    HW226928   4.510   3.406  11.698 -0.7620 -0.1750 -0.7426
 5156SOL     OW26929   1.255   1.139   9.316  0.5407 -0.0981  0.0348
 5156SOL    HW126930   1.348   1.152   9.297  0.7799 -1.2740  0.3971
 5156SOL    HW226931   1.256   1.045   9.336 -0.2210 -0.1206 -0.0602
 5157SOL     OW26932   3.146   3.221   8.774  1.1074  0.4091 -0.0199
 5157SOL    HW126933   3.155   3.133   8.811  0.8932 -0.2014 -1.4131
 5157SOL    HW226934   3.071   3.254   8.824 -0.3627 -1.5804 -0.8908
 5158SOL     OW26935   2.500   3.493   3.636  0.2274 -0.1353  0.6979
 5158SOL    HW126936   2.466   3.433   3.702  0.2959  0.1038  0.9523
 5158SOL    HW226937   2.478   3.574   3.682 -3.6879 -0.4885 -0.5624
 5159SOL     OW26938   1.466   3.992   8.973  0.2392 -0.0646 -0.1657
 5159SOL    HW126939   1.413   3.915   8.993  0.3778  0.5694  2.7562
 5159SOL    HW226940   1.474   4.027   9.062 -0.1947 -1.2383  0.3305
 5160SOL     OW26941   3.579   0.477   4.898  0.1281  0.0198  0.1628
 5160SOL    HW126942   3.637   0.463   4.973  1.3941 -0.2983 -0.8847
 5160SOL    HW226943   3.490   0.492   4.931 -0.2910  0.4381 -1.1673
 5161SOL     OW26944   2.223   0.691   5.529 -0.7580 -0.0373  0.3816
 5161SOL    HW126945   2.133   0.705   5.498 -1.3128 -1.1352  1.5384
 5161SOL    HW226946   2.253   0.782   5.538 -0.3907 -0.2299  1.1142
 5162SOL     OW26947   4.027   3.017   1.134 -0.3341 -0.3562  0.1548
 5162SOL    HW126948   3.995   2.938   1.178 -4.6034 -0.0911 -2.4038
 5162SOL    HW226949   4.075   3.058   1.205 -1.0127  2.2773 -0.8835
 5163SOL     OW26950   1.174   3.939   6.252 -0.0013  0.1150  0.2546
 5163SOL    HW126951   1.093   3.899   6.221  1.5909 -2.2429 -0.8585
 5163SOL    HW226952   1.144   3.986   6.330  0.5714  0.4617  0.2633
 5164SOL     OW26953   3.328   0.734   4.889 -0.2946  0.2477 -0.1524
 5164SOL    HW126954   3.333   0.669   4.959 -2.2663 -0.4036 -0.6426
 5164SOL    HW226955   3.331   0.675   4.814  2.9999 -1.0102  0.9371
 5165SOL     OW26956   1.784   1.828   3.419  0.2749  0.1104  0.8732
 5165SOL    HW126957   1.759   1.783   3.499 -1.3777  3.6826  2.3985
 5165SOL    HW226958   1.846   1.896   3.448  0.1833  1.0305 -1.0889
 5166SOL     OW26959   0.862   3.891   4.126  0.2406 -0.7128  0.4190
 5166SOL    HW126960   0.913   3.919   4.050  0.3080 -0.1715  0.6615
 5166SOL    HW226961   0.930   3.856   4.184  1.4231  0.8487 -0.0058
 5167SOL     OW26962   4.001   1.450   2.383  0.0882 -0.4985 -0.0338
 5167SOL    HW126963   4.066   1.518   2.365  0.3835 -0.3600  1.6419
 5167SOL    HW226964   4.043   1.369   2.353  1.0708  0.0313 -0.0951
 5168SOL     OW26965   4.181   2.843  16.700 -0.6173  0.9112 -0.2254
 5168SOL    HW126966   4.162   2.754  16.730  0.3671  1.8174  3.1171
 5168SOL    HW226967   4.092   2.874  16.717 -1.4679 -0.0114 -2.9173
 5169SOL     OW26968   3.048   2.616   9.991  0.2400  0.1470 -0.4035
 5169SOL    HW126969   3.023   2.560  10.064  1.5968  1.1909  0.8628
 5169SOL    HW226970   3.066   2.551   9.924 -0.8848 -0.5100 -0.0706
 5170SOL     OW26971   1.671   0.653   5.051  0.3329  0.1026  0.5332
 5170SOL    HW126972   1.694   0.662   5.143  1.3584 -0.2048  0.3025
 5170SOL    HW226973   1.741   0.704   5.011  0.0973  0.3785  0.4705
 5171SOL     OW26974   3.141   1.059   7.190  0.8883  0.9059 -0.6678
 5171SOL    HW126975   3.051   1.080   7.168 -0.4391 -3.9003  0.2159
 5171SOL    HW226976   3.134   0.979   7.242 -2.7138  1.3071 -0.5338
 5172SOL     OW26977   0.426   2.051   3.183 -0.6252 -0.3329  0.3509
 5172SOL    HW126978   0.388   1.987   3.244 -0.7456 -0.4142  0.1908
 5172SOL    HW226979   0.390   2.020   3.100 -0.5656 -0.3266  0.3225
 5173SOL     OW26980   2.157   1.208   6.923 -0.0065 -0.1380 -0.0307
 5173SOL    HW126981   2.160   1.252   7.008 -1.9415  0.2472 -0.1576
 5173SOL    HW226982   2.116   1.279   6.873  1.9489  1.3279  0.4230
 5174SOL     OW26983   4.009   4.443   1.750 -0.0149 -0.5770  0.1438
 5174SOL    HW126984   4.068   4.467   1.821 -3.2516 -0.2070  2.7268
 5174SOL    HW226985   4.074   4.402   1.692 -0.1573 -0.4402 -0.1111
 5175SOL     OW26986   2.647   3.494   2.920 -0.3050 -0.2474  0.3772
 5175SOL    HW126987   2.690   3.579   2.913  0.0814 -0.4715  0.0172
 5175SOL    HW226988   2.568   3.512   2.869  1.2917  3.2562 -0.8511
 5176SOL     OW26989   3.202   3.862   3.734 -0.0757 -0.3460 -0.1049
 5176SOL    HW126990   3.178   3.868   3.642 -0.2072 -2.2346 -0.1973
 5176SOL    HW226991   3.144   3.788   3.752 -2.1194  0.5298 -3.2132
 5177SOL     OW26992   2.363   1.367   5.621  0.2247 -0.4078  0.0361
 5177SOL    HW126993   2.319   1.300   5.672  0.0517  0.4130  0.9556
 5177SOL    HW226994   2.397   1.428   5.686 -2.0561 -1.7089  2.4135
 5178SOL     OW26995   1.625   4.353   0.376  0.0134  0.4657 -0.4935
 5178SOL    HW126996   1.647   4.354   0.469  0.4180 -1.2453 -0.5676
 5178SOL    HW226997   1.694   4.413   0.345 -0.5829  0.1921 -2.3574
 5179SOL     OW26998   3.793   3.396   5.162  0.1915 -0.7578  0.6538
 5179SOL    HW126999   3.766   3.422   5.074  0.2095  1.8320  1.4187
 5179SOL    HW227000   3.868   3.339   5.143  0.3669 -0.1781 -0.4021
 5180SOL     OW27001   3.511   1.753  11.157  0.3569 -0.2895 -0.7893
 5180SOL    HW127002   3.519   1.848  11.148  0.3713 -0.4050 -1.9471
 5180SOL    HW227003   3.596   1.725  11.190  0.4302 -1.4073 -1.9174
 5181SOL     OW27004   1.914   1.010   0.211 -0.6250  0.2508  0.9447
 5181SOL    HW127005   1.857   1.054   0.147 -1.9925  1.0470  2.7181
 5181SOL    HW227006   1.994   1.026   0.160 -0.7530  0.4331  0.7971
 5182SOL     OW27007   3.455   4.353   5.443  0.4232  0.2535  0.4097
 5182SOL    HW127008   3.366   4.375   5.469 -0.4036 -0.6183 -1.7451
 5182SOL    HW227009   3.492   4.309   5.519 -1.1842 -0.8847  0.5255
 5183SOL     OW27010   0.663   3.975   5.143  0.0067  0.1055  0.6105
 5183SOL    HW127011   0.691   4.057   5.102 -2.7765  1.1522  0.8383
 5183SOL    HW227012   0.668   4.004   5.234 -0.0262  1.7832  0.0662
 5184SOL     OW27013   0.027   0.739   7.272 -0.7341  0.6426 -0.2290
 5184SOL    HW127014   0.120   0.758   7.279 -0.3215 -0.4635 -2.6885
 5184SOL    HW227015   0.004   0.730   7.365  0.3844  3.5440  0.3356
 5185SOL     OW27016   1.374   0.771   9.169  0.0040  0.0447 -0.0569
 5185SOL    HW127017   1.376   0.676   9.179 -1.1766  0.2315  1.9430
 5185SOL    HW227018   1.362   0.791   9.262  2.5162  1.2108  0.0382
 5186SOL     OW27019   0.507   3.135   2.295  0.4485 -0.0590 -0.3448
 5186SOL    HW127020   0.594   3.175   2.290  1.1496 -1.4085  0.7462
 5186SOL    HW227021   0.535   3.044   2.278  0.3829  0.2982 -2.3287
 5187SOL     OW27022   3.603   1.492  12.852 -0.6030 -0.1520  0.4537
 5187SOL    HW127023   3.585   1.417  12.795  0.1724 -1.6171  2.1292
 5187SOL    HW227024   3.608   1.558  12.783  1.0175  0.4007  1.1189
 5188SOL     OW27025   2.716   1.171   8.588 -0.2223 -0.5653  0.1017
 5188SOL    HW127026   2.710   1.199   8.496  2.9640 -1.4892 -0.3807
 5188SOL    HW227027   2.627   1.175   8.624 -1.1390  1.8960 -2.4659
 5189SOL     OW27028   1.702   2.335   3.902  0.8811 -0.3917  0.1948
 5189SOL    HW127029   1.685   2.255   3.950  0.7304 -0.6210 -0.2369
 5189SOL    HW227030   1.777   2.373   3.948  0.1359  1.9707 -0.5421
 5190SOL     OW27031   1.768   2.966  10.324  0.4454  0.0293 -0.2051
 5190SOL    HW127032   1.679   2.965  10.287  0.4012 -2.4893  0.0020
 5190SOL    HW227033   1.744   2.934  10.411 -1.6629  0.7579 -0.5102
 5191SOL     OW27034   2.982   2.092   1.718 -0.5082 -0.2610  0.4773
 5191SOL    HW127035   3.038   2.075   1.642 -0.6199  0.1232  0.3095
 5191SOL    HW227036   2.933   2.011   1.734 -0.5453 -0.2076  0.6296
 5192SOL     OW27037   0.181   1.221   7.118 -0.0884  0.2539  0.6204
 5192SOL    HW127038   0.169   1.213   7.024 -0.0902 -0.5938  0.6954
 5192SOL    HW227039   0.244   1.150   7.121 -0.5473 -0.1958 -0.3948
 5193SOL     OW27040   0.163   0.467   7.617  0.0325  0.6793 -0.0289
 5193SOL    HW127041   0.150   0.375   7.641  2.0529  0.0859 -1.2641
 5193SOL    HW227042   0.199   0.474   7.529 -0.3065 -0.7977 -0.2769
 5194SOL     OW27043   1.111   0.155   0.126  0.1712 -0.3632 -0.1185
 5194SOL    HW127044   1.075   0.130   0.040  0.2421  0.9516 -0.5300
 5194SOL    HW227045   1.168   0.230   0.110 -2.2077  1.6787  1.0536
 5195SOL     OW27046   2.124   2.669   4.923 -0.2069 -0.3359  0.8154
 5195SOL    HW127047   2.218   2.674   4.942 -0.8445 -0.1919  3.9252
 5195SOL    HW227048   2.105   2.719   5.002 -1.5698  2.4136 -1.2270
 5196SOL     OW27049   4.016   3.619   5.247 -0.0660 -0.5900  0.0875
 5196SOL    HW127050   3.946   3.684   5.249  1.4366  1.1017 -2.7109
 5196SOL    HW227051   3.961   3.549   5.213  0.1075 -1.8299  2.3389
 5197SOL     OW27052   1.897   3.534   8.876  0.2227 -0.0964 -0.2647
 5197SOL    HW127053   1.935   3.456   8.916  0.5250  0.9491  1.4822
 5197SOL    HW227054   1.804   3.521   8.892  0.0333 -0.8916 -2.0380
 5198SOL     OW27055   0.812   0.852   6.478  0.3005 -0.3360 -0.2523
 5198SOL    HW127056   0.772   0.903   6.408  1.7771  0.1637 -0.7406
 5198SOL    HW227057   0.855   0.931   6.511  1.7640 -0.8197 -0.9663
 5199SOL     OW27058   4.008   0.690   4.048  0.1061  0.5517  0.1013
 5199SOL    HW127059   4.075   0.708   3.982  0.9266 -2.5489  0.1022
 5199SOL    HW227060   4.064   0.690   4.125  2.3788  0.7001 -1.5476
 5200SOL     OW27061   2.057   0.221   7.623  0.3260 -0.0643  0.0857
 5200SOL    HW127062   2.139   0.227   7.673 -1.2783  1.4089  2.5456
 5200SOL    HW227063   1.999   0.186   7.690  1.8471 -1.2418  0.7998
 5201SOL     OW27064   1.801   3.143  14.414  0.1067  0.1497  0.2003
 5201SOL    HW127065   1.823   3.222  14.463  1.2575 -0.6461  0.9562
 5201SOL    HW227066   1.894   3.120  14.405 -0.0842 -1.1554  1.6774
 5202SOL     OW27067   0.909   4.384   6.736  0.0281  0.3523  0.1701
 5202SOL    HW127068   0.911   4.403   6.642  1.6158  2.1970  0.5835
 5202SOL    HW227069   0.815   4.384   6.754 -0.1586  2.7302 -0.8857
 5203SOL     OW27070   0.024   2.552   7.778 -0.1179 -0.3763 -0.1588
 5203SOL    HW127071   0.050   2.477   7.832 -0.2699 -0.7599 -0.6181
 5203SOL    HW227072   4.663   2.574   7.816 -1.1685 -2.6832 -1.1341
 5204SOL     OW27073   0.590   0.963   2.405  0.1996  0.2878 -0.2134
 5204SOL    HW127074   0.600   0.894   2.470  1.6770  0.9632  0.2791
 5204SOL    HW227075   0.497   0.958   2.385  0.2518  1.9566 -0.8720
 5205SOL     OW27076   0.705   2.521  12.958 -0.2793  0.7392  0.5538
 5205SOL    HW127077   0.777   2.584  12.953  0.9398 -0.8013 -1.2909
 5205SOL    HW227078   0.696   2.509  12.864  2.4409 -0.3220  0.4369
 5206SOL     OW27079   1.314   0.428   5.635 -0.5073 -0.5303 -0.7973
 5206SOL    HW127080   1.252   0.413   5.563 -1.6363 -1.0444  0.2810
 5206SOL    HW227081   1.323   0.336   5.662 -0.1994 -0.2227  0.1507
 5207SOL     OW27082   1.367   4.391   3.354 -0.4022  0.6308 -0.1486
 5207SOL    HW127083   1.445   4.337   3.343  0.1943  1.0575  1.9811
 5207SOL    HW227084   1.339   4.407   3.264 -2.8095 -1.1019  0.2706
 5208SOL     OW27085   3.635   1.884   8.599 -0.3136 -0.1256  0.1771
 5208SOL    HW127086   3.625   1.858   8.507  1.6149  0.0923 -0.0958
 5208SOL    HW227087   3.727   1.870   8.620 -0.7170 -2.0814  0.6769
 5209SOL     OW27088   0.777   0.128   1.694  0.2352  0.4525 -0.5152
 5209SOL    HW127089   0.822   0.093   1.617  1.4986 -0.7717  0.7927
 5209SOL    HW227090   0.694   0.083   1.681  0.2809 -0.8971  4.0909
 5210SOL     OW27091   3.390   3.294  16.978  0.2042 -0.2227 -0.2710
 5210SOL    HW127092   3.405   3.368  16.919 -0.9194 -0.0564 -0.3446
 5210SOL    HW227093   3.442   3.315  17.056  1.0726 -1.3629 -0.5454
 5211SOL     OW27094   3.332   0.877   8.422 -0.4846 -0.2288 -0.1217
 5211SOL    HW127095   3.327   0.893   8.328 -1.0388 -1.6999 -0.3387
 5211SOL    HW227096   3.381   0.795   8.425  0.0729  0.1492  1.0892
 5212SOL     OW27097   2.328   0.635  14.136 -0.2472 -0.3344 -0.1619
 5212SOL    HW127098   2.262   0.584  14.183 -0.2197  0.5282  0.8115
 5212SOL    HW227099   2.273   0.681  14.073 -0.9278 -1.4068 -0.3497
 5213SOL     OW27100   2.345   1.920   2.715 -0.0753  0.6344  0.2705
 5213SOL    HW127101   2.310   1.836   2.743  0.2502  0.7307  0.9819
 5213SOL    HW227102   2.368   1.901   2.625  0.5706  0.0217  0.5640
 5214SOL     OW27103   1.503   3.858   1.224  0.2413 -0.2269 -0.1261
 5214SOL    HW127104   1.536   3.768   1.226 -3.4390 -1.6325 -1.7751
 5214SOL    HW227105   1.411   3.841   1.202  0.4384  2.1370 -2.7035
 5215SOL     OW27106   0.787   0.185   2.537  0.0361  0.0857 -0.1157
 5215SOL    HW127107   0.752   0.234   2.463 -0.6186 -0.5456 -0.2179
 5215SOL    HW227108   0.832   0.110   2.499  2.3296  1.3786  0.0225
 5216SOL     OW27109   0.772   4.055  15.210  0.4358  0.2878 -0.0801
 5216SOL    HW127110   0.764   4.137  15.161 -0.2996 -0.5347 -1.3353
 5216SOL    HW227111   0.847   4.070  15.267  1.0632 -1.2484 -0.5131
 5217SOL     OW27112   0.855   1.027   5.726 -0.4105  0.2670  0.3431
 5217SOL    HW127113   0.771   1.068   5.708 -0.5795 -0.1906  0.0983
 5217SOL    HW227114   0.895   1.100   5.774  0.8718 -0.5623  0.5561
 5218SOL     OW27115   0.857   2.097  10.299 -0.2822  0.0699  0.1828
 5218SOL    HW127116   0.908   2.021  10.326 -0.6971  0.5760  2.4592
 5218SOL    HW227117   0.929   2.160  10.301  1.5158 -1.9152 -2.7905
 5219SOL     OW27118   3.229   3.913   5.340  0.8281 -0.4293  0.0758
 5219SOL    HW127119   3.321   3.938   5.336  0.1759  2.0718  0.5504
 5219SOL    HW227120   3.216   3.873   5.254  1.6672  1.3712 -0.8801
 5220SOL     OW27121   0.983   4.594   7.468  0.9368 -0.0961 -0.2077
 5220SOL    HW127122   1.078   4.587   7.468  0.8132 -1.8519 -0.3207
 5220SOL    HW227123   0.971   4.614   7.376  0.3435  2.5897  0.4345
 5221SOL     OW27124   3.870   1.677   3.873  0.9851  0.5062 -1.0189
 5221SOL    HW127125   3.917   1.667   3.790  0.1162 -0.0871 -1.4379
 5221SOL    HW227126   3.815   1.752   3.849  1.5536  1.2749  0.1112
 5222SOL     OW27127   0.390   1.793   5.734  0.2170 -0.9388 -0.7235
 5222SOL    HW127128   0.328   1.732   5.694 -1.3025  0.4134 -0.4288
 5222SOL    HW227129   0.345   1.837   5.806  0.1520  0.3490 -1.5484
 5223SOL     OW27130   4.469   3.380   5.906 -0.2083  0.6799  0.0828
 5223SOL    HW127131   4.560   3.375   5.876 -0.0088  2.7083  0.3829
 5223SOL    HW227132   4.446   3.287   5.912  0.2712  0.5219 -0.4557
 5224SOL     OW27133   2.748   1.910   8.115  0.2112 -0.0781  0.8702
 5224SOL    HW127134   2.732   1.817   8.131  2.1468 -0.8886 -1.7436
 5224SOL    HW227135   2.747   1.937   8.207  2.6064  1.3118  0.5121
 5225SOL     OW27136   2.024   1.989   7.988  0.4399  0.0576  0.4552
 5225SOL    HW127137   2.025   2.025   8.077  2.3378 -0.9514  0.8350
 5225SOL    HW227138   2.049   1.898   8.004  0.0135  0.0030  0.8368
 5226SOL     OW27139   3.895   3.682   2.022  0.1820 -0.1455  0.0789
 5226SOL    HW127140   3.819   3.695   1.965 -0.8811  1.1396  1.8217
 5226SOL    HW227141   3.915   3.592   1.994  1.8387  0.0988  0.5049
 5227SOL     OW27142   1.973   2.631   9.450 -0.1214  0.1356  0.5427
 5227SOL    HW127143   2.059   2.673   9.455  0.8051 -1.6461 -0.1947
 5227SOL    HW227144   1.908   2.690   9.487 -0.9611  0.4364 -1.4120
 5228SOL     OW27145   3.129   2.499  16.895 -0.1939 -0.5858  0.1234
 5228SOL    HW127146   3.104   2.569  16.835 -0.2835  0.3529  1.2709
 5228SOL    HW227147   3.214   2.468  16.861 -0.7153 -1.8159 -0.0739
 5229SOL     OW27148   4.323   0.653   1.431  0.3395  0.1508 -0.4695
 5229SOL    HW127149   4.394   0.659   1.495 -0.7030  0.0579  0.6918
 5229SOL    HW227150   4.305   0.744   1.406  0.9295  0.4864  0.3403
 5230SOL     OW27151   0.332   4.535  10.435 -0.7914  0.4509  0.2469
 5230SOL    HW127152   0.410   4.484  10.413  0.8081  3.1046 -0.3128
 5230SOL    HW227153   0.374   4.621  10.429 -1.6292  0.8295 -0.2849
 5231SOL     OW27154   3.558   3.758   7.429  0.1908  0.2529  0.6186
 5231SOL    HW127155   3.572   3.833   7.488 -1.6295 -1.3336  3.0604
 5231SOL    HW227156   3.485   3.796   7.380 -0.6999 -0.9362  1.0214
 5232SOL     OW27157   3.963   2.426   1.874  0.0172  1.2518 -0.7729
 5232SOL    HW127158   3.979   2.505   1.927 -0.5558  0.2776  0.8530
 5232SOL    HW227159   4.054   2.406   1.853  0.0408  1.7124 -1.1053
 5233SOL     OW27160   3.879   3.443   4.315 -0.2228  0.5412 -0.1357
 5233SOL    HW127161   3.795   3.484   4.333  0.4018  0.5047  2.8182
 5233SOL    HW227162   3.917   3.499   4.247 -2.5029  1.3967 -0.6829
 5234SOL     OW27163   3.883   4.146   2.517 -0.2159  0.6248  0.1209
 5234SOL    HW127164   3.807   4.109   2.470  0.0075  2.2700 -1.5344
 5234SOL    HW227165   3.846   4.164   2.603 -0.0746 -0.8612  0.4975
 5235SOL     OW27166   3.687   1.836  17.115  0.3096  0.4096  0.0378
 5235SOL    HW127167   3.612   1.886  17.082  1.1557  1.0891 -0.8634
 5235SOL    HW227168   3.649   1.748  17.112  1.7595 -0.2752  2.4937
 5236SOL     OW27169   2.303   1.071  10.903  0.7041 -0.5942  0.4340
 5236SOL    HW127170   2.328   1.118  10.824 -1.5091  2.6691  1.6851
 5236SOL    HW227171   2.337   1.119  10.978 -0.0102  1.6766 -0.7253
 5237SOL     OW27172   1.235   3.407   3.323  0.3310 -0.3565 -0.1253
 5237SOL    HW127173   1.218   3.499   3.302  0.5337  0.0323  1.4651
 5237SOL    HW227174   1.202   3.409   3.412  0.0953  2.7912 -0.2791
 5238SOL     OW27175   0.709   4.618   5.673 -0.3236 -0.0912 -0.5209
 5238SOL    HW127176   0.627   4.654   5.705 -0.4098 -0.8398  0.1000
 5238SOL    HW227177   0.772   4.641   5.741  0.1930 -3.7467  0.2291
 5239SOL     OW27178   0.901   0.900  14.039  0.5804  0.1590 -0.8410
 5239SOL    HW127179   0.931   0.820  14.083  1.9906  0.5977 -1.0207
 5239SOL    HW227180   0.866   0.947  14.115 -1.1965 -2.4691 -0.0447
 5240SOL     OW27181   1.652   4.246   4.875 -0.7131 -0.0858 -0.6344
 5240SOL    HW127182   1.723   4.262   4.814  1.3359 -1.2985  1.4012
 5240SOL    HW227183   1.632   4.159   4.841  0.4011 -0.9441  0.9102
 5241SOL     OW27184   2.130   2.526   5.293  0.4312 -0.0647  0.2319
 5241SOL    HW127185   2.222   2.551   5.286 -0.1491  1.6507 -1.1933
 5241SOL    HW227186   2.105   2.484   5.211 -1.6652  0.3096  0.6988
 5242SOL     OW27187   3.923   3.787   5.632  0.7069  0.2312 -0.1638
 5242SOL    HW127188   3.980   3.717   5.662  1.8050  0.7567 -0.9948
 5242SOL    HW227189   3.847   3.738   5.602 -2.2226  3.1317  2.5584
 5243SOL     OW27190   3.067   4.707   2.381 -0.1104  0.0910 -0.0949
 5243SOL    HW127191   3.090   0.030   2.460 -0.1387 -0.9055  0.5087
 5243SOL    HW227192   3.035   0.056   2.328  0.0261 -1.5072 -2.4138
 5244SOL     OW27193   2.293   2.184   4.386  0.1946 -0.2242  0.1772
 5244SOL    HW127194   2.378   2.163   4.347 -0.2865  0.3522 -1.2025
 5244SOL    HW227195   2.266   2.099   4.421  1.6990 -0.0861  1.6841
 5245SOL     OW27196   0.473   3.440   2.050  0.5280  0.0465 -0.2065
 5245SOL    HW127197   0.532   3.492   1.995  0.5296  0.0661 -0.1860
 5245SOL    HW227198   0.525   3.370   2.090  1.0174  0.9947  0.8307
 5246SOL     OW27199   3.341   2.312  10.525  0.1855 -0.2217  0.1686
 5246SOL    HW127200   3.353   2.407  10.515 -1.3714  0.0315  0.6678
 5246SOL    HW227201   3.386   2.297  10.608  1.1299  1.2508 -0.0788
 5247SOL     OW27202   3.622   2.323   3.063 -0.3796  0.1660  0.0463
 5247SOL    HW127203   3.680   2.364   2.998  1.2226 -2.1118  0.0164
 5247SOL    HW227204   3.691   2.273   3.107  0.2568  1.4141  0.4637
 5248SOL     OW27205   0.167   3.855  11.340 -0.0564 -0.1380  0.8234
 5248SOL    HW127206   0.194   3.850  11.248 -1.6849 -1.1301  0.3899
 5248SOL    HW227207   0.209   3.932  11.377 -0.0547  0.6168 -0.7213
 5249SOL     OW27208   0.560   3.482   9.229  0.7645 -0.2249 -0.1364
 5249SOL    HW127209   0.467   3.463   9.236  1.4133 -3.0480  1.1870
 5249SOL    HW227210   0.599   3.410   9.179 -0.7681  0.0058 -1.6500
 5250SOL     OW27211   1.138   1.386  15.686 -0.9853 -0.2601 -0.2597
 5250SOL    HW127212   1.077   1.313  15.674  0.1921 -1.4068  0.7610
 5250SOL    HW227213   1.100   1.453  15.629  2.5705  2.2589  0.3152
 5251SOL     OW27214   2.182   1.436   4.092 -0.3199  0.0674  0.1888
 5251SOL    HW127215   2.220   1.405   4.010 -0.7248  1.5667 -0.5657
 5251SOL    HW227216   2.143   1.522   4.082 -0.4703  0.1849  1.7171
 5252SOL     OW27217   1.032   3.627   5.887 -0.9594 -0.0402 -0.3860
 5252SOL    HW127218   1.064   3.590   5.969 -1.7257  0.7415  0.2609
 5252SOL    HW227219   1.047   3.720   5.899  0.4546 -0.3864  0.5772
 5253SOL     OW27220   3.131   0.705  13.504  0.6853 -0.0321  0.2867
 5253SOL    HW127221   3.163   0.766  13.569  0.6508  1.5900 -1.2312
 5253SOL    HW227222   3.074   0.763  13.454  2.2724  1.5895  0.3942
 5254SOL     OW27223   0.952   1.640   5.418  0.0137 -0.4569  0.4385
 5254SOL    HW127224   0.919   1.631   5.508 -0.0678 -0.6042  0.3936
 5254SOL    HW227225   0.870   1.650   5.368  0.5083 -0.3439 -0.3416
 5255SOL     OW27226   2.311   1.044  11.864 -0.1430 -0.2120 -0.5489
 5255SOL    HW127227   2.246   1.089  11.811  0.3025 -0.0270 -0.9459
 5255SOL    HW227228   2.279   1.059  11.953 -0.5179  0.6514 -0.8280
 5256SOL     OW27229   3.991   3.973   9.656  0.7069 -0.0221  0.1951
 5256SOL    HW127230   3.916   3.948   9.602  0.9831  1.3047 -0.7883
 5256SOL    HW227231   3.960   4.040   9.718 -1.2587 -0.0412 -0.7879
 5257SOL     OW27232   3.328   1.942   4.377 -0.2553  0.3844 -0.0683
 5257SOL    HW127233   3.264   2.004   4.412 -0.5454  1.2094 -2.0668
 5257SOL    HW227234   3.408   1.995   4.374  0.8232 -1.2815 -1.0576
 5258SOL     OW27235   3.342   4.538   6.149 -0.3627 -0.7209 -0.3511
 5258SOL    HW127236   3.379   4.461   6.192  1.5278 -0.3171 -1.2374
 5258SOL    HW227237   3.250   4.513   6.155 -1.0772  2.0065  0.4009
 5259SOL     OW27238   0.223   2.286   3.803 -0.2933  0.0967  0.4994
 5259SOL    HW127239   0.300   2.294   3.859  0.6358 -0.8082 -0.6279
 5259SOL    HW227240   0.251   2.211   3.749 -0.8016  1.6326 -1.9130
 5260SOL     OW27241   4.581   3.717   0.664  0.6418 -0.2015  0.1004
 5260SOL    HW127242   4.499   3.766   0.664  0.6170 -0.2665  1.4500
 5260SOL    HW227243   4.556   3.632   0.699  0.6676 -0.0636  0.4516
 5261SOL     OW27244   4.484   2.878   7.155 -0.0278 -0.0030  0.1348
 5261SOL    HW127245   4.471   2.946   7.089  0.1980 -0.1024 -0.0150
 5261SOL    HW227246   4.490   2.929   7.236 -1.1379 -1.5846  1.2118
 5262SOL     OW27247   3.625   4.176   7.966 -0.0715  0.3648 -0.0511
 5262SOL    HW127248   3.576   4.112   7.914  1.8926 -1.1833  0.0075
 5262SOL    HW227249   3.701   4.119   7.976 -0.4264  0.3070  2.3047
 5263SOL     OW27250   4.272   0.632  17.646 -0.2461 -0.4660  0.3934
 5263SOL    HW127251   4.349   0.647  17.591  1.6478  3.5210  4.0811
 5263SOL    HW227252   4.260   0.537  17.647 -0.2190 -0.4750 -0.4893
 5264SOL     OW27253   2.322   3.358   8.311 -0.2539  0.3810 -0.1071
 5264SOL    HW127254   2.254   3.306   8.268 -2.9175  3.1382  0.6983
 5264SOL    HW227255   2.389   3.342   8.245 -2.3469  0.9304 -2.3590
 5265SOL     OW27256   1.807   0.810   3.557  0.5969 -0.1823  0.3402
 5265SOL    HW127257   1.862   0.781   3.484 -1.1301 -0.4682 -0.8703
 5265SOL    HW227258   1.722   0.790   3.517  1.3566  0.3047 -1.5351
 5266SOL     OW27259   0.851   4.603   0.062 -0.6209  0.1116 -0.1117
 5266SOL    HW127260   0.829   4.528   0.118  1.7699  0.1557  0.8674
 5266SOL    HW227261   0.928   4.569   0.016  0.7419  1.3224  1.2807
 5267SOL     OW27262   3.491   3.747  17.561 -0.0514 -0.3685  0.0358
 5267SOL    HW127263   3.458   3.756  17.472  0.8910 -0.4043 -0.3227
 5267SOL    HW227264   3.445   3.668  17.590 -1.3710  0.9692  1.5505
 5268SOL     OW27265   3.750   1.900  14.676 -0.0694  0.1122  0.0221
 5268SOL    HW127266   3.736   1.993  14.660 -4.0459 -0.4295  0.2999
 5268SOL    HW227267   3.790   1.894  14.762  0.3825  0.1869 -0.1812
 5269SOL     OW27268   3.663   0.007   7.145 -0.1749 -0.3827 -0.6819
 5269SOL    HW127269   3.580   0.036   7.108 -1.1212 -3.2097 -0.7683
 5269SOL    HW227270   3.634   4.657   7.198  1.2663  1.0424  2.1186
 5270SOL     OW27271   3.983   4.693   0.419 -0.1248  0.7288 -0.4006
 5270SOL    HW127272   3.991   0.012   0.334  0.9917 -0.9565 -1.1459
 5270SOL    HW227273   3.904   0.015   0.449 -0.1692  0.1937  0.3033
 5271SOL     OW27274   2.082   4.721   6.385  0.2383 -0.2255  0.1375
 5271SOL    HW127275   2.126   0.074   6.349  1.7060 -0.6822  0.9793
 5271SOL    HW227276   2.073   0.027   6.476  0.3726 -0.4371  0.2207
 5272SOL     OW27277   1.053   3.341   2.954 -0.3573  0.1857 -0.0840
 5272SOL    HW127278   0.981   3.382   3.002 -1.8793 -0.7441 -1.5616
 5272SOL    HW227279   1.060   3.417   2.895  1.3006 -0.3207 -0.5148
 5273SOL     OW27280   3.229   2.748   4.987  0.0088  0.5645  0.0979
 5273SOL    HW127281   3.188   2.661   4.983  0.5808  0.2408  1.0580
 5273SOL    HW227282   3.300   2.735   4.924 -1.3658 -2.3709 -0.8295
 5274SOL     OW27283   2.199   2.066  15.729 -0.6659 -0.2948 -0.2538
 5274SOL    HW127284   2.188   1.983  15.683  0.8776  0.3067 -1.7014
 5274SOL    HW227285   2.112   2.101  15.712 -1.2937 -0.9215  1.6957
 5275SOL     OW27286   0.773   3.464   9.430 -0.2412  0.3951  0.2678
 5275SOL    HW127287   0.690   3.467   9.383  0.3972  0.3110 -0.8595
 5275SOL    HW227288   0.750   3.512   9.510  0.0440  1.3557 -0.2329
 5276SOL     OW27289   3.014   2.347   1.660 -0.8423 -1.2311 -0.4436
 5276SOL    HW127290   2.978   2.342   1.571 -1.3327  1.3801 -0.3887
 5276SOL    HW227291   3.002   2.257   1.690  0.1954 -0.8779  1.0085
 5277SOL     OW27292   0.624   1.413   5.602 -0.2269 -0.6714 -0.2033
 5277SOL    HW127293   0.684   1.436   5.673  0.4836  1.1902 -1.4142
 5277SOL    HW227294   0.642   1.468   5.526  2.1279  0.3803  1.1105
 5278SOL     OW27295   1.522   4.592   4.177  0.2427  0.3551 -0.2449
 5278SOL    HW127296   1.474   4.571   4.097  0.6929  0.5349 -0.5615
 5278SOL    HW227297   1.492   4.526   4.240 -0.0031  0.6338 -0.0737
 5279SOL     OW27298   1.701   4.055   3.071  0.3860  0.1802  0.1454
 5279SOL    HW127299   1.776   4.113   3.061  1.0435 -1.1445 -2.6501
 5279SOL    HW227300   1.679   4.033   2.981  5.2562 -0.4941 -0.8685
 5280SOL     OW27301   4.221   2.365   6.893 -0.4898 -0.4643 -0.1504
 5280SOL    HW127302   4.310   2.399   6.903 -1.9183  3.7777 -1.9828
 5280SOL    HW227303   4.234   2.279   6.934  0.3074 -0.5176 -0.5111
 5281SOL     OW27304   3.135   2.122   8.938 -0.2812  0.0847 -0.0053
 5281SOL    HW127305   3.096   2.082   9.016  0.1925 -0.6355 -0.1373
 5281SOL    HW227306   3.059   2.175   8.913 -0.9429 -0.7712  0.1832
 5282SOL     OW27307   4.712   1.169  10.108  0.4288 -0.0001 -0.3528
 5282SOL    HW127308   4.652   1.241  10.130 -1.4876 -1.2575 -1.4910
 5282SOL    HW227309   4.708   1.169  10.013  1.1575  1.8095 -0.3950
 5283SOL     OW27310   2.864   2.236   2.022 -0.2436  0.1492  0.2569
 5283SOL    HW127311   2.816   2.196   2.093 -0.2969 -2.2823 -1.1641
 5283SOL    HW227312   2.810   2.215   1.946 -0.8496 -0.7920  0.9517
 5284SOL     OW27313   1.855   2.847   7.773 -0.2703 -0.2870  0.2849
 5284SOL    HW127314   1.934   2.853   7.827 -0.3005  2.2778  0.0692
 5284SOL    HW227315   1.884   2.770   7.725  1.1080  1.2057 -1.2602
 5285SOL     OW27316   4.282   3.267   6.516 -1.3504 -0.1036  0.3140
 5285SOL    HW127317   4.297   3.190   6.571  1.8941 -0.7407 -1.4839
 5285SOL    HW227318   4.365   3.276   6.469 -0.9197  1.9881  1.4171
 5286SOL     OW27319   1.822   1.062  12.079  0.3512 -0.3940  0.5860
 5286SOL    HW127320   1.871   0.996  12.031 -0.4404  1.1846 -2.3968
 5286SOL    HW227321   1.781   1.119  12.013  0.6233  0.2332  0.9570
 5287SOL     OW27322   0.743   1.776   8.521  0.0517 -0.1807  0.2005
 5287SOL    HW127323   0.770   1.764   8.612  0.8032  0.2945  0.0378
 5287SOL    HW227324   0.805   1.714   8.484  0.6117 -0.8890  2.3216
 5288SOL     OW27325   3.119   0.649   7.878  0.0774  0.0387 -0.1529
 5288SOL    HW127326   3.197   0.626   7.929 -1.7623 -1.8677  1.7939
 5288SOL    HW227327   3.108   0.566   7.832  1.5171  0.7048 -1.6903
 5289SOL     OW27328   1.943   2.517   5.673 -0.4849  0.7851 -0.1644
 5289SOL    HW127329   1.992   2.452   5.623 -2.6898 -0.7533 -0.3192
 5289SOL    HW227330   1.868   2.540   5.620 -0.2838  1.9673  0.0689
 5290SOL     OW27331   2.630   4.295  16.382 -0.4773 -0.2289 -0.6872
 5290SOL    HW127332   2.624   4.383  16.344  0.8538  0.1753  0.0559
 5290SOL    HW227333   2.539   4.272  16.400 -0.8671  0.9623 -1.1453
 5291SOL     OW27334   2.969   0.942  10.160 -0.0935 -0.6366 -0.2830
 5291SOL    HW127335   3.022   1.012  10.196  0.6513 -0.1971 -2.2216
 5291SOL    HW227336   2.915   0.927  10.238 -0.0257  0.1525 -0.0850
 5292SOL     OW27337   2.038   0.337   8.058  0.1527 -0.9191 -0.3670
 5292SOL    HW127338   2.045   0.256   8.107  3.1697 -0.0731  0.5760
 5292SOL    HW227339   1.944   0.354   8.065  0.6721  2.1472 -0.5835
 5293SOL     OW27340   2.868   1.541   2.212 -0.2067 -0.4078  0.3942
 5293SOL    HW127341   2.826   1.501   2.289 -1.2958  1.4436  0.7607
 5293SOL    HW227342   2.877   1.628   2.251 -1.7286 -0.2076  0.3104
 5294SOL     OW27343   2.925   2.816   9.338  0.0666  0.3704 -0.0946
 5294SOL    HW127344   2.953   2.734   9.379  1.0146 -0.5895 -2.6494
 5294SOL    HW227345   2.898   2.853   9.422  0.5783 -1.2515  0.7895
 5295SOL     OW27346   1.518   4.477   4.801 -0.5387  0.1116  0.3055
 5295SOL    HW127347   1.545   4.396   4.846 -0.8781 -0.9423 -1.4059
 5295SOL    HW227348   1.572   4.488   4.723 -0.2396  2.9161  0.9139
 5296SOL     OW27349   4.504   2.980   5.201 -0.1030  0.5232 -0.0387
 5296SOL    HW127350   4.549   3.049   5.152  1.2309  0.5969  1.2809
 5296SOL    HW227351   4.542   2.998   5.287 -0.0971 -0.7587  0.2164
 5297SOL     OW27352   0.243   3.451   4.289  0.2828  0.0354  0.1679
 5297SOL    HW127353   0.150   3.431   4.297 -0.1398  1.1103 -2.1027
 5297SOL    HW227354   0.270   3.499   4.368  0.5766 -0.2815  0.2586
 5298SOL     OW27355   0.154   0.182  13.425  0.2408  0.1316 -0.0327
 5298SOL    HW127356   0.117   0.095  13.441  1.7289 -0.2470  1.2376
 5298SOL    HW227357   0.103   0.220  13.353  0.7355 -1.4979 -1.2427
 5299SOL     OW27358   4.292   2.235   5.206  0.1688  0.2022 -0.2997
 5299SOL    HW127359   4.231   2.173   5.167 -0.7217 -0.2090  1.7665
 5299SOL    HW227360   4.251   2.318   5.182 -0.1670  0.7651  2.2533
 5300SOL     OW27361   2.853   3.108   8.643 -0.1882 -0.2428 -0.3304
 5300SOL    HW127362   2.914   3.058   8.699  0.6305  0.6777 -0.4044
 5300SOL    HW227363   2.773   3.074   8.684 -0.1199 -1.2137 -0.9985
 5301SOL     OW27364   4.252   1.023   2.091  0.0815  0.3598  0.3786
 5301SOL    HW127365   4.160   1.049   2.084  0.4343  1.5138  0.0975
 5301SOL    HW227366   4.291   1.088   2.033 -0.6890  0.2060 -0.3117
 5302SOL     OW27367   4.668   1.622  14.868 -0.3946  0.4809  0.0072
 5302SOL    HW127368   4.622   1.564  14.929  1.7854  1.0438  2.2009
 5302SOL    HW227369   4.716   1.682  14.926 -0.1438  0.3138 -0.0244
 5303SOL     OW27370   1.539   4.672   7.293 -0.0738  0.4371  0.4128
 5303SOL    HW127371   1.475   0.020   7.291 -0.7641 -0.2313 -1.3245
 5303SOL    HW227372   1.616   0.005   7.293  0.9208 -0.9092  1.1749
 5304SOL     OW27373   0.479   2.294   7.828 -0.3294  0.2194  0.3748
 5304SOL    HW127374   0.537   2.246   7.887 -1.0091 -1.2052 -0.1150
 5304SOL    HW227375   0.435   2.356   7.885 -0.2879  0.1517  0.4801
 5305SOL     OW27376   0.147   4.446   8.981  0.1115 -0.0496  0.0987
 5305SOL    HW127377   0.231   4.400   8.986 -1.1699 -2.6401 -1.7785
 5305SOL    HW227378   0.087   4.397   9.038 -0.4911  1.4634  0.7546
 5306SOL     OW27379   1.821   3.850   6.052  0.0641  0.4790  0.0978
 5306SOL    HW127380   1.913   3.832   6.034 -0.4354 -3.2468  1.2448
 5306SOL    HW227381   1.824   3.945   6.040  3.4715  0.3762  0.2155
 5307SOL     OW27382   0.216   3.504   2.127  0.2113 -0.3196 -0.3667
 5307SOL    HW127383   0.165   3.567   2.075 -0.3263 -1.0992 -0.7812
 5307SOL    HW227384   0.304   3.502   2.091  1.6688 -1.6787  3.2233
 5308SOL     OW27385   0.692   1.715  16.544  0.3037  0.2090  0.3591
 5308SOL    HW127386   0.727   1.657  16.610 -0.2609  0.0579  0.5257
 5308SOL    HW227387   0.694   1.803  16.583 -1.5098  0.3262  0.2148
 5309SOL     OW27388   4.642   4.559   7.583  0.1330 -0.1849  0.6803
 5309SOL    HW127389   0.013   4.564   7.564  0.2323 -0.5192  1.1062
 5309SOL    HW227390   4.602   4.597   7.505  0.0945 -0.8385  0.3787
 5310SOL     OW27391   1.443   3.440   0.732 -0.5160 -0.1343 -0.1032
 5310SOL    HW127392   1.481   3.476   0.812 -0.6681  1.0028 -0.5436
 5310SOL    HW227393   1.441   3.520   0.679  0.8349 -0.0600 -0.0372
 5311SOL     OW27394   3.555   2.493   5.638 -0.1478 -0.2631  0.4143
 5311SOL    HW127395   3.602   2.432   5.696 -0.5879  0.3762  1.4390
 5311SOL    HW227396   3.627   2.537   5.593 -1.1913  1.4810  0.4623
 5312SOL     OW27397   0.420   2.774  16.696 -0.9741  0.3954 -0.5508
 5312SOL    HW127398   0.496   2.810  16.650  0.5211 -1.9406  0.0555
 5312SOL    HW227399   0.371   2.757  16.616 -2.4338 -0.6772  0.5738
 5313SOL     OW27400   4.290   2.858   1.815 -0.0907  0.3380  0.1195
 5313SOL    HW127401   4.348   2.897   1.880 -0.1284 -1.4175  1.2036
 5313SOL    HW227402   4.348   2.796   1.772 -1.6108  0.8655 -2.7242
 5314SOL     OW27403   2.128   3.414   9.298  0.9239  0.2173  0.3675
 5314SOL    HW127404   2.085   3.390   9.380 -0.2802  3.0543  0.5855
 5314SOL    HW227405   2.208   3.363   9.309  0.5391 -0.5437 -0.3216
 5315SOL     OW27406   3.385   3.440   2.821  0.2973  0.0322  0.3906
 5315SOL    HW127407   3.378   3.527   2.782 -0.0535 -0.6949 -1.1499
 5315SOL    HW227408   3.313   3.399   2.774 -0.4700  0.5782  1.0846
 5316SOL     OW27409   1.556   2.629   3.861  0.1379 -0.7395  0.0380
 5316SOL    HW127410   1.486   2.637   3.926 -1.1861 -1.3016 -1.3294
 5316SOL    HW227411   1.530   2.550   3.814 -0.8234 -1.6097  2.0275
 5317SOL     OW27412   2.508   2.266   2.533  0.2352 -0.5606 -0.1711
 5317SOL    HW127413   2.561   2.345   2.547 -0.5714  0.4632 -2.9042
 5317SOL    HW227414   2.510   2.256   2.438  0.1208 -2.9887  0.0787
 5318SOL     OW27415   4.243   2.054  15.449 -0.5394 -1.0445 -0.5110
 5318SOL    HW127416   4.321   2.038  15.396  0.2379  0.4101  0.1904
 5318SOL    HW227417   4.195   1.974  15.428 -2.3784  0.1063 -0.6866
 5319SOL     OW27418   4.508   2.534   2.876 -0.4688 -0.2253  0.2676
 5319SOL    HW127419   4.479   2.449   2.911  1.2807 -0.8935  0.1031
 5319SOL    HW227420   4.595   2.553   2.909 -0.7433  0.8433  0.3577
 5320SOL     OW27421   3.903   1.490  10.522  0.3650  0.0741 -0.0315
 5320SOL    HW127422   3.856   1.546  10.460 -0.6021 -1.3615 -0.5944
 5320SOL    HW227423   3.987   1.461  10.485  0.8985 -0.4605  1.6038
 5321SOL     OW27424   2.889   0.390  13.620  0.0363  0.4099  0.2252
 5321SOL    HW127425   2.889   0.412  13.527  1.3887 -0.8999 -0.0807
 5321SOL    HW227426   2.817   0.327  13.623 -0.4245  0.9341 -0.0194
 5322SOL     OW27427   2.843   1.951   6.481  0.1379 -0.5822 -0.0624
 5322SOL    HW127428   2.753   1.984   6.474  0.1776 -0.3509  0.4622
 5322SOL    HW227429   2.891   2.000   6.415 -2.3334 -1.0891 -2.2469
 5323SOL     OW27430   3.129   1.107   6.805  0.1910 -0.0366  0.9374
 5323SOL    HW127431   3.119   1.201   6.817 -0.7657 -0.0034 -0.2015
 5323SOL    HW227432   3.054   1.073   6.854 -1.3321 -1.4046 -2.3434
 5324SOL     OW27433   1.259   4.213  11.987 -0.3561  0.1918 -0.2693
 5324SOL    HW127434   1.336   4.231  12.041 -0.3867 -1.5062  0.3315
 5324SOL    HW227435   1.272   4.122  11.958  0.7810  0.5433 -0.8949
 5325SOL     OW27436   3.058   2.864   8.349 -0.2124  0.4739  0.1012
 5325SOL    HW127437   3.084   2.866   8.441 -0.3795 -1.1032  0.1889
 5325SOL    HW227438   2.975   2.817   8.356 -0.6856  1.2906 -0.0242
 5326SOL     OW27439   4.347   0.614   5.620 -0.3725  0.0338 -0.1144
 5326SOL    HW127440   4.371   0.685   5.560  2.2371  0.2841  1.2506
 5326SOL    HW227441   4.346   0.541   5.558 -1.4146 -1.9535  2.2505
 5327SOL     OW27442   4.616   2.647   8.898  0.2859  0.1053 -0.3521
 5327SOL    HW127443   4.611   2.597   8.817  0.0159  0.5434 -0.6065
 5327SOL    HW227444   4.557   2.720   8.882  0.7114  0.5332  0.0094
 5328SOL     OW27445   4.651   3.196   5.076  1.1239  0.2545  0.0345
 5328SOL    HW127446   4.674   3.199   4.983  0.2322  1.1435 -0.1523
 5328SOL    HW227447   4.675   3.282   5.109  3.3933 -0.2535 -0.2898
 5329SOL     OW27448   3.510   1.267   3.283  0.8671  0.2894  0.0381
 5329SOL    HW127449   3.555   1.195   3.239  0.9262 -0.4603  1.3114
 5329SOL    HW227450   3.512   1.235   3.373 -1.9442 -0.1879 -0.0720
 5330SOL     OW27451   4.319   1.785   3.794  0.3983  0.2750  0.0301
 5330SOL    HW127452   4.374   1.720   3.836 -2.9469 -1.6060  1.4486
 5330SOL    HW227453   4.382   1.845   3.754 -0.3130  0.2555 -1.1109
 5331SOL     OW27454   4.132   0.069  10.512 -0.5085 -0.0137  0.4616
 5331SOL    HW127455   4.135   0.098  10.603  2.7838 -1.8513  0.9230
 5331SOL    HW227456   4.223   0.058  10.485 -0.4645  0.4896  0.4039
 5332SOL     OW27457   1.527   1.253   8.032 -0.4240 -0.3701  0.0332
 5332SOL    HW127458   1.549   1.161   8.012  0.4875 -0.3024  0.6879
 5332SOL    HW227459   1.482   1.243   8.116 -0.0662  1.7985  0.4773
 5333SOL     OW27460   0.117   4.245   1.844  0.0023  0.5959 -0.6529
 5333SOL    HW127461   0.187   4.236   1.908 -1.0946  0.6536  0.5673
 5333SOL    HW227462   0.094   4.338   1.853 -0.7725  0.4302 -0.9324
 5334SOL     OW27463   4.435   2.983   3.529 -0.1349 -0.7551  0.0484
 5334SOL    HW127464   4.514   2.938   3.558 -0.1330  0.7432  2.4120
 5334SOL    HW227465   4.372   2.926   3.573  0.7332 -1.8932 -0.1807
 5335SOL     OW27466   2.337   2.969   1.899  0.3210  0.0658  0.2674
 5335SOL    HW127467   2.280   2.902   1.861  1.1406 -0.4961  0.0476
 5335SOL    HW227468   2.387   2.988   1.820  0.6374 -0.9340  0.2281
 5336SOL     OW27469   0.140   3.554   0.890 -0.2699  0.0975  0.1977
 5336SOL    HW127470   0.130   3.467   0.850  1.4236 -0.6408  1.4007
 5336SOL    HW227471   0.122   3.603   0.810 -0.4762  0.3909  0.4277
 5337SOL     OW27472   4.258   0.117   5.734 -0.1823  0.4957 -0.0643
 5337SOL    HW127473   4.291   0.154   5.816  0.1052 -0.3781  0.2145
 5337SOL    HW227474   4.188   0.180   5.714 -1.0213 -0.3529  0.1945
 5338SOL     OW27475   3.353   2.748   7.083  0.2458 -0.7651 -0.4713
 5338SOL    HW127476   3.426   2.753   7.021  0.5204 -0.4017 -0.1171
 5338SOL    HW227477   3.352   2.653   7.095 -0.1377 -0.5712  0.9695
 5339SOL     OW27478   0.756   0.438   5.876 -0.1016  0.1308  0.0363
 5339SOL    HW127479   0.720   0.470   5.959  3.9169 -0.6294  2.0715
 5339SOL    HW227480   0.815   0.511   5.857 -1.3965  1.0504 -0.4701
 5340SOL     OW27481   1.556   2.907  17.684 -0.5476  0.0277 -1.2727
 5340SOL    HW127482   1.643   2.868  17.685  0.5338  2.4215 -2.0550
 5340SOL    HW227483   1.572   2.996   0.019 -0.7625 -0.8537  1.2707
 5341SOL     OW27484   0.486   1.477  17.029 -0.1475  0.5798 -0.5527
 5341SOL    HW127485   0.553   1.508  17.089  0.9939  0.1318 -1.5784
 5341SOL    HW227486   0.512   1.507  16.942 -1.2530 -0.5424 -1.2752
 5342SOL     OW27487   1.062   1.548   7.484  0.6624  0.0822 -0.3273
 5342SOL    HW127488   0.992   1.594   7.532 -0.5667 -1.3504 -0.7557
 5342SOL    HW227489   1.125   1.620   7.481  2.2567 -1.3966 -1.7399
 5343SOL     OW27490   0.209   3.587   3.328 -0.5029 -0.1614  0.4171
 5343SOL    HW127491   0.282   3.546   3.283  0.0172  0.2959  0.8494
 5343SOL    HW227492   0.234   3.679   3.318 -1.1824  0.0445  0.6151
 5344SOL     OW27493   1.990   1.943   6.686  0.4204  0.1081  0.1613
 5344SOL    HW127494   2.017   1.982   6.769  0.8113  1.5357 -0.6135
 5344SOL    HW227495   1.940   1.873   6.726 -0.8571  0.4948 -0.7656
 5345SOL     OW27496   2.569   0.597   6.106  0.2082  0.3926 -0.2124
 5345SOL    HW127497   2.571   0.590   6.201 -0.4602  1.6705 -0.1008
 5345SOL    HW227498   2.661   0.621   6.096  0.3087  0.3103  0.5167
 5346SOL     OW27499   1.200   2.350   5.489 -0.0540  0.5595  0.0387
 5346SOL    HW127500   1.170   2.297   5.562  1.3193  1.1755  1.0529
 5346SOL    HW227501   1.295   2.344   5.495 -0.2552  0.1455  2.8942
 5347SOL     OW27502   2.251   1.435   8.642  0.1507  0.3372  0.0593
 5347SOL    HW127503   2.252   1.429   8.547 -3.5034 -4.4220  0.3016
 5347SOL    HW227504   2.204   1.517   8.660 -0.1360  0.5313 -1.6139
 5348SOL     OW27505   1.717   0.924  14.862  0.0759  0.3493  1.1994
 5348SOL    HW127506   1.660   0.859  14.821 -1.0958  0.2644  2.9692
 5348SOL    HW227507   1.672   0.929  14.946 -1.2993 -0.5363  0.5091
 5349SOL     OW27508   1.974   1.524  12.972 -0.1289  0.0556 -0.9228
 5349SOL    HW127509   2.061   1.523  13.011 -0.1732  1.9305 -0.7878
 5349SOL    HW227510   1.954   1.433  12.951  0.5994 -0.3003 -0.0316
 5350SOL     OW27511   2.255   3.730   6.369  0.3463  0.0718 -0.0338
 5350SOL    HW127512   2.203   3.710   6.446  3.0138 -2.1718  1.1845
 5350SOL    HW227513   2.330   3.778   6.404  0.1919  1.7742 -2.0734
 5351SOL     OW27514   3.558   0.138   2.033 -0.0149 -0.3594  0.4441
 5351SOL    HW127515   3.580   0.050   2.002  0.0610 -0.7943  1.7164
 5351SOL    HW227516   3.575   0.187   1.953 -1.0287  0.1194  0.5117
 5352SOL     OW27517   1.340   1.076  11.305  0.2876  0.4720  0.6074
 5352SOL    HW127518   1.273   1.110  11.365  0.5813  0.8528  0.7156
 5352SOL    HW227519   1.297   1.105  11.225  0.1187 -0.0588  0.5034
 5353SOL     OW27520   1.365   0.699  12.726 -0.7737 -0.4819 -0.6423
 5353SOL    HW127521   1.446   0.652  12.747 -0.5426  0.6417  1.0211
 5353SOL    HW227522   1.375   0.759  12.800 -1.3825 -1.0696 -0.0815
 5354SOL     OW27523   2.300   0.369  16.054  0.0779  0.4550  0.0408
 5354SOL    HW127524   2.234   0.387  16.122 -0.7751 -0.9350 -0.4128
 5354SOL    HW227525   2.287   0.280  16.022 -0.2764  1.0430 -1.4199
 5355SOL     OW27526   1.103   0.252   0.492  0.2946  0.0771  0.2250
 5355SOL    HW127527   1.044   0.320   0.524 -1.9643 -1.7152 -0.0919
 5355SOL    HW227528   1.124   0.273   0.401  0.1847  0.8885  0.3918
 5356SOL     OW27529   0.504   2.573   4.930  0.0036  0.3560 -0.2543
 5356SOL    HW127530   0.574   2.555   4.868  0.0027  1.2483 -0.5098
 5356SOL    HW227531   0.547   2.629   4.995  0.5322 -1.6881  1.1623
 5357SOL     OW27532   0.584   3.780  15.448  0.0498 -0.2781 -0.7762
 5357SOL    HW127533   0.497   3.770  15.409 -0.4240 -0.4862  0.3338
 5357SOL    HW227534   0.574   3.737  15.533  0.8612  1.5177  0.2261
 5358SOL     OW27535   3.527   3.511  15.499 -0.2288 -0.0871 -0.4409
 5358SOL    HW127536   3.512   3.503  15.405  1.1257  1.7450 -0.8154
 5358SOL    HW227537   3.471   3.442  15.534 -0.5178  0.9758  1.2140
 5359SOL     OW27538   2.106   1.166   8.682  0.1816  0.2447 -0.3673
 5359SOL    HW127539   2.149   1.141   8.764  0.0461  0.8550 -0.1138
 5359SOL    HW227540   2.142   1.254   8.672 -0.2639  0.5646  0.8235
 5360SOL     OW27541   1.987   1.597   6.199  0.0232  0.5933 -0.3228
 5360SOL    HW127542   1.901   1.622   6.165  0.0920 -0.8602 -1.5623
 5360SOL    HW227543   1.985   1.650   6.278  0.4883 -2.3537  1.6621
 5361SOL     OW27544   3.080   0.495  10.639 -0.4430 -0.3349 -0.2478
 5361SOL    HW127545   3.008   0.435  10.657  1.1180 -1.9572  0.5115
 5361SOL    HW227546   3.131   0.484  10.719  0.4327  0.6684 -0.6638
 5362SOL     OW27547   3.565   3.294   2.272  0.2671  0.0072 -0.2427
 5362SOL    HW127548   3.622   3.217   2.280 -0.3426 -0.1115  2.7956
 5362SOL    HW227549   3.517   3.284   2.189  1.3269  1.4411 -1.0318
 5363SOL     OW27550   3.950   2.685   2.783 -0.4402 -0.0291  1.0050
 5363SOL    HW127551   4.023   2.721   2.832  0.1603 -0.7696  0.6535
 5363SOL    HW227552   3.880   2.679   2.849 -0.7545  2.5536  0.8933
 5364SOL     OW27553   1.979   2.633   2.847 -0.2830  0.1200 -0.3767
 5364SOL    HW127554   1.886   2.650   2.860  0.4809  2.6792  1.7693
 5364SOL    HW227555   2.011   2.600   2.931  0.4636  0.9028 -0.3513
 5365SOL     OW27556   1.366   3.873  13.154 -0.3862  0.0945 -0.2863
 5365SOL    HW127557   1.426   3.918  13.213 -1.0536  0.9849 -0.3011
 5365SOL    HW227558   1.302   3.943  13.145 -0.9243 -0.4423 -0.7013
 5366SOL     OW27559   0.075   2.007   6.851  0.6386 -0.1237 -0.0844
 5366SOL    HW127560   0.069   1.989   6.757  0.6206 -0.2149 -0.0656
 5366SOL    HW227561   0.145   2.072   6.849  3.1593 -2.9375 -1.8695
 5367SOL     OW27562   0.637   3.585   1.909 -0.1389  0.7215 -0.1406
 5367SOL    HW127563   0.626   3.593   1.814 -2.4839 -0.6678 -0.0105
 5367SOL    HW227564   0.609   3.671   1.939 -0.8235 -0.3477  2.3257
 5368SOL     OW27565   1.696   4.604   5.006 -0.0786 -0.1380 -0.6756
 5368SOL    HW127566   1.643   4.587   4.927 -0.0770 -1.0525 -0.4764
 5368SOL    HW227567   1.775   4.642   4.968  0.2779 -0.3629 -0.1513
 5369SOL     OW27568   3.766   4.495   2.568 -0.1430 -0.2077 -0.2743
 5369SOL    HW127569   3.826   4.456   2.631  1.4846  1.9459 -0.5035
 5369SOL    HW227570   3.720   4.413   2.550 -3.6481  1.6994  0.0259
 5370SOL     OW27571   3.823   2.033   2.769 -0.0063 -0.0206  0.3461
 5370SOL    HW127572   3.775   2.077   2.698 -0.5460  0.0257  0.7410
 5370SOL    HW227573   3.810   2.092   2.843  0.2382  0.4924 -0.0204
 5371SOL     OW27574   0.822   3.465   7.600  0.0617  0.2444 -0.0661
 5371SOL    HW127575   0.823   3.402   7.528  0.5079 -0.5345  0.6358
 5371SOL    HW227576   0.732   3.457   7.633 -0.0641  0.0894 -0.4455
 5372SOL     OW27577   2.899   4.076  15.074  0.1997 -0.5133 -0.2268
 5372SOL    HW127578   2.859   4.162  15.063 -3.0530 -1.6375  2.8730
 5372SOL    HW227579   2.908   4.050  14.982  1.7953 -3.8121  0.8428
 5373SOL     OW27580   3.703   4.447   5.334 -0.2816 -0.1826 -0.2713
 5373SOL    HW127581   3.716   4.362   5.293 -1.5957 -0.2301 -0.6044
 5373SOL    HW227582   3.614   4.425   5.361  0.3754  0.1568  2.0955
 5374SOL     OW27583   1.378   4.038  11.657 -0.7325  0.3921  0.1582
 5374SOL    HW127584   1.300   3.983  11.653  0.7137 -1.6850  0.7064
 5374SOL    HW227585   1.410   4.029  11.747  1.1322  0.7904 -0.4475
 5375SOL     OW27586   2.477   0.704   4.669 -0.2040 -0.3251  0.4894
 5375SOL    HW127587   2.496   0.625   4.619 -1.3893 -2.0981  2.8202
 5375SOL    HW227588   2.523   0.768   4.615  2.2011 -2.3213  0.1348
 5376SOL     OW27589   3.059   1.592   6.141 -0.2573  0.2776  0.1433
 5376SOL    HW127590   3.105   1.609   6.059 -0.4889 -1.6998 -0.3853
 5376SOL    HW227591   3.031   1.680   6.168  1.0375  0.6531  0.2377
 5377SOL     OW27592   3.397   2.632  10.132  0.5551  0.5148 -0.8316
 5377SOL    HW127593   3.331   2.677  10.183 -0.5933 -0.4840 -1.4298
 5377SOL    HW227594   3.353   2.547  10.127  1.1686  0.2320 -1.5820
 5378SOL     OW27595   0.575   2.564   6.965  0.1036  0.5385 -0.3667
 5378SOL    HW127596   0.626   2.594   7.040  1.2075  0.5661 -1.1379
 5378SOL    HW227597   0.547   2.474   6.985  1.3918 -0.1738 -1.7533
 5379SOL     OW27598   2.422   0.575   7.400  0.2085 -0.4366  0.0156
 5379SOL    HW127599   2.368   0.502   7.369  0.6389 -1.1461  0.9388
 5379SOL    HW227600   2.502   0.537   7.365  0.6582 -0.5147  1.1500
 5380SOL     OW27601   3.559   4.320   7.024 -0.5674 -0.0492 -0.0837
 5380SOL    HW127602   3.637   4.301   7.075  0.4415 -1.5653 -2.1799
 5380SOL    HW227603   3.511   4.237   7.031 -0.3213 -0.3825 -2.2200
 5381SOL     OW27604   2.245   2.722   8.841 -0.4776  0.2011  0.0733
 5381SOL    HW127605   2.208   2.655   8.784  2.2587 -0.2140 -1.2201
 5381SOL    HW227606   2.163   2.763   8.868 -1.6013 -0.6019 -2.1201
 5382SOL     OW27607   2.825   0.584   8.254 -0.0832  0.4183  0.2454
 5382SOL    HW127608   2.732   0.597   8.273 -0.0501  0.8619  0.1210
 5382SOL    HW227609   2.871   0.609   8.334 -0.4669 -2.1455  1.2600
 5383SOL     OW27610   1.437   4.523   7.060 -0.3270 -0.0211 -0.2268
 5383SOL    HW127611   1.475   4.440   7.031 -1.2851 -0.5376 -0.0070
 5383SOL    HW227612   1.440   4.515   7.155 -1.6422  1.6143 -0.0587
 5384SOL     OW27613   1.957   4.355   2.948  0.2266 -0.1450  0.6850
 5384SOL    HW127614   1.867   4.355   2.981 -0.5602  0.3604 -1.4700
 5384SOL    HW227615   2.008   4.287   2.992  2.6474  0.6906 -0.8049
 5385SOL     OW27616   3.513   0.700   0.795 -0.0937  0.7014 -0.1827
 5385SOL    HW127617   3.462   0.714   0.715  1.4382  0.7191 -1.1629
 5385SOL    HW227618   3.595   0.748   0.784  0.7543 -0.5790  0.5395
 5386SOL     OW27619   1.101   4.404  13.055  0.7681 -0.0391  0.0441
 5386SOL    HW127620   1.024   4.453  13.084  0.5688 -0.2642 -0.0978
 5386SOL    HW227621   1.056   4.328  13.017  0.4902 -1.2449  2.7983
 5387SOL     OW27622   4.336   0.495   9.872 -0.1174 -0.4980 -0.2586
 5387SOL    HW127623   4.346   0.411   9.916  0.1406 -0.6889 -0.6834
 5387SOL    HW227624   4.396   0.485   9.799 -2.0280  1.4775 -2.0905
 5388SOL     OW27625   4.344   3.998   4.307  0.2038 -0.8645  0.1197
 5388SOL    HW127626   4.408   3.992   4.378  1.7047  0.0708 -1.1636
 5388SOL    HW227627   4.374   4.079   4.267  0.2357 -0.4414  1.0215
 5389SOL     OW27628   1.248   1.746   8.968  0.2023  0.6546 -0.1422
 5389SOL    HW127629   1.258   1.766   9.061 -0.1167  2.5499 -0.5140
 5389SOL    HW227630   1.292   1.661   8.962  0.2119  0.6115  0.5746
 5390SOL     OW27631   0.314   4.152   4.944  0.3429  0.6454  0.0159
 5390SOL    HW127632   0.301   4.179   4.853 -1.1986  1.1279  0.3818
 5390SOL    HW227633   0.309   4.239   4.982 -3.7048  0.1055  0.7633
 5391SOL     OW27634   4.108   3.041   8.815 -0.0572 -0.2579 -0.2180
 5391SOL    HW127635   4.113   3.031   8.910 -1.2120 -4.0617 -0.5618
 5391SOL    HW227636   4.201   3.045   8.793  0.0268 -4.0781 -0.4830
 5392SOL     OW27637   1.811   4.595   5.371  0.4340 -0.4896  0.3979
 5392SOL    HW127638   1.856   4.510   5.369  1.1011 -0.1041 -1.4545
 5392SOL    HW227639   1.802   4.620   5.463 -1.0001  1.4747 -0.2680
 5393SOL     OW27640   2.869   0.533   5.804  0.1039 -0.4847 -0.1496
 5393SOL    HW127641   2.845   0.587   5.880  0.4031  0.7565 -0.9258
 5393SOL    HW227642   2.791   0.551   5.751  0.2189  0.8081  0.1120
 5394SOL     OW27643   2.263   2.318   2.680 -0.2255 -0.5939 -0.3027
 5394SOL    HW127644   2.329   2.300   2.613 -0.3203 -1.2881 -0.2127
 5394SOL    HW227645   2.297   2.265   2.753  0.1344  1.4426  0.9922
 5395SOL     OW27646   3.699   0.306   1.856  0.6812 -1.1659 -0.2381
 5395SOL    HW127647   3.699   0.398   1.882  0.3680 -1.0763 -0.5526
 5395SOL    HW227648   3.671   0.316   1.765  1.7836  0.2613 -0.4156
 5396SOL     OW27649   0.322   4.001   7.061 -0.1610  0.4135 -0.3263
 5396SOL    HW127650   0.268   3.951   7.001  0.1814  1.0774 -1.1880
 5396SOL    HW227651   0.256   4.054   7.106  0.7124  0.7209  0.5800
 5397SOL     OW27652   2.083   0.332   4.216  0.4583 -1.0463 -0.1841
 5397SOL    HW127653   2.177   0.335   4.233  0.5372 -0.8022 -0.6758
 5397SOL    HW227654   2.056   0.259   4.273 -1.4713  0.0446  0.3016
 5398SOL     OW27655   0.826   3.852  15.566  0.9840  0.3767  0.4483
 5398SOL    HW127656   0.757   3.835  15.503  1.8450 -3.4536  0.5648
 5398SOL    HW227657   0.855   3.939  15.536 -1.4234  0.9939 -0.0530
 5399SOL     OW27658   3.307   4.404   7.032  0.0325  0.0989  0.3885
 5399SOL    HW127659   3.285   4.452   6.952  0.4942 -0.5275 -0.1150
 5399SOL    HW227660   3.399   4.388   7.012  0.1236 -2.6345  3.0212
 5400SOL     OW27661   4.527   4.359   6.324 -0.7507 -0.2717 -0.1565
 5400SOL    HW127662   4.554   4.437   6.275 -0.7775  0.2719  0.7026
 5400SOL    HW227663   4.456   4.390   6.380 -1.9295 -1.1744 -1.1357
 5401SOL     OW27664   2.798   1.993  12.154  0.5833 -0.2474  0.5799
 5401SOL    HW127665   2.818   2.082  12.126 -1.8034 -0.2297 -1.1743
 5401SOL    HW227666   2.803   1.995  12.249  0.5767  1.1372  0.5531
 5402SOL     OW27667   3.945   4.203   9.430  0.7827 -0.8615  0.4153
 5402SOL    HW127668   3.870   4.146   9.449 -0.5850  1.3579  1.7137
 5402SOL    HW227669   3.970   4.172   9.343  0.4984  0.8387 -0.2537
 5403SOL     OW27670   0.203   2.178   5.830  0.0429  0.4279  0.1216
 5403SOL    HW127671   0.284   2.227   5.841 -0.3927  0.9748  0.8635
 5403SOL    HW227672   0.143   2.248   5.855  0.2174  1.2751 -1.8354
 5404SOL     OW27673   1.959   2.629   6.551 -0.8462 -0.4976 -0.0946
 5404SOL    HW127674   1.991   2.691   6.485  0.0298 -0.3528  0.4660
 5404SOL    HW227675   2.027   2.564   6.571 -0.9190 -1.2626 -2.2440
 5405SOL     OW27676   2.697   3.871  17.126  0.0080  0.1450  0.0408
 5405SOL    HW127677   2.713   3.916  17.208 -3.1925  0.0416  0.6885
 5405SOL    HW227678   2.685   3.943  17.065  1.0623  0.2432 -0.0556
 5406SOL     OW27679   1.001   3.455   3.522 -0.4334 -0.2244  0.1400
 5406SOL    HW127680   1.001   3.446   3.427 -0.3755 -0.8150  0.1969
 5406SOL    HW227681   1.022   3.547   3.537  0.9292 -0.5506  0.2165
 5407SOL     OW27682   0.436   1.125   3.436  0.3564  0.6645 -0.0192
 5407SOL    HW127683   0.402   1.183   3.504 -0.7150  0.9495 -0.7966
 5407SOL    HW227684   0.526   1.158   3.431  0.1625  1.1802 -0.0257
 5408SOL     OW27685   3.696   1.706   6.382 -0.0906  0.4197  0.6332
 5408SOL    HW127686   3.791   1.712   6.371  0.1130 -1.9267  0.9551
 5408SOL    HW227687   3.686   1.697   6.477 -0.3410 -1.4020  0.4514
 5409SOL     OW27688   4.120   4.277  12.012  0.0020  0.1445 -0.2724
 5409SOL    HW127689   4.153   4.317  11.932  0.2513 -0.7890 -0.6252
 5409SOL    HW227690   4.180   4.306  12.081 -0.4779  0.2968  0.0910
 5410SOL     OW27691   3.577   2.292   6.991 -0.5448 -0.1001 -0.0689
 5410SOL    HW127692   3.631   2.250   6.924 -1.3142  0.5785 -1.1326
 5410SOL    HW227693   3.606   2.229   7.056 -0.7073 -1.6506 -1.5192
 5411SOL     OW27694   4.200   1.438  13.070  0.2458  0.0806 -0.0900
 5411SOL    HW127695   4.268   1.428  13.004  1.9649  0.0930  1.6797
 5411SOL    HW227696   4.130   1.471  13.014 -0.0291  1.4740  1.0697
 5412SOL     OW27697   4.506   1.575  17.658  0.3460  0.6713  0.1122
 5412SOL    HW127698   4.457   1.645   0.003  0.6801  0.2682  1.1600
 5412SOL    HW227699   4.481   1.581  17.565  0.7488  1.1790  0.0350
 5413SOL     OW27700   2.931   3.176   4.577 -0.1912 -0.3796 -1.0405
 5413SOL    HW127701   2.937   3.170   4.672  1.3486  2.1887 -0.9855
 5413SOL    HW227702   3.013   3.219   4.555 -1.0663  1.8870  0.0683
 5414SOL     OW27703   2.964   3.252   3.053 -0.1000  0.1937  0.8514
 5414SOL    HW127704   3.009   3.332   3.026 -0.6048  0.1520 -0.0940
 5414SOL    HW227705   2.876   3.281   3.072 -0.7516 -1.8388  0.9522
 5415SOL     OW27706   1.929   1.267  12.958  0.4455  0.1701  0.0813
 5415SOL    HW127707   1.858   1.204  12.964 -1.1192  2.0348  1.0055
 5415SOL    HW227708   2.002   1.211  12.984  0.8800 -0.1733 -1.8807
 5416SOL     OW27709   2.160   3.954   4.170 -0.3876 -0.3167 -0.5053
 5416SOL    HW127710   2.113   3.898   4.232  1.9429 -1.2559  0.4020
 5416SOL    HW227711   2.168   4.037   4.217  1.1867  0.1480 -1.5651
 5417SOL     OW27712   1.259   1.749   7.466  0.1459  0.8408 -0.1459
 5417SOL    HW127713   1.341   1.771   7.509  0.5450  1.3517 -1.1632
 5417SOL    HW227714   1.292   1.738   7.377  1.5709 -0.2770  0.5244
 5418SOL     OW27715   0.397   2.889  16.966  0.1603 -0.3010  0.0293
 5418SOL    HW127716   0.482   2.909  17.006  0.4700 -0.8127 -0.3891
 5418SOL    HW227717   0.415   2.858  16.877  3.7328  0.4259  0.5071
 5419SOL     OW27718   3.972   0.464   3.111 -0.2839  0.6960  0.6015
 5419SOL    HW127719   3.942   0.545   3.070 -0.1788 -0.3080 -1.4895
 5419SOL    HW227720   3.961   0.403   3.038  1.6473 -1.1402  1.8564
 5420SOL     OW27721   4.441   3.112   6.141  0.3825  0.3427 -0.9902
 5420SOL    HW127722   4.532   3.108   6.171 -0.0333 -0.2669  0.2251
 5420SOL    HW227723   4.405   3.130   6.228  1.2866  1.1910 -0.7889
 5421SOL     OW27724   1.265   1.707   2.864  0.3034 -0.5888  0.1270
 5421SOL    HW127725   1.302   1.622   2.841 -0.0877 -0.3561 -1.3218
 5421SOL    HW227726   1.190   1.711   2.805  0.9019 -0.5661 -0.6299
 5422SOL     OW27727   0.881   4.438   2.543  0.3772 -0.1550  0.2174
 5422SOL    HW127728   0.827   4.409   2.469  2.2796 -2.4647 -0.2487
 5422SOL    HW227729   0.959   4.386   2.524  1.0629  1.3865 -1.1739
 5423SOL     OW27730   1.744   1.449  11.982 -0.2960  0.2250 -0.2468
 5423SOL    HW127731   1.693   1.529  11.983  1.7238  1.5140 -0.3892
 5423SOL    HW227732   1.688   1.400  12.043 -3.2834  2.3256 -1.3269
 5424SOL     OW27733   0.260   3.632   8.756 -0.1170  0.0246  0.4018
 5424SOL    HW127734   0.262   3.609   8.663 -0.7206  0.2950  0.3178
 5424SOL    HW227735   0.352   3.655   8.764  0.2582 -1.8754  1.3731
 5425SOL     OW27736   2.555   0.970  11.964 -0.6444  0.0380  0.4395
 5425SOL    HW127737   2.497   0.922  12.024 -0.0504  1.2976  2.0187
 5425SOL    HW227738   2.483   0.996  11.906  0.5513  2.4053  0.0381
 5426SOL     OW27739   3.388   1.920   8.109 -0.2297  0.3108 -0.6735
 5426SOL    HW127740   3.296   1.944   8.121  0.3125  1.7679  0.4572
 5426SOL    HW227741   3.378   1.833   8.070  1.2879  0.9378 -2.4037
 5427SOL     OW27742   0.628   4.721   4.369  0.0748  0.4379 -0.0734
 5427SOL    HW127743   0.559   0.021   4.308 -0.1416  0.8530  0.3300
 5427SOL    HW227744   0.592   0.020   4.455  0.1093  1.0019 -0.2124
 5428SOL     OW27745   4.320   4.422   6.504 -0.3694  0.4713  0.1031
 5428SOL    HW127746   4.336   4.413   6.598 -0.3535 -0.1438  0.0408
 5428SOL    HW227747   4.262   4.498   6.498 -0.1878  0.4584 -1.7400
 5429SOL     OW27748   2.288   1.849  13.239 -0.4346 -0.2102 -0.1231
 5429SOL    HW127749   2.358   1.908  13.267 -2.4342  1.8512  0.4795
 5429SOL    HW227750   2.223   1.857  13.309 -0.2174  2.4078 -0.2307
 5430SOL     OW27751   4.173   2.760   7.308  0.6644  0.0622  0.0127
 5430SOL    HW127752   4.164   2.767   7.213 -0.1982  1.2159  0.1873
 5430SOL    HW227753   4.228   2.682   7.315  0.4167 -0.2023 -0.9220
 5431SOL     OW27754   1.103   4.533  14.747 -0.0350  0.0745  0.6248
 5431SOL    HW127755   1.122   4.563  14.836 -0.9001  0.2988  0.7351
 5431SOL    HW227756   1.060   4.609  14.707 -0.5036  0.6489  2.1827
 5432SOL     OW27757   2.246   0.264   7.855  0.0945 -0.1698  0.5209
 5432SOL    HW127758   2.196   0.292   7.931 -0.1243 -1.9083  1.0317
 5432SOL    HW227759   2.336   0.270   7.888  0.7649  1.9304 -1.7111
 5433SOL     OW27760   4.303   4.278   9.089  0.4412  0.1504 -0.8034
 5433SOL    HW127761   4.356   4.209   9.050  1.8374  0.5386  0.4276
 5433SOL    HW227762   4.230   4.229   9.129  1.3791  0.5840  1.4316
 5434SOL     OW27763   0.523   0.484   5.702 -0.1286  0.3318  0.2517
 5434SOL    HW127764   0.596   0.433   5.666 -0.7177  1.6703 -2.7717
 5434SOL    HW227765   0.552   0.573   5.682  1.9191  0.0244  1.8482
 5435SOL     OW27766   2.789   1.125   4.025 -0.1387  0.3950  0.3136
 5435SOL    HW127767   2.859   1.181   4.057  0.0260  1.1603 -1.3731
 5435SOL    HW227768   2.786   1.072   4.104  0.4412  0.6734  0.5211
 5436SOL     OW27769   3.729   4.339   8.387  0.2874  0.1386  0.0964
 5436SOL    HW127770   3.791   4.284   8.339 -1.0336 -1.0428 -0.2553
 5436SOL    HW227771   3.662   4.346   8.319 -2.8828 -0.6697  3.1171
 5437SOL     OW27772   0.836   2.903   5.843 -0.1599 -0.4116  0.4734
 5437SOL    HW127773   0.837   2.940   5.932  1.5506  0.9007 -0.0944
 5437SOL    HW227774   0.897   2.955   5.791 -2.0721 -1.7888 -3.1272
 5438SOL     OW27775   4.215   4.494   7.419  0.0608  0.3151 -0.3760
 5438SOL    HW127776   4.260   4.418   7.454 -1.0162  0.1362  0.6274
 5438SOL    HW227777   4.178   4.539   7.495  1.4544  1.5306 -0.4049
 5439SOL     OW27778   1.121   2.584   2.939  0.0350  0.1265 -0.4747
 5439SOL    HW127779   1.096   2.668   2.978  0.9452  0.5313 -0.7691
 5439SOL    HW227780   1.039   2.547   2.905  0.1740  0.0938 -0.7688
 5440SOL     OW27781   0.287   1.487  17.230 -0.4328  0.2306  0.8898
 5440SOL    HW127782   0.266   1.396  17.254  0.0581  0.2390  1.3600
 5440SOL    HW227783   0.339   1.477  17.150  0.9096  1.2304  1.6409
 5441SOL     OW27784   2.694   3.060  13.106  0.0825 -0.1929  0.0412
 5441SOL    HW127785   2.716   3.114  13.031  2.9645 -1.1315  0.2276
 5441SOL    HW227786   2.599   3.077  13.101  0.0367 -0.4596  0.0157
 5442SOL     OW27787   0.189   2.309   8.241  0.3420 -0.5572  0.1367
 5442SOL    HW127788   0.252   2.297   8.312 -0.4434 -0.4931  0.8418
 5442SOL    HW227789   0.123   2.251   8.279  1.5221 -0.9993  1.4916
 5443SOL     OW27790   0.097   0.189  11.875 -0.2865 -0.0033  0.6097
 5443SOL    HW127791   0.158   0.116  11.889  1.5476  1.3917 -0.0957
 5443SOL    HW227792   0.026   0.137  11.837 -1.5054  1.8814  0.2962
 5444SOL     OW27793   1.495   0.504   7.761  0.0243  0.9569 -0.2858
 5444SOL    HW127794   1.432   0.560   7.805 -3.1974 -4.4077  1.8684
 5444SOL    HW227795   1.576   0.556   7.757  1.1470 -0.8643 -1.3824
 5445SOL     OW27796   0.857   3.774   3.745  0.0736 -0.1349  0.2885
 5445SOL    HW127797   0.903   3.803   3.667 -0.1483  1.9072  0.9075
 5445SOL    HW227798   0.923   3.769   3.814 -2.1005  1.2188  2.5094
 5446SOL     OW27799   4.084   0.617   9.748  0.0515  0.0888  0.1572
 5446SOL    HW127800   4.072   0.537   9.697 -0.4545  1.5544 -2.0180
 5446SOL    HW227801   4.165   0.598   9.796  0.3648  1.2950  0.1102
 5447SOL     OW27802   3.721   1.072   4.036  0.2534  0.1698  0.2206
 5447SOL    HW127803   3.733   1.108   4.124  1.7479  3.0962 -1.1683
 5447SOL    HW227804   3.649   1.015   4.062 -0.7490  0.5975 -1.6377
 5448SOL     OW27805   0.758   2.044   6.819 -0.3190  0.0060  0.0789
 5448SOL    HW127806   0.726   1.964   6.859  2.0148 -0.0426  1.8264
 5448SOL    HW227807   0.806   2.090   6.888 -0.7307 -0.9553  1.0013
 5449SOL     OW27808   3.357   1.116   2.745  0.0872  0.2888  0.3777
 5449SOL    HW127809   3.319   1.199   2.719 -0.6757 -0.3924 -0.6495
 5449SOL    HW227810   3.373   1.135   2.838 -0.8845  1.9051  0.2021
 5450SOL     OW27811   4.023   2.894  10.077  0.3901 -0.0222 -0.0399
 5450SOL    HW127812   4.083   2.872  10.006  0.8999  0.3842  0.2590
 5450SOL    HW227813   4.053   2.833  10.145 -1.5661  1.2402  1.9876
 5451SOL     OW27814   3.972   4.209   3.341  1.0113  0.3913 -0.0693
 5451SOL    HW127815   3.885   4.196   3.303  0.7538  2.0924 -0.0584
 5451SOL    HW227816   4.012   4.220   3.254  0.9655 -0.2459 -0.1715
 5452SOL     OW27817   3.349   4.686   7.414 -0.2068 -0.0698 -0.6273
 5452SOL    HW127818   3.415   4.647   7.356  1.7662  2.2920  0.0496
 5452SOL    HW227819   3.292   4.610   7.425 -0.0609 -0.0394  0.3027
 5453SOL     OW27820   4.161   1.055  17.697 -0.0400  0.4541 -0.1064
 5453SOL    HW127821   4.155   0.991   0.071 -0.6960 -0.1737 -0.7264
 5453SOL    HW227822   4.131   0.997  17.627  0.1979  0.2950 -0.0776
 5454SOL     OW27823   2.428   3.528   1.782  0.1003  0.2734  0.1537
 5454SOL    HW127824   2.474   3.444   1.779 -2.5154 -1.2662  3.0612
 5454SOL    HW227825   2.453   3.557   1.694  0.2065 -0.7580 -0.1618
 5455SOL     OW27826   3.625   2.320   8.707 -0.3642  0.0501 -0.3463
 5455SOL    HW127827   3.573   2.394   8.677 -1.4313  0.5197  2.6188
 5455SOL    HW227828   3.714   2.329   8.674  0.1622  1.9159  1.5817
 5456SOL     OW27829   1.362   0.825   7.582  0.2788 -0.4795 -0.2531
 5456SOL    HW127830   1.434   0.844   7.642 -0.4395 -2.3834  1.1827
 5456SOL    HW227831   1.293   0.829   7.649 -0.3374 -1.2871 -0.8469
 5457SOL     OW27832   2.925   2.907   7.482  0.3436 -0.3283 -0.6881
 5457SOL    HW127833   2.931   2.932   7.390 -0.7769  0.0778 -0.6526
 5457SOL    HW227834   2.942   2.813   7.477  0.1313 -0.3739 -0.5662
 5458SOL     OW27835   2.705   1.895   2.985 -0.2109  0.7343 -0.1771
 5458SOL    HW127836   2.647   1.968   3.006  0.6291  0.9775  1.3023
 5458SOL    HW227837   2.786   1.942   2.966 -0.3229  0.8669 -0.3244
 5459SOL     OW27838   1.812   4.210   6.507 -0.3204  0.2047 -0.4296
 5459SOL    HW127839   1.769   4.210   6.422 -0.2697 -0.6701 -0.4564
 5459SOL    HW227840   1.793   4.296   6.542 -0.2165  0.9902 -2.2965
 5460SOL     OW27841   3.137   3.539   6.095  0.6555  0.6732 -0.1595
 5460SOL    HW127842   3.157   3.452   6.131 -1.9633  0.8690  1.8140
 5460SOL    HW227843   3.206   3.595   6.131  1.3120 -0.1002 -0.2126
 5461SOL     OW27844   1.954   3.450  10.255  0.7279 -0.0410  0.1952
 5461SOL    HW127845   1.955   3.359  10.287 -1.0009 -0.5827 -1.2927
 5461SOL    HW227846   2.037   3.457  10.209  1.3621 -0.3362  1.2785
 5462SOL     OW27847   0.459   3.666  13.330  0.1780  0.1150  0.3770
 5462SOL    HW127848   0.506   3.584  13.343  1.6984  0.5267 -2.5489
 5462SOL    HW227849   0.531   3.723  13.356 -0.4613  1.7754 -1.5921
 5463SOL     OW27850   3.540   3.003   2.297  0.0249  0.1211  0.1968
 5463SOL    HW127851   3.576   2.944   2.231  0.0822  1.0934 -0.6309
 5463SOL    HW227852   3.604   2.997   2.368  1.3327  0.9822 -0.9132
 5464SOL     OW27853   0.784   3.049   9.297 -0.1900  0.8403  0.0991
 5464SOL    HW127854   0.699   3.011   9.274  0.2812  0.0924 -0.3866
 5464SOL    HW227855   0.845   2.994   9.248 -0.4263  0.4259  0.2609
 5465SOL     OW27856   3.403   1.404   7.738  0.6671 -0.0688  0.1099
 5465SOL    HW127857   3.455   1.334   7.699  0.9964  1.2080 -1.7592
 5465SOL    HW227858   3.396   1.377   7.829 -4.3715 -1.7148 -0.7171
 5466SOL     OW27859   1.594   1.334   6.664 -0.2498  0.2169  0.1213
 5466SOL    HW127860   1.552   1.272   6.725 -2.1839 -0.0704 -1.5062
 5466SOL    HW227861   1.669   1.353   6.720  1.4812 -0.8081 -1.8615
 5467SOL     OW27862   1.632   0.029   2.628  0.5160 -0.2904  0.1331
 5467SOL    HW127863   1.636   0.036   2.533  0.4287 -0.6353  0.1054
 5467SOL    HW227864   1.538   0.013   2.635  0.5269 -1.2141 -1.8306
 5468SOL     OW27865   3.161   1.220  16.403  0.0044  0.0832  0.4429
 5468SOL    HW127866   3.141   1.148  16.344 -0.8468  2.3440 -2.0462
 5468SOL    HW227867   3.126   1.292  16.350 -2.6756 -2.6976 -1.5086
 5469SOL     OW27868   3.981   3.364   6.070  0.5254  0.8743 -0.1884
 5469SOL    HW127869   4.013   3.292   6.124 -0.2591  1.4844  1.1032
 5469SOL    HW227870   3.930   3.310   6.009  2.9454  1.8593 -3.0864
 5470SOL     OW27871   3.999   2.524   6.874 -0.0459  0.7426 -0.0645
 5470SOL    HW127872   4.070   2.459   6.871 -0.4948  0.2007  0.9771
 5470SOL    HW227873   4.050   2.593   6.919  0.3172 -0.7073  1.7502
 5471SOL     OW27874   4.638   3.052   5.428  0.0783 -0.1797  0.1311
 5471SOL    HW127875   4.606   3.140   5.449 -0.6629 -0.1201 -1.2525
 5471SOL    HW227876   4.607   3.001   5.503  1.9179  1.1199  1.7454
 5472SOL     OW27877   1.554   2.769   4.879  0.7538  0.1998  0.4562
 5472SOL    HW127878   1.509   2.692   4.914  0.8829  0.9695  2.3043
 5472SOL    HW227879   1.642   2.744   4.906  1.1838  1.3184  0.0931
 5473SOL     OW27880   3.301   2.994  15.432 -0.8544  0.7919  0.2196
 5473SOL    HW127881   3.271   2.903  15.440 -0.3097  0.3258 -2.9248
 5473SOL    HW227882   3.383   3.001  15.480  1.3677 -0.9291 -3.3780
 5474SOL     OW27883   4.076   2.441   2.901 -0.1802 -0.3086  0.0749
 5474SOL    HW127884   4.096   2.502   2.830 -1.3960 -1.0587 -0.9147
 5474SOL    HW227885   4.111   2.497   2.971 -0.7655  0.0506  0.0813
 5475SOL     OW27886   1.860   3.275   4.043 -0.0328  0.2088  0.4012
 5475SOL    HW127887   1.845   3.369   4.043 -0.9880  0.0671 -5.5022
 5475SOL    HW227888   1.860   3.250   3.950  1.3338 -0.1740  0.4935
 5476SOL     OW27889   3.311   3.284   9.966 -0.6979  0.5437  0.2886
 5476SOL    HW127890   3.325   3.377   9.982  0.8296  0.2647  0.6168
 5476SOL    HW227891   3.406   3.272   9.956 -0.5077  0.7367  1.8256
 5477SOL     OW27892   2.908   4.150   6.626 -0.2625  0.4434 -0.0533
 5477SOL    HW127893   2.886   4.207   6.552  2.5239  0.4225 -0.9068
 5477SOL    HW227894   2.815   4.144   6.647  0.1443  0.5702  1.8187
 5478SOL     OW27895   1.744   4.421   5.858 -0.3442 -0.3428 -0.0710
 5478SOL    HW127896   1.747   4.348   5.795  1.4416  0.1174 -0.5396
 5478SOL    HW227897   1.831   4.400   5.892 -0.3912  2.7533  1.9079
 5479SOL     OW27898   0.257   3.186  10.309  0.3850  0.3793  0.5686
 5479SOL    HW127899   0.240   3.203  10.402 -0.6391 -0.3898  0.5255
 5479SOL    HW227900   0.177   3.143  10.278  1.2472 -2.3508  2.1070
 5480SOL     OW27901   1.153   1.520   9.404  0.3361  0.2525  0.5273
 5480SOL    HW127902   1.208   1.489   9.332  0.7925 -0.2561  1.0981
 5480SOL    HW227903   1.093   1.447   9.421  1.6247 -0.7026  1.0347
 5481SOL     OW27904   2.722   4.037   5.303  0.3527 -0.0062 -0.5002
 5481SOL    HW127905   2.781   3.969   5.335  0.7334 -0.8381 -2.9363
 5481SOL    HW227906   2.647   3.989   5.268 -0.8814  2.0309 -0.6638
 5482SOL     OW27907   0.681   0.888   7.943  0.4466  0.2263 -0.0557
 5482SOL    HW127908   0.665   0.849   7.857 -0.3778  1.1513 -0.3283
 5482SOL    HW227909   0.695   0.810   7.996 -0.2217 -0.4403 -0.8613
 5483SOL     OW27910   1.645   1.209  11.770  1.0108  0.2448 -0.9312
 5483SOL    HW127911   1.672   1.290  11.814 -1.1870  0.0861  0.7030
 5483SOL    HW227912   1.550   1.216  11.781  1.1071 -2.6509  1.5749
 5484SOL     OW27913   0.729   0.062  10.253  0.1164  0.9216  0.6172
 5484SOL    HW127914   0.765   0.141  10.293 -0.1004  0.9253  0.8024
 5484SOL    HW227915   0.805   0.037  10.199 -0.4028  0.5320  0.0686
 5485SOL     OW27916   3.819   3.511   9.265 -0.1478  0.6035 -0.1022
 5485SOL    HW127917   3.742   3.552   9.305 -0.8967 -0.3338 -0.5933
 5485SOL    HW227918   3.871   3.590   9.249  0.4097  0.2086 -0.2461
 5486SOL     OW27919   4.593   4.194   1.350  0.2790 -0.4802 -0.5292
 5486SOL    HW127920   4.569   4.245   1.427 -0.4742 -2.0809  0.2927
 5486SOL    HW227921   4.572   4.242   1.269 -0.3769 -0.7474 -0.5215
 5487SOL     OW27922   1.026   1.634  17.221  0.3560  0.0113  0.0779
 5487SOL    HW127923   0.955   1.586  17.179  0.9112 -0.3054 -0.4957
 5487SOL    HW227924   0.986   1.720  17.233 -0.4127 -0.3928  0.3688
 5488SOL     OW27925   3.485   0.293   4.694  0.5189  0.0952 -0.0955
 5488SOL    HW127926   3.501   0.365   4.756  1.6310  0.7791 -1.1807
 5488SOL    HW227927   3.577   0.274   4.674  0.7683  2.1006 -0.8574
 5489SOL     OW27928   1.158   4.360   0.608  0.2754  0.6144  0.3246
 5489SOL    HW127929   1.144   4.266   0.619  0.9275  0.4633 -0.1349
 5489SOL    HW227930   1.067   4.391   0.604  0.5640  1.3205 -0.9265
 5490SOL     OW27931   3.498   1.410   4.744  0.2238 -0.0592 -0.0979
 5490SOL    HW127932   3.570   1.400   4.806 -1.1822  1.8072  1.8744
 5490SOL    HW227933   3.543   1.443   4.666 -2.2134 -0.9483 -1.8783
 5491SOL     OW27934   1.400   2.886   7.198  0.8384 -0.1405 -0.2150
 5491SOL    HW127935   1.374   2.847   7.114 -1.1365 -0.9494  0.7725
 5491SOL    HW227936   1.490   2.917   7.186  1.3820 -0.7244  2.3326
 5492SOL     OW27937   0.029   4.185  10.172  0.9597  0.3637 -0.0457
 5492SOL    HW127938   0.074   4.230  10.243  0.3569 -0.1417  0.6594
 5492SOL    HW227939   4.685   4.139  10.221  0.2020 -2.6851 -3.9769
 5493SOL     OW27940   2.369   0.238   4.041  0.2645 -0.0459  0.0349
 5493SOL    HW127941   2.376   0.292   3.963 -1.5376  1.2694  0.7789
 5493SOL    HW227942   2.283   0.201   4.021  1.1632 -2.2034  0.1558
 5494SOL     OW27943   1.148   0.154  10.033  0.1812  0.4959  0.1203
 5494SOL    HW127944   1.178   0.089   9.969  0.4263  1.0511 -0.3214
 5494SOL    HW227945   1.080   0.104  10.077 -1.8337  1.8329 -1.5151
 5495SOL     OW27946   2.956   4.424  16.362  0.4734 -0.6239 -0.2020
 5495SOL    HW127947   3.052   4.430  16.367  0.4555  0.3131 -1.0855
 5495SOL    HW227948   2.939   4.367  16.438 -1.8914  0.1778 -0.1384
 5496SOL     OW27949   4.654   1.613   6.364 -0.5774 -0.0610  0.0956
 5496SOL    HW127950   4.720   1.624   6.432  0.5673 -2.4396 -0.6071
 5496SOL    HW227951   4.626   1.702   6.343 -0.6643 -0.2534 -0.6046
 5497SOL     OW27952   2.621   0.860  16.472 -0.4158 -0.0696  0.6691
 5497SOL    HW127953   2.572   0.941  16.487  0.0849  0.6913 -1.8390
 5497SOL    HW227954   2.614   0.847  16.378  1.6746 -0.1612  0.5229
 5498SOL     OW27955   1.546   1.749   2.363  0.1355  0.6604  0.1428
 5498SOL    HW127956   1.552   1.655   2.379  2.9582  0.7595 -0.3878
 5498SOL    HW227957   1.465   1.759   2.312  0.4765 -0.5600 -0.6485
 5499SOL     OW27958   0.573   0.203   6.261 -0.2948 -0.5076  0.3963
 5499SOL    HW127959   0.569   0.155   6.178  1.5424  0.7754 -0.4570
 5499SOL    HW227960   0.484   0.235   6.273  0.6162  2.2297 -0.0681
 5500SOL     OW27961   3.565   1.919   3.614 -0.0316  0.2960  0.2468
 5500SOL    HW127962   3.480   1.898   3.654  0.0628 -0.8240 -0.1495
 5500SOL    HW227963   3.542   1.990   3.554  1.2293  0.8582  0.4465
 5501SOL     OW27964   1.654   1.662   7.245 -0.0500 -0.0710 -0.3775
 5501SOL    HW127965   1.749   1.668   7.239  0.0208  0.9143  2.0941
 5501SOL    HW227966   1.643   1.579   7.291  0.2361 -1.4773 -2.7962
 5502SOL     OW27967   4.355   3.986  13.482  0.1713  0.3127  0.6181
 5502SOL    HW127968   4.436   4.026  13.514  0.9299  0.3224 -1.3350
 5502SOL    HW227969   4.323   3.927  13.550 -0.1598 -0.4910 -0.2374
 5503SOL     OW27970   2.690   2.434  10.159 -0.1206  0.2736 -0.0405
 5503SOL    HW127971   2.635   2.508  10.186  0.1093 -0.1593  1.5739
 5503SOL    HW227972   2.732   2.466  10.079 -0.2425  2.3683  0.7440
 5504SOL     OW27973   0.398   0.469  10.003  0.3460 -0.3702  0.0552
 5504SOL    HW127974   0.463   0.404  10.031 -1.2845 -2.1228 -0.2885
 5504SOL    HW227975   0.394   0.530  10.077 -0.2049  1.2074 -1.2848
 5505SOL     OW27976   1.681   1.400   7.347 -0.2089 -0.2689  0.4892
 5505SOL    HW127977   1.598   1.380   7.390  0.9765 -0.6890  2.5876
 5505SOL    HW227978   1.667   1.348   7.269  1.4171 -2.9398  1.9825
 5506SOL     OW27979   1.948   2.190   8.479 -0.0423  0.0775 -0.0055
 5506SOL    HW127980   2.010   2.209   8.549 -0.1680 -0.6888  0.3150
 5506SOL    HW227981   1.859   2.209   8.510  0.5568  0.8896  1.2252
 5507SOL     OW27982   4.457   2.523   2.228  0.3287 -0.1198  0.4136
 5507SOL    HW127983   4.501   2.492   2.149 -1.9786  1.8500 -1.6408
 5507SOL    HW227984   4.504   2.481   2.300 -1.5073 -2.2558  0.3978
 5508SOL     OW27985   2.799   2.158   6.307  0.1377  1.0105  0.3824
 5508SOL    HW127986   2.785   2.176   6.214 -0.2030  0.1626  0.2676
 5508SOL    HW227987   2.709   2.154   6.338 -0.1960 -0.7894 -0.8323
 5509SOL     OW27988   3.924   4.578   5.776 -0.0611  0.0265  0.1049
 5509SOL    HW127989   3.935   4.526   5.697 -1.8876  0.4419 -0.4151
 5509SOL    HW227990   3.889   4.659   5.738 -0.0447 -0.4039 -0.8212
 5510SOL     OW27991   2.044   1.819   1.064  0.2032  0.4229  0.0458
 5510SOL    HW127992   2.057   1.726   1.042  0.5568 -0.2581  3.1722
 5510SOL    HW227993   2.119   1.860   1.021  0.1063 -0.4977 -1.0178
 5511SOL     OW27994   1.059   4.556   6.122 -0.1653  0.6601  0.6470
 5511SOL    HW127995   0.963   4.554   6.128 -0.0863  0.3661  2.0004
 5511SOL    HW227996   1.078   4.463   6.137  2.5853  1.3287  1.2156
 5512SOL     OW27997   4.120   2.295   9.313  0.2361 -0.2626 -0.0777
 5512SOL    HW127998   4.056   2.355   9.349 -1.2262 -3.6759  3.0381
 5512SOL    HW227999   4.108   2.216   9.366  2.4537 -3.3798 -4.1955
 5513SOL     OW28000   1.912   1.078   5.292  0.5029  0.8880 -0.4373
 5513SOL    HW128001   1.880   1.112   5.208  0.4351  0.5188 -0.5588
 5513SOL    HW228002   2.003   1.068   5.266  0.4000  1.1029 -0.8928
 5514SOL     OW28003   0.874   2.370   7.669  0.2416 -0.1393  0.1055
 5514SOL    HW128004   0.859   2.417   7.751 -0.1601  0.9785 -0.6056
 5514SOL    HW228005   0.789   2.332   7.645  1.0311 -1.3793 -0.6913
 5515SOL     OW28006   2.056   0.956   8.497 -0.1334 -0.2863 -0.4599
 5515SOL    HW128007   2.120   0.890   8.525 -0.5957 -0.5612 -0.0535
 5515SOL    HW228008   2.064   1.029   8.559 -0.8168 -0.2419 -0.4233
 5516SOL     OW28009   0.858   0.740   2.281 -0.9021 -0.6297  0.1575
 5516SOL    HW128010   0.902   0.776   2.358 -0.4561 -2.2719  0.6604
 5516SOL    HW228011   0.780   0.705   2.325 -1.3127 -0.5393 -0.5093
 5517SOL     OW28012   4.458   4.424   5.361  0.4415 -0.0251 -0.2240
 5517SOL    HW128013   4.484   4.386   5.278 -0.4535 -2.4238  0.5984
 5517SOL    HW228014   4.437   4.343   5.406  1.2570  0.3703  0.8751
 5518SOL     OW28015   1.131   3.124   2.790  0.1971 -0.8270 -0.0438
 5518SOL    HW128016   1.139   3.194   2.726 -0.6879 -1.0574 -0.4039
 5518SOL    HW228017   1.122   3.180   2.868 -2.0973  0.7703 -1.4370
 5519SOL     OW28018   3.796   3.144  13.289 -0.4108 -0.1145 -0.5834
 5519SOL    HW128019   3.743   3.120  13.213 -2.1686 -2.1320  1.2635
 5519SOL    HW228020   3.783   3.238  13.296 -2.1988 -0.3145 -1.1495
 5520SOL     OW28021   0.199   4.666   7.535  0.3033  0.1048  0.0735
 5520SOL    HW128022   0.249   4.615   7.599 -0.0884 -0.7515 -0.2980
 5520SOL    HW228023   0.244   4.641   7.454  1.2439 -0.7767  0.8584
 5521SOL     OW28024   2.857   1.871   8.601  0.3193 -0.1149  0.2181
 5521SOL    HW128025   2.866   1.792   8.548 -2.5909  0.3905 -1.0039
 5521SOL    HW228026   2.935   1.864   8.657  0.6075 -2.6388 -0.5235
 5522SOL     OW28027   0.062   0.781  17.459 -1.0456  0.8520  0.0229
 5522SOL    HW128028   0.136   0.840  17.444 -0.2157 -0.0281  0.6846
 5522SOL    HW228029   4.714   0.837  17.490 -1.2906 -0.7762  2.4100
 5523SOL     OW28030   0.741   1.289   4.380  0.1555  0.3683  0.5300
 5523SOL    HW128031   0.682   1.216   4.397 -0.1228  0.6610  0.8243
 5523SOL    HW228032   0.685   1.335   4.318  0.8321 -2.1138 -1.9021
 5524SOL     OW28033   0.966   0.894   0.019 -0.0192 -0.5678  0.3209
 5524SOL    HW128034   0.910   0.834   0.068  0.9922 -1.8661 -0.1026
 5524SOL    HW228035   1.029   0.834  17.677  1.1714  1.7493 -1.3671
 5525SOL     OW28036   4.578   4.278  14.130  0.2321  0.4992  0.2627
 5525SOL    HW128037   4.664   4.256  14.164  1.1375  3.9466  0.1313
 5525SOL    HW228038   4.599   4.353  14.074  1.5149  1.0520  1.5191
 5526SOL     OW28039   2.854   2.462   4.629 -0.1149  0.0357 -0.2005
 5526SOL    HW128040   2.890   2.550   4.643  0.1912 -0.2407  0.7299
 5526SOL    HW228041   2.760   2.477   4.635 -0.1282 -0.6209  1.2024
 5527SOL     OW28042   2.047   4.099   0.197 -0.4224 -0.3274 -0.1123
 5527SOL    HW128043   2.044   4.139   0.284  0.3710 -4.0137  1.6502
 5527SOL    HW228044   1.965   4.050   0.208 -0.8142  0.4204  0.2721
 5528SOL     OW28045   3.222   1.363  15.673  0.3473  0.2047  0.3232
 5528SOL    HW128046   3.253   1.440  15.624  3.3238 -2.3588 -1.8153
 5528SOL    HW228047   3.150   1.341  15.613  1.3646  1.5990 -1.4131
 5529SOL     OW28048   3.113   2.733   3.405  0.7374 -0.5133 -0.0398
 5529SOL    HW128049   3.165   2.781   3.340 -1.1877 -0.4691 -1.5209
 5529SOL    HW228050   3.043   2.792   3.432  1.2491 -0.3597  0.9449
 5530SOL     OW28051   2.599   2.282   5.839 -0.0904 -0.2811  0.0174
 5530SOL    HW128052   2.616   2.243   5.754 -1.1176  2.0889 -1.2942
 5530SOL    HW228053   2.598   2.372   5.804  0.3168  0.4430  1.8487
 5531SOL     OW28054   4.284   3.157   2.476 -0.0816  0.7212  1.1167
 5531SOL    HW128055   4.260   3.249   2.473  2.0912  1.2762  0.3179
 5531SOL    HW228056   4.368   3.147   2.431 -2.0086  0.3667 -2.4605
 5532SOL     OW28057   0.902   3.877   6.213 -0.1839  0.2843 -0.3111
 5532SOL    HW128058   0.809   3.872   6.235 -0.3378  1.4564 -0.6858
 5532SOL    HW228059   0.900   3.935   6.137  1.8562  0.3875 -0.2944
 5533SOL     OW28060   3.650   4.285   7.308  0.2133  0.3087 -0.2498
 5533SOL    HW128061   3.669   4.209   7.364  0.2245  1.1048  0.8230
 5533SOL    HW228062   3.725   4.288   7.249  1.0905  0.6838  0.8977
 5534SOL     OW28063   3.255   1.377   2.676 -0.0699  0.0709  0.0024
 5534SOL    HW128064   3.215   1.388   2.589 -0.8225  0.7211  0.4230
 5534SOL    HW228065   3.292   1.465   2.674  1.5761 -0.5888  1.1566
 5535SOL     OW28066   1.751   4.021   9.082 -0.6067  0.5079 -0.2233
 5535SOL    HW128067   1.756   4.071   9.000  2.4795  2.0493  0.8988
 5535SOL    HW228068   1.700   4.083   9.133 -0.3036  1.3768 -0.9741
 5536SOL     OW28069   0.387   4.543   8.261  0.2263 -0.5919  0.4318
 5536SOL    HW128070   0.344   4.506   8.339  0.6614 -0.7592  0.5953
 5536SOL    HW228071   0.311   4.587   8.223  0.0984 -0.7323  0.5247
 5537SOL     OW28072   2.192   2.759   6.818 -0.1637  0.7803  0.1366
 5537SOL    HW128073   2.199   2.676   6.866  0.1752 -0.2078 -1.6120
 5537SOL    HW228074   2.249   2.818   6.868 -0.6185  1.4351 -0.1215
 5538SOL     OW28075   1.098   3.910  15.708  0.2021  0.0292  0.1833
 5538SOL    HW128076   1.013   3.932  15.746  0.1909  2.2907 -1.1416
 5538SOL    HW228077   1.070   3.863  15.629  3.0591 -0.7398 -0.3784
 5539SOL     OW28078   2.258   3.646   4.302 -0.1367  0.1219 -0.1085
 5539SOL    HW128079   2.345   3.656   4.343 -0.9423 -0.7302  1.8360
 5539SOL    HW228080   2.208   3.658   4.383  1.1361 -0.0279  0.7081
 5540SOL     OW28081   0.798   1.135   1.586  0.5270 -0.3171 -0.0103
 5540SOL    HW128082   0.829   1.118   1.497  1.1334 -3.1139  0.7332
 5540SOL    HW228083   0.775   1.049   1.621  2.8600 -0.6867  0.5633
 5541SOL     OW28084   3.575   0.397   6.419 -0.2700 -0.2713 -0.1944
 5541SOL    HW128085   3.606   0.322   6.369  1.6109 -1.9120  3.3924
 5541SOL    HW228086   3.546   0.350   6.498 -1.4344  0.6789 -0.0603
 5542SOL     OW28087   0.267   2.482   6.833 -0.1690  0.0198 -0.2068
 5542SOL    HW128088   0.197   2.544   6.812  1.7122  2.4879  0.6826
 5542SOL    HW228089   0.217   2.427   6.894 -1.4411  0.4799 -0.8423
 5543SOL     OW28090   0.446   0.896   2.674  0.3617  0.1329  0.4274
 5543SOL    HW128091   0.469   0.988   2.691  0.7828 -0.2901  2.1186
 5543SOL    HW228092   0.409   0.892   2.585  0.4800 -1.6905  0.4643
 5544SOL     OW28093   0.364   1.970   2.201  0.0010  0.0594 -0.3564
 5544SOL    HW128094   0.435   1.916   2.234 -2.8775 -3.9264 -0.6919
 5544SOL    HW228095   0.386   2.061   2.222  1.3767 -0.4026  0.1828
 5545SOL     OW28096   2.188   3.348  13.692  0.3284  0.0774 -0.1335
 5545SOL    HW128097   2.159   3.347  13.601 -0.4220  0.9332  0.0954
 5545SOL    HW228098   2.273   3.391  13.682  0.9593 -1.1683 -0.1700
 5546SOL     OW28099   0.215   1.156   6.203 -0.0927 -0.5984 -0.0579
 5546SOL    HW128100   0.235   1.164   6.110 -0.8170 -3.9428 -0.5052
 5546SOL    HW228101   0.134   1.105   6.205  0.0871 -0.8505  0.8572
 5547SOL     OW28102   1.879   4.606  14.267 -0.4026 -0.3559  0.4895
 5547SOL    HW128103   1.925   4.655  14.335 -1.0403  0.7399  0.1224
 5547SOL    HW228104   1.931   4.525  14.271 -0.8006 -0.5813  1.0225
 5548SOL     OW28105   3.494   2.348   1.682 -0.2043  0.0016  0.2857
 5548SOL    HW128106   3.560   2.408   1.717 -0.3810  1.5667 -2.0317
 5548SOL    HW228107   3.413   2.399   1.685 -0.2176 -0.1171  1.9235
 5549SOL     OW28108   2.795   0.317  16.465  0.5621 -0.5578 -0.1033
 5549SOL    HW128109   2.864   0.373  16.501  0.6005 -0.9606  0.4590
 5549SOL    HW228110   2.721   0.355  16.513  0.0632 -0.9252 -0.5783
 5550SOL     OW28111   2.722   2.045   2.524 -0.1731  0.3333  0.0459
 5550SOL    HW128112   2.644   2.056   2.469 -1.4765 -1.3820  1.5168
 5550SOL    HW228113   2.681   2.080   2.604 -1.2744  1.0759 -0.8397
 5551SOL     OW28114   3.537   4.301   2.988  0.1478 -0.2130 -1.0404
 5551SOL    HW128115   3.501   4.377   2.943  4.7795  2.1155 -0.8711
 5551SOL    HW228116   3.496   4.226   2.946 -1.2125 -0.2422  0.3369
 5552SOL     OW28117   3.714   1.891   3.841  0.0281  0.2857 -0.1015
 5552SOL    HW128118   3.654   1.901   3.767  2.4065  1.6216 -1.8489
 5552SOL    HW228119   3.745   1.982   3.841  0.2094  0.2132 -1.8236
 5553SOL     OW28120   1.049   4.463   0.299  0.1755  0.3956 -0.0600
 5553SOL    HW128121   1.039   4.516   0.378  1.6970 -1.5101  1.4096
 5553SOL    HW228122   1.121   4.516   0.263  0.8885  0.9549  2.2146
 5554SOL     OW28123   0.842   0.356  16.578  0.1968 -1.0549  0.4044
 5554SOL    HW128124   0.833   0.266  16.608  3.6325 -1.7033 -0.4928
 5554SOL    HW228125   0.903   0.338  16.506  1.0989  2.5429  0.2922
 5555SOL     OW28126   0.393   0.761  12.645  0.3606 -0.3213 -0.6009
 5555SOL    HW128127   0.368   0.834  12.588 -1.2882 -1.0693 -0.8179
 5555SOL    HW228128   0.486   0.775  12.664  0.0885 -0.3044  0.7064
 5556SOL     OW28129   2.221   1.819  16.691 -0.1037 -0.2914 -0.2724
 5556SOL    HW128130   2.236   1.901  16.738 -1.2787 -0.6142  0.6538
 5556SOL    HW228131   2.221   1.762  16.767  0.8169  0.5725  0.3795
 5557SOL     OW28132   1.878   2.311   3.672  0.5265 -0.2433  0.4099
 5557SOL    HW128133   1.959   2.274   3.709 -0.0511  0.5756  2.5092
 5557SOL    HW228134   1.828   2.294   3.752 -1.9208 -0.2442 -1.1442
 5558SOL     OW28135   0.162   3.397   8.703 -0.3733  0.2927  0.1761
 5558SOL    HW128136   0.176   3.423   8.613  1.4070 -0.7454  0.1622
 5558SOL    HW228137   0.193   3.471   8.754 -2.8407  1.8947 -0.6361
 5559SOL     OW28138   3.762   2.365   7.291  0.2510 -0.5120  0.6609
 5559SOL    HW128139   3.696   2.431   7.271 -0.5664 -1.4418  0.2939
 5559SOL    HW228140   3.795   2.329   7.208  0.3852 -0.1352  0.5507
 5560SOL     OW28141   4.200   4.148  10.802 -0.6113 -0.4040  0.1510
 5560SOL    HW128142   4.220   4.061  10.836  2.9982 -0.3534 -1.8999
 5560SOL    HW228143   4.277   4.193  10.836 -1.1290 -0.7275  1.7592
 5561SOL     OW28144   2.727   3.515  10.000 -0.2245  0.4402 -0.3258
 5561SOL    HW128145   2.795   3.494   9.937 -1.0094  0.7647 -1.2818
 5561SOL    HW228146   2.658   3.450   9.982  0.2125 -0.3643  0.8769
 5562SOL     OW28147   0.468   3.797   8.567  0.2209 -0.5616 -0.2476
 5562SOL    HW128148   0.484   3.871   8.509 -1.6486  0.0614  0.0376
 5562SOL    HW228149   0.376   3.779   8.545 -0.0030  0.7734 -0.3773
 5563SOL     OW28150   4.714   1.519   4.122 -0.2296  0.5363 -0.0153
 5563SOL    HW128151   4.688   1.599   4.076 -2.5659  0.7345  1.5995
 5563SOL    HW228152   0.081   1.512   4.095  0.2713 -0.0049  1.8369
 5564SOL     OW28153   3.543   1.678   1.408 -0.6363 -0.2408  0.1530
 5564SOL    HW128154   3.461   1.635   1.387 -0.3829 -0.5941 -0.1026
 5564SOL    HW228155   3.501   1.762   1.430 -0.0494 -0.0630  0.6293
 5565SOL     OW28156   2.012   1.965   2.710 -0.2848 -0.3678 -0.3353
 5565SOL    HW128157   1.965   1.883   2.725  1.2020 -0.6489  2.7172
 5565SOL    HW228158   2.069   1.954   2.634  1.6847  0.7098  0.9864
 5566SOL     OW28159   1.988   1.032   3.450  0.2023 -0.2408 -0.1528
 5566SOL    HW128160   2.074   0.991   3.436 -0.1703 -0.5156 -1.6060
 5566SOL    HW228161   1.931   0.974   3.401 -0.3351  1.4623 -1.5350
 5567SOL     OW28162   2.840   4.331   4.924 -0.5005 -0.2834 -0.7408
 5567SOL    HW128163   2.770   4.291   4.873 -2.6582  1.0655  1.1337
 5567SOL    HW228164   2.815   4.300   5.011  1.0572 -2.3171 -1.0387
 5568SOL     OW28165   4.661   4.021   0.735 -0.0476  0.0347 -0.3432
 5568SOL    HW128166   4.716   4.090   0.698 -0.9376 -0.8494 -3.3428
 5568SOL    HW228167   4.653   3.962   0.659 -0.5115 -0.7410  0.3057
 5569SOL     OW28168   3.095   1.713   8.263 -0.2874  0.3124 -0.4687
 5569SOL    HW128169   3.182   1.737   8.294 -0.0589 -0.1390 -0.7553
 5569SOL    HW228170   3.089   1.769   8.186 -2.1306  0.5844 -0.1359
 5570SOL     OW28171   4.013   1.968   7.855  0.4518 -0.0612  0.6291
 5570SOL    HW128172   3.982   1.939   7.940 -1.4415  1.0976  0.3384
 5570SOL    HW228173   4.004   2.062   7.874  1.0976  0.4543 -1.6023
 5571SOL     OW28174   3.670   1.638   3.399 -0.5949  0.0873  0.1741
 5571SOL    HW128175   3.639   1.682   3.320  2.4464 -0.9104 -1.6025
 5571SOL    HW228176   3.590   1.616   3.447 -0.4898 -1.3840 -0.3265
 5572SOL     OW28177   0.839   4.332  17.195 -0.2729  0.2513 -0.5232
 5572SOL    HW128178   0.750   4.340  17.160 -0.6235 -1.6719 -0.1072
 5572SOL    HW228179   0.827   4.400  17.262  3.5729  1.9503 -1.5717
 5573SOL     OW28180   3.828   0.744   8.187  0.1810 -0.3464  0.0541
 5573SOL    HW128181   3.758   0.802   8.157  0.1063  0.6556  2.2119
 5573SOL    HW228182   3.900   0.756   8.125  0.7280 -1.5663  0.4314
 5574SOL     OW28183   3.924   0.278   2.899 -0.1577  0.7326  0.3857
 5574SOL    HW128184   3.973   0.307   2.822 -0.0229  0.5419  0.4017
 5574SOL    HW228185   3.909   0.185   2.887 -0.1027  0.8755 -0.8298
 5575SOL     OW28186   1.443   2.848   5.968 -0.1625  0.4366 -0.4579
 5575SOL    HW128187   1.421   2.798   5.889  0.1038 -0.0636 -0.2157
 5575SOL    HW228188   1.528   2.808   5.984  0.4511  1.4893 -1.0680
 5576SOL     OW28189   2.212   0.899   3.778  0.0517 -0.0670 -0.0353
 5576SOL    HW128190   2.224   0.828   3.841 -0.2694  1.2350  1.5004
 5576SOL    HW228191   2.146   0.958   3.815  1.3041  1.0626  0.3964
 5577SOL     OW28192   3.760   4.589   0.743 -0.1883  0.1501 -0.1972
 5577SOL    HW128193   3.740   4.646   0.817  0.6718  0.5382 -0.2573
 5577SOL    HW228194   3.681   4.602   0.690  1.2360  1.4261 -2.0126
 5578SOL     OW28195   0.438   0.340   3.720  0.4081 -0.4883 -0.1098
 5578SOL    HW128196   0.450   0.289   3.800  1.1370  1.9590  1.3466
 5578SOL    HW228197   0.462   0.283   3.647  0.6602  1.8665 -1.8554
 5579SOL     OW28198   0.019   1.810   3.536  0.4478 -0.2441 -0.7000
 5579SOL    HW128199   4.699   1.889   3.507 -0.2789 -0.0715  0.8844
 5579SOL    HW228200   4.674   1.750   3.565  0.6963 -0.6982 -1.0349
 5580SOL     OW28201   3.663   4.452   1.621  0.0479  0.1858 -0.2674
 5580SOL    HW128202   3.707   4.429   1.703 -1.0322  0.2909  0.3423
 5580SOL    HW228203   3.602   4.378   1.627  3.1538 -2.1981  1.9788
 5581SOL     OW28204   2.746   2.314   8.759 -0.2609  0.0161  0.1783
 5581SOL    HW128205   2.690   2.257   8.813  1.3618 -0.5149  1.3259
 5581SOL    HW228206   2.749   2.389   8.818  1.5516  0.6193 -0.6947
 5582SOL     OW28207   0.020   2.054   4.476  0.2175  0.0283  0.0488
 5582SOL    HW128208   0.090   2.114   4.452 -0.0526  0.3287  0.0155
 5582SOL    HW228209   0.006   2.066   4.570 -1.5310 -3.3361  0.2117
 5583SOL     OW28210   4.327   1.213  16.694  0.0943 -0.5303  0.1742
 5583SOL    HW128211   4.232   1.216  16.690  0.0823 -2.0517 -0.7177
 5583SOL    HW228212   4.349   1.181  16.606  1.3624  0.4363  0.1453
 5584SOL     OW28213   1.850   4.519   8.600 -0.4067  0.4089  0.2252
 5584SOL    HW128214   1.865   4.451   8.665 -1.3643  0.3788  0.4037
 5584SOL    HW228215   1.761   4.546   8.619 -1.2333  0.5946 -3.8277
 5585SOL     OW28216   2.207   0.769   1.688 -0.1637 -0.0206  0.3185
 5585SOL    HW128217   2.271   0.793   1.622  0.1597  0.7294  0.8989
 5585SOL    HW228218   2.253   0.709   1.747 -0.3858 -0.3638  0.1442
 5586SOL     OW28219   3.186   2.208   7.418  0.1412 -0.0819 -0.2298
 5586SOL    HW128220   3.161   2.263   7.493  4.5418  0.3494  0.9308
 5586SOL    HW228221   3.102   2.167   7.401 -0.5989  0.2805  2.4870
 5587SOL     OW28222   0.447   0.193   3.970  0.2329  0.8155 -0.6014
 5587SOL    HW128223   0.440   0.106   3.931 -0.3420  0.6119 -0.0374
 5587SOL    HW228224   0.539   0.190   3.996 -0.7511 -2.6175  2.4229
 5588SOL     OW28225   3.862   0.312   2.218  0.8213 -0.5385 -0.3151
 5588SOL    HW128226   3.874   0.238   2.277 -0.3227  1.6836  2.7256
 5588SOL    HW228227   3.798   0.357   2.273  0.3819  0.5443 -1.7034
 5589SOL     OW28228   1.978   1.159   1.711 -0.4293 -0.4444  0.4276
 5589SOL    HW128229   1.931   1.233   1.748  0.3122  0.2166  0.0637
 5589SOL    HW228230   1.906   1.138   1.651 -0.2469 -1.3997  0.5393
 5590SOL     OW28231   3.010   3.000   5.979 -0.2150  0.2591  0.3021
 5590SOL    HW128232   2.989   3.079   6.030  0.7411 -0.9573  2.5613
 5590SOL    HW228233   3.092   3.013   5.932 -0.3536  2.5397  0.6562
 5591SOL     OW28234   3.272   3.325   9.531 -0.3021  0.0036  0.2425
 5591SOL    HW128235   3.357   3.286   9.552 -1.5518 -2.6418  0.4564
 5591SOL    HW228236   3.222   3.294   9.607 -0.5229 -0.2823 -0.0150
 5592SOL     OW28237   0.254   3.910   2.332  0.2736 -0.0394  0.3418
 5592SOL    HW128238   0.208   3.991   2.309  0.5938 -0.0610 -0.3667
 5592SOL    HW228239   0.315   3.940   2.399  2.1079  2.4602 -2.4243
 5593SOL     OW28240   3.561   0.027  15.885  0.0563  0.2508  0.2709
 5593SOL    HW128241   3.529   0.105  15.931 -0.9625 -0.0230  0.0293
 5593SOL    HW228242   3.645   0.060  15.856  0.8984 -2.5307 -0.4652
 5594SOL     OW28243   3.540   1.827   4.049 -0.1282  0.2397 -0.0834
 5594SOL    HW128244   3.586   1.772   4.111 -0.5519 -1.0868 -0.9491
 5594SOL    HW228245   3.598   1.823   3.973 -0.4937  0.8633 -0.4020
 5595SOL     OW28246   2.793   4.647  16.284 -0.3595 -0.0960  0.0660
 5595SOL    HW128247   2.862   4.711  16.304 -1.5674  1.2692 -0.1380
 5595SOL    HW228248   2.845   4.569  16.301 -1.1502 -1.0883 -2.0929
 5596SOL     OW28249   1.780   0.343   5.501 -0.2429  0.5148 -0.0149
 5596SOL    HW128250   1.854   0.312   5.449 -0.7743 -0.3824 -0.2449
 5596SOL    HW228251   1.823   0.393   5.569 -2.8199 -0.6535  2.4631
 5597SOL     OW28252   3.003   3.681   8.692 -0.2223 -0.1386 -0.2553
 5597SOL    HW128253   3.010   3.589   8.667  0.5360 -0.4076  0.9080
 5597SOL    HW228254   3.038   3.712   8.609 -1.8520  0.6287 -0.6447
 5598SOL     OW28255   0.842   0.439   9.135  0.1880  0.6878 -0.0908
 5598SOL    HW128256   0.895   0.508   9.095 -0.4549  0.5051 -1.2758
 5598SOL    HW228257   0.882   0.462   9.218  0.6797 -0.0542 -0.1239
 5599SOL     OW28258   3.657   0.279   1.577 -0.6094 -0.0861 -0.3692
 5599SOL    HW128259   3.587   0.241   1.524 -1.6036  0.2267  0.7055
 5599SOL    HW228260   3.656   0.371   1.550 -2.9382  0.6344  2.2129
 5600SOL     OW28261   2.679   4.025   3.817 -0.1805  0.8862  0.0006
 5600SOL    HW128262   2.714   3.941   3.846 -1.3230  0.8550  1.2910
 5600SOL    HW228263   2.754   4.075   3.786 -0.8006  1.2397 -0.9222
 5601SOL     OW28264   4.355   0.682   9.023 -0.5905 -0.3811  0.1643
 5601SOL    HW128265   4.325   0.591   9.028  0.9164 -0.8990 -0.2331
 5601SOL    HW228266   4.329   0.709   8.935  2.6585  0.6676 -0.4856
 5602SOL     OW28267   1.090   2.702   7.053 -0.1185  0.0533  0.1618
 5602SOL    HW128268   1.024   2.694   6.984 -0.2882 -1.1404  0.4657
 5602SOL    HW228269   1.171   2.736   7.016  0.1350 -1.6272 -0.7827
 5603SOL     OW28270   4.015   0.274  15.325 -0.1103 -0.2947 -0.0363
 5603SOL    HW128271   4.040   0.339  15.391  0.9249 -1.8192  1.0541
 5603SOL    HW228272   4.091   0.216  15.332  0.8352  0.6901 -1.9524
 5604SOL     OW28273   4.122   1.639   3.013  0.0728 -0.0088 -0.1288
 5604SOL    HW128274   4.069   1.573   2.969  2.6291 -1.2169 -1.3834
 5604SOL    HW228275   4.080   1.720   2.986 -2.8604 -1.3289  0.5288
 5605SOL     OW28276   1.079   1.936   8.573 -0.3606 -0.3023 -0.8324
 5605SOL    HW128277   1.070   1.973   8.660  1.5900 -0.6586 -0.4671
 5605SOL    HW228278   1.137   1.863   8.596  0.9027  1.1056  0.4620
 5606SOL     OW28279   1.667   0.704   1.083  0.2405 -0.1394 -0.2946
 5606SOL    HW128280   1.687   0.791   1.117  0.1731  0.5343 -1.9631
 5606SOL    HW228281   1.704   0.703   0.995  1.7776  2.1854  0.3422
 5607SOL     OW28282   3.673   0.449  14.977 -0.3732 -0.2240  0.2582
 5607SOL    HW128283   3.714   0.413  15.056  0.5192  0.9041  0.3076
 5607SOL    HW228284   3.596   0.491  15.016  0.7344  2.7353 -0.7593
 5608SOL     OW28285   3.696   3.133  12.272 -0.1997 -0.8229 -0.8746
 5608SOL    HW128286   3.730   3.045  12.258  0.8429 -0.4018 -0.9690
 5608SOL    HW228287   3.736   3.152  12.357 -0.8680  0.5584 -0.8559
 5609SOL     OW28288   1.180   4.029  10.393  0.3630  0.0806 -0.1510
 5609SOL    HW128289   1.189   4.122  10.373 -3.0286 -0.1996 -2.8296
 5609SOL    HW228290   1.244   4.024  10.464 -0.4228 -0.9101  0.4929
 5610SOL     OW28291   0.653   1.637  17.424 -0.5955 -0.1663  0.1352
 5610SOL    HW128292   0.649   1.548  17.390  1.0177 -0.1655 -0.0873
 5610SOL    HW228293   0.574   1.628  17.476  1.6243  1.6429  3.8481
 5611SOL     OW28294   0.228   3.714   1.729 -0.3211  0.5531  0.2775
 5611SOL    HW128295   0.168   3.688   1.799  0.1097  0.6763  0.6967
 5611SOL    HW228296   0.212   3.808   1.723 -2.0860  0.1619 -1.1663
 5612SOL     OW28297   4.623   4.094   7.426  0.1020  0.4870 -0.0702
 5612SOL    HW128298   4.647   4.010   7.386 -0.9420 -0.4832  1.3501
 5612SOL    HW228299   4.669   4.081   7.509 -0.8510  1.5511  0.6282
 5613SOL     OW28300   4.473   0.345  11.248 -0.4166  0.3901 -0.2108
 5613SOL    HW128301   4.496   0.308  11.334 -1.1334 -0.1365 -0.2420
 5613SOL    HW228302   4.483   0.262  11.200 -2.9388 -0.3702  0.5714
 5614SOL     OW28303   3.604   1.657   1.072 -1.0348  0.0810  0.5157
 5614SOL    HW128304   3.654   1.576   1.076 -0.2066  0.6890  2.3010
 5614SOL    HW228305   3.521   1.633   1.115 -0.5841 -0.5335  1.0441
 5615SOL     OW28306   4.168   1.473  10.663  0.7273  0.4041 -0.3703
 5615SOL    HW128307   4.201   1.489  10.751 -0.1282 -1.8490  0.3717
 5615SOL    HW228308   4.175   1.553  10.611  0.8629  0.0330 -0.9322
 5616SOL     OW28309   0.745   1.058  14.704 -0.0805  0.5254  0.3487
 5616SOL    HW128310   0.661   1.103  14.713  0.2209  0.9813  0.8539
 5616SOL    HW228311   0.801   1.089  14.775  0.4829  0.1976  0.0471
 5617SOL     OW28312   2.886   0.729   6.791 -0.2816 -0.0492 -0.5251
 5617SOL    HW128313   2.893   0.694   6.880 -0.9668  1.0118 -0.0550
 5617SOL    HW228314   2.972   0.698   6.762  0.4347 -1.5028  3.1393
 5618SOL     OW28315   1.154   2.072  13.631  0.1815 -0.2175 -0.3823
 5618SOL    HW128316   1.078   2.025  13.600 -1.9776  0.4818  3.7834
 5618SOL    HW228317   1.157   2.148  13.572 -1.3702  1.3838  1.5934
 5619SOL     OW28318   2.903   2.628  13.877 -0.2615  0.2690  0.4391
 5619SOL    HW128319   2.973   2.642  13.813  1.2213 -0.3995  1.8949
 5619SOL    HW228320   2.871   2.549  13.834  0.5576 -0.0984  0.4885
 5620SOL     OW28321   2.262   0.517   5.752 -0.2418  0.0059 -0.6194
 5620SOL    HW128322   2.256   0.455   5.679 -1.4284 -0.0461 -0.4790
 5620SOL    HW228323   2.243   0.594   5.699 -1.9659 -0.5766 -0.8523
 5621SOL     OW28324   1.850   2.190   5.440  0.4200  0.4480 -0.2683
 5621SOL    HW128325   1.900   2.177   5.359  0.5331 -0.8536  0.0184
 5621SOL    HW228326   1.796   2.266   5.418  0.9153  0.9979  0.4032
 5622SOL     OW28327   4.214   1.405   1.844  0.0019  0.5761  0.6110
 5622SOL    HW128328   4.148   1.461   1.884 -0.8766 -0.7784  1.0882
 5622SOL    HW228329   4.189   1.427   1.755 -0.7574  0.4194  0.7818
 5623SOL     OW28330   3.081   4.713   5.853 -0.4237 -0.3514  0.2004
 5623SOL    HW128331   3.170   0.005   5.821  0.1694 -0.7873  1.6127
 5623SOL    HW228332   3.100   4.628   5.894  2.7010  0.6454  0.8589
 5624SOL     OW28333   3.562   1.676  14.818  0.2076 -0.2196  0.5784
 5624SOL    HW128334   3.554   1.589  14.857  0.8319 -1.2507 -1.5841
 5624SOL    HW228335   3.650   1.690  14.854 -0.0339  1.4339  0.5194
 5625SOL     OW28336   4.550   0.706   2.414 -0.2513 -0.7492 -0.1618
 5625SOL    HW128337   4.631   0.676   2.374 -1.6037 -2.9899 -1.1965
 5625SOL    HW228338   4.524   0.762   2.341  1.9228 -0.3643 -0.6339
 5626SOL     OW28339   4.575   4.642  17.000 -0.0622  0.3086  0.4436
 5626SOL    HW128340   4.613   4.557  17.024  0.4282  1.0461  2.2864
 5626SOL    HW228341   4.529   4.666  17.080  0.6568  2.0714  0.3108
 5627SOL     OW28342   0.559   0.235  15.037 -0.3123 -0.3747 -0.1565
 5627SOL    HW128343   0.564   0.323  14.999  1.8195 -1.3223 -2.0638
 5627SOL    HW228344   0.489   0.252  15.099  1.5131  0.9776  1.5240
 5628SOL     OW28345   4.282   4.613   5.435 -0.9311 -0.3196  0.0691
 5628SOL    HW128346   4.314   4.701   5.415  0.4623 -0.7731  0.3001
 5628SOL    HW228347   4.354   4.551   5.423 -1.2723 -0.6933 -0.0514
 5629SOL     OW28348   3.561   3.454  12.472 -0.2445  0.5911  0.1726
 5629SOL    HW128349   3.638   3.502  12.441  0.0092  0.5029  0.6539
 5629SOL    HW228350   3.601   3.381  12.520  0.7950  0.4462 -0.9227
 5630SOL     OW28351   2.124   3.525   6.140  0.1519  0.7043 -0.5163
 5630SOL    HW128352   2.107   3.612   6.177  0.6355  0.8792 -0.7105
 5630SOL    HW228353   2.138   3.541   6.047  2.7582  1.7134  0.0429
 5631SOL     OW28354   1.693   2.437  14.220  0.3216 -0.1519  0.3141
 5631SOL    HW128355   1.724   2.498  14.152  2.0941  0.5278  1.7356
 5631SOL    HW228356   1.737   2.473  14.297 -1.1036  0.5767  0.7980
 5632SOL     OW28357   2.422   4.258   6.156 -0.2551  0.2547  0.1461
 5632SOL    HW128358   2.486   4.314   6.201  0.7433 -2.6010  2.3316
 5632SOL    HW228359   2.473   4.180   6.134 -0.4875  0.2300 -0.2877
 5633SOL     OW28360   1.027   3.126  12.647  0.3189  0.5111 -0.4986
 5633SOL    HW128361   1.053   3.214  12.675  0.4416 -0.1330  1.3821
 5633SOL    HW228362   1.077   3.123  12.565  0.4108  0.8285 -0.4543
 5634SOL     OW28363   3.248   2.070   8.325 -0.1657  0.2867 -0.2159
 5634SOL    HW128364   3.156   2.076   8.349 -0.3052 -2.1866 -0.2074
 5634SOL    HW228365   3.262   1.979   8.351  2.2483  0.2321 -1.6693
 5635SOL     OW28366   0.689   1.373   1.520 -0.7252 -0.2691 -1.2996
 5635SOL    HW128367   0.735   1.299   1.559  3.3897  2.2894 -1.2580
 5635SOL    HW228368   0.750   1.377   1.447  0.9639 -1.8443  0.0278
 5636SOL     OW28369   1.883   2.373  16.978 -0.1351 -0.0738  0.0258
 5636SOL    HW128370   1.949   2.442  16.981 -0.4892  0.2338  0.7064
 5636SOL    HW228371   1.900   2.338  17.065 -0.2089 -1.0548 -0.3549
 5637SOL     OW28372   2.507   0.172   5.502  0.0419  0.4418  0.3184
 5637SOL    HW128373   2.523   0.112   5.575  1.3983  1.0346  0.5130
 5637SOL    HW228374   2.435   0.222   5.541  1.2412  0.5511  2.4187
 5638SOL     OW28375   1.085   0.379   8.166 -0.3703 -0.5635 -0.4737
 5638SOL    HW128376   1.059   0.468   8.144  0.7975 -0.2956 -0.7800
 5638SOL    HW228377   1.075   0.337   8.080 -0.6954 -0.1651 -0.6305
 5639SOL     OW28378   3.916   3.992   2.955 -0.2568 -0.6104 -0.1189
 5639SOL    HW128379   3.969   4.036   3.022 -0.7602 -3.0098  1.8607
 5639SOL    HW228380   3.917   3.900   2.980 -1.5222 -0.3174  1.0101
 5640SOL     OW28381   0.842   1.086   2.678 -0.5242  0.4051  0.7569
 5640SOL    HW128382   0.871   0.995   2.677  0.5546  0.7544  0.5280
 5640SOL    HW228383   0.906   1.130   2.622  0.5768 -0.6602  1.1839
 5641SOL     OW28384   3.864   0.125  10.548  0.1652  0.3600  0.3270
 5641SOL    HW128385   3.955   0.108  10.523 -0.0671  0.2838 -0.4453
 5641SOL    HW228386   3.820   0.102  10.467 -0.8023  0.2503  0.8837
 5642SOL     OW28387   0.151   0.141   6.962 -0.1818 -0.1406  0.1608
 5642SOL    HW128388   0.172   0.234   6.960  0.0929 -0.1920  0.5300
 5642SOL    HW228389   0.109   0.126   6.877 -0.2511 -0.3642  0.2344
 5643SOL     OW28390   2.294   0.185   9.272 -0.2008  0.5455 -0.4207
 5643SOL    HW128391   2.218   0.242   9.258  1.7570  2.5414 -3.0527
 5643SOL    HW228392   2.342   0.203   9.191  0.5943  1.0178  0.1531
 5644SOL     OW28393   0.853   2.338   5.131 -0.0278  0.7711 -0.4063
 5644SOL    HW128394   0.913   2.327   5.057 -0.2207 -2.2434 -0.1461
 5644SOL    HW228395   0.890   2.397   5.196 -0.8219  0.4534  0.3385
 5645SOL     OW28396   3.183   0.235  16.499  0.4481 -0.1325 -0.5645
 5645SOL    HW128397   3.113   0.274  16.550  1.0615  3.0431 -2.1577
 5645SOL    HW228398   3.236   0.307  16.465  0.7500 -0.2425 -0.3287
 5646SOL     OW28399   0.255   0.885   3.684  0.4603 -0.0155  0.0096
 5646SOL    HW128400   0.324   0.917   3.743 -0.9052  1.5027  0.7814
 5646SOL    HW228401   0.210   0.956   3.640 -1.8663  0.3365  2.9770
 5647SOL     OW28402   1.831   2.611   6.179  0.4976  0.0642  0.2414
 5647SOL    HW128403   1.851   2.675   6.247 -0.4681  1.4397 -0.7735
 5647SOL    HW228404   1.881   2.645   6.105 -1.2793  1.7778 -0.1733
 5648SOL     OW28405   1.503   2.713   5.583 -0.5149 -0.8149  0.3465
 5648SOL    HW128406   1.554   2.780   5.627  0.3684 -2.1212  1.3164
 5648SOL    HW228407   1.453   2.670   5.652 -0.8179  2.5837  2.2384
 5649SOL     OW28408   3.081   4.107   2.361  0.1337 -0.0922 -0.2968
 5649SOL    HW128409   3.050   4.102   2.271  1.3995  2.3280 -0.8430
 5649SOL    HW228410   3.174   4.128   2.359  0.2373 -0.3816  1.0408
 5650SOL     OW28411   3.605   4.261   2.561  0.3930 -0.1684 -0.5761
 5650SOL    HW128412   3.530   4.276   2.619 -0.0775 -0.4191 -1.1201
 5650SOL    HW228413   3.555   4.235   2.484  0.3117 -1.0739 -0.2128
 5651SOL     OW28414   2.361   1.893   7.342 -0.0337  0.4429 -0.1721
 5651SOL    HW128415   2.311   1.837   7.402 -0.6218  0.5179 -0.5944
 5651SOL    HW228416   2.450   1.857   7.340  0.4235  1.6261 -1.6983
 5652SOL     OW28417   3.800   0.823   2.288  0.1471  0.2640  0.4503
 5652SOL    HW128418   3.743   0.799   2.361 -0.1876  2.1742  0.8252
 5652SOL    HW228419   3.744   0.803   2.212 -2.1021  3.0609  1.3753
 5653SOL     OW28420   1.620   1.470   1.456  0.3397  0.0804  0.2626
 5653SOL    HW128421   1.587   1.512   1.535 -0.5537  0.7837 -0.4802
 5653SOL    HW228422   1.589   1.529   1.387  0.8147 -0.8069 -0.7202
 5654SOL     OW28423   2.948   1.141   0.155 -0.0456  0.2554  0.4316
 5654SOL    HW128424   2.902   1.095   0.085  0.9518 -0.3305  0.1641
 5654SOL    HW228425   2.871   1.164   0.207 -1.3362 -4.2289  0.4881
 5655SOL     OW28426   4.514   1.467  15.046 -0.2131 -0.4127 -0.6676
 5655SOL    HW128427   4.438   1.409  15.040 -0.0644 -0.5823 -0.8857
 5655SOL    HW228428   4.468   1.551  15.047  3.0593  1.3763 -0.5667
 5656SOL     OW28429   3.543   3.244   4.215 -0.0114  0.7173 -0.0592
 5656SOL    HW128430   3.597   3.306   4.165  1.1496 -0.0818  0.2161
 5656SOL    HW228431   3.592   3.163   4.225 -0.7530  0.1266 -1.2271
 5657SOL     OW28432   1.254   0.284  13.850  0.5589  0.0359 -0.4720
 5657SOL    HW128433   1.214   0.292  13.763  1.3241 -1.0388 -0.9282
 5657SOL    HW228434   1.253   0.378  13.867  0.2912 -0.3989  1.9317
 5658SOL     OW28435   3.449   0.357   7.264 -0.0133  0.0556  0.0421
 5658SOL    HW128436   3.368   0.313   7.289  0.5416 -0.0257  1.7213
 5658SOL    HW228437   3.419   0.402   7.185 -1.6868 -1.0465  0.0611
 5659SOL     OW28438   0.053   3.250   9.111  0.1262 -0.2495  0.6258
 5659SOL    HW128439   0.040   3.164   9.152  1.9899  0.7473  3.2743
 5659SOL    HW228440   4.688   3.251   9.075 -0.5615 -1.6600  2.2961
 5660SOL     OW28441   4.452   2.604  13.181 -0.2062 -0.2884 -0.5276
 5660SOL    HW128442   4.426   2.657  13.106  0.4366 -0.7442 -1.0739
 5660SOL    HW228443   4.376   2.597  13.239 -1.5954 -0.6594 -2.3712
 5661SOL     OW28444   3.352   2.301   8.412  0.3049  0.4569 -0.5960
 5661SOL    HW128445   3.306   2.306   8.496 -0.9305  2.8427 -1.4204
 5661SOL    HW228446   3.333   2.213   8.379  1.7627 -0.4274  0.9302
 5662SOL     OW28447   1.804   1.430   3.987  0.5006  0.2122 -0.2797
 5662SOL    HW128448   1.823   1.408   4.078 -1.5175 -1.3363 -0.2504
 5662SOL    HW228449   1.797   1.525   3.993  2.5643  0.2795  0.9601
 5663SOL     OW28450   2.389   4.243   8.108  0.5286 -0.9539 -0.5038
 5663SOL    HW128451   2.438   4.260   8.189  0.4377 -0.4045 -0.5649
 5663SOL    HW228452   2.316   4.197   8.148  1.1569  0.4351  2.2607
 5664SOL     OW28453   0.850   3.250   7.421  0.7974  0.2676 -0.1751
 5664SOL    HW128454   0.895   3.173   7.384 -0.7409 -0.9520  0.5139
 5664SOL    HW228455   0.783   3.203   7.471  2.2849 -2.9018 -1.1298
 5665SOL     OW28456   0.715   2.576   3.731 -0.0584  0.3319 -0.2524
 5665SOL    HW128457   0.670   2.637   3.672 -0.7822  0.0008 -0.0471
 5665SOL    HW228458   0.702   2.493   3.685  2.2795  0.6064 -1.4194
 5666SOL     OW28459   4.582   4.250  14.979  0.1652  0.2886  0.7398
 5666SOL    HW128460   4.607   4.157  14.986  0.9598  0.3963 -0.9276
 5666SOL    HW228461   4.665   4.288  15.008 -0.1128  0.3282  1.4981
 5667SOL     OW28462   0.081   0.696   2.267 -0.3313  0.1741  0.4273
 5667SOL    HW128463   0.065   0.754   2.192  0.4363 -0.8061 -0.4877
 5667SOL    HW228464   0.174   0.677   2.260 -0.8010 -1.5642 -1.2214
 5668SOL     OW28465   2.107   1.064   7.932  0.3037  0.4606  0.1352
 5668SOL    HW128466   2.045   1.036   7.866  1.8143 -0.7689 -0.7747
 5668SOL    HW228467   2.102   0.995   7.998  0.5204  0.4584  0.1515
 5669SOL     OW28468   3.580   2.244   1.426 -0.0405  0.7389 -0.1837
 5669SOL    HW128469   3.511   2.262   1.363  1.9804  0.5248 -2.4671
 5669SOL    HW228470   3.553   2.286   1.508 -0.7021  1.1475 -0.6126
 5670SOL     OW28471   4.323   2.465   7.676 -0.1796 -0.3381 -0.1031
 5670SOL    HW128472   4.304   2.382   7.720  0.7838 -1.5268 -1.9407
 5670SOL    HW228473   4.404   2.440   7.632  0.1687  0.0431  0.3096
 5671SOL     OW28474   1.776   2.436   1.909 -0.6529 -0.0904 -0.1572
 5671SOL    HW128475   1.815   2.441   1.997  1.2806  2.4286 -1.1736
 5671SOL    HW228476   1.774   2.530   1.893  1.4876  0.1860  1.1586
 5672SOL     OW28477   3.226   4.209  16.013  0.5669 -0.2430  0.3125
 5672SOL    HW128478   3.287   4.163  15.955 -0.7788 -0.0240 -1.2639
 5672SOL    HW228479   3.279   4.288  16.025  1.3981 -0.7490 -0.0567
 5673SOL     OW28480   1.338   0.458   8.319  0.0768 -0.0817 -0.4211
 5673SOL    HW128481   1.313   0.536   8.368 -1.5843 -0.1612 -1.1517
 5673SOL    HW228482   1.264   0.444   8.260 -0.8735 -0.1657  0.7972
 5674SOL     OW28483   2.956   1.234   2.448  0.2216 -0.0492  0.3320
 5674SOL    HW128484   2.893   1.198   2.386 -1.7591  2.0219  1.1319
 5674SOL    HW228485   2.997   1.153   2.480  1.5904  0.6890  0.4671
 5675SOL     OW28486   2.097   2.176   7.815  0.0584 -0.0145 -0.3158
 5675SOL    HW128487   2.084   2.104   7.878  0.2803  0.9113  0.7823
 5675SOL    HW228488   2.167   2.225   7.858  0.2603  0.6053 -1.3519
 5676SOL     OW28489   2.088   1.324   3.258  0.0008  0.3146  0.1130
 5676SOL    HW128490   2.168   1.273   3.249 -0.2570 -0.2608  1.0348
 5676SOL    HW228491   2.043   1.263   3.316  1.2571 -2.1863 -1.5399
 5677SOL     OW28492   1.973   2.766   4.283 -0.5781  0.1069 -0.1331
 5677SOL    HW128493   2.055   2.805   4.313 -0.1684 -0.2122 -0.8327
 5677SOL    HW228494   1.985   2.677   4.316 -1.0412  1.1594  2.9354
 5678SOL     OW28495   0.582   4.535   8.520 -0.6295 -0.0038 -0.6999
 5678SOL    HW128496   0.603   4.611   8.464  2.2247  1.0372  1.7630
 5678SOL    HW228497   0.665   4.491   8.536 -0.4010  0.4975 -0.4879
 5679SOL     OW28498   4.715   0.521  15.124  0.6576  0.3981 -0.0276
 5679SOL    HW128499   4.689   0.581  15.193 -1.4575 -0.0688 -0.4275
 5679SOL    HW228500   0.082   0.552  15.116  0.2574  0.3528 -4.6636
 5680SOL     OW28501   1.970   4.174   3.834  0.1918  0.0702  0.0869
 5680SOL    HW128502   1.966   4.212   3.922  2.0470  2.2626 -0.7556
 5680SOL    HW228503   1.881   4.203   3.811 -0.6563 -1.3970  1.5600
 5681SOL     OW28504   3.390   2.468   6.717 -0.3546 -0.8291 -0.5083
 5681SOL    HW128505   3.337   2.389   6.731  0.6908 -1.4880 -0.2851
 5681SOL    HW228506   3.398   2.506   6.804 -0.6254 -1.2586 -0.2971
 5682SOL     OW28507   2.652   3.886   6.221  0.3433  0.1200  0.4400
 5682SOL    HW128508   2.742   3.916   6.205  1.2386 -2.3245  0.8334
 5682SOL    HW228509   2.641   3.814   6.160 -2.2627  1.2923 -0.4696
 5683SOL     OW28510   0.868   4.634   8.217 -0.3286 -0.1815  0.1592
 5683SOL    HW128511   0.785   4.658   8.256 -1.4307  0.2322 -2.4689
 5683SOL    HW228512   0.926   4.701   8.254 -0.3132 -0.8933  1.4366
 5684SOL     OW28513   1.035   0.278   6.326 -0.1013 -0.5750  0.3081
 5684SOL    HW128514   1.084   0.227   6.261  1.0830  1.3350 -0.2847
 5684SOL    HW228515   1.111   0.307   6.377  0.0733 -0.5061  0.0119
 5685SOL     OW28516   4.063   4.634   1.114 -0.0549  0.1381  0.0012
 5685SOL    HW128517   4.020   4.628   1.199  0.3573  1.7459  0.3309
 5685SOL    HW228518   4.132   4.693   1.143 -1.2757  0.5627  2.0380
 5686SOL     OW28519   1.753   1.509   8.643 -0.3975  0.2307  0.0057
 5686SOL    HW128520   1.698   1.433   8.625 -1.2634  1.0334 -0.7965
 5686SOL    HW228521   1.831   1.472   8.602  1.5265  2.9520  1.2028
 5687SOL     OW28522   1.048   3.889   3.934 -0.3213  0.3825  0.4568
 5687SOL    HW128523   1.074   3.798   3.941  1.3950  0.5993 -2.8478
 5687SOL    HW228524   1.106   3.923   3.865  1.7150 -0.0518  1.9720
 5688SOL     OW28525   3.733   1.417   8.511 -0.2407  0.3941  0.1254
 5688SOL    HW128526   3.756   1.502   8.474  1.0815 -0.2805 -0.6358
 5688SOL    HW228527   3.638   1.422   8.502 -0.3350 -1.6414 -0.0799
 5689SOL     OW28528   2.632   3.342   2.010  0.0449 -0.1964 -0.3395
 5689SOL    HW128529   2.539   3.363   2.000 -0.3081 -0.0368  3.1970
 5689SOL    HW228530   2.642   3.323   2.103 -0.3620  0.3147 -0.1917
 5690SOL     OW28531   1.096   0.605  14.981 -0.3966 -0.0437  0.1077
 5690SOL    HW128532   1.034   0.674  14.957 -0.2379 -0.4578 -1.5193
 5690SOL    HW228533   1.086   0.598  15.075 -5.1717  2.4626 -0.1852
 5691SOL     OW28534   1.023   2.202   8.434 -0.0622 -0.2692 -0.1463
 5691SOL    HW128535   1.087   2.250   8.485 -2.3875  1.8326  0.7871
 5691SOL    HW228536   0.999   2.125   8.486 -0.5971  0.3147  0.4697
 5692SOL     OW28537   1.510   0.611   8.892  0.1258  0.0718 -1.1065
 5692SOL    HW128538   1.540   0.701   8.880  0.3087 -0.1325 -2.1242
 5692SOL    HW228539   1.415   0.602   8.892  0.0054  1.3389  1.2556
 5693SOL     OW28540   3.992   3.239   7.439  0.4636 -0.2120  0.4081
 5693SOL    HW128541   4.051   3.305   7.475  1.7733 -0.4131 -1.3707
 5693SOL    HW228542   4.009   3.175   7.507  0.7259  0.3095  0.8309
 5694SOL     OW28543   0.327   4.369  11.498  0.3562  0.2599  0.7380
 5694SOL    HW128544   0.340   4.437  11.564  0.9683  1.3297 -0.5026
 5694SOL    HW228545   0.402   4.388  11.442  0.4319  0.4407  0.8999
 5695SOL     OW28546   2.945   1.336   8.492 -0.0039  0.2442 -0.2147
 5695SOL    HW128547   2.893   1.272   8.541  1.7723 -0.7430  0.4060
 5695SOL    HW228548   3.023   1.331   8.547 -0.4440  0.4189  0.4206
 5696SOL     OW28549   1.989   2.968   5.556 -0.8986 -0.6599  0.1657
 5696SOL    HW128550   1.967   2.944   5.646 -0.7756 -0.2698  0.2999
 5696SOL    HW228551   1.997   3.062   5.571 -1.2026 -0.2529 -2.1643
 5697SOL     OW28552   2.579   0.673   7.986 -0.6740  0.2530  0.5373
 5697SOL    HW128553   2.492   0.709   8.007 -0.6152  0.9109 -0.3272
 5697SOL    HW228554   2.566   0.644   7.896  1.7735  1.0139 -0.0435
 5698SOL     OW28555   2.835   0.641   3.570 -0.2815 -0.2161 -0.2399
 5698SOL    HW128556   2.742   0.664   3.569 -0.5336 -1.2471  0.0639
 5698SOL    HW228557   2.832   0.555   3.529  1.4473 -0.8955  1.0563
 5699SOL     OW28558   4.596   3.374   8.688  0.7016 -0.3567 -0.0321
 5699SOL    HW128559   4.534   3.444   8.667  2.2589  1.3353  1.1335
 5699SOL    HW228560   4.640   3.416   8.761 -1.2761  0.0092  0.9531
 5700SOL     OW28561   4.309   0.835   7.349 -0.1957 -0.5829  0.1116
 5700SOL    HW128562   4.236   0.776   7.369 -2.0616  1.4695 -0.6943
 5700SOL    HW228563   4.313   0.879   7.434  0.5104 -0.0573 -0.2019
 5701SOL     OW28564   3.896   3.074   7.269 -0.6186 -0.0436  0.8609
 5701SOL    HW128565   3.937   3.151   7.309  0.3841 -0.2690  0.2545
 5701SOL    HW228566   3.927   3.007   7.329 -0.0730 -0.3994  0.1810
 5702SOL     OW28567   1.309   1.326  16.327 -0.2742  0.1259 -0.5277
 5702SOL    HW128568   1.278   1.392  16.265  0.4711  1.2405  0.2684
 5702SOL    HW228569   1.381   1.365  16.377  0.5319 -1.7214 -0.2530
 5703SOL     OW28570   3.466   3.401   0.962 -0.3529 -0.3982  0.1414
 5703SOL    HW128571   3.460   3.323   0.907 -1.1715  1.2088 -2.0299
 5703SOL    HW228572   3.482   3.468   0.896  0.2485 -0.4384  0.2403
 5704SOL     OW28573   2.273   4.428  10.066  1.0779 -0.1941  0.1152
 5704SOL    HW128574   2.255   4.429  10.160  2.0140  3.9016  0.2544
 5704SOL    HW228575   2.332   4.353  10.059  2.2895  0.6508  1.2406
 5705SOL     OW28576   1.576   1.873   3.190 -0.0051 -0.8623  0.3083
 5705SOL    HW128577   1.643   1.876   3.259  0.1341 -2.0574  0.2320
 5705SOL    HW228578   1.621   1.933   3.131 -0.5982  1.1296  1.9018
 5706SOL     OW28579   4.103   0.248   4.411 -0.1001 -0.0256 -0.7398
 5706SOL    HW128580   4.136   0.321   4.359 -0.7203  0.9077  0.1788
 5706SOL    HW228581   4.030   0.223   4.355 -0.9059 -1.1054  0.7727
 5707SOL     OW28582   3.532   3.499   8.441  0.4938 -0.3178  0.1177
 5707SOL    HW128583   3.592   3.492   8.515  1.0516 -1.9041 -0.4807
 5707SOL    HW228584   3.548   3.586   8.405  1.9794 -0.4701  0.4467
 5708SOL     OW28585   2.656   0.285   5.781 -0.1520 -1.3611  0.0026
 5708SOL    HW128586   2.618   0.369   5.809  0.2347 -0.7374 -1.3258
 5708SOL    HW228587   2.592   0.220   5.810 -1.0471 -1.0599 -1.2326
 5709SOL     OW28588   3.933   1.366   6.857  0.0630  0.1894  0.3414
 5709SOL    HW128589   4.008   1.319   6.820 -1.0180  1.3205 -3.3565
 5709SOL    HW228590   3.982   1.425   6.914 -0.1652  0.2887  0.4330
 5710SOL     OW28591   4.683   3.333   2.688 -0.4964 -0.0891  0.2201
 5710SOL    HW128592   0.052   3.356   2.687 -0.3640 -0.6327  0.2283
 5710SOL    HW228593   4.666   3.301   2.777  0.5064  1.2526  0.8876
 5711SOL     OW28594   3.425   2.939   6.089 -0.2248  0.7039 -0.1427
 5711SOL    HW128595   3.332   2.951   6.103 -0.2520  0.3717 -0.0243
 5711SOL    HW228596   3.431   2.866   6.150  0.9838  1.5074  0.7075
 5712SOL     OW28597   4.397   0.629   1.838  0.3356  0.4272  0.1099
 5712SOL    HW128598   4.322   0.632   1.779 -1.2046 -1.4724  1.9440
 5712SOL    HW228599   4.363   0.672   1.916 -0.9557 -2.4035  1.1139
 5713SOL     OW28600   0.388   3.273   2.517 -0.0860 -0.6280 -0.3935
 5713SOL    HW128601   0.323   3.311   2.459 -0.7994  0.3655  1.0487
 5713SOL    HW228602   0.439   3.226   2.451 -1.5490 -1.6132 -0.8238
 5714SOL     OW28603   2.270   1.999  16.884 -1.0092 -0.5171  0.1008
 5714SOL    HW128604   2.226   1.974  16.965 -2.2169 -0.0015 -0.3950
 5714SOL    HW228605   2.305   2.084  16.910 -0.1879 -0.6906 -0.4367
 5715SOL     OW28606   3.817   0.781   1.703  0.1579 -0.2020 -0.1919
 5715SOL    HW128607   3.805   0.874   1.723 -0.6603 -0.5133  0.7805
 5715SOL    HW228608   3.864   0.802   1.622  0.4811  1.1940  0.3485
 5716SOL     OW28609   4.341   4.482   9.737 -0.2476  0.7598  0.8946
 5716SOL    HW128610   4.371   4.417   9.801 -1.2100 -0.5101  0.0603
 5716SOL    HW228611   4.424   4.511   9.699 -1.3306  2.4612 -0.2000
 5717SOL     OW28612   3.399   1.405  14.751 -0.1262  0.2785 -0.0217
 5717SOL    HW128613   3.418   1.464  14.678 -4.6930  1.1832 -0.4769
 5717SOL    HW228614   3.476   1.419  14.807 -0.6652 -1.4195  1.1602
 5718SOL     OW28615   0.258   1.313  15.646  0.2516 -0.2776 -0.2437
 5718SOL    HW128616   0.350   1.286  15.652  0.5226  0.6183 -0.3638
 5718SOL    HW228617   0.258   1.396  15.695  1.7837 -0.1492 -0.4400
 5719SOL     OW28618   0.216   2.120  17.427  0.0829  0.0109 -0.3593
 5719SOL    HW128619   0.233   2.143  17.518 -1.8903  0.9161 -0.2149
 5719SOL    HW228620   0.299   2.137  17.383 -0.0298  2.1958  0.2905
 5720SOL     OW28621   2.901   3.796   9.344 -0.3938 -0.6140 -0.4452
 5720SOL    HW128622   2.831   3.841   9.296  0.9659  2.2960  0.3105
 5720SOL    HW228623   2.883   3.708   9.312 -0.9863 -0.1705 -1.3504
 5721SOL     OW28624   1.282   3.727  13.379 -0.0889 -0.5848  0.1226
 5721SOL    HW128625   1.236   3.805  13.350 -0.0298 -0.3039  0.7798
 5721SOL    HW228626   1.216   3.667  13.344 -0.2293  0.5387 -1.5303
 5722SOL     OW28627   3.826   3.907  12.029  0.3087  0.3054 -0.4022
 5722SOL    HW128628   3.763   3.956  11.976 -2.5436 -0.6492  2.0879
 5722SOL    HW228629   3.905   3.946  11.991 -0.2003  1.6753 -0.0669
 5723SOL     OW28630   1.596   2.067   0.686  0.0168 -0.1345 -0.3384
 5723SOL    HW128631   1.508   2.099   0.708  0.5501 -0.0947  1.7299
 5723SOL    HW228632   1.633   2.155   0.697  0.5859 -0.2487 -1.3339
 5724SOL     OW28633   0.609   3.675   3.748 -0.1097 -0.0074  0.1408
 5724SOL    HW128634   0.551   3.730   3.800  1.0216  0.0926  1.2925
 5724SOL    HW228635   0.689   3.727   3.737 -1.8096  2.0412 -2.3762
 5725SOL     OW28636   4.525   3.856   6.835  0.0272 -0.5837  0.1255
 5725SOL    HW128637   4.512   3.782   6.895  0.6562  0.1486  1.1727
 5725SOL    HW228638   4.528   3.810   6.751 -0.1096 -0.0146 -0.1913
 5726SOL     OW28639   0.455   2.537   2.455 -0.5690  0.1187  0.3756
 5726SOL    HW128640   0.506   2.456   2.461 -2.3040 -0.8680  1.7346
 5726SOL    HW228641   0.524   2.603   2.446  1.2789 -1.9477 -0.5326
 5727SOL     OW28642   4.513   1.692   5.358 -0.0581  0.0436 -0.6635
 5727SOL    HW128643   4.499   1.602   5.329  1.1436  0.3200 -2.1199
 5727SOL    HW228644   4.552   1.731   5.279 -0.4645 -1.4708 -1.6129
 5728SOL     OW28645   2.203   1.011   6.128 -0.0210 -0.3595 -0.2549
 5728SOL    HW128646   2.248   0.932   6.159 -2.9603 -0.7775  3.0512
 5728SOL    HW228647   2.151   1.037   6.205  0.7580 -2.7693  1.1020
 5729SOL     OW28648   1.905   0.482   5.701 -0.1260 -0.4898  0.1567
 5729SOL    HW128649   1.969   0.554   5.704  0.4733 -1.0527  0.8987
 5729SOL    HW228650   1.880   0.459   5.791 -0.9598 -2.0559 -0.4754
 5730SOL     OW28651   3.232   1.476   4.798  0.2082 -0.2934  0.0105
 5730SOL    HW128652   3.314   1.429   4.783  0.9103  0.8998  0.1894
 5730SOL    HW228653   3.218   1.447   4.888 -0.2617 -1.3660 -0.4027
 5731SOL     OW28654   3.004   2.148  11.289  0.0075  0.5340 -0.1383
 5731SOL    HW128655   2.925   2.094  11.291  1.6704 -1.8653  0.2452
 5731SOL    HW228656   3.008   2.175  11.198  1.9828 -1.4245 -0.6432
 5732SOL     OW28657   3.545   2.550   7.283 -0.5245 -0.9314  0.0805
 5732SOL    HW128658   3.501   2.518   7.204 -0.2515  0.7445 -0.7506
 5732SOL    HW228659   3.581   2.632   7.248 -1.6576 -0.7495 -0.6457
 5733SOL     OW28660   0.759   1.024  13.817 -0.3911 -0.4616  0.6757
 5733SOL    HW128661   0.706   0.985  13.748  0.7609 -0.5130 -0.1664
 5733SOL    HW228662   0.773   0.956  13.883  3.1360  0.6936  1.0996
 5734SOL     OW28663   1.167   0.881   5.547  0.3780  0.6655 -0.1577
 5734SOL    HW128664   1.121   0.797   5.555 -0.6253  1.3098  0.9354
 5734SOL    HW228665   1.089   0.930   5.522 -0.7337  0.2236  2.4585
 5735SOL     OW28666   1.867   3.534  11.353 -0.0356 -0.4642 -0.0808
 5735SOL    HW128667   1.953   3.493  11.346 -1.0405 -2.6987  0.6766
 5735SOL    HW228668   1.815   3.456  11.373 -1.6805  0.6599 -0.0121
 5736SOL     OW28669   3.944   2.705  17.107 -0.2385 -0.1605 -0.1142
 5736SOL    HW128670   3.867   2.699  17.050 -1.6904  1.8556  1.6698
 5736SOL    HW228671   3.932   2.789  17.151 -0.2980 -0.3660  0.2589
 5737SOL     OW28672   1.845   0.749   6.060  0.1517  0.2035 -0.0458
 5737SOL    HW128673   1.774   0.699   6.019  1.7000 -0.2373 -2.2282
 5737SOL    HW228674   1.904   0.774   5.989  0.1435  1.6886  0.4731
 5738SOL     OW28675   2.537   0.929   4.519 -0.6295 -0.3458 -0.0799
 5738SOL    HW128676   2.515   1.018   4.490  0.7015  0.1013  0.3039
 5738SOL    HW228677   2.453   0.897   4.485 -0.4510 -0.1426 -0.7171
 5739SOL     OW28678   1.645   3.342  16.421 -0.3309 -0.0879 -0.5656
 5739SOL    HW128679   1.679   3.406  16.484  0.3556  0.1369 -1.1633
 5739SOL    HW228680   1.719   3.339  16.360  0.7012 -1.7906  0.7980
 5740SOL     OW28681   1.555   4.646   3.318 -0.3767 -0.2212 -0.1429
 5740SOL    HW128682   1.524   4.722   3.367 -2.8295 -1.5378  0.3483
 5740SOL    HW228683   1.517   4.573   3.366  0.4773 -0.5421  0.0375
 5741SOL     OW28684   0.774   1.394   0.512 -0.2851  0.2642  0.1969
 5741SOL    HW128685   0.775   1.441   0.595  0.0757  0.5934  0.0038
 5741SOL    HW228686   0.789   1.472   0.459 -1.3748 -1.3338 -2.4837
 5742SOL     OW28687   3.020   0.740   7.611  0.7517 -0.0116 -0.4888
 5742SOL    HW128688   2.937   0.756   7.657  2.0331  1.6396  1.2378
 5742SOL    HW228689   3.085   0.785   7.665  1.9772 -0.4284 -1.6227
 5743SOL     OW28690   4.650   0.590   7.494  0.1055 -0.2509  0.5445
 5743SOL    HW128691   4.594   0.618   7.567 -0.0251 -0.1179  0.3935
 5743SOL    HW228692   4.709   0.526   7.533  1.2885  2.5867  3.4100
 5744SOL     OW28693   3.093   2.666   2.429  0.0952  0.5538 -0.6823
 5744SOL    HW128694   3.120   2.625   2.511 -0.9761 -0.6665 -0.9406
 5744SOL    HW228695   3.017   2.618   2.395 -0.8633  1.4771  0.1972
 5745SOL     OW28696   2.186   1.048   3.234 -0.3392  0.0355  0.2222
 5745SOL    HW128697   2.139   1.058   3.152 -1.1657 -2.1344  0.4390
 5745SOL    HW228698   2.278   1.056   3.208  0.2617 -0.0561  2.2748
 5746SOL     OW28699   0.786   1.137   8.388  0.0411 -0.2222 -0.2192
 5746SOL    HW128700   0.874   1.173   8.387  0.0091 -0.1811 -1.3602
 5746SOL    HW228701   0.767   1.125   8.295 -0.1885 -3.1612  0.2271
 5747SOL     OW28702   0.732   3.195  14.900  0.3361 -0.4148  0.1863
 5747SOL    HW128703   0.789   3.269  14.881 -3.0549  2.0195 -0.5628
 5747SOL    HW228704   0.803   3.144  14.937 -0.3286 -1.8471 -0.4951
 5748SOL     OW28705   3.032   4.583   9.188 -0.3590 -0.6100 -0.0547
 5748SOL    HW128706   2.997   4.568   9.100 -0.3786 -0.0636 -0.1444
 5748SOL    HW228707   2.978   4.538   9.253  0.1267 -2.0954 -0.6930
 5749SOL     OW28708   2.191   0.648   2.207  0.3076  0.1299  0.6814
 5749SOL    HW128709   2.171   0.577   2.268 -1.2714  0.6988  0.8237
 5749SOL    HW228710   2.278   0.678   2.236  0.0961 -0.3471  1.8150
 5750SOL     OW28711   2.857   0.467  11.084  0.5984  0.5381 -0.0412
 5750SOL    HW128712   2.850   0.530  11.156  1.7865  0.6293 -0.0069
 5750SOL    HW228713   2.767   0.471  11.051  1.1013  1.0312 -1.3481
 5751SOL     OW28714   3.504   4.124   6.742  0.3529  0.3254 -0.6887
 5751SOL    HW128715   3.442   4.197   6.732 -2.4988 -2.4274 -2.9011
 5751SOL    HW228716   3.443   4.052   6.756  0.0587  0.7897  0.4121
 5752SOL     OW28717   1.684   0.970   6.137  1.1053 -0.1691 -0.1025
 5752SOL    HW128718   1.609   0.964   6.079  1.7461  2.3808 -1.1835
 5752SOL    HW228719   1.738   0.901   6.097 -3.0875 -3.4002 -0.2056
 5753SOL     OW28720   1.727   4.553  14.889  0.5131  0.7095 -0.1459
 5753SOL    HW128721   1.672   4.594  14.822  0.0105  1.8395  0.9566
 5753SOL    HW228722   1.738   4.627  14.949 -1.0247  1.6480 -1.0268
 5754SOL     OW28723   2.191   4.367   7.444  0.2688 -0.1024  0.6444
 5754SOL    HW128724   2.268   4.323   7.479 -0.1187 -0.5317  0.9557
 5754SOL    HW228725   2.136   4.292   7.420  0.1787  0.3222 -0.4801
 5755SOL     OW28726   3.744   2.969   2.463 -0.5432  0.2846 -0.1087
 5755SOL    HW128727   3.814   2.933   2.409  1.4084  0.7620  2.1456
 5755SOL    HW228728   3.791   3.027   2.523 -0.8291  1.0223 -0.5876
 5756SOL     OW28729   3.064   1.453  12.044 -0.0323  0.3224  0.7626
 5756SOL    HW128730   3.032   1.538  12.073  1.3869  0.6542  1.3691
 5756SOL    HW228731   2.998   1.435  11.978  0.7808  1.7520 -0.4490
 5757SOL     OW28732   0.919   4.162   2.498  0.1734  0.5512  0.2278
 5757SOL    HW128733   1.000   4.142   2.544 -0.9949  0.8644  2.4287
 5757SOL    HW228734   0.849   4.130   2.555 -0.2688  1.7036  0.3322
 5758SOL     OW28735   0.811   2.478  10.371 -0.2210 -0.0968 -0.0627
 5758SOL    HW128736   0.820   2.454  10.279 -0.2392 -0.5685  0.0625
 5758SOL    HW228737   0.814   2.574  10.367 -0.2496 -0.0468  1.0569
 5759SOL     OW28738   1.146   2.284   7.616 -0.1590  0.2748 -0.2406
 5759SOL    HW128739   1.059   2.323   7.618 -1.6641 -3.1128  0.2856
 5759SOL    HW228740   1.183   2.315   7.533  4.3800 -2.9545  0.5324
 5760SOL     OW28741   2.217   1.957   6.058 -0.1396  0.1914 -0.0085
 5760SOL    HW128742   2.189   2.034   6.108 -1.6272 -1.3010  1.4750
 5760SOL    HW228743   2.300   1.951   6.106 -0.9279 -0.0925  1.3330
 5761SOL     OW28744   0.434   0.930   7.437  0.4395  0.1601  0.9739
 5761SOL    HW128745   0.478   1.014   7.424 -0.3093  0.3699 -0.1740
 5761SOL    HW228746   0.444   0.903   7.529 -0.2448 -1.6363  0.5044
 5762SOL     OW28747   4.624   1.759   5.602  0.0422  0.0707 -0.1843
 5762SOL    HW128748   4.691   1.817   5.566 -0.3227 -0.3640 -1.5818
 5762SOL    HW228749   4.572   1.738   5.524 -1.7441  2.6885  0.2940
 5763SOL     OW28750   4.466   2.051   5.294  0.1419  0.1280  0.1758
 5763SOL    HW128751   4.402   2.118   5.269  0.2562  0.3190  0.3951
 5763SOL    HW228752   4.401   1.990   5.329 -0.8244  0.7447 -0.5576
 5764SOL     OW28753   0.034   1.641  17.364  0.3665  0.2936 -0.8492
 5764SOL    HW128754   4.684   1.583  17.343 -1.1410  0.3603  4.2988
 5764SOL    HW228755   4.713   1.722  17.390 -0.7289 -0.6553  0.2202
 5765SOL     OW28756   0.149   4.428   6.898  0.3754 -0.5767 -0.1405
 5765SOL    HW128757   0.074   4.370   6.905  0.1830 -0.0518  2.1055
 5765SOL    HW228758   0.137   4.481   6.976  1.0792 -0.7998  0.1220
 5766SOL     OW28759   0.943   4.719   3.557  0.2304 -0.4468  0.2689
 5766SOL    HW128760   0.868   0.048   3.582  0.0489 -0.9050  0.6941
 5766SOL    HW228761   0.897   4.635   3.555  0.5337 -0.6025 -0.2731
 5767SOL     OW28762   2.743   1.364   0.797 -0.5457 -0.0543  0.2285
 5767SOL    HW128763   2.772   1.280   0.764 -0.0847  0.0436  0.3824
 5767SOL    HW228764   2.667   1.375   0.739  0.3220  2.2437 -0.4819
 5768SOL     OW28765   2.244   0.329   5.535  0.0776 -0.1190  0.2795
 5768SOL    HW128766   2.168   0.272   5.526  0.0118  0.1745 -0.9776
 5768SOL    HW228767   2.232   0.378   5.454 -2.7473 -3.1865 -1.1638
 5769SOL     OW28768   1.079   2.747  14.507  0.4239 -0.1468  0.1705
 5769SOL    HW128769   1.019   2.818  14.482 -1.5354 -2.4670 -1.6650
 5769SOL    HW228770   1.048   2.685  14.441 -2.3440 -1.2803  2.5679
 5770SOL     OW28771   3.259   3.793   8.915 -0.4581 -0.1032 -0.6862
 5770SOL    HW128772   3.341   3.827   8.951 -0.7741  1.0184 -1.0557
 5770SOL    HW228773   3.286   3.768   8.827  0.9259 -1.0815 -0.0021
 5771SOL     OW28774   2.896   0.398  14.980  0.6476  0.7765 -0.1364
 5771SOL    HW128775   2.886   0.315  14.935  1.0496  1.2492 -1.0993
 5771SOL    HW228776   2.844   0.384  15.060  2.8523 -1.9065  0.8097
 5772SOL     OW28777   2.648   4.013   3.257 -0.6818  0.1037  0.1061
 5772SOL    HW128778   2.590   3.980   3.188 -0.3498 -1.0288  0.3589
 5772SOL    HW228779   2.696   4.070   3.198  0.0812 -1.9269 -1.2476
 5773SOL     OW28780   0.767   1.645   4.029 -0.2533  0.1319 -0.1095
 5773SOL    HW128781   0.859   1.667   4.010 -0.4601  0.9285 -0.2224
 5773SOL    HW228782   0.732   1.731   4.005 -0.2569 -0.4721 -2.3237
 5774SOL     OW28783   3.890   1.965   6.485 -0.4929  0.3036 -0.3005
 5774SOL    HW128784   3.911   1.908   6.412 -2.2955  0.4685 -0.9652
 5774SOL    HW228785   3.926   2.052   6.468 -1.3363  0.7174  0.0261
 5775SOL     OW28786   2.822   1.513   2.704 -0.3508 -0.0302 -0.1802
 5775SOL    HW128787   2.754   1.566   2.747 -0.6039  0.0059 -0.6321
 5775SOL    HW228788   2.876   1.496   2.781  0.0519  1.1292 -0.2039
 5776SOL     OW28789   0.892   2.654  12.540 -0.6478 -0.4327 -0.0009
 5776SOL    HW128790   0.818   2.687  12.490 -1.1943  0.5345  1.4636
 5776SOL    HW228791   0.935   2.738  12.556 -0.0759 -0.1000 -3.2025
 5777SOL     OW28792   2.700   2.495   2.018  0.8076 -0.2104 -1.2570
 5777SOL    HW128793   2.630   2.560   2.019  1.2033  0.1707  0.4589
 5777SOL    HW228794   2.735   2.497   1.929  0.3980 -1.4942 -1.4464
 5778SOL     OW28795   1.355   3.626  15.828 -0.1339  0.8425  0.4426
 5778SOL    HW128796   1.356   3.537  15.862 -1.1468  0.1381 -1.3791
 5778SOL    HW228797   1.264   3.654  15.839 -0.3491  0.5581 -0.5453
 5779SOL     OW28798   0.410   1.114   4.956  0.0941 -0.4949 -0.5102
 5779SOL    HW128799   0.480   1.157   5.006 -0.1593  0.3957 -0.9119
 5779SOL    HW228800   0.454   1.125   4.872 -1.3859 -1.8940 -1.4601
 5780SOL     OW28801   3.124   1.723   3.086  0.1015 -0.7583  0.0724
 5780SOL    HW128802   3.036   1.746   3.117  0.4426  2.3358 -1.2457
 5780SOL    HW228803   3.145   1.641   3.130 -2.2211 -0.9847  0.7538
 5781SOL     OW28804   3.185   1.502   1.481 -0.4448 -0.3658  0.2105
 5781SOL    HW128805   3.245   1.450   1.535  1.3457  0.7741 -0.6850
 5781SOL    HW228806   3.099   1.474   1.512  0.3473 -2.2339  0.7005
 5782SOL     OW28807   2.952   0.202   5.662 -0.1952  0.0228 -0.6426
 5782SOL    HW128808   2.856   0.204   5.664 -0.1855 -0.3477  0.8677
 5782SOL    HW228809   2.980   0.156   5.741 -0.4745  0.2410 -0.4154
 5783SOL     OW28810   1.108   3.831   2.706 -0.0459 -0.1578  0.3048
 5783SOL    HW128811   1.110   3.888   2.783 -0.2659 -0.5375  0.5970
 5783SOL    HW228812   1.192   3.786   2.717  1.2844  2.9097  2.5762
 5784SOL     OW28813   0.906   4.563   1.487 -0.1229  0.4600 -0.6547
 5784SOL    HW128814   0.984   4.509   1.476  0.3102  1.2388 -1.3320
 5784SOL    HW228815   0.946   4.649   1.503 -1.2008  0.8645 -0.1077
 5785SOL     OW28816   4.333   1.388   2.163 -0.1608 -0.3154  0.1092
 5785SOL    HW128817   4.250   1.367   2.121 -0.2364 -1.7788  0.9870
 5785SOL    HW228818   4.387   1.428   2.095  0.9050 -0.9723  0.5505
 5786SOL     OW28819   4.159   2.557   3.147 -0.7822 -0.5098 -0.5262
 5786SOL    HW128820   4.214   2.579   3.223 -0.4973 -2.2829 -0.2222
 5786SOL    HW228821   4.082   2.597   3.187 -0.1015  0.5408 -0.2460
 5787SOL     OW28822   4.074   2.236  16.687 -0.2724 -0.5587  0.3381
 5787SOL    HW128823   4.114   2.150  16.680  0.3083 -0.4185  1.9156
 5787SOL    HW228824   3.988   2.204  16.660  0.5348 -0.7986 -2.0296
 5788SOL     OW28825   1.223   1.392  17.550  0.0917  0.2622  0.4526
 5788SOL    HW128826   1.280   1.426  17.480  0.1308  0.1806  0.4445
 5788SOL    HW228827   1.151   1.453  17.535 -0.3825 -0.7982 -1.6484
 5789SOL     OW28828   3.661   0.134   4.998 -0.2068 -0.0120  0.1714
 5789SOL    HW128829   3.571   0.100   5.002  0.1683 -1.0672 -0.5345
 5789SOL    HW228830   3.647   0.212   5.052  2.9550  0.3042  0.5023
 5790SOL     OW28831   2.902   4.566   7.864 -0.1229 -0.1763  0.0771
 5790SOL    HW128832   2.961   4.593   7.934 -0.1126 -0.7563  0.2920
 5790SOL    HW228833   2.876   4.481   7.897 -1.3721 -0.1829 -0.9185
 5791SOL     OW28834   2.843   2.050  12.424  0.3517 -0.2866 -0.0963
 5791SOL    HW128835   2.764   2.096  12.454  0.5221 -0.2421  0.2913
 5791SOL    HW228836   2.908   2.084  12.485  0.6704 -3.7129  1.4807
 5792SOL     OW28837   4.551   1.953   8.506  0.1476 -0.0661 -0.2503
 5792SOL    HW128838   4.635   1.911   8.528 -0.7356 -2.5833 -1.6461
 5792SOL    HW228839   4.526   1.891   8.437  1.4558  0.9173 -1.6064
 5793SOL     OW28840   2.088   4.297   4.941  0.1471  0.2667 -0.0402
 5793SOL    HW128841   2.121   4.368   4.886  0.4683 -0.1705 -0.4098
 5793SOL    HW228842   2.041   4.238   4.881  0.8681 -1.1391  0.7882
 5794SOL     OW28843   2.891   3.554   4.671 -0.1268 -0.0354 -0.4386
 5794SOL    HW128844   2.826   3.484   4.665 -1.6784  1.3085  0.7309
 5794SOL    HW228845   2.933   3.535   4.587 -1.7842  0.1202 -1.3125
 5795SOL     OW28846   3.849   2.752  13.572  0.3943  0.2072  0.1636
 5795SOL    HW128847   3.822   2.807  13.646  2.0801  2.3074 -0.7956
 5795SOL    HW228848   3.943   2.743  13.585  0.6477 -0.0906 -1.9150
 5796SOL     OW28849   2.485   2.115   3.173  0.4052 -0.1392  0.1059
 5796SOL    HW128850   2.565   2.097   3.222 -1.2112 -1.9743  2.0441
 5796SOL    HW228851   2.481   2.209   3.188 -0.6045 -0.2213  0.3061
 5797SOL     OW28852   2.944   3.320   6.458 -0.0691  0.3435 -0.1166
 5797SOL    HW128853   3.013   3.262   6.490  0.0045  1.4784  1.7755
 5797SOL    HW228854   2.948   3.394   6.518  1.2462 -0.0170  0.2584
 5798SOL     OW28855   4.318   2.825   3.752  0.0071 -0.1964  0.4101
 5798SOL    HW128856   4.322   2.738   3.713  2.0975 -0.4139  1.0910
 5798SOL    HW228857   4.400   2.836   3.800  0.5754 -1.0853 -0.3652
 5799SOL     OW28858   1.234   0.820   3.653 -0.1604  0.0975  0.1470
 5799SOL    HW128859   1.146   0.854   3.638  0.3170  0.0895 -2.5788
 5799SOL    HW228860   1.231   0.731   3.616 -1.3054  0.4354 -0.5554
 5800SOL     OW28861   4.642   2.879   3.677  0.5327  0.3621 -0.0637
 5800SOL    HW128862   4.659   2.908   3.767  0.7007 -0.6064  0.2219
 5800SOL    HW228863   0.009   2.872   3.648  0.8792  0.2218  1.0449
 5801SOL     OW28864   4.347   0.274   7.256 -0.3664 -0.1477  0.6700
 5801SOL    HW128865   4.345   0.344   7.191 -0.4007  0.6132  1.5085
 5801SOL    HW228866   4.309   0.202   7.205 -0.2730  0.6437 -0.5184
 5802SOL     OW28867   3.541   1.735  10.073 -0.1859  0.6734 -0.3705
 5802SOL    HW128868   3.568   1.751   9.983  0.0748 -1.3049 -0.6382
 5802SOL    HW228869   3.598   1.666  10.105  1.8415  1.4859 -2.2376
 5803SOL     OW28870   3.964   1.778   6.175 -0.0439  0.2530 -0.3623
 5803SOL    HW128871   4.018   1.699   6.176 -0.6686 -0.1630 -0.1720
 5803SOL    HW228872   4.036   1.842   6.182 -0.7867  1.1573 -1.0182
 5804SOL     OW28873   1.599   0.559  12.795 -0.5525 -0.0756  0.6217
 5804SOL    HW128874   1.598   0.530  12.886  1.5224  0.1436  0.7314
 5804SOL    HW228875   1.611   0.477  12.747  1.1934  0.3840  0.2718
 5805SOL     OW28876   3.465   1.437  14.286 -0.4515  0.1258  0.6102
 5805SOL    HW128877   3.440   1.396  14.203 -1.5801  1.5149  0.2772
 5805SOL    HW228878   3.556   1.463  14.270 -0.5479  0.2065  0.1730
 5806SOL     OW28879   0.328   2.043   1.854  0.5053  0.0987  0.6583
 5806SOL    HW128880   0.249   1.993   1.878  0.6938 -0.0444  0.9888
 5806SOL    HW228881   0.292   2.129   1.832 -1.0740 -0.6414  0.3415
 5807SOL     OW28882   0.051   4.455   5.040  0.3180  0.0150 -0.6957
 5807SOL    HW128883   0.143   4.429   5.052 -0.3650 -1.0647  2.2000
 5807SOL    HW228884   0.057   4.482   4.948  3.1063 -0.1927 -0.5822
 5808SOL     OW28885   0.367   0.087   9.067  0.0148  0.4289  0.9273
 5808SOL    HW128886   0.368   0.059   9.159  2.5823  0.9387  1.0480
 5808SOL    HW228887   0.302   0.157   9.072 -2.1635 -1.4214 -1.9004
 5809SOL     OW28888   3.617   4.555   7.335  0.0816 -0.3689  0.5430
 5809SOL    HW128889   3.663   4.571   7.418 -0.0603 -0.7969  0.7046
 5809SOL    HW228890   3.630   4.462   7.321 -0.4192 -0.2240 -0.8563
 5810SOL     OW28891   4.629   4.187   2.295  0.1634 -0.1499  0.2793
 5810SOL    HW128892   4.628   4.202   2.201 -1.6655 -0.5294  0.2445
 5810SOL    HW228893   4.597   4.097   2.293 -0.5354  0.0999  0.2602
 5811SOL     OW28894   1.773   3.465  15.504 -0.6152  0.0371 -0.2873
 5811SOL    HW128895   1.787   3.552  15.542  0.9846  0.2303 -1.2758
 5811SOL    HW228896   1.817   3.485  15.421  0.6551 -1.6231 -0.0254
 5812SOL     OW28897   1.083   0.521   6.073  0.8695 -0.6192  0.6469
 5812SOL    HW128898   1.155   0.569   6.113  0.2178 -0.2632  1.4125
 5812SOL    HW228899   1.123   0.450   6.023 -1.4665 -0.7869 -0.9738
 5813SOL     OW28900   2.143   2.303   7.079  0.3310 -0.3581  0.1754
 5813SOL    HW128901   2.207   2.317   7.149  1.2035 -1.2551 -0.4507
 5813SOL    HW228902   2.071   2.263   7.128 -0.3443  0.5095 -0.1084
 5814SOL     OW28903   3.786   1.897  17.367 -0.0296 -0.1579  0.6474
 5814SOL    HW128904   3.779   1.845  17.287 -0.4688  0.2259  0.4330
 5814SOL    HW228905   3.827   1.977  17.332 -2.0302  1.0073  0.9464
 5815SOL     OW28906   3.947   4.151   3.871 -0.5130 -0.1367  0.2115
 5815SOL    HW128907   4.012   4.219   3.886  1.3153 -1.7783 -0.3434
 5815SOL    HW228908   3.915   4.173   3.783 -1.1150 -0.1392  0.4243
 5816SOL     OW28909   0.565   0.739   1.035 -0.1006  0.2697 -0.4822
 5816SOL    HW128910   0.570   0.644   1.043 -1.3984  0.1853 -0.7282
 5816SOL    HW228911   0.548   0.741   0.941  0.9818 -0.5851 -0.7000
 5817SOL     OW28912   2.161   0.769   2.650  0.1328  0.1855 -1.2101
 5817SOL    HW128913   2.156   0.847   2.595  0.6145 -0.8597 -2.7674
 5817SOL    HW228914   2.076   0.727   2.635  0.9880 -2.7138  2.0047
 5818SOL     OW28915   4.307   2.523   7.324 -0.2876  0.8803  0.3086
 5818SOL    HW128916   4.374   2.498   7.388 -0.0381  0.7375 -0.0073
 5818SOL    HW228917   4.239   2.457   7.330  1.2044 -0.4412  2.4776
 5819SOL     OW28918   1.829   1.656   5.580 -0.4213  0.0200  0.5991
 5819SOL    HW128919   1.870   1.741   5.593 -1.4944  0.7403 -0.7203
 5819SOL    HW228920   1.853   1.631   5.491 -0.8879 -0.2432  0.5465
 5820SOL     OW28921   4.569   3.549  15.893 -0.0858 -0.3310  0.1849
 5820SOL    HW128922   4.574   3.613  15.822 -1.7450 -2.0433 -1.4786
 5820SOL    HW228923   4.474   3.537  15.884  0.0882 -2.0625  0.5468
 5821SOL     OW28924   3.274   1.883   4.969 -0.2187  0.0173  0.5062
 5821SOL    HW128925   3.187   1.888   5.009  0.5720  0.7018  2.1552
 5821SOL    HW228926   3.252   1.849   4.882  2.0861  0.0298 -0.0814
 5822SOL     OW28927   3.075   4.488   2.159  0.1568  0.0732 -0.2212
 5822SOL    HW128928   3.094   4.436   2.237  1.1992  2.6767  1.2824
 5822SOL    HW228929   3.072   4.578   2.191  0.6602  0.0076  0.0109
 5823SOL     OW28930   0.173   0.808  14.965 -0.3364  0.0681  0.0029
 5823SOL    HW128931   0.130   0.891  14.989 -1.7090 -0.5140 -0.4511
 5823SOL    HW228932   0.176   0.799  14.869 -0.1622 -1.0363  0.1208
 5824SOL     OW28933   1.666   1.052   4.440  0.0030  0.1435 -0.7661
 5824SOL    HW128934   1.637   1.065   4.530 -0.4888  0.8103 -1.0248
 5824SOL    HW228935   1.583   1.050   4.394  0.2790 -1.0274 -1.2332
 5825SOL     OW28936   1.178   4.337   2.447 -0.1846  0.0558  0.0125
 5825SOL    HW128937   1.216   4.258   2.485 -0.7965 -1.1146 -1.8159
 5825SOL    HW228938   1.241   4.404   2.472  0.7517 -1.2277  1.0913
 5826SOL     OW28939   4.529   3.705   6.601  0.3228 -0.3427 -0.1958
 5826SOL    HW128940   4.449   3.655   6.614  1.4672 -1.6093  1.8868
 5826SOL    HW228941   4.582   3.629   6.577 -2.8032 -2.3765 -0.6286
 5827SOL     OW28942   3.610   3.095  16.254  0.0465 -0.3491 -0.4762
 5827SOL    HW128943   3.562   3.047  16.186 -0.1762 -0.1204 -0.4811
 5827SOL    HW228944   3.675   3.028  16.275  0.9516  0.1753 -1.6242
 5828SOL     OW28945   0.459   2.167   8.216  0.0321  0.2872  0.3351
 5828SOL    HW128946   0.421   2.136   8.299  2.1626 -1.2659  0.7186
 5828SOL    HW228947   0.488   2.253   8.246  1.2441  0.6256 -1.8965
 5829SOL     OW28948   2.274   4.088  14.048 -0.0091 -0.0625  0.4435
 5829SOL    HW128949   2.309   4.169  14.083  0.2101  0.5058 -1.0675
 5829SOL    HW228950   2.220   4.131  13.981  3.8082  3.1986 -0.5529
 5830SOL     OW28951   1.285   4.236   9.118 -0.0352  0.0422 -0.4764
 5830SOL    HW128952   1.327   4.316   9.087 -0.6500  0.3472 -0.5123
 5830SOL    HW228953   1.227   4.254   9.191  1.3410  2.6642 -0.0373
 5831SOL     OW28954   4.282   0.160  14.651  0.5907  0.0937 -0.1584
 5831SOL    HW128955   4.284   0.087  14.714  0.4215  1.7545  1.7537
 5831SOL    HW228956   4.212   0.214  14.686 -0.3534 -1.8225  0.9241
 5832SOL     OW28957   0.413   4.396   3.738 -0.0931 -0.1589  0.0702
 5832SOL    HW128958   0.320   4.394   3.763 -0.0313 -1.2888  0.2122
 5832SOL    HW228959   0.429   4.305   3.713 -0.3066 -0.7045  1.9591
 5833SOL     OW28960   3.528   4.723   0.653  0.4577 -0.2080  0.2314
 5833SOL    HW128961   3.466   4.665   0.610  0.9663 -0.2046 -0.5280
 5833SOL    HW228962   3.464   0.060   0.690 -0.3524 -0.2046 -1.1737
 5834SOL     OW28963   3.590   2.662  10.796 -0.3638 -0.4852 -0.5912
 5834SOL    HW128964   3.596   2.645  10.702 -0.2585 -0.0747 -0.6562
 5834SOL    HW228965   3.580   2.757  10.796 -2.7628 -0.7399  0.6911
 5835SOL     OW28966   0.106   3.934   1.559 -0.5271  0.0655 -0.4564
 5835SOL    HW128967   0.017   3.937   1.595 -1.0589 -0.5454 -1.7309
 5835SOL    HW228968   0.098   3.855   1.506 -1.4887 -0.3333  0.2685
 5836SOL     OW28969   4.262   2.124   3.995  0.6050 -0.0207  0.2398
 5836SOL    HW128970   4.242   2.052   4.055  1.8703 -0.5979 -0.0419
 5836SOL    HW228971   4.310   2.180   4.056  0.4230 -0.9394  1.2187
 5837SOL     OW28972   2.786   2.883   2.180  0.6122  0.0611  0.6200
 5837SOL    HW128973   2.745   2.901   2.265  1.3005 -1.7990  1.3357
 5837SOL    HW228974   2.879   2.871   2.201  0.8393 -1.1928 -1.1383
 5838SOL     OW28975   1.934   1.495   1.263 -0.0859  0.0134  0.5610
 5838SOL    HW128976   1.859   1.534   1.218  0.8684 -3.0214 -3.6975
 5838SOL    HW228977   1.890   1.459   1.340 -3.3222  0.1437 -1.2254
 5839SOL     OW28978   3.168   3.255   4.451 -0.3246  0.5595 -0.0785
 5839SOL    HW128979   3.189   3.172   4.409  0.8471  1.2923 -0.9539
 5839SOL    HW228980   3.255   3.294   4.446  0.9199 -2.1906  0.1301
 5840SOL     OW28981   1.377   1.760  12.415  0.0007 -0.0519 -0.3792
 5840SOL    HW128982   1.290   1.722  12.404  1.1942 -3.3908  1.5736
 5840SOL    HW228983   1.426   1.686  12.452 -0.6051 -0.2969 -0.0571
 5841SOL     OW28984   1.859   3.707   5.377 -0.1838  0.1602 -0.2848
 5841SOL    HW128985   1.895   3.619   5.362 -2.9084 -0.2775 -4.1207
 5841SOL    HW228986   1.766   3.688   5.381  0.2189 -1.9677 -1.1889
 5842SOL     OW28987   0.185   3.824   5.981 -0.2886 -0.0037 -0.1241
 5842SOL    HW128988   0.163   3.739   5.942 -1.3717  0.8160 -1.2696
 5842SOL    HW228989   0.138   3.875   5.915 -0.5557 -0.9296 -0.6635
 5843SOL     OW28990   2.444   0.776   2.197  0.0661  0.0893 -0.1346
 5843SOL    HW128991   2.521   0.816   2.158 -0.0085 -0.1046 -0.4810
 5843SOL    HW228992   2.405   0.734   2.120 -0.3324 -0.2205  0.2405
 5844SOL     OW28993   1.438   4.242   7.224 -0.1890 -0.7199 -0.4493
 5844SOL    HW128994   1.447   4.270   7.315  3.2905  1.2646 -1.4327
 5844SOL    HW228995   1.424   4.148   7.237 -0.5271 -0.4905  0.8336
 5845SOL     OW28996   4.001   2.275   4.237  0.2351 -0.5131  0.6101
 5845SOL    HW128997   4.081   2.317   4.204 -1.4683  1.1191 -1.4010
 5845SOL    HW228998   4.018   2.184   4.260  1.5031 -0.8348 -1.6680
 5846SOL     OW28999   1.595   4.622   9.147 -0.5356  0.3334 -0.2788
 5846SOL    HW129000   1.530   4.623   9.217  1.2528 -1.3741  1.3812
 5846SOL    HW229001   1.645   4.702   9.162  0.4515 -0.4782  0.7853
 5847SOL     OW29002   4.356   1.689   5.697 -0.2188  0.1898 -0.4288
 5847SOL    HW129003   4.451   1.676   5.698 -0.1312  1.0806  2.2763
 5847SOL    HW229004   4.348   1.784   5.685  0.3366  0.5978  2.5790
 5848SOL     OW29005   4.211   2.624   4.981 -0.0035  0.3103  0.1598
 5848SOL    HW129006   4.150   2.563   5.023 -0.0550  0.5088  0.3745
 5848SOL    HW229007   4.267   2.660   5.050  1.9796  1.1796 -1.8927
 5849SOL     OW29008   4.033   0.795  17.101 -0.5562 -0.2219 -0.2099
 5849SOL    HW129009   3.950   0.841  17.096 -0.5529 -0.2485 -0.4813
 5849SOL    HW229010   4.066   0.831  17.020  0.5832  0.1251  0.4094
 5850SOL     OW29011   3.634   0.584   7.173  0.2220 -0.0843 -0.7411
 5850SOL    HW129012   3.571   0.589   7.101  1.5894  4.1395 -1.6859
 5850SOL    HW229013   3.660   0.492   7.167  1.2999  0.1852 -0.3032
 5851SOL     OW29014   0.950   4.181  12.982  0.0013 -0.0266  0.1528
 5851SOL    HW129015   0.908   4.160  12.898  1.9542  2.1410 -1.3401
 5851SOL    HW229016   1.041   4.151  12.977  0.7070  2.3160 -1.0467
 5852SOL     OW29017   4.220   0.271   2.966 -0.1128 -0.1190 -0.2334
 5852SOL    HW129018   4.252   0.252   2.877  0.1057  0.8146 -0.3607
 5852SOL    HW229019   4.128   0.251   2.951 -0.3159 -0.3358  1.3158
 5853SOL     OW29020   0.294   1.322  12.049  0.0002 -0.1499  0.1160
 5853SOL    HW129021   0.231   1.336  12.119 -2.1478 -1.0469 -1.6235
 5853SOL    HW229022   0.287   1.394  11.986 -1.7856 -0.1551  0.3061
 5854SOL     OW29023   1.600   1.835   4.570 -0.0692  0.4895  0.7760
 5854SOL    HW129024   1.671   1.839   4.634 -0.4538  0.6725  1.1918
 5854SOL    HW229025   1.571   1.926   4.572 -0.5171  0.3304  1.6328
 5855SOL     OW29026   2.500   2.623   4.498 -0.0889  0.7406  0.4224
 5855SOL    HW129027   2.509   2.696   4.559 -0.1493  0.1351  1.1561
 5855SOL    HW229028   2.513   2.551   4.560  2.3194 -0.8154 -1.9264
 5856SOL     OW29029   3.551   3.004  15.565 -0.1830  0.4198  0.3121
 5856SOL    HW129030   3.593   3.090  15.562 -1.4946  1.0842  0.7888
 5856SOL    HW229031   3.603   2.955  15.629 -2.5654 -2.2674  0.1919
 5857SOL     OW29032   1.777   4.578  11.819  0.4793  0.8871 -0.2724
 5857SOL    HW129033   1.840   4.629  11.871 -0.8178  0.9080  1.3046
 5857SOL    HW229034   1.748   4.640  11.752 -2.8172 -1.7080 -1.2000
 5858SOL     OW29035   4.104   3.985   0.717  0.6008 -0.3590  0.6333
 5858SOL    HW129036   4.044   4.039   0.768 -1.1357 -1.4991 -0.1818
 5858SOL    HW229037   4.095   4.019   0.628 -0.3915  2.0556  1.6551
 5859SOL     OW29038   0.422   0.375   6.928  0.3145  0.0415  0.1559
 5859SOL    HW129039   0.476   0.445   6.965  1.8406 -0.2209 -1.6182
 5859SOL    HW229040   0.334   0.408   6.948  0.1835 -1.3323  1.8390
 5860SOL     OW29041   1.489   1.552   7.695 -0.0864 -0.2399  0.1878
 5860SOL    HW129042   1.506   1.593   7.780  1.6589 -0.9944  0.1904
 5860SOL    HW229043   1.476   1.627   7.637 -0.8597 -1.0361 -0.6703
 5861SOL     OW29044   0.798   3.980  14.499 -0.0522  0.3225  0.5654
 5861SOL    HW129045   0.704   3.996  14.502 -0.4453 -1.9738  0.2936
 5861SOL    HW229046   0.824   4.022  14.418 -1.6314 -2.6449 -1.4614
 5862SOL     OW29047   4.102   0.372  10.062 -0.1422  0.4886  0.3952
 5862SOL    HW129048   4.058   0.324  10.132  0.1471  1.5376  1.2927
 5862SOL    HW229049   4.026   0.403  10.013  1.6642  0.9894 -2.0747
 5863SOL     OW29050   1.799   2.384  13.388 -0.1471  0.1481 -0.0900
 5863SOL    HW129051   1.864   2.432  13.336 -0.6686  1.4321  0.4274
 5863SOL    HW229052   1.806   2.429  13.472  0.1554 -0.6243  0.2914
 5864SOL     OW29053   0.141   4.709   4.398 -0.1601 -0.4240 -0.3950
 5864SOL    HW129054   0.184   4.633   4.357  0.5282  0.3021 -1.0207
 5864SOL    HW229055   0.092   4.661   4.465  0.0847 -0.3314 -0.1525
 5865SOL     OW29056   2.288   2.024  15.229  0.3254  0.0467 -0.4910
 5865SOL    HW129057   2.320   1.935  15.247  1.2530  0.1643 -1.6086
 5865SOL    HW229058   2.192   2.025  15.232  0.3034 -1.8138 -0.5032
 5866SOL     OW29059   1.753   4.137  10.936  0.2798 -0.0628 -0.1087
 5866SOL    HW129060   1.848   4.127  10.925  0.8156  3.6518  0.8696
 5866SOL    HW229061   1.731   4.044  10.933  0.2811 -0.0343 -0.8286
 5867SOL     OW29062   0.770   0.565  15.425 -0.1024 -0.3343 -0.0744
 5867SOL    HW129063   0.772   0.470  15.436 -0.5979 -0.2796  0.5338
 5867SOL    HW229064   0.677   0.579  15.406  0.3192  1.5857 -0.7689
 5868SOL     OW29065   1.763   0.152   7.285  0.6631  0.4846 -0.2222
 5868SOL    HW129066   1.719   0.203   7.353  0.1568 -1.8210  1.2151
 5868SOL    HW229067   1.846   0.122   7.321  0.8583 -0.1644 -1.2263
 5869SOL     OW29068   0.734   3.173  12.731 -0.4078  0.1961 -0.4938
 5869SOL    HW129069   0.828   3.189  12.721 -0.2030 -1.8304 -1.8022
 5869SOL    HW229070   0.726   3.089  12.776 -0.0252  1.5889  2.1643
 5870SOL     OW29071   0.609   1.460   1.216 -0.2216 -0.4236 -0.1897
 5870SOL    HW129072   0.532   1.440   1.162 -1.5462  1.7221  0.9017
 5870SOL    HW229073   0.582   1.532   1.273  1.0112 -2.2203  2.6806
 5871SOL     OW29074   1.407   1.151   9.621  0.8161  0.0755  0.2368
 5871SOL    HW129075   1.348   1.225   9.608 -0.6994 -1.4285 -1.6002
 5871SOL    HW229076   1.472   1.188   9.562  1.3512 -0.0666  0.7435
 5872SOL     OW29077   1.002   4.486  15.291 -0.1280 -0.4431  0.1601
 5872SOL    HW129078   0.967   4.492  15.380 -1.5568 -1.7361 -0.3182
 5872SOL    HW229079   0.978   4.575  15.266  2.0617  0.2094  0.3607
 5873SOL     OW29080   4.485   2.118  13.258  0.3446  0.6257  0.4005
 5873SOL    HW129081   4.404   2.078  13.288  0.9125 -0.2052  0.8442
 5873SOL    HW229082   4.522   2.154  13.339 -0.9145 -1.2031  1.7880
 5874SOL     OW29083   0.903   3.245   5.293 -0.4658  1.1951  0.2992
 5874SOL    HW129084   0.986   3.239   5.246  0.4476 -4.4424  2.5662
 5874SOL    HW229085   0.932   3.281   5.377 -1.5876  0.1398  1.1473
 5875SOL     OW29086   1.011   3.063  13.073  0.5245  0.3045 -0.6242
 5875SOL    HW129087   1.029   2.983  13.122 -1.6043 -0.4503 -1.1003
 5875SOL    HW229088   0.999   3.021  12.989 -2.7576 -0.0201 -0.0100
 5876SOL     OW29089   1.122   1.964   6.618  0.4794 -0.1984 -0.0963
 5876SOL    HW129090   1.073   2.046   6.614  1.7529  0.6995  2.5003
 5876SOL    HW229091   1.050   1.901   6.610  1.4043 -0.9719 -2.2667
 5877SOL     OW29092   3.853   0.873   5.456 -0.1393 -0.3356  0.0895
 5877SOL    HW129093   3.918   0.874   5.526 -2.2067 -2.6822  1.9937
 5877SOL    HW229094   3.792   0.940   5.488 -3.0120 -2.1529 -1.6518
 5878SOL     OW29095   3.108   3.623  12.431 -0.0970 -0.4408 -0.0794
 5878SOL    HW129096   3.093   3.590  12.343  1.4992  1.3991 -1.0563
 5878SOL    HW229097   3.120   3.715  12.405  0.4489 -0.4707  0.0638
 5879SOL     OW29098   2.444   4.321   6.604  0.2077  0.2043 -0.2372
 5879SOL    HW129099   2.495   4.335   6.525 -0.6029  3.2870 -0.2420
 5879SOL    HW229100   2.431   4.412   6.633 -0.1594 -0.9442  3.2496
 5880SOL     OW29101   1.292   1.821   8.697  0.1208 -0.0332 -0.2098
 5880SOL    HW129102   1.287   1.805   8.791  1.6545  1.8397  0.1814
 5880SOL    HW229103   1.327   1.740   8.660 -0.1394 -0.6183  0.8355
 5881SOL     OW29104   2.983   3.198   6.162 -0.4724 -0.1790 -0.4670
 5881SOL    HW129105   2.921   3.268   6.137  0.2888  0.3413 -0.9033
 5881SOL    HW229106   3.043   3.251   6.213 -0.8114 -2.2242  2.0526
 5882SOL     OW29107   1.649   0.739  11.598  0.1396  0.2047 -0.2803
 5882SOL    HW129108   1.734   0.777  11.618 -0.0996  0.0714  0.9969
 5882SOL    HW229109   1.620   0.824  11.563  2.4064  1.0220 -0.1787
 5883SOL     OW29110   1.904   0.986   0.720  0.1500 -0.0974  0.7301
 5883SOL    HW129111   1.925   0.973   0.628  1.0845 -0.4270  0.9812
 5883SOL    HW229112   1.948   1.071   0.733  0.3105 -0.0247 -0.3152
 5884SOL     OW29113   2.605   1.652   4.992  0.1850 -0.4690  0.3472
 5884SOL    HW129114   2.519   1.675   5.029 -0.7602 -3.0628 -0.2935
 5884SOL    HW229115   2.640   1.740   4.976  0.0566 -0.1756  1.7098
 5885SOL     OW29116   0.476   4.293   3.399 -0.9742  1.0614 -0.0101
 5885SOL    HW129117   0.399   4.278   3.344  0.2160 -1.0855 -1.0863
 5885SOL    HW229118   0.516   4.358   3.341 -1.0719  1.6405  0.5746
 5886SOL     OW29119   1.056   1.831   5.708 -0.1237  0.3624  0.2849
 5886SOL    HW129120   0.990   1.896   5.683  1.2023  0.8674 -1.8486
 5886SOL    HW229121   1.128   1.871   5.661  1.0922  0.1602  1.9770
 5887SOL     OW29122   2.218   0.087   5.769 -0.3894  0.4812  0.2668
 5887SOL    HW129123   2.202   0.081   5.675 -0.6899 -2.4795  0.4978
 5887SOL    HW229124   2.184   4.724   5.788 -0.8251  0.5866 -0.0334
 5888SOL     OW29125   4.680   3.369   6.751 -0.3919  0.0971  0.1526
 5888SOL    HW129126   4.701   3.426   6.677  1.7075 -0.1626  0.5326
 5888SOL    HW229127   0.043   3.331   6.768 -0.9180 -1.3790 -0.5111
 5889SOL     OW29128   2.416   0.890   2.945 -0.0885  0.1254 -0.0105
 5889SOL    HW129129   2.509   0.870   2.942  0.1140  0.7568  2.4635
 5889SOL    HW229130   2.388   0.824   2.881  0.4512 -1.4051  1.3215
 5890SOL     OW29131   2.616   4.667   6.056  0.3712 -0.6306  0.5483
 5890SOL    HW129132   2.557   4.643   6.128  0.5261  2.2296  1.6400
 5890SOL    HW229133   2.673   0.010   6.094  2.1446 -2.6743  1.4796
 5891SOL     OW29134   0.655   3.798   2.167  0.0178  0.1781  0.1720
 5891SOL    HW129135   0.669   3.888   2.199  1.4743  0.4916 -1.3506
 5891SOL    HW229136   0.605   3.814   2.087 -0.3646  2.8724  0.9272
 5892SOL     OW29137   2.942   3.167   4.852 -0.2616  0.3083 -0.0268
 5892SOL    HW129138   2.941   3.081   4.894  0.1714  0.5649  0.4952
 5892SOL    HW229139   3.031   3.196   4.871 -0.4420  1.6941 -1.2563
 5893SOL     OW29140   0.650   4.440  10.641  0.4888 -0.1998 -0.0578
 5893SOL    HW129141   0.615   4.528  10.632  0.6677 -0.1508 -0.2525
 5893SOL    HW229142   0.630   4.404  10.555 -1.6449 -0.4453  0.5271
 5894SOL     OW29143   0.649   0.761  15.639  0.2670 -0.0949 -0.1758
 5894SOL    HW129144   0.727   0.736  15.589 -0.1118 -1.7227  0.0423
 5894SOL    HW229145   0.590   0.791  15.570  0.7703  1.6143  0.1578
 5895SOL     OW29146   3.435   3.790  13.532  0.6002  0.0639  0.2199
 5895SOL    HW129147   3.387   3.709  13.550 -0.5019  0.6075 -0.2768
 5895SOL    HW229148   3.413   3.808  13.440  3.3289 -0.9408 -0.6386
 5896SOL     OW29149   2.503   0.667   0.754 -0.6590 -0.4539 -0.0613
 5896SOL    HW129150   2.511   0.573   0.738 -1.2951  0.0194 -3.0449
 5896SOL    HW229151   2.487   0.696   0.665 -1.1646  1.1030  0.5445
 5897SOL     OW29152   3.004   0.890   3.048  0.3146  0.3689  0.2718
 5897SOL    HW129153   3.077   0.866   3.104  0.5070 -0.4801 -0.3488
 5897SOL    HW229154   3.034   0.851   2.966 -2.0215  2.7095 -1.7164
 5898SOL     OW29155   3.870   4.573   5.152  0.1932  0.2199 -0.6088
 5898SOL    HW129156   3.796   4.545   5.207  0.9205  0.0347  0.2756
 5898SOL    HW229157   3.931   4.503   5.174  0.0208  0.3639  0.3163
 5899SOL     OW29158   3.607   0.647   5.247  0.2341 -0.2659 -0.0691
 5899SOL    HW129159   3.527   0.693   5.274  0.7337  0.8423 -0.4546
 5899SOL    HW229160   3.623   0.589   5.321 -0.7689  0.0700  0.4230
 5900SOL     OW29161   1.126   4.446  13.936 -0.0168 -0.0325  0.7524
 5900SOL    HW129162   1.158   4.535  13.950  3.1291 -0.9001 -0.8323
 5900SOL    HW229163   1.057   4.453  14.002  1.2430 -0.3702  2.1110
 5901SOL     OW29164   1.950   1.370  11.449 -0.2322 -0.9563  0.3737
 5901SOL    HW129165   1.876   1.389  11.391  1.6551  1.0212 -1.4180
 5901SOL    HW229166   2.032   1.403  11.411 -1.5342 -0.8980 -2.4220
 5902SOL     OW29167   1.183   0.967   1.757 -0.7473 -0.0564 -0.0559
 5902SOL    HW129168   1.200   1.022   1.680 -3.0084  0.1547 -0.3970
 5902SOL    HW229169   1.132   0.896   1.718  0.3237  0.7818 -2.9482
 5903SOL     OW29170   4.084   3.365   6.795 -0.0101  0.0900 -0.1271
 5903SOL    HW129171   4.126   3.294   6.747  0.7049  0.1040  0.4839
 5903SOL    HW229172   4.005   3.316   6.820 -1.4832  3.3485  1.6452
 5904SOL     OW29173   1.366   1.447   9.205 -0.1821 -0.1807  0.1666
 5904SOL    HW129174   1.389   1.355   9.214 -1.2710 -0.3374  1.3260
 5904SOL    HW229175   1.407   1.480   9.125  0.2801 -1.2302 -0.0269
 5905SOL     OW29176   2.412   3.062  11.000 -0.4336  0.6671 -0.0003
 5905SOL    HW129177   2.506   3.042  10.996 -0.3004  0.7380  2.7947
 5905SOL    HW229178   2.415   3.156  10.983 -0.6723  0.5299 -0.8256
 5906SOL     OW29179   4.176   4.121   2.453  0.3112  0.1317  0.1535
 5906SOL    HW129180   4.209   4.091   2.368  0.1453 -1.5200  0.6714
 5906SOL    HW229181   4.081   4.118   2.448  0.4205 -2.1763 -0.5000
 5907SOL     OW29182   2.596   0.168   7.269 -0.0694  0.1848  0.0067
 5907SOL    HW129183   2.598   0.246   7.214 -0.7357  0.3417  0.2046
 5907SOL    HW229184   2.516   0.161   7.320 -1.5990  1.3310 -2.2529
 5908SOL     OW29185   0.540   2.181  14.264  0.6843  0.3059  0.3021
 5908SOL    HW129186   0.565   2.092  14.241  0.4101  0.1028  0.7871
 5908SOL    HW229187   0.454   2.181  14.223  1.8660  0.3922 -2.1810
 5909SOL     OW29188   2.373   2.986   8.670 -0.1143  0.5424 -0.4707
 5909SOL    HW129189   2.445   2.987   8.734 -0.1099  0.2780 -0.4712
 5909SOL    HW229190   2.386   3.072   8.629  2.3525  0.3930 -0.0327
 5910SOL     OW29191   0.569   1.228  16.650 -0.1728 -0.0330  0.4540
 5910SOL    HW129192   0.521   1.268  16.578  2.5666  1.6385 -0.4446
 5910SOL    HW229193   0.658   1.247  16.621 -0.6397  1.5129  0.0323
 5911SOL     OW29194   0.661   2.248   8.030 -0.8635 -0.2207 -0.5916
 5911SOL    HW129195   0.583   2.203   8.063 -1.8661  1.7268 -0.3383
 5911SOL    HW229196   0.711   2.245   8.111 -1.8538  0.3872  0.0465
 5912SOL     OW29197   2.214   1.844   4.845  0.3349  0.1368  0.9430
 5912SOL    HW129198   2.163   1.768   4.817  2.0261 -0.8555  0.5506
 5912SOL    HW229199   2.280   1.792   4.890  0.9760 -0.6999 -0.9518
 5913SOL     OW29200   3.606   1.544  13.880  0.1094 -0.0010  0.1147
 5913SOL    HW129201   3.675   1.607  13.861 -2.2873  2.5501 -0.0574
 5913SOL    HW229202   3.652   1.464  13.855 -1.8174 -0.0536 -3.3106
 5914SOL     OW29203   4.275   3.508   2.793  0.1877  0.2222 -0.4177
 5914SOL    HW129204   4.185   3.502   2.762  0.0525  2.2244 -0.3710
 5914SOL    HW229205   4.286   3.423   2.836  3.2838  0.7236 -0.1639
 5915SOL     OW29206   3.697   2.368  15.838 -0.0604 -0.2922 -0.4426
 5915SOL    HW129207   3.689   2.276  15.814  0.3839 -0.5002  0.2236
 5915SOL    HW229208   3.791   2.377  15.822 -0.0295 -1.7442 -1.0784
 5916SOL     OW29209   3.878   1.651  12.249  0.2987 -0.3046 -0.2108
 5916SOL    HW129210   3.954   1.605  12.285 -0.3201 -1.7802 -0.7629
 5916SOL    HW229211   3.914   1.721  12.194  0.1521 -0.5740 -0.6516
 5917SOL     OW29212   4.007   2.045   0.069  0.0175 -0.3338 -0.0951
 5917SOL    HW129213   3.935   1.993   0.036 -0.0230 -1.1948  1.3631
 5917SOL    HW229214   4.060   1.982   0.117  0.7830 -1.1791 -2.0551
 5918SOL     OW29215   4.382   0.944   2.661 -0.1298  0.0183  0.2472
 5918SOL    HW129216   4.477   0.940   2.649  0.1672  3.4995  1.6036
 5918SOL    HW229217   4.336   0.918   2.581  0.0424  0.3981  0.0238
 5919SOL     OW29218   0.791   1.767   8.787 -0.2396 -0.3047  0.4297
 5919SOL    HW129219   0.795   1.817   8.868 -1.4929  0.9907 -0.3189
 5919SOL    HW229220   0.842   1.687   8.802  1.5147  1.3181  2.9144
 5920SOL     OW29221   3.527   3.898   9.985 -0.0633  0.1320 -0.5715
 5920SOL    HW129222   3.515   3.808   9.954 -1.0374 -0.0392  0.2668
 5920SOL    HW229223   3.460   3.899  10.054 -0.5334 -1.6426 -1.0078
 5921SOL     OW29224   3.894   1.555   5.935  0.5163 -0.6228  0.4004
 5921SOL    HW129225   3.912   1.495   6.007  1.9179 -0.3173  0.3114
 5921SOL    HW229226   3.931   1.506   5.861  0.5144 -0.8185  0.5290
 5922SOL     OW29227   1.682   0.652  12.004 -0.2559  0.1908  0.1127
 5922SOL    HW129228   1.650   0.592  12.072 -1.8762  2.6799  1.5261
 5922SOL    HW229229   1.652   0.738  12.032 -1.9687 -0.7667  1.2601
 5923SOL     OW29230   2.002   2.240   2.569  0.3882 -0.5185  0.3462
 5923SOL    HW129231   1.951   2.171   2.612 -1.2424  0.4723 -0.0349
 5923SOL    HW229232   2.071   2.263   2.632 -1.4611 -1.5609  2.7782
 5924SOL     OW29233   0.844   1.277   5.860 -0.0942  0.1857 -0.0380
 5924SOL    HW129234   0.807   1.365   5.849 -0.8970 -0.0111  1.1280
 5924SOL    HW229235   0.938   1.294   5.855  0.1632 -0.9422  1.0638
 5925SOL     OW29236   3.797   1.808   7.520 -0.0161 -0.5519  0.3263
 5925SOL    HW129237   3.751   1.857   7.588 -0.1249 -1.2653  0.7601
 5925SOL    HW229238   3.724   1.765   7.476 -1.4189  0.9595  1.1938
 5926SOL     OW29239   3.836   2.179   1.834  0.0863  0.5057  0.3681
 5926SOL    HW129240   3.857   2.267   1.865 -0.6974  1.6480 -2.3116
 5926SOL    HW229241   3.821   2.200   1.742  0.8265 -2.3765 -0.4307
 5927SOL     OW29242   4.163   4.051  16.252 -0.4105  0.0800  0.6876
 5927SOL    HW129243   4.082   4.029  16.299 -1.8190 -0.6977 -2.1289
 5927SOL    HW229244   4.200   4.089  16.332 -1.1353  1.5310  0.3312
 5928SOL     OW29245   0.137   0.385  13.806 -0.0862  0.1566 -0.1090
 5928SOL    HW129246   0.178   0.404  13.890  1.6801 -2.0741 -0.4545
 5928SOL    HW229247   0.174   0.299  13.787  0.2425 -0.4063  3.0318
 5929SOL     OW29248   3.399   3.939   7.950  0.0731  0.2134 -0.0285
 5929SOL    HW129249   3.317   3.986   7.963  0.3517  0.5229  0.6266
 5929SOL    HW229250   3.413   3.909   8.040 -0.7000 -0.8060 -0.2458
 5930SOL     OW29251   0.054   2.474   5.614 -0.3919 -0.0074 -0.7371
 5930SOL    HW129252   0.105   2.405   5.571 -1.4228 -0.3745 -1.3707
 5930SOL    HW229253   0.030   2.525   5.536 -1.2402 -1.2899 -1.3197
 5931SOL     OW29254   3.566   1.214   6.625 -0.4429  0.0088 -0.1428
 5931SOL    HW129255   3.500   1.144   6.619  0.0447 -0.5654  1.1557
 5931SOL    HW229256   3.531   1.264   6.699 -1.1496 -0.5322 -0.1096
 5932SOL     OW29257   0.658   1.000   6.284 -0.0099  0.2445 -0.4443
 5932SOL    HW129258   0.618   0.945   6.216  0.1267  0.9300 -1.0734
 5932SOL    HW229259   0.719   1.058   6.239  0.5197  0.6651  0.8124
 5933SOL     OW29260   3.806   4.394   1.391  0.3428 -0.0925 -0.2771
 5933SOL    HW129261   3.748   4.418   1.463 -0.8196  0.0474 -1.2534
 5933SOL    HW229262   3.875   4.341   1.432  1.1775 -0.3427 -1.9904
 5934SOL     OW29263   4.500   2.843   8.723 -0.3016 -0.0111  0.2659
 5934SOL    HW129264   4.485   2.855   8.629  0.0889  1.1617  0.3547
 5934SOL    HW229265   4.582   2.892   8.726 -0.3052  0.0984 -1.5436
 5935SOL     OW29266   2.561   3.887   5.879 -0.4709 -0.1581 -0.1844
 5935SOL    HW129267   2.556   3.935   5.796 -1.1109  1.1483  0.6062
 5935SOL    HW229268   2.467   3.895   5.897 -0.5300 -0.6360 -0.2917
 5936SOL     OW29269   1.373   1.700   3.968  0.4984  0.4849 -0.1229
 5936SOL    HW129270   1.318   1.690   3.890 -0.6711  0.9017  0.6551
 5936SOL    HW229271   1.322   1.762   4.019  0.1823  1.5942 -1.7893
 5937SOL     OW29272   1.373   0.839  14.536 -0.1079  0.3349 -0.4213
 5937SOL    HW129273   1.322   0.919  14.554 -0.9095  0.5724 -3.7601
 5937SOL    HW229274   1.355   0.838  14.442 -2.3450  0.4529 -0.0110
 5938SOL     OW29275   0.531   1.195  16.923 -0.8749  0.0403  0.2234
 5938SOL    HW129276   0.543   1.226  16.833 -2.2141 -0.5883 -0.1683
 5938SOL    HW229277   0.481   1.263  16.968 -0.0693  0.3245  0.6883
 5939SOL     OW29278   1.972   3.080   6.844 -0.1444  0.5214  0.4158
 5939SOL    HW129279   2.013   3.065   6.929 -1.5269 -2.3637  0.5741
 5939SOL    HW229280   1.969   2.988   6.820 -0.4465  1.0964 -1.8108
 5940SOL     OW29281   2.107   3.279   8.661 -0.4067  0.0679  0.3120
 5940SOL    HW129282   2.127   3.190   8.629  1.2621 -0.0254  1.6271
 5940SOL    HW229283   2.114   3.328   8.579 -1.3753  0.0346  0.2008
 5941SOL     OW29284   0.498   2.556   2.830 -0.3905 -0.2700 -0.1680
 5941SOL    HW129285   0.454   2.543   2.746  2.5830 -2.5395 -1.3672
 5941SOL    HW229286   0.561   2.623   2.804  0.4107 -0.1521  2.0799
 5942SOL     OW29287   1.190   2.581   1.577 -0.6281  0.0801  0.1598
 5942SOL    HW129288   1.124   2.528   1.533  0.3898 -1.5115  0.5423
 5942SOL    HW229289   1.189   2.658   1.520  2.2113  0.1204  0.1638
 5943SOL     OW29290   0.810   2.358   5.647 -0.6720  0.1629  0.6388
 5943SOL    HW129291   0.880   2.374   5.710  0.5988  0.4219 -0.8635
 5943SOL    HW229292   0.757   2.290   5.688 -1.9961  0.6951 -0.1824
 5944SOL     OW29293   0.234   0.773   2.812  0.1964 -0.2904  0.0246
 5944SOL    HW129294   0.290   0.827   2.756 -2.9956  1.0521 -1.9071
 5944SOL    HW229295   0.177   0.721   2.755  0.6046 -0.3907 -0.2880
 5945SOL     OW29296   3.420   3.126  10.620  0.5141 -0.1395  0.2494
 5945SOL    HW129297   3.486   3.102  10.686  1.0396 -1.0829 -0.6255
 5945SOL    HW229298   3.365   3.189  10.667  1.9010  1.9025 -0.8926
 5946SOL     OW29299   0.257   4.507   1.644 -0.2742  0.3704 -0.4878
 5946SOL    HW129300   0.340   4.510   1.597  0.0495 -2.1030 -0.0955
 5946SOL    HW229301   0.253   4.411   1.637  1.6053  0.5056 -3.1159
 5947SOL     OW29302   2.222   3.981  11.727 -0.4909 -0.0506 -0.0235
 5947SOL    HW129303   2.286   4.052  11.725  0.2413 -0.7309 -0.2236
 5947SOL    HW229304   2.265   3.910  11.774 -2.8834 -1.0028  0.7225
 5948SOL     OW29305   2.713   0.591  16.524  0.1979  0.4117 -0.1789
 5948SOL    HW129306   2.666   0.561  16.602 -0.7594 -0.1697 -0.9717
 5948SOL    HW229307   2.685   0.682  16.520  1.7901  0.8094 -2.1324
 5949SOL     OW29308   4.651   3.366  16.122  0.0480 -0.2291 -0.2936
 5949SOL    HW129309   4.616   3.444  16.079  0.0846  0.5811  1.1516
 5949SOL    HW229310   4.596   3.363  16.200  2.7979 -1.7701  1.6027
 5950SOL     OW29311   0.794   1.294   6.565  0.1915 -0.6555  0.0567
 5950SOL    HW129312   0.719   1.320   6.619  0.5809  0.6993 -0.0491
 5950SOL    HW229313   0.760   1.319   6.479 -1.5034 -0.7811  0.6856
 5951SOL     OW29314   1.887   0.006  10.430  0.3143  0.2397  0.6803
 5951SOL    HW129315   1.834   0.079  10.462  0.9312  0.0204  2.2118
 5951SOL    HW229316   1.841   4.653  10.463 -2.7675  1.6942 -0.2196
 5952SOL     OW29317   3.519   0.106   5.501  0.0163  0.2027  0.7564
 5952SOL    HW129318   3.458   0.060   5.444  2.2593 -0.7707 -0.8863
 5952SOL    HW229319   3.597   0.051   5.490  0.0798  0.6620 -0.9788
 5953SOL     OW29320   1.334   2.860  14.886  0.6932  0.8913  0.6214
 5953SOL    HW129321   1.275   2.936  14.884  0.9156  1.1113  2.7176
 5953SOL    HW229322   1.355   2.865  14.979  0.5001  1.8208  0.6177
 5954SOL     OW29323   3.520   1.977  16.936  0.3668 -0.4756 -0.4588
 5954SOL    HW129324   3.435   1.966  16.979  0.0705 -0.9491 -1.1697
 5954SOL    HW229325   3.527   1.891  16.895 -0.1689 -0.0857 -1.3564
 5955SOL     OW29326   2.385   2.782   2.409  0.3852 -0.2424 -0.5192
 5955SOL    HW129327   2.332   2.857   2.434  0.0602 -0.9861  1.0606
 5955SOL    HW229328   2.436   2.751   2.484  0.0700 -1.1043 -0.6542
 5956SOL     OW29329   2.338   4.571   3.604  0.2319 -0.0379 -0.2262
 5956SOL    HW129330   2.388   4.506   3.554 -0.0388  0.9878 -1.8030
 5956SOL    HW229331   2.249   4.539   3.591 -0.5415  0.6743  3.4297
 5957SOL     OW29332   0.181   2.148  17.020 -0.0560  0.0775 -0.1124
 5957SOL    HW129333   0.117   2.216  17.040  3.0744  2.5753  1.5382
 5957SOL    HW229334   0.160   2.072  17.074  0.4896 -0.5116 -0.7281
 5958SOL     OW29335   0.807   3.744   5.194 -0.3249  0.1162  0.0916
 5958SOL    HW129336   0.754   3.813   5.156  1.7856  2.8601  2.1642
 5958SOL    HW229337   0.781   3.751   5.286 -2.8807  0.5448 -0.6763
 5959SOL     OW29338   4.471   1.857   3.104 -0.3869  0.1580 -0.0970
 5959SOL    HW129339   4.512   1.787   3.155 -1.3503 -0.1224  0.2837
 5959SOL    HW229340   4.547   1.894   3.059 -1.2875  0.5908 -1.2589
 5960SOL     OW29341   1.333   0.370   4.615  0.1022 -0.0013 -0.2978
 5960SOL    HW129342   1.296   0.435   4.675 -0.8934  0.2283 -1.1639
 5960SOL    HW229343   1.381   0.319   4.681 -1.1900 -1.3737 -0.3858
 5961SOL     OW29344   3.608   2.180   1.011  0.3160 -0.0612 -0.2286
 5961SOL    HW129345   3.579   2.243   1.076  2.7257  2.3500 -1.4811
 5961SOL    HW229346   3.688   2.228   0.991  1.3616 -1.8735 -0.4110
 5962SOL     OW29347   1.541   1.233   5.151 -0.4287  0.1065 -0.0627
 5962SOL    HW129348   1.595   1.312   5.153  2.7405 -2.1071  0.7936
 5962SOL    HW229349   1.604   1.161   5.144  0.2410  0.8537 -1.8838
 5963SOL     OW29350   0.280   2.348  17.603  0.2505  0.4248  0.2293
 5963SOL    HW129351   0.318   2.260  17.608  1.4280  0.8997 -0.2085
 5963SOL    HW229352   0.360   2.388  17.568  0.5325 -1.0673 -0.7921
 5964SOL     OW29353   3.671   3.291   0.406 -0.2503 -0.6442 -0.1954
 5964SOL    HW129354   3.621   3.368   0.434 -1.2258 -1.6761  0.8849
 5964SOL    HW229355   3.728   3.279   0.482 -1.9853 -1.0964  1.0277
 5965SOL     OW29356   2.057   2.053  12.381  0.0080  0.4303  0.7862
 5965SOL    HW129357   2.008   1.971  12.388  0.5926 -0.0049 -0.1300
 5965SOL    HW229358   2.072   2.077  12.472 -0.7722 -0.9380  1.2712
 5966SOL     OW29359   3.519   4.405   5.905 -0.5828 -0.5835 -0.0082
 5966SOL    HW129360   3.571   4.443   5.975 -0.0431  1.3401 -1.4747
 5966SOL    HW229361   3.579   4.388   5.833  0.3772  0.1255  0.6244
 5967SOL     OW29362   1.543   1.166   2.934  0.2618 -0.8598  0.4079
 5967SOL    HW129363   1.613   1.207   2.882 -1.0461 -1.4600 -1.8395
 5967SOL    HW229364   1.477   1.158   2.865  0.3304 -1.1233  0.3755
 5968SOL     OW29365   3.142   1.844   7.505  0.5536  0.2561  0.0384
 5968SOL    HW129366   3.227   1.870   7.540  1.1547 -1.1780 -0.3711
 5968SOL    HW229367   3.089   1.921   7.528 -1.2372 -1.2671  1.0555
 5969SOL     OW29368   3.861   1.893   4.766  0.8431  0.1801  0.7583
 5969SOL    HW129369   3.793   1.835   4.799  0.8710  0.5194  1.4076
 5969SOL    HW229370   3.904   1.923   4.846 -0.8017  1.3836  1.1943
 5970SOL     OW29371   3.787   3.662   7.116  0.4673 -0.2752 -0.2506
 5970SOL    HW129372   3.817   3.661   7.025  2.4707 -1.4489  0.4222
 5970SOL    HW229373   3.693   3.678   7.114  0.6854  1.2939  2.7604
 5971SOL     OW29374   0.389   3.281   7.462 -0.1013 -0.3924 -0.5465
 5971SOL    HW129375   0.425   3.225   7.531 -1.3662 -2.2997 -1.4263
 5971SOL    HW229376   0.304   3.291   7.504  0.2740  0.8003 -0.0633
 5972SOL     OW29377   1.615   3.688   6.761  0.5796  0.3078 -0.0345
 5972SOL    HW129378   1.547   3.628   6.731 -0.7577  1.7041  0.1969
 5972SOL    HW229379   1.563   3.761   6.794 -0.6330 -0.9322  0.8140
 5973SOL     OW29380   1.388   2.900   9.000 -0.3218  0.4450  0.1192
 5973SOL    HW129381   1.390   2.805   9.006 -0.5605  0.2713 -2.5764
 5973SOL    HW229382   1.479   2.909   8.973 -0.7004 -0.2880 -1.4268
 5974SOL     OW29383   0.745   2.107   2.489 -0.2934 -0.0169  0.0362
 5974SOL    HW129384   0.739   2.133   2.397 -1.9200 -0.8525 -0.1002
 5974SOL    HW229385   0.744   2.012   2.478  1.8966  0.2205 -2.2410
 5975SOL     OW29386   3.808   2.888  15.384 -0.6504 -0.4727  0.0676
 5975SOL    HW129387   3.814   2.874  15.479  1.1728 -1.0182 -0.1333
 5975SOL    HW229388   3.728   2.940  15.381 -0.0774  0.5070  1.7335
 5976SOL     OW29389   2.004   2.918   9.334 -0.2201 -0.5005 -0.6146
 5976SOL    HW129390   1.914   2.901   9.361 -0.2477  3.9823  2.1571
 5976SOL    HW229391   2.062   2.868   9.390  0.8075 -0.1916 -1.3923
 5977SOL     OW29392   1.283   1.459   1.862  0.1254 -0.5007 -0.5458
 5977SOL    HW129393   1.199   1.438   1.903 -0.8946  1.4694 -1.6163
 5977SOL    HW229394   1.316   1.523   1.926  0.9303 -2.0012  0.5524
 5978SOL     OW29395   4.247   0.136   3.202 -0.0884  0.0988 -0.5044
 5978SOL    HW129396   4.241   0.053   3.154 -2.8195  0.0104  0.0370
 5978SOL    HW229397   4.229   0.198   3.131  2.7973  0.7602 -0.6820
 5979SOL     OW29398   4.326   2.337   4.462 -0.0470 -0.0511  0.3501
 5979SOL    HW129399   4.304   2.402   4.395  0.5527  0.4995  0.6925
 5979SOL    HW229400   4.397   2.384   4.505 -1.1692  0.3549  1.7783
 5980SOL     OW29401   0.842   0.767  17.384 -0.2518  0.2103  0.1836
 5980SOL    HW129402   0.836   0.737  17.475 -0.2330 -1.3827 -0.3460
 5980SOL    HW229403   0.870   0.684  17.344 -0.6637 -0.5551  1.4752
 5981SOL     OW29404   2.306   2.736   9.251  0.2177 -0.4666 -0.2337
 5981SOL    HW129405   2.392   2.765   9.281 -1.1336  0.8332  2.3245
 5981SOL    HW229406   2.249   2.767   9.321  0.3402  2.6164 -1.5163
 5982SOL     OW29407   1.804   0.949  13.532 -0.0204 -0.0117 -0.0275
 5982SOL    HW129408   1.790   0.916  13.444  1.6621 -0.7525 -0.0184
 5982SOL    HW229409   1.884   0.998  13.512 -0.3907 -0.0097 -1.4510
 5983SOL     OW29410   2.428   2.110   7.512  0.0393  0.0458 -0.0654
 5983SOL    HW129411   2.440   2.028   7.465 -0.5236 -0.8332  1.3573
 5983SOL    HW229412   2.336   2.115   7.539  0.5449  0.4791  1.5824
 5984SOL     OW29413   1.119   0.356  17.216 -0.6618 -0.3412  0.1473
 5984SOL    HW129414   1.116   0.267  17.250 -0.1338 -0.0007  1.1006
 5984SOL    HW229415   1.185   0.387  17.278  0.8108 -1.5302 -0.8030
 5985SOL     OW29416   3.939   2.364   5.618 -0.3499  0.3107  0.2392
 5985SOL    HW129417   3.998   2.330   5.686  0.8591  1.0494 -0.4347
 5985SOL    HW229418   3.948   2.457   5.635 -1.1237  0.2713  0.8685
 5986SOL     OW29419   2.409   1.676   2.938  0.1763  0.7715 -0.3343
 5986SOL    HW129420   2.405   1.739   3.010 -0.2627 -0.7323  0.9593
 5986SOL    HW229421   2.316   1.660   2.919  0.8441 -2.6314 -0.8678
 5987SOL     OW29422   3.875   0.129   3.216 -0.2811 -0.4398 -0.0237
 5987SOL    HW129423   3.891   0.171   3.300 -0.0992 -1.4070  0.4314
 5987SOL    HW229424   3.840   0.206   3.172 -0.5097 -0.4783  0.0895
 5988SOL     OW29425   2.549   1.646   2.607  0.7617 -0.0097 -0.6054
 5988SOL    HW129426   2.531   1.552   2.615  1.3822 -0.1383 -0.6716
 5988SOL    HW229427   2.538   1.664   2.700  2.9503  1.3709 -0.6064
 5989SOL     OW29428   0.261   4.067   3.714 -0.5926  0.4266 -0.0648
 5989SOL    HW129429   0.352   4.092   3.702 -0.5669  0.1905 -0.3546
 5989SOL    HW229430   0.230   4.106   3.632  1.5068  1.0139 -0.5727
 5990SOL     OW29431   1.306   3.297   4.731 -0.5469 -0.2269  0.3835
 5990SOL    HW129432   1.287   3.227   4.793 -0.4465 -0.7305 -0.1571
 5990SOL    HW229433   1.333   3.369   4.788  0.0632 -0.5526  0.5057
 5991SOL     OW29434   4.386   1.817   7.442  0.0405  0.1863 -0.4773
 5991SOL    HW129435   4.322   1.885   7.465 -3.4915 -2.9728 -0.9596
 5991SOL    HW229436   4.333   1.752   7.397  0.3653 -0.2215 -0.2619
 5992SOL     OW29437   3.370   2.586   9.364  0.2718 -0.3272  0.7991
 5992SOL    HW129438   3.458   2.585   9.327  0.4053 -0.4454  1.1295
 5992SOL    HW229439   3.319   2.518   9.320 -1.5326  1.2531  0.4048
 5993SOL     OW29440   0.837   1.232  10.026 -0.2206  0.0248  0.2773
 5993SOL    HW129441   0.773   1.268   9.964  1.4526 -0.0283 -1.4700
 5993SOL    HW229442   0.798   1.247  10.112  0.5051  0.0880  0.5892
 5994SOL     OW29443   4.014   1.885   2.919  0.3448 -0.1942  0.3198
 5994SOL    HW129444   3.948   1.932   2.867  0.6463 -0.6586 -0.4787
 5994SOL    HW229445   4.092   1.910   2.870 -0.8187  0.7537 -1.0466
 5995SOL     OW29446   4.621   3.034   7.891 -0.5828  0.5014 -0.4136
 5995SOL    HW129447   4.576   2.959   7.930 -0.3421  1.3377  1.4280
 5995SOL    HW229448   4.592   3.098   7.955 -1.6333 -1.2738  0.8789
 5996SOL     OW29449   0.540   1.658  10.452 -0.2562 -0.5880 -0.7804
 5996SOL    HW129450   0.552   1.734  10.510 -0.5216 -0.4859 -0.8556
 5996SOL    HW229451   0.584   1.686  10.371 -1.0640  1.5715 -0.4916
 5997SOL     OW29452   1.094   2.955   5.488  0.1398 -0.2212 -0.1754
 5997SOL    HW129453   1.083   2.959   5.583 -1.6885  1.5559 -0.4661
 5997SOL    HW229454   1.171   3.012   5.483  0.4394 -0.6291 -0.2498
 5998SOL     OW29455   4.166   4.386   9.529 -0.1309  0.0840 -0.3525
 5998SOL    HW129456   4.218   4.429   9.597  0.4473  0.4607 -1.0288
 5998SOL    HW229457   4.231   4.385   9.459  1.5229  0.5663  1.1738
 5999SOL     OW29458   2.088   3.752  15.615 -0.0878 -0.2677  0.4578
 5999SOL    HW129459   2.148   3.823  15.639  0.4086 -0.5236 -0.0152
 5999SOL    HW229460   2.131   3.709  15.541 -2.2117 -1.7795  0.1206
 6000SOL     OW29461   2.898   4.083   5.686  0.3502 -0.0862 -0.1414
 6000SOL    HW129462   2.882   4.003   5.736  1.6775 -0.9632 -1.1154
 6000SOL    HW229463   2.812   4.095   5.647 -1.2346 -0.5462  3.1767
 6001SOL     OW29464   3.361   2.610  14.052  0.3885  0.3382 -0.1133
 6001SOL    HW129465   3.281   2.603  14.105  0.5429  0.8495  0.1886
 6001SOL    HW229466   3.328   2.677  13.991 -1.1410  0.5779  0.9649
 6002SOL     OW29467   2.624   0.345  17.093  0.1451  0.0309 -0.0511
 6002SOL    HW129468   2.637   0.259  17.134 -1.2591  0.0695  0.4744
 6002SOL    HW229469   2.625   0.308  17.005 -0.1504 -1.8847  0.7414
 6003SOL     OW29470   3.240   0.267  15.173  0.1953 -0.4160 -0.0272
 6003SOL    HW129471   3.319   0.303  15.214 -1.3231  2.1361  0.6840
 6003SOL    HW229472   3.257   0.173  15.177 -0.7106 -0.5654  0.3041
 6004SOL     OW29473   0.882   3.718   7.149 -0.0527  0.6463 -0.6391
 6004SOL    HW129474   0.866   3.743   7.058  1.7724  1.5214 -0.7202
 6004SOL    HW229475   0.880   3.622   7.143 -2.5378  0.7941 -2.1863
 6005SOL     OW29476   2.959   1.786   4.621  0.3197 -0.1064 -0.0646
 6005SOL    HW129477   2.935   1.776   4.529  0.2608  0.7526 -0.1408
 6005SOL    HW229478   2.961   1.697   4.656 -0.2416 -0.7458 -1.6539
 6006SOL     OW29479   1.593   4.423   6.081  0.2555 -0.1338  0.1037
 6006SOL    HW129480   1.561   4.510   6.103  0.1015 -0.1956  0.1265
 6006SOL    HW229481   1.623   4.438   5.992  1.0706 -1.4720  0.1621
 6007SOL     OW29482   2.757   2.546   9.935 -0.7045 -0.3958 -0.2030
 6007SOL    HW129483   2.767   2.466   9.884 -0.8794 -0.8023  0.4034
 6007SOL    HW229484   2.785   2.617   9.877  0.8632 -1.4006 -0.6591
 6008SOL     OW29485   3.894   4.544  17.286  0.6632  0.4704 -0.1695
 6008SOL    HW129486   3.895   4.632  17.323 -0.8315  0.9887 -1.3749
 6008SOL    HW229487   3.914   4.558  17.194  0.4667 -0.3678 -0.3445
 6009SOL     OW29488   2.266   1.132   4.649 -0.4820  0.2547  0.3666
 6009SOL    HW129489   2.202   1.092   4.590  0.9745  0.9573 -1.7273
 6009SOL    HW229490   2.339   1.072   4.666 -2.2052 -1.8900  0.1264
 6010SOL     OW29491   0.816   2.260   9.336  0.3867  0.0586  0.5541
 6010SOL    HW129492   0.891   2.201   9.345  2.3282  2.7916  2.1861
 6010SOL    HW229493   0.741   2.215   9.375  0.9094 -1.0453  0.2714
 6011SOL     OW29494   3.615   2.208   8.380  0.6234 -0.5820 -0.1759
 6011SOL    HW129495   3.555   2.278   8.407  1.1263 -1.5356  3.3871
 6011SOL    HW229496   3.674   2.222   8.454 -0.0280  0.9756  0.0532
 6012SOL     OW29497   1.740   3.812   7.210 -0.1495  0.1982 -0.2571
 6012SOL    HW129498   1.672   3.856   7.260  0.6772  1.2010 -0.0108
 6012SOL    HW229499   1.755   3.736   7.266  2.2997  0.6508 -0.2927
 6013SOL     OW29500   0.704   0.198   9.088  0.0566  0.4778  0.4759
 6013SOL    HW129501   0.621   0.203   9.135  0.3032  2.2765  0.6941
 6013SOL    HW229502   0.739   0.286   9.076  0.0912  0.9529  4.0462
 6014SOL     OW29503   3.274   4.189   4.435  0.7530  0.0132  0.0728
 6014SOL    HW129504   3.253   4.237   4.355  1.5410  0.6585  0.2432
 6014SOL    HW229505   3.209   4.241   4.482 -0.4461 -1.7883  0.3588
 6015SOL     OW29506   2.548   1.440   4.146  0.2040  0.1143  0.1225
 6015SOL    HW129507   2.544   1.345   4.144  2.1699 -0.0298  2.6487
 6015SOL    HW229508   2.556   1.461   4.239 -5.5620 -1.0736  0.8396
 6016SOL     OW29509   1.680   2.297   7.312  0.2250 -0.2393  0.2664
 6016SOL    HW129510   1.675   2.388   7.339 -0.6285 -0.6232  1.4318
 6016SOL    HW229511   1.585   2.283   7.320  0.4310 -1.9460 -0.1777
 6017SOL     OW29512   4.161   4.294  17.137 -0.4341  0.3403  0.1648
 6017SOL    HW129513   4.196   4.207  17.157 -1.2110 -0.3348 -1.3826
 6017SOL    HW229514   4.078   4.282  17.091 -0.4329 -0.9928  0.4984
 6018SOL     OW29515   3.026   4.508   6.316  0.0763  0.1572  0.3581
 6018SOL    HW129516   3.044   4.598   6.342 -0.3768  0.2846  0.2219
 6018SOL    HW229517   3.024   4.515   6.220  2.2446 -1.9664  0.1445
 6019SOL     OW29518   0.794   4.607   4.736  0.2632  0.2633 -0.2392
 6019SOL    HW129519   0.850   4.682   4.720  1.4491 -0.7663 -0.8965
 6019SOL    HW229520   0.707   4.641   4.715  1.4356  4.4180  1.6901
 6020SOL     OW29521   0.637   2.383  14.489  0.4991  0.8494 -0.3909
 6020SOL    HW129522   0.552   2.389  14.532  0.5664 -2.3152  0.1632
 6020SOL    HW229523   0.681   2.461  14.523 -2.1912  2.3933 -0.5085
 6021SOL     OW29524   2.003   1.328  10.146 -0.0047  0.0499  0.1057
 6021SOL    HW129525   2.082   1.379  10.128  0.6860 -1.1965 -0.3850
 6021SOL    HW229526   1.999   1.280  10.064  0.5524 -0.4894  0.3910
 6022SOL     OW29527   3.678   2.456   9.580  0.2674 -0.0887 -0.2054
 6022SOL    HW129528   3.705   2.403   9.505  1.0783  0.4533 -0.3112
 6022SOL    HW229529   3.705   2.541   9.546 -2.0400  0.9265  0.4908
 6023SOL     OW29530   0.309   0.673   7.910  0.6235 -0.4336  0.0004
 6023SOL    HW129531   0.360   0.651   7.989  0.5618  0.2571  0.2336
 6023SOL    HW229532   0.223   0.640   7.934 -0.4174  1.6935 -0.8143
 6024SOL     OW29533   3.539   3.896  16.353  0.3073  0.3625 -0.2618
 6024SOL    HW129534   3.518   3.976  16.304 -1.1447 -0.6844 -1.3925
 6024SOL    HW229535   3.632   3.882  16.335  0.1093 -0.9474 -0.3137
 6025SOL     OW29536   4.496   1.407   5.437  0.6017 -0.1744  0.6114
 6025SOL    HW129537   4.485   1.320   5.397  2.3401 -0.5292  0.8785
 6025SOL    HW229538   4.488   1.387   5.530  1.4821 -2.6057  0.1717
 6026SOL     OW29539   4.130   4.107   4.512 -0.7146 -0.3118  0.1937
 6026SOL    HW129540   4.123   4.176   4.447  2.4273 -2.4294 -2.3492
 6026SOL    HW229541   4.221   4.077   4.510 -0.0655  1.6311  0.8368
 6027SOL     OW29542   1.329   4.097   4.251 -0.0563 -0.3148 -0.3218
 6027SOL    HW129543   1.276   4.023   4.279 -1.3081  1.0922  0.9895
 6027SOL    HW229544   1.310   4.090   4.157  1.1093 -0.0635 -0.5812
 6028SOL     OW29545   4.452   2.622  12.867  0.4970  0.0476 -0.0354
 6028SOL    HW129546   4.537   2.646  12.832  0.2195  1.5993  0.3163
 6028SOL    HW229547   4.468   2.545  12.921  0.8213  1.4301  1.8251
 6029SOL     OW29548   3.018   1.683  15.627  0.1954 -0.1315  0.4637
 6029SOL    HW129549   3.026   1.776  15.610  1.8036 -0.5796 -1.2814
 6029SOL    HW229550   3.109   1.653  15.615  0.4591  1.4085 -1.3396
 6030SOL     OW29551   1.298   4.490   8.295  0.1615 -0.4060 -0.4647
 6030SOL    HW129552   1.251   4.544   8.358  1.4584  0.0993  0.0670
 6030SOL    HW229553   1.351   4.442   8.358  1.2760  3.1281  1.2827
 6031SOL     OW29554   1.408   3.749   7.223  0.6187 -0.1472  0.0796
 6031SOL    HW129555   1.424   3.656   7.241 -0.1978 -0.3623 -0.2592
 6031SOL    HW229556   1.422   3.755   7.129  0.2205  1.4993  0.1298
 6032SOL     OW29557   0.505   2.981  13.113 -0.0955  0.5284 -0.0697
 6032SOL    HW129558   0.419   2.961  13.149  0.5244  0.0497  1.1609
 6032SOL    HW229559   0.502   2.950  13.022 -1.8393  1.0977 -0.2110
 6033SOL     OW29560   1.578   3.994  17.630  0.6523 -0.4834  0.1466
 6033SOL    HW129561   1.579   4.033  17.543 -0.1379 -2.7913 -0.9050
 6033SOL    HW229562   1.493   3.949  17.622  0.0095  0.5262  1.4649
 6034SOL     OW29563   0.897   3.720   8.679 -0.5910 -0.5282  0.0562
 6034SOL    HW129564   0.821   3.762   8.719  1.2050  2.4507  0.4010
 6034SOL    HW229565   0.896   3.774   8.599 -0.6470  0.0823  0.4646
 6035SOL     OW29566   1.330   0.531  12.525  0.3745  0.1980  0.4352
 6035SOL    HW129567   1.358   0.446  12.560 -1.3262 -0.5806 -0.1377
 6035SOL    HW229568   1.338   0.600  12.591 -0.9271 -0.9511  1.8054
 6036SOL     OW29569   2.151   0.666   6.836  0.0216 -0.1238  0.1642
 6036SOL    HW129570   2.125   0.637   6.923 -0.2959  1.6431  0.6656
 6036SOL    HW229571   2.097   0.616   6.775  0.2594 -0.1395 -0.0349
 6037SOL     OW29572   0.515   2.539   6.459  0.2659 -0.3468 -0.2088
 6037SOL    HW129573   0.610   2.547   6.455  0.4764 -2.1208  1.1648
 6037SOL    HW229574   0.501   2.526   6.553 -1.0870  0.8305 -0.2336
 6038SOL     OW29575   0.062   3.721   8.937  0.1988 -0.2187 -0.2969
 6038SOL    HW129576   0.137   3.700   8.882  0.0676  1.4906 -1.1099
 6038SOL    HW229577   0.014   3.639   8.924 -1.1940  0.4044  0.9656
 6039SOL     OW29578   0.953   2.119   7.329  1.1272 -0.1205  0.4796
 6039SOL    HW129579   0.937   2.212   7.345  1.8794 -0.0777  0.9521
 6039SOL    HW229580   0.916   2.092   7.413  0.7618  2.2360  1.0664
 6040SOL     OW29581   4.227   3.011  14.901 -0.3459  0.2708  0.4082
 6040SOL    HW129582   4.319   2.985  14.897 -0.0231  1.2534  1.7058
 6040SOL    HW229583   4.196   2.920  14.905  1.7820 -0.4234  1.2947
 6041SOL     OW29584   3.518   4.111   5.685  0.4313 -0.1079 -0.5883
 6041SOL    HW129585   3.555   4.194   5.717 -1.0772 -0.9154  3.2215
 6041SOL    HW229586   3.479   4.075   5.765 -1.0986 -1.9213 -2.1639
 6042SOL     OW29587   4.078   1.284   6.552  0.2276  0.1165  0.0712
 6042SOL    HW129588   4.125   1.347   6.606 -0.7538  1.1270 -0.2458
 6042SOL    HW229589   4.146   1.243   6.499  0.9979  0.8783  0.4685
 6043SOL     OW29590   2.897   1.302   4.453  0.0905  0.2369  0.0605
 6043SOL    HW129591   2.976   1.281   4.503 -1.3038  0.0682  2.2167
 6043SOL    HW229592   2.842   1.311   4.531 -0.4651 -2.5625  0.0135
 6044SOL     OW29593   1.816   0.209   7.893  0.3471 -0.5901  0.1153
 6044SOL    HW129594   1.734   0.224   7.845  0.8123  0.1984 -0.4065
 6044SOL    HW229595   1.780   0.199   7.981 -1.5234 -1.5984 -0.7511
 6045SOL     OW29596   3.954   0.269   1.975  0.1616 -0.1337 -0.2927
 6045SOL    HW129597   3.923   0.293   2.062 -1.4198  0.3659 -1.0036
 6045SOL    HW229598   3.868   0.260   1.935  1.0701 -1.7060 -1.8834
 6046SOL     OW29599   2.347   0.742   6.112  0.4962 -0.1672  0.0733
 6046SOL    HW129600   2.335   0.766   6.020 -0.7874 -0.0874  0.2686
 6046SOL    HW229601   2.433   0.701   6.102  0.3129  0.2462 -3.3514
 6047SOL     OW29602   0.990   1.960   2.343  0.6285  0.2306  0.4085
 6047SOL    HW129603   0.988   2.055   2.332 -2.6390  0.2201  0.7061
 6047SOL    HW229604   1.063   1.946   2.403 -0.4681  0.3105  1.7678
 6048SOL     OW29605   1.705   2.428  12.942 -0.3784  0.2007  0.2190
 6048SOL    HW129606   1.689   2.445  13.035  0.7787  0.0910  0.4360
 6048SOL    HW229607   1.682   2.336  12.948 -0.9181  0.2981 -0.3165
 6049SOL     OW29608   0.793   2.858  13.148 -0.4736 -0.0754  0.3059
 6049SOL    HW129609   0.868   2.847  13.206  0.8237 -1.0514 -1.5714
 6049SOL    HW229610   0.726   2.816  13.202 -0.6809  1.7280  1.4640
 6050SOL     OW29611   1.018   1.853   6.074 -0.3739 -0.2367  0.5782
 6050SOL    HW129612   1.105   1.848   6.114 -0.2241 -0.3044  0.2479
 6050SOL    HW229613   0.958   1.860   6.147 -1.5694  1.2742 -0.5732
 6051SOL     OW29614   1.661   2.907   5.648  0.4710  0.4262 -0.2513
 6051SOL    HW129615   1.747   2.866   5.660 -0.8914 -2.1573  0.6851
 6051SOL    HW229616   1.675   2.975   5.713 -0.8745 -0.2150  0.7054
 6052SOL     OW29617   3.053   0.946  13.111  0.5866  0.5479  0.3415
 6052SOL    HW129618   3.029   1.035  13.137 -2.5837  0.6295 -2.8163
 6052SOL    HW229619   3.106   0.956  13.031 -1.3492  1.9822 -0.7589
 6053SOL     OW29620   1.298   4.416  11.811 -0.1489 -0.6585 -0.5499
 6053SOL    HW129621   1.279   4.346  11.873  1.9328 -0.1397  0.6901
 6053SOL    HW229622   1.386   4.399  11.778  0.1633 -1.5203  0.6982
 6054SOL     OW29623   2.661   1.166   9.473 -0.0932  0.3338  0.1811
 6054SOL    HW129624   2.653   1.174   9.378  2.7328  0.5106 -0.0549
 6054SOL    HW229625   2.613   1.086   9.496  1.5810 -0.2925  1.5202
 6055SOL     OW29626   2.246   0.427   5.096 -0.0719 -0.1897  0.1298
 6055SOL    HW129627   2.173   0.487   5.114  1.2616  1.3455  0.3619
 6055SOL    HW229628   2.299   0.476   5.034  1.3852 -2.5811 -0.4948
 6056SOL     OW29629   2.676   2.735   2.853 -0.0908  0.3380  0.1517
 6056SOL    HW129630   2.667   2.822   2.892 -2.7431  0.4095 -0.6404
 6056SOL    HW229631   2.767   2.729   2.822 -0.3983  0.9638 -0.8646
 6057SOL     OW29632   1.783   0.787   4.195 -0.0223  0.0273  0.2132
 6057SOL    HW129633   1.745   0.780   4.282  1.4083 -1.0510  0.7394
 6057SOL    HW229634   1.721   0.722   4.161  2.5584 -1.8343 -0.8525
 6058SOL     OW29635   0.792   4.169  16.325  0.7455  0.0604 -0.2173
 6058SOL    HW129636   0.715   4.216  16.358  0.9420  0.2191  0.0180
 6058SOL    HW229637   0.847   4.170  16.403  1.5244  2.2117 -0.8098
 6059SOL     OW29638   1.897   3.219   5.650 -0.2947  0.1366 -0.1322
 6059SOL    HW129639   1.808   3.192   5.676 -0.2406 -2.2245 -2.3841
 6059SOL    HW229640   1.922   3.269   5.727  2.3787  1.6992 -2.0398
 6060SOL     OW29641   3.871   3.671   9.586 -0.1384  0.5119 -0.5383
 6060SOL    HW129642   3.798   3.705   9.638  0.4096 -0.0868  0.6232
 6060SOL    HW229643   3.917   3.621   9.654 -0.6448 -0.5075 -0.9417
 6061SOL     OW29644   4.351   4.576   7.221  0.0894  0.1363  0.4826
 6061SOL    HW129645   4.299   4.551   7.297  1.8785  0.4568  1.8000
 6061SOL    HW229646   4.419   4.509   7.226 -0.1824 -0.0813  1.2693
 6062SOL     OW29647   2.344   3.216   6.935 -0.2198  0.5649  0.0937
 6062SOL    HW129648   2.368   3.246   7.023 -0.7539  0.9710  0.1002
 6062SOL    HW229649   2.268   3.274   6.929 -1.1678 -0.7909 -0.8264
 6063SOL     OW29650   4.568   1.811  11.737 -0.2974  0.2693 -0.3667
 6063SOL    HW129651   4.608   1.741  11.687  0.3923  1.0656 -0.9252
 6063SOL    HW229652   4.481   1.774  11.750 -0.4685  1.6300  2.4887
 6064SOL     OW29653   3.949   0.115   9.056  0.3547  0.1231 -0.6253
 6064SOL    HW129654   3.882   0.116   8.988  0.3005 -0.2603 -0.5812
 6064SOL    HW229655   3.916   0.054   9.122  0.5126 -0.2584 -0.8984
 6065SOL     OW29656   3.245   1.413   4.474  0.1742 -0.6087 -0.0003
 6065SOL    HW129657   3.203   1.369   4.548 -0.1247 -1.4936 -0.6934
 6065SOL    HW229658   3.199   1.368   4.403 -0.0940 -0.0946 -0.1489
 6066SOL     OW29659   0.369   1.763  11.597  0.5591  0.1628 -0.8418
 6066SOL    HW129660   0.360   1.668  11.605  1.2793  0.0113 -1.7948
 6066SOL    HW229661   0.431   1.758  11.524  0.3320 -2.1649 -0.8802
 6067SOL     OW29662   4.180   0.741   5.249  0.3544  0.1676 -0.3378
 6067SOL    HW129663   4.188   0.676   5.179 -1.5375 -0.4957  0.0322
 6067SOL    HW229664   4.121   0.691   5.307 -0.2530  0.0672 -1.0406
 6068SOL     OW29665   0.646   0.031   8.330  0.1757  0.0762 -0.1022
 6068SOL    HW129666   0.650   0.112   8.279 -2.2135  0.5041  0.3646
 6068SOL    HW229667   0.689   0.062   8.410 -1.2491 -0.7183  0.9708
 6069SOL     OW29668   3.413   0.396   7.591 -0.9718 -0.2971  0.1266
 6069SOL    HW129669   3.390   0.304   7.581  1.0682 -0.7310 -0.5332
 6069SOL    HW229670   3.480   0.389   7.659  0.8816  2.6626 -1.4138
 6070SOL     OW29671   4.214   4.537   1.907 -0.2467 -0.5894 -0.2036
 6070SOL    HW129672   4.161   4.574   1.977  1.7919  0.9148  0.5469
 6070SOL    HW229673   4.265   4.612   1.875  0.7846 -0.1747  2.4859
 6071SOL     OW29674   3.564   2.459   1.192 -0.1333  0.5816  0.6097
 6071SOL    HW129675   3.478   2.423   1.216 -0.1926  0.7725  0.6810
 6071SOL    HW229676   3.557   2.544   1.236  1.1571  1.1579 -0.3001
 6072SOL     OW29677   3.695   4.535   9.862 -0.2617 -0.6427  1.2750
 6072SOL    HW129678   3.627   4.535   9.796  2.4610 -3.6773 -1.5391
 6072SOL    HW229679   3.711   4.625   9.891  0.9301 -0.0517 -1.2662
 6073SOL     OW29680   0.409   4.363  15.432  0.2206 -0.4177  0.5717
 6073SOL    HW129681   0.353   4.293  15.398  0.3770 -0.9555  1.4088
 6073SOL    HW229682   0.496   4.331  15.410  0.2364 -0.1555  0.2709
 6074SOL     OW29683   1.355   4.484   9.063  0.0788  0.4500  0.2335
 6074SOL    HW129684   1.295   4.543   9.107  0.7841  0.5571  1.0506
 6074SOL    HW229685   1.434   4.537   9.071  1.5359 -1.3483 -2.2269
 6075SOL     OW29686   4.312   3.663   3.328  0.1349 -0.5867  0.1408
 6075SOL    HW129687   4.383   3.693   3.271  0.7184  0.2976  1.3272
 6075SOL    HW229688   4.350   3.579   3.355 -1.3847 -0.9604  1.1191
 6076SOL     OW29689   4.305   0.061  13.295  0.1981  0.3240  0.0220
 6076SOL    HW129690   4.302   0.100  13.382 -2.0852  0.1791  0.0196
 6076SOL    HW229691   4.396   0.039  13.279 -0.4474  0.1999 -3.4372
 6077SOL     OW29692   4.408   3.731   2.410 -0.0802 -0.1359  0.6376
 6077SOL    HW129693   4.439   3.649   2.449  5.1959  1.4736 -0.2051
 6077SOL    HW229694   4.336   3.691   2.360 -0.2263  1.4711 -0.4128
 6078SOL     OW29695   1.823   0.542   1.991 -0.2906  0.3616  0.6921
 6078SOL    HW129696   1.862   0.629   1.981  1.3676 -0.5055 -0.2333
 6078SOL    HW229697   1.836   0.526   2.084  0.6583 -1.2283  0.2661
 6079SOL     OW29698   0.848   4.018  17.666 -0.1687  1.0615 -0.1051
 6079SOL    HW129699   0.803   4.043  17.585 -0.3695 -0.2187 -0.3821
 6079SOL    HW229700   0.805   3.936  17.687  3.1218 -0.7281 -0.4308
 6080SOL     OW29701   1.215   0.052  15.502  0.2143  0.6276  0.2716
 6080SOL    HW129702   1.168   0.134  15.486  0.4697  0.7391  0.0784
 6080SOL    HW229703   1.272   0.046  15.425  0.5171  1.5416  0.4289
 6081SOL     OW29704   3.925   4.102   9.890 -0.2839 -0.0898 -0.2071
 6081SOL    HW129705   3.991   4.145   9.945  0.2927  1.0440 -1.7919
 6081SOL    HW229706   3.844   4.144   9.920 -0.3943 -2.2331  2.6062
 6082SOL     OW29707   1.530   1.182   2.266  0.2070  0.0359  0.0484
 6082SOL    HW129708   1.543   1.089   2.246  0.8054  0.4913 -1.7178
 6082SOL    HW229709   1.528   1.207   2.174 -0.3711  0.3751  0.1514
 6083SOL     OW29710   0.450   4.595   1.484 -0.4294  0.1375  0.0189
 6083SOL    HW129711   0.396   4.589   1.405 -0.5303  1.2107  0.0049
 6083SOL    HW229712   0.538   4.573   1.454 -0.5937 -1.6356  0.8503
 6084SOL     OW29713   1.226   3.849  13.676  0.4671 -0.0478  0.4298
 6084SOL    HW129714   1.185   3.894  13.750 -0.0819 -0.6280  0.4775
 6084SOL    HW229715   1.157   3.805  13.626  2.1976  1.0564 -2.9407
 6085SOL     OW29716   1.750   3.074   8.445  0.2884  0.6371 -0.5390
 6085SOL    HW129717   1.701   3.028   8.377 -1.1859  1.1548  0.1745
 6085SOL    HW229718   1.680   3.107   8.502 -0.4348 -0.7834 -0.5845
 6086SOL     OW29719   2.176   2.567   9.849  0.0946 -0.3694  0.4649
 6086SOL    HW129720   2.192   2.626   9.775 -1.1996  0.7712  1.1070
 6086SOL    HW229721   2.162   2.628   9.921 -2.0728  0.4125 -0.6249
 6087SOL     OW29722   3.817   1.568   2.203 -0.3879 -0.2117  0.1538
 6087SOL    HW129723   3.848   1.521   2.281 -2.2053  1.2431  1.7567
 6087SOL    HW229724   3.725   1.581   2.226 -0.6021 -1.9492  0.2655
 6088SOL     OW29725   4.653   3.779  13.527  0.1167 -0.1029  0.1224
 6088SOL    HW129726   4.723   3.842  13.542  0.8596 -1.2118  1.3902
 6088SOL    HW229727   4.673   3.740  13.442 -1.6594 -0.5433 -0.0883
 6089SOL     OW29728   2.354   3.131  14.108 -0.0765  0.0953 -0.9596
 6089SOL    HW129729   2.361   3.170  14.195 -0.2678 -1.9796 -0.0233
 6089SOL    HW229730   2.266   3.094  14.106  0.5602 -1.4813  0.2342
 6090SOL     OW29731   1.254   2.909   2.160  0.1997  0.7311  0.3068
 6090SOL    HW129732   1.282   2.818   2.150  0.5467  1.0300 -1.3819
 6090SOL    HW229733   1.323   2.951   2.108  0.6936  1.8670  1.8725
 6091SOL     OW29734   3.725   1.239   3.734 -0.4622  0.1009 -0.8576
 6091SOL    HW129735   3.768   1.318   3.701  2.1051 -1.0210 -0.1948
 6091SOL    HW229736   3.741   1.252   3.828  1.0708  0.7532 -1.2059
 6092SOL     OW29737   4.207   4.188  11.143  0.2445  0.1375  0.2967
 6092SOL    HW129738   4.287   4.202  11.092 -1.8921  0.4727 -2.9617
 6092SOL    HW229739   4.203   4.262  11.204 -0.0249  0.1514  0.2613
 6093SOL     OW29740   1.472   0.820  16.213  0.3836 -0.0679  0.1592
 6093SOL    HW129741   1.380   0.808  16.191  0.0626  1.0512  0.9353
 6093SOL    HW229742   1.458   0.843  16.304  3.8375 -1.6000  1.0702
 6094SOL     OW29743   4.336   1.955   4.982 -0.4214 -0.0808 -0.1637
 6094SOL    HW129744   4.294   1.870   4.969  0.1334 -0.2274 -0.9896
 6094SOL    HW229745   4.263   1.994   5.031 -1.2691 -0.2686 -1.2812
 6095SOL     OW29746   0.562   1.908   8.173  0.5319  0.5703 -0.8028
 6095SOL    HW129747   0.638   1.925   8.117  1.7743 -0.2023  0.6379
 6095SOL    HW229748   0.545   1.994   8.211  1.5209  0.0430  0.8544
 6096SOL     OW29749   2.675   2.304   4.153  0.0893  0.0534  0.2806
 6096SOL    HW129750   2.771   2.307   4.155  0.0805  0.1733  0.5127
 6096SOL    HW229751   2.652   2.243   4.083  1.3388  2.1373 -1.9660
 6097SOL     OW29752   2.856   2.546  11.664 -0.1607 -0.2213  0.3275
 6097SOL    HW129753   2.771   2.521  11.701  0.3697 -3.1777 -0.4572
 6097SOL    HW229754   2.871   2.478  11.598 -1.5887  1.4026 -1.6653
 6098SOL     OW29755   1.966   2.863   2.616 -0.1155  0.2568 -0.0006
 6098SOL    HW129756   1.901   2.902   2.674  1.0035 -0.0502  1.4631
 6098SOL    HW229757   2.003   2.804   2.682  0.3930  0.6967  0.1053
 6099SOL     OW29758   2.996   3.747  15.190  0.3946  0.7266  0.2970
 6099SOL    HW129759   2.917   3.716  15.146  1.4647 -0.1423 -1.0137
 6099SOL    HW229760   3.053   3.670  15.190 -2.4310 -1.3505  0.9163
 6100SOL     OW29761   4.689   3.284  15.878  0.8989 -0.9111 -0.2082
 6100SOL    HW129762   4.644   3.361  15.844  2.7341 -0.8140 -2.4278
 6100SOL    HW229763   4.662   3.296  15.969 -1.4602 -1.9014 -0.7920
 6101SOL     OW29764   1.583   0.412   1.933  0.1792  0.3709  0.7622
 6101SOL    HW129765   1.527   0.487   1.953  0.5130  0.6884  0.5127
 6101SOL    HW229766   1.663   0.463   1.919 -0.0745 -0.3236 -3.1114
 6102SOL     OW29767   1.309   1.396  12.566  0.1408 -0.2591 -0.3943
 6102SOL    HW129768   1.233   1.356  12.524 -1.1382  0.9163  0.8036
 6102SOL    HW229769   1.365   1.325  12.598 -1.4098 -0.7336  1.2940
 6103SOL     OW29770   3.658   1.701   5.642 -0.1454  0.8248  0.6222
 6103SOL    HW129771   3.753   1.712   5.635 -0.2633  0.8576 -0.9336
 6103SOL    HW229772   3.648   1.609   5.618  1.1162  0.4998  1.3468
 6104SOL     OW29773   3.257   0.661  12.102  0.0466  0.0785 -0.3931
 6104SOL    HW129774   3.219   0.574  12.111 -2.9109  1.3630 -0.6015
 6104SOL    HW229775   3.326   0.639  12.039 -0.4648  0.0089 -0.9274
 6105SOL     OW29776   3.922   2.860   6.746  0.4103 -0.8485  0.0791
 6105SOL    HW129777   4.014   2.835   6.754  0.3275 -0.7962  1.0925
 6105SOL    HW229778   3.881   2.816   6.820 -0.3243  0.2977  0.3483
 6106SOL     OW29779   3.921   4.395   5.970  0.2717 -0.0270 -0.5476
 6106SOL    HW129780   3.981   4.423   5.901 -0.1633  0.2964 -0.7873
 6106SOL    HW229781   3.877   4.317   5.935  3.5431 -1.4100 -1.5904
 6107SOL     OW29782   4.360   4.382  12.126 -0.7177  0.3647 -0.2606
 6107SOL    HW129783   4.345   4.435  12.203  1.3389 -2.1728  1.8903
 6107SOL    HW229784   4.442   4.336  12.147 -0.2496  1.5167  0.4119
 6108SOL     OW29785   0.014   4.546   8.711  0.5737 -0.0948 -0.0062
 6108SOL    HW129786   0.061   4.519   8.790  3.6048  1.0663 -1.3990
 6108SOL    HW229787   0.012   4.641   8.720  1.0765  0.1277 -2.1607
 6109SOL     OW29788   0.368   0.919  17.108 -0.2599 -0.1647 -0.1555
 6109SOL    HW129789   0.307   0.971  17.056 -1.2851 -0.3713  0.8634
 6109SOL    HW229790   0.448   0.919  17.055 -0.5383  2.2693 -0.6003
 6110SOL     OW29791   4.150   1.930   6.850 -0.3071 -0.1902  0.0387
 6110SOL    HW129792   4.184   1.915   6.938  0.5814  0.8578 -0.1296
 6110SOL    HW229793   4.084   1.860   6.853  0.9242 -1.3795 -0.9078
 6111SOL     OW29794   0.845   0.689   1.496 -0.1800 -0.1211 -0.2552
 6111SOL    HW129795   0.781   0.737   1.443  1.5142  1.6755 -0.6590
 6111SOL    HW229796   0.813   0.600   1.478 -0.8437  0.2071 -0.7111
 6112SOL     OW29797   0.206   3.272  11.912  0.7041 -0.3486 -0.3277
 6112SOL    HW129798   0.289   3.243  11.875  1.2900 -0.9776  1.4627
 6112SOL    HW229799   0.214   3.276  12.008  3.5643  1.0777 -0.6145
 6113SOL     OW29800   3.434   4.244  12.806 -0.5994  0.5177  0.2114
 6113SOL    HW129801   3.480   4.179  12.752 -1.8350 -0.1967  0.0197
 6113SOL    HW229802   3.372   4.185  12.850  0.6904 -1.9704 -1.2889
 6114SOL     OW29803   2.899   0.029   4.610  0.1916  0.0821 -0.8085
 6114SOL    HW129804   2.989   0.004   4.633  0.2808  1.6714  0.5680
 6114SOL    HW229805   2.851   4.687   4.660 -0.9841 -0.2531 -2.3700
 6115SOL     OW29806   2.892   0.963   3.651 -0.2307 -0.2358 -0.4329
 6115SOL    HW129807   2.853   0.875   3.647 -0.0858 -0.3895  1.3666
 6115SOL    HW229808   2.972   0.935   3.606 -0.4246 -2.2525  0.4432
 6116SOL     OW29809   3.514   1.125  17.162 -0.1273  0.1798 -0.3069
 6116SOL    HW129810   3.509   1.220  17.156 -0.9366  0.3251  2.5120
 6116SOL    HW229811   3.563   1.114  17.243  1.1392 -0.7959 -1.2044
 6117SOL     OW29812   1.422   1.375   8.794  0.2397 -0.0462  0.6524
 6117SOL    HW129813   1.361   1.332   8.855  0.2031 -0.0801  0.5918
 6117SOL    HW229814   1.486   1.306   8.779  0.6494  0.2670  0.9756
 6118SOL     OW29815   1.110   0.616  15.969  0.1607 -0.0192 -0.0474
 6118SOL    HW129816   1.118   0.661  16.053 -2.6583  1.5169 -0.6135
 6118SOL    HW229817   1.062   0.534  15.983 -0.9566  0.3204 -1.8791
 6119SOL     OW29818   4.438   3.550  16.478 -0.1089  0.4623 -0.4281
 6119SOL    HW129819   4.513   3.605  16.453 -0.3443  1.9691  2.1594
 6119SOL    HW229820   4.452   3.557  16.572  4.2883  1.3822 -1.1369
 6120SOL     OW29821   3.221   4.156   7.682  0.1942 -0.1168  0.1239
 6120SOL    HW129822   3.200   4.189   7.594  1.5243  1.9632  0.5873
 6120SOL    HW229823   3.186   4.067   7.673 -0.6675  0.3509 -1.2396
 6121SOL     OW29824   4.392   4.336   9.377 -0.2474 -0.7776  0.0530
 6121SOL    HW129825   4.441   4.258   9.400  1.6340  0.5183  0.4605
 6121SOL    HW229826   4.348   4.312   9.295 -1.9137  0.4794  0.5937
 6122SOL     OW29827   2.842   1.876   1.118 -0.2482 -0.1207 -0.0263
 6122SOL    HW129828   2.794   1.892   1.036 -0.5798  1.2885  0.4477
 6122SOL    HW229829   2.899   1.952   1.115  1.8893 -1.6542  1.6438
 6123SOL     OW29830   2.312   0.849   5.866 -0.7890 -0.4408  0.7416
 6123SOL    HW129831   2.219   0.853   5.845 -1.0533 -1.5664  1.7039
 6123SOL    HW229832   2.353   0.855   5.780 -4.2278 -0.1936 -0.8582
 6124SOL     OW29833   3.271   3.075   2.339 -0.4282 -0.4961  0.3816
 6124SOL    HW129834   3.283   3.096   2.247 -1.7956  1.3609  0.6432
 6124SOL    HW229835   3.347   3.017   2.351  0.6410  0.7446 -0.3828
 6125SOL     OW29836   0.285   4.493   2.460 -0.6902 -0.0011  0.0462
 6125SOL    HW129837   0.291   4.473   2.367  0.2538  3.3425 -0.6001
 6125SOL    HW229838   0.197   4.459   2.478 -0.8683  0.8082  0.7047
 6126SOL     OW29839   1.055   3.429   7.360  0.4004 -1.4902 -0.6859
 6126SOL    HW129840   1.014   3.416   7.274 -0.9728 -0.1698 -0.2296
 6126SOL    HW229841   0.984   3.395   7.414  0.1402  0.4017  0.1469
 6127SOL     OW29842   1.624   3.196  13.192  0.3323 -0.6967 -1.0372
 6127SOL    HW129843   1.627   3.112  13.147 -2.0181 -0.8378 -0.9255
 6127SOL    HW229844   1.582   3.174  13.275  0.0528 -2.2591 -1.6074
 6128SOL     OW29845   1.392   4.256   4.452  0.1371  0.1684 -0.0519
 6128SOL    HW129846   1.482   4.229   4.469  1.1493  2.9865 -0.8247
 6128SOL    HW229847   1.366   4.203   4.377  1.7894 -0.5452 -0.1137
 6129SOL     OW29848   0.944   3.968   5.572  0.2314 -0.3122 -0.0936
 6129SOL    HW129849   0.968   4.006   5.488  0.2672 -3.0119 -1.2970
 6129SOL    HW229850   1.029   3.975   5.615  0.4611 -0.9149 -0.4389
 6130SOL     OW29851   0.868   2.433   5.399  0.5659 -0.6201  0.0032
 6130SOL    HW129852   0.857   2.392   5.485  0.5279 -1.2189 -0.2834
 6130SOL    HW229853   0.917   2.511   5.426 -2.7122  0.5986  2.4739
 6131SOL     OW29854   0.331   2.176   2.554 -0.0931  0.0144 -0.5076
 6131SOL    HW129855   0.263   2.242   2.545  1.6113  1.5553 -2.2205
 6131SOL    HW229856   0.383   2.195   2.476 -0.5785 -0.8141 -1.0313
 6132SOL     OW29857   1.795   3.826  13.077  0.2747  0.5743 -0.5058
 6132SOL    HW129858   1.809   3.871  12.994 -0.2612  1.5073 -0.0916
 6132SOL    HW229859   1.733   3.756  13.055  0.9221  0.3704 -1.6991
 6133SOL     OW29860   3.452   3.414   6.537  0.0436 -0.1624  0.2134
 6133SOL    HW129861   3.414   3.369   6.612  2.3935  0.2656  1.6522
 6133SOL    HW229862   3.517   3.461   6.590  0.3589  2.1455 -2.1711
 6134SOL     OW29863   1.421   0.938  11.831  0.3450 -0.4504  0.3914
 6134SOL    HW129864   1.491   0.970  11.774  1.2817 -1.1010  1.1900
 6134SOL    HW229865   1.473   0.906  11.904 -0.8024 -1.8463  0.6005
 6135SOL     OW29866   2.018   4.147   7.419  0.0655 -0.4747 -0.0432
 6135SOL    HW129867   1.943   4.111   7.465 -0.7350  1.4234  0.1442
 6135SOL    HW229868   2.088   4.114   7.475  1.3727  0.3674 -1.1770
 6136SOL     OW29869   0.081   4.101   3.959  0.1038 -0.3367 -0.1789
 6136SOL    HW129870   0.124   4.186   3.968 -0.5366 -0.0189 -0.1267
 6136SOL    HW229871   0.117   4.077   3.873  0.8745  3.0090 -0.8223
 6137SOL     OW29872   1.687   1.486   7.991  0.7155 -0.2064  0.0016
 6137SOL    HW129873   1.623   1.418   8.015  0.4549  0.6415  1.6902
 6137SOL    HW229874   1.759   1.439   7.949  1.1137 -0.2192  0.7194
 6138SOL     OW29875   3.956   2.223   8.011 -0.6211  0.3485  0.8046
 6138SOL    HW129876   3.861   2.223   8.017 -0.6154 -0.3074  0.9100
 6138SOL    HW229877   3.971   2.274   7.931  0.0962  0.9504  1.3245
 6139SOL     OW29878   2.663   0.656   5.657 -0.9931 -0.0057 -0.3382
 6139SOL    HW129879   2.604   0.689   5.590 -0.0533 -1.2146 -1.7639
 6139SOL    HW229880   2.607   0.616   5.724  1.1572 -0.8851  0.9342
 6140SOL     OW29881   2.392   2.239  15.634  0.0453  0.1274  0.1177
 6140SOL    HW129882   2.338   2.171  15.675 -1.0160 -1.0633 -3.2213
 6140SOL    HW229883   2.336   2.273  15.564 -0.7881  0.7205  1.0762
 6141SOL     OW29884   4.251   4.217  11.599 -0.5853  0.2116 -0.3806
 6141SOL    HW129885   4.234   4.127  11.572 -0.5061  0.1655 -0.2739
 6141SOL    HW229886   4.168   4.262  11.580  0.4629  1.9548 -0.8557
 6142SOL     OW29887   1.646   4.158   1.196  0.1276 -0.3123  0.3743
 6142SOL    HW129888   1.715   4.130   1.257  1.3560  2.4370  0.2540
 6142SOL    HW229889   1.697   4.214   1.137  0.2709  0.4426  1.2232
 6143SOL     OW29890   4.154   1.199   8.335 -0.3793  0.3363 -0.1069
 6143SOL    HW129891   4.077   1.248   8.309 -0.2854  0.1259 -0.7860
 6143SOL    HW229892   4.107   1.117   8.347 -0.4160  0.0601 -2.0600
 6144SOL     OW29893   2.811   3.831   8.307 -0.2527  0.0734  0.0729
 6144SOL    HW129894   2.772   3.762   8.361  0.0129  0.2505  0.4972
 6144SOL    HW229895   2.725   3.863   8.282 -0.8662  0.1507  2.2872
 6145SOL     OW29896   3.803   0.400   4.525  0.0483  0.6933 -0.3096
 6145SOL    HW129897   3.767   0.339   4.461  2.4901 -1.5290  0.4440
 6145SOL    HW229898   3.790   0.359   4.610  2.4799  0.9435  0.1750
 6146SOL     OW29899   4.538   4.683  11.474 -0.0147 -0.2914  0.2328
 6146SOL    HW129900   4.562   0.048  11.447  2.4642 -0.6804  1.1582
 6146SOL    HW229901   4.501   4.701  11.561 -1.5085  0.9454 -0.6645
 6147SOL     OW29902   2.809   2.996   9.167  0.2450 -0.3654 -0.1787
 6147SOL    HW129903   2.844   3.072   9.213  0.6149 -1.0187  0.6070
 6147SOL    HW229904   2.842   2.922   9.217  1.5662  0.9779  0.9442
 6148SOL     OW29905   1.331   1.066  16.396 -0.1728  0.4849 -0.0830
 6148SOL    HW129906   1.318   1.146  16.345 -1.1728  0.7311  0.5503
 6148SOL    HW229907   1.399   1.091  16.459  0.2382 -2.6464  0.7112
 6149SOL     OW29908   2.784   3.281   2.234 -0.6639 -0.3030  0.0193
 6149SOL    HW129909   2.875   3.252   2.241  0.2650  2.8667  1.4393
 6149SOL    HW229910   2.811   3.372   2.247 -1.2355  0.2603 -2.6112
 6150SOL     OW29911   3.391   3.141  16.660 -0.1248 -0.8136 -0.5514
 6150SOL    HW129912   3.424   3.065  16.708  1.7979  1.0146  0.9881
 6150SOL    HW229913   3.327   3.102  16.600 -0.4381 -1.2364  0.0615
 6151SOL     OW29914   1.009   1.267   2.521  0.5974 -0.3600 -0.2889
 6151SOL    HW129915   1.009   1.246   2.428  0.5157 -1.1250 -0.1163
 6151SOL    HW229916   0.923   1.308   2.515  0.4181 -0.9079 -1.5369
 6152SOL     OW29917   0.662   4.178  11.613  0.5504 -0.0268  0.3142
 6152SOL    HW129918   0.738   4.150  11.664  0.4131 -2.7379 -0.9310
 6152SOL    HW229919   0.681   4.271  11.597  0.9857  0.1688  2.0044
 6153SOL     OW29920   3.462   3.066  12.100 -0.2135  0.0075  0.2504
 6153SOL    HW129921   3.516   3.130  12.146  0.3178  1.8364 -2.9578
 6153SOL    HW229922   3.522   3.057  12.026 -1.0259  0.6484 -0.4820
 6154SOL     OW29923   1.101   4.287   6.150  0.1226  0.0261 -0.4199
 6154SOL    HW129924   1.184   4.247   6.177 -1.2801 -1.0235  2.3406
 6154SOL    HW229925   1.039   4.215   6.152  1.7108 -1.2812  1.9217
 6155SOL     OW29926   1.195   2.415   2.363 -0.3537  0.2364 -0.1052
 6155SOL    HW129927   1.230   2.330   2.338 -0.0299  0.8175 -1.6323
 6155SOL    HW229928   1.111   2.381   2.395  0.1510 -1.1214 -0.2428
 6156SOL     OW29929   3.026   2.824   6.911 -0.1451 -0.2682  0.8208
 6156SOL    HW129930   2.954   2.886   6.902 -0.2648 -0.6285 -0.8554
 6156SOL    HW229931   3.098   2.884   6.894  0.1406 -0.9894 -0.5540
 6157SOL     OW29932   1.039   3.394   6.462 -0.3301 -0.0256  0.0097
 6157SOL    HW129933   1.022   3.419   6.552 -1.5719  0.7224 -0.4364
 6157SOL    HW229934   1.072   3.478   6.430 -1.1447  0.3902  0.2878
 6158SOL     OW29935   0.449   2.977   4.169 -0.5486  0.1759  0.0204
 6158SOL    HW129936   0.395   3.049   4.201  0.4343  0.3621  1.2528
 6158SOL    HW229937   0.399   2.907   4.210  1.4834 -0.0971  2.0644
 6159SOL     OW29938   3.800   2.515  10.909 -0.6946 -0.2641 -0.3359
 6159SOL    HW129939   3.817   2.571  10.985 -1.0287 -1.9383  0.9775
 6159SOL    HW229940   3.730   2.567  10.871  0.5719  0.1216 -2.1274
 6160SOL     OW29941   3.236   3.547   7.234  0.3298 -0.3508  0.2962
 6160SOL    HW129942   3.243   3.539   7.139  1.4233 -0.6271  0.4092
 6160SOL    HW229943   3.310   3.491   7.255  1.1465  1.5768  2.5309
 6161SOL     OW29944   2.332   3.495   7.970 -0.6996 -0.6662  0.1630
 6161SOL    HW129945   2.427   3.494   7.965 -0.7034 -0.9156  0.1272
 6161SOL    HW229946   2.320   3.590   7.972 -3.1150 -1.0028  2.5664
 6162SOL     OW29947   3.727   1.682   6.669 -0.2468 -0.7255 -0.2151
 6162SOL    HW129948   3.648   1.665   6.719 -1.3832  1.7054 -1.1733
 6162SOL    HW229949   3.762   1.595   6.650 -0.5085 -1.2336  1.6708
 6163SOL     OW29950   1.670   3.423  15.751  0.2002  0.2715 -0.5317
 6163SOL    HW129951   1.697   3.436  15.661  0.3434  2.4842 -0.1566
 6163SOL    HW229952   1.663   3.327  15.752 -1.1723  0.3765  0.4545
 6164SOL     OW29953   0.861   2.477   7.921  0.3401 -0.0166 -0.0812
 6164SOL    HW129954   0.862   2.558   7.972 -3.0206  0.1046 -0.1937
 6164SOL    HW229955   0.809   2.422   7.980 -0.5437  1.4349  0.4728
 6165SOL     OW29956   0.752   1.354   5.100 -0.1163  0.2549  0.7163
 6165SOL    HW129957   0.768   1.352   5.006 -1.2384  0.1802  0.5185
 6165SOL    HW229958   0.818   1.292   5.130 -0.7614 -0.1661  1.2554
 6166SOL     OW29959   1.293   3.124   4.950 -0.2994  0.1240  0.4863
 6166SOL    HW129960   1.239   3.048   4.972  0.5631 -0.8434 -0.7774
 6166SOL    HW229961   1.373   3.075   4.969  0.0803  1.8614  3.3535
 6167SOL     OW29962   2.983   0.353  16.642 -0.1314 -0.2421  0.0564
 6167SOL    HW129963   2.921   0.284  16.667  0.7328 -0.2557  2.1364
 6167SOL    HW229964   2.968   0.427  16.700 -0.9671  1.4130 -2.2876
 6168SOL     OW29965   1.441   2.531  14.615  0.3390 -0.0608 -0.2388
 6168SOL    HW129966   1.397   2.453  14.649 -0.2485  1.1439  1.7821
 6168SOL    HW229967   1.385   2.601  14.649 -0.8561 -1.0439 -0.2050
 6169SOL     OW29968   1.630   2.324   1.707  0.0111  0.1920  0.1063
 6169SOL    HW129969   1.664   2.353   1.792 -0.4401  2.1672 -0.3975
 6169SOL    HW229970   1.537   2.322   1.729  0.1721 -1.1423  0.6523
 6170SOL     OW29971   2.514   3.983  11.426 -0.3694  0.2284  0.5965
 6170SOL    HW129972   2.422   3.976  11.403 -0.4989  1.4051  0.7352
 6170SOL    HW229973   2.548   3.931  11.354 -3.0215 -0.5536 -0.0862
 6171SOL     OW29974   4.545   1.241  11.414  0.0789 -0.1171 -0.1569
 6171SOL    HW129975   4.522   1.154  11.446 -0.4408  0.5849  1.3513
 6171SOL    HW229976   4.623   1.216  11.364  2.1674  0.1607  3.0054
 6172SOL     OW29977   1.067   0.356   7.702 -0.7867 -1.0206 -0.6503
 6172SOL    HW129978   0.983   0.332   7.662 -0.5765  1.3052 -2.4731
 6172SOL    HW229979   1.069   0.279   7.759  1.4652  0.0502  0.7226
 6173SOL     OW29980   3.799   2.568   8.353  0.4385  0.2181 -0.4756
 6173SOL    HW129981   3.767   2.658   8.360 -0.9646 -0.4108  1.1470
 6173SOL    HW229982   3.762   2.540   8.269 -0.2966  1.1676 -0.4709
 6174SOL     OW29983   3.108   1.086  11.144 -0.1540  0.2341  0.5274
 6174SOL    HW129984   3.106   1.087  11.049  0.8704  1.6050  0.5099
 6174SOL    HW229985   3.121   0.992  11.157 -1.8254  0.0693  0.9734
 6175SOL     OW29986   1.489   3.918  13.730  0.0213 -0.4150  0.4470
 6175SOL    HW129987   1.400   3.892  13.708 -0.3250  0.8041  0.4152
 6175SOL    HW229988   1.489   4.002  13.685 -0.2627 -1.8657 -2.2276
 6176SOL     OW29989   0.237   2.212   4.213 -0.1963  0.1535  0.4606
 6176SOL    HW129990   0.328   2.216   4.242  0.0703 -1.5073 -0.1573
 6176SOL    HW229991   0.242   2.264   4.133 -1.9183 -1.0065 -0.4113
 6177SOL     OW29992   3.105   0.813   8.675 -0.5369  0.3556  0.2965
 6177SOL    HW129993   3.047   0.883   8.705 -3.7043 -1.3951 -1.6924
 6177SOL    HW229994   3.183   0.843   8.722 -0.9745  1.3303  0.4122
 6178SOL     OW29995   1.958   1.574  11.889 -0.2352 -0.3206  0.5017
 6178SOL    HW129996   2.018   1.499  11.886  0.1440 -0.0897  2.5257
 6178SOL    HW229997   1.878   1.535  11.925 -0.3775 -2.4121 -2.0500
 6179SOL     OW29998   3.838   4.205   2.781 -0.1040 -0.8468  0.0589
 6179SOL    HW129999   3.771   4.198   2.850  1.2157 -1.1191  1.3123
 6179SOL    HW230000   3.890   4.129   2.808 -0.0898 -0.5458  0.8692
 6180SOL     OW30001   1.358   0.017   1.358  0.5377  0.0016 -0.1994
 6180SOL    HW130002   1.310   4.675   1.407  0.8358 -0.9399 -1.1610
 6180SOL    HW230003   1.302   0.029   1.281  1.1853 -3.3036 -1.1751
 6181SOL     OW30004   1.425   3.538  12.553 -0.3139 -0.2214 -0.1166
 6181SOL    HW130005   1.461   3.625  12.535 -0.2219  0.2502  2.3073
 6181SOL    HW230006   1.333   3.565  12.550  0.0639  1.1347  0.7459
 6182SOL     OW30007   0.844   4.489   6.453 -0.1645  0.0320  0.4937
 6182SOL    HW130008   0.776   4.547   6.487 -0.2174 -0.1100  0.6313
 6182SOL    HW230009   0.857   4.539   6.373 -3.3259  0.6680  0.3768
 6183SOL     OW30010   4.291   4.337  16.190 -0.0130  0.4346  0.8586
 6183SOL    HW130011   4.214   4.323  16.246 -0.4404  0.5260  0.2899
 6183SOL    HW230012   4.350   4.272  16.229 -0.5699 -0.6625 -0.1670
 6184SOL     OW30013   1.172   3.078   7.118  0.0433 -0.2339  0.1888
 6184SOL    HW130014   1.126   3.052   7.039 -0.9722 -0.8569  0.9944
 6184SOL    HW230015   1.194   2.992   7.152  0.5267  0.5486  1.8667
 6185SOL     OW30016   2.442   2.372   9.899  0.3710  0.2900 -0.2187
 6185SOL    HW130017   2.350   2.380   9.872 -0.3552 -0.3417  2.0888
 6185SOL    HW230018   2.442   2.416   9.984  0.8301 -1.6047  0.7472
 6186SOL     OW30019   0.066   4.493   1.878  0.3644  0.2772  0.6016
 6186SOL    HW130020   0.124   4.509   1.804  0.5618 -2.5286  0.1619
 6186SOL    HW230021   0.037   4.583   1.895  1.4632  0.8858 -0.7029
 6187SOL     OW30022   0.542   3.173   6.100 -0.5105  0.3669  0.3865
 6187SOL    HW130023   0.505   3.085   6.108 -0.2458  0.2200 -0.0142
 6187SOL    HW230024   0.565   3.173   6.007  2.3176 -1.9922  1.0897
 6188SOL     OW30025   0.761   0.554   2.064  0.1665  0.2054  0.0508
 6188SOL    HW130026   0.766   0.649   2.078  1.8278 -0.3213  3.0799
 6188SOL    HW230027   0.854   0.531   2.067  0.5171  1.9184  2.1933
 6189SOL     OW30028   3.539   4.102   5.127  0.1191  0.1203  0.0246
 6189SOL    HW130029   3.471   4.162   5.158 -0.0211 -0.5770  1.0968
 6189SOL    HW230030   3.548   4.052   5.209 -1.2854  0.0656  0.1376
 6190SOL     OW30031   4.263   3.224   3.517 -0.0963 -0.2648  0.2145
 6190SOL    HW130032   4.232   3.253   3.603 -0.7824 -0.5892  0.0733
 6190SOL    HW230033   4.349   3.185   3.536 -0.2786 -0.0377  1.5034
 6191SOL     OW30034   3.118   3.389  13.414 -0.0902 -0.3732 -0.7365
 6191SOL    HW130035   3.030   3.359  13.391 -0.5481  1.3106 -1.1640
 6191SOL    HW230036   3.102   3.459  13.478 -2.7277 -1.7650  0.1631
 6192SOL     OW30037   1.251   2.276  17.180 -0.0872  0.3056 -0.0025
 6192SOL    HW130038   1.235   2.197  17.129 -0.6467  0.2723  0.2259
 6192SOL    HW230039   1.293   2.331  17.113  2.0393  0.5957  1.5536
 6193SOL     OW30040   0.664   1.973   4.573  0.2622 -0.0169 -0.0173
 6193SOL    HW130041   0.748   1.965   4.617  0.3908 -0.8199 -0.3946
 6193SOL    HW230042   0.610   2.004   4.646 -1.1773 -0.4053 -0.9272
 6194SOL     OW30043   4.517   2.648   3.574 -0.1238 -0.1763  0.3339
 6194SOL    HW130044   4.586   2.688   3.627  1.1866 -1.2169 -0.5920
 6194SOL    HW230045   4.563   2.649   3.490 -1.4393  3.5331 -0.3547
 6195SOL     OW30046   2.826   3.287   7.406  0.1054 -0.5446 -0.3414
 6195SOL    HW130047   2.733   3.271   7.389  0.0516 -0.6417  0.0438
 6195SOL    HW230048   2.829   3.282   7.502  1.5347  0.1265 -0.3496
 6196SOL     OW30049   1.151   0.107   6.124 -0.1457  0.7458  0.2836
 6196SOL    HW130050   1.238   0.087   6.159 -0.0891  0.3782 -0.0647
 6196SOL    HW230051   1.126   0.017   6.101 -2.5871  1.2754  0.9024
 6197SOL     OW30052   1.423   1.856   8.099  0.3733  0.4346 -1.3429
 6197SOL    HW130053   1.462   1.928   8.149  0.3246 -0.1297 -0.4797
 6197SOL    HW230054   1.494   1.800   8.067 -0.1694 -1.5422  0.8957
 6198SOL     OW30055   2.917   2.202   6.634  0.0657  0.5369  0.2874
 6198SOL    HW130056   2.848   2.248   6.682 -0.0599 -1.0264  1.5900
 6198SOL    HW230057   2.864   2.131   6.597 -0.6216  0.8085  0.7426
 6199SOL     OW30058   1.719   4.722   1.820  0.5818  0.0824 -0.5300
 6199SOL    HW130059   1.756   0.071   1.769 -0.6176 -0.1694 -1.7573
 6199SOL    HW230060   1.662   0.048   1.878  1.5461  1.0302 -0.3846
 6200SOL     OW30061   0.739   3.439  11.193  0.0999 -0.0138  0.6999
 6200SOL    HW130062   0.785   3.513  11.154  0.6230 -0.7234 -0.0399
 6200SOL    HW230063   0.812   3.379  11.204 -0.3217 -0.8723 -1.0913
 6201SOL     OW30064   0.184   4.326   4.683 -0.0440 -0.0610  0.5405
 6201SOL    HW130065   0.096   4.304   4.715 -0.6614  2.3883  0.5052
 6201SOL    HW230066   0.195   4.259   4.616 -2.1056 -0.7137  0.8685
 6202SOL     OW30067   3.209   0.880   0.683  0.1340 -0.4818 -0.0304
 6202SOL    HW130068   3.211   0.787   0.705  0.0728 -0.4744  0.0077
 6202SOL    HW230069   3.298   0.914   0.691  0.0962 -0.4186  0.1221
 6203SOL     OW30070   4.340   0.985   8.988  0.6375 -0.6326  0.0424
 6203SOL    HW130071   4.316   1.060   9.043  1.7170  1.1433 -1.8887
 6203SOL    HW230072   4.293   0.913   9.029 -1.0301  1.3290  1.5648
 6204SOL     OW30073   2.018   3.334   5.876 -0.6010  0.0597 -0.0267
 6204SOL    HW130074   2.055   3.247   5.892  1.2639  0.6288 -1.1711
 6204SOL    HW230075   1.949   3.344   5.941  1.2416 -0.7677  2.0690
 6205SOL     OW30076   4.672   0.960   2.641  0.9900  0.1589  0.4264
 6205SOL    HW130077   4.688   1.011   2.562  2.6647  1.7105  1.7579
 6205SOL    HW230078   4.706   1.029   2.698  0.2088 -1.1834  2.5338
 6206SOL     OW30079   1.366   0.401  15.490  0.0228 -0.4980 -0.0275
 6206SOL    HW130080   1.362   0.414  15.395  0.8349  1.1469  0.1819
 6206SOL    HW230081   1.454   0.365  15.503 -0.3067 -1.3971 -0.2402
 6207SOL     OW30082   3.182   3.324   0.896  0.3468  0.4823 -0.4299
 6207SOL    HW130083   3.239   3.361   0.963 -0.8500 -0.6909  1.2551
 6207SOL    HW230084   3.239   3.276   0.836 -1.0702 -2.0658  0.2616
 6208SOL     OW30085   2.613   1.272   3.454  0.4789  0.1329  0.6485
 6208SOL    HW130086   2.527   1.296   3.420  0.7200  1.0018  0.6457
 6208SOL    HW230087   2.658   1.352   3.428 -1.7249  1.8936  2.1859
 6209SOL     OW30088   3.429   0.658  10.908 -0.1794  0.5320  0.2067
 6209SOL    HW130089   3.376   0.581  10.927 -0.4864  1.1303  1.8151
 6209SOL    HW230090   3.508   0.610  10.883 -2.0260 -1.4439 -1.8455
 6210SOL     OW30091   3.600   4.558   3.832 -0.1832 -0.2591  0.0952
 6210SOL    HW130092   3.639   4.492   3.774  0.1355 -0.4684  0.5538
 6210SOL    HW230093   3.673   4.619   3.835  0.4186 -0.9692 -0.2945
 6211SOL     OW30094   2.461   1.561   8.243  0.4036 -0.8301  0.5252
 6211SOL    HW130095   2.475   1.616   8.320 -0.3609 -0.1251  0.1609
 6211SOL    HW230096   2.494   1.474   8.266  0.1030 -0.7846  1.1270
 6212SOL     OW30097   2.002   0.720   2.947 -0.1406 -0.0912 -0.5062
 6212SOL    HW130098   2.081   0.772   2.935 -1.7322  2.8449  1.8375
 6212SOL    HW230099   2.039   0.658   3.010 -0.7926  1.8657  1.8122
 6213SOL     OW30100   2.183   1.201  16.479  0.5196 -0.0979 -0.2025
 6213SOL    HW130101   2.257   1.201  16.540 -0.0926  0.9049  0.5377
 6213SOL    HW230102   2.215   1.137  16.415  0.5161 -0.6874  0.3896
 6214SOL     OW30103   3.497   0.805   3.965  0.1201 -0.1967 -0.1545
 6214SOL    HW130104   3.584   0.773   3.988  0.3569  0.1597 -0.5445
 6214SOL    HW230105   3.518   0.871   3.899 -1.1729  0.5497  0.1879
 6215SOL     OW30106   4.200   0.060   7.116  0.0075  0.3221 -0.2213
 6215SOL    HW130107   4.267   4.717   7.128 -0.4394 -0.6173 -3.0221
 6215SOL    HW230108   4.129   0.030   7.173 -0.1723 -2.1093 -1.7051
 6216SOL     OW30109   3.207   3.285   1.352  0.4408 -0.2328  0.0780
 6216SOL    HW130110   3.144   3.355   1.331  1.1966  0.4525  0.0864
 6216SOL    HW230111   3.146   3.232   1.403  0.6308 -1.8666 -1.3893
 6217SOL     OW30112   1.786   1.368   3.099 -0.4350  0.2199  0.0370
 6217SOL    HW130113   1.791   1.319   3.181 -2.2870 -1.2779 -0.7304
 6217SOL    HW230114   1.806   1.451   3.142  0.9057  0.3018 -0.7390
 6218SOL     OW30115   3.453   3.076   3.110 -0.4910 -0.1447 -0.6008
 6218SOL    HW130116   3.438   3.169   3.097 -2.6528 -0.4070  0.1199
 6218SOL    HW230117   3.465   3.043   3.021  0.1465 -2.3106  0.2693
 6219SOL     OW30118   1.669   2.183  10.712 -0.3860  0.0356  1.0591
 6219SOL    HW130119   1.729   2.243  10.668  0.1500 -1.4986 -0.3277
 6219SOL    HW230120   1.585   2.194  10.668  0.3529 -1.3605 -0.7179
 6220SOL     OW30121   2.228   0.219   6.234 -0.2293 -0.6567 -0.2226
 6220SOL    HW130122   2.316   0.257   6.232 -0.9401  1.0206  0.4512
 6220SOL    HW230123   2.188   0.255   6.155  0.6147  0.0028 -0.3450
 6221SOL     OW30124   4.449   1.320   5.701  0.0484 -0.7219 -0.2464
 6221SOL    HW130125   4.491   1.236   5.722 -0.5528 -0.8072  0.6356
 6221SOL    HW230126   4.511   1.373   5.752 -0.7624 -0.6999  0.7145
 6222SOL     OW30127   0.112   4.172   7.825  0.2408 -0.7097 -0.0246
 6222SOL    HW130128   0.031   4.220   7.809  0.0284 -1.6484 -1.7971
 6222SOL    HW230129   0.138   4.144   7.737  0.6905 -0.8820  0.1599
 6223SOL     OW30130   4.656   0.153   5.143  0.2011 -0.0520  0.1547
 6223SOL    HW130131   4.669   0.070   5.190  1.7801  0.0136 -0.1510
 6223SOL    HW230132   4.571   0.147   5.099  0.2811  0.3923 -0.0564
 6224SOL     OW30133   2.462   1.609   4.677 -0.0697 -0.0114  0.5259
 6224SOL    HW130134   2.471   1.579   4.767 -1.1472 -2.8699 -0.3098
 6224SOL    HW230135   2.555   1.596   4.657  0.1636  1.6195  0.5855
 6225SOL     OW30136   3.170   0.632  15.966 -0.0411  0.2096 -0.1667
 6225SOL    HW130137   3.127   0.628  15.881 -0.9053  1.0765  0.2297
 6225SOL    HW230138   3.172   0.728  15.967 -0.3624  0.2206 -0.7857
 6226SOL     OW30139   4.496   3.005  15.008  0.1103  0.3071 -0.0701
 6226SOL    HW130140   4.516   2.948  14.934  1.4146 -0.0116  0.5188
 6226SOL    HW230141   4.551   3.078  14.981  2.1012 -0.7927  1.0004
 6227SOL     OW30142   1.650   4.013  11.766  0.1293  0.2097 -0.3596
 6227SOL    HW130143   1.686   3.927  11.745  1.5343  0.6145  0.3789
 6227SOL    HW230144   1.713   4.080  11.739  2.0350 -1.5052 -0.1348
 6228SOL     OW30145   2.607   3.196   6.950  0.2613  0.4930 -0.4113
 6228SOL    HW130146   2.605   3.240   7.035 -0.5316 -0.9348  0.3021
 6228SOL    HW230147   2.512   3.191   6.945  0.3210 -1.1257  0.0546
 6229SOL     OW30148   3.529   3.025   8.893 -0.3759 -0.3011 -0.4034
 6229SOL    HW130149   3.612   2.979   8.876 -0.0278  0.5144 -0.9176
 6229SOL    HW230150   3.539   3.107   8.845  1.5307 -0.4162 -0.2079
 6230SOL     OW30151   1.151   2.227   7.878  0.4759 -0.1844 -0.1872
 6230SOL    HW130152   1.233   2.179   7.880  0.8355  0.4522  0.2410
 6230SOL    HW230153   1.139   2.254   7.787 -1.3231  1.5466  0.5569
 6231SOL     OW30154   0.053   4.639  13.582  0.2466 -0.0997  0.1305
 6231SOL    HW130155   0.002   4.621  13.503 -2.1656  1.4855  1.3400
 6231SOL    HW230156   0.058   4.554  13.625  1.0049 -0.9745 -1.6550
 6232SOL     OW30157   3.560   1.779   0.833 -0.5137 -0.3828  0.5038
 6232SOL    HW130158   3.645   1.751   0.800 -0.3520 -0.2124  0.7777
 6232SOL    HW230159   3.558   1.742   0.921  0.2507 -0.8852  0.3121
 6233SOL     OW30160   1.692   0.044   4.471 -0.3650  0.2644 -0.4391
 6233SOL    HW130161   1.660   4.678   4.481 -1.6820  0.5951 -1.7158
 6233SOL    HW230162   1.613   0.084   4.435 -1.2178 -0.4461  0.6333
 6234SOL     OW30163   3.042   3.226  13.091 -0.1101 -0.2972  0.0966
 6234SOL    HW130164   2.988   3.247  13.167 -0.2087 -1.8406  0.4484
 6234SOL    HW230165   2.981   3.221  13.018  0.0487  1.2782 -0.1449
 6235SOL     OW30166   0.164   3.029   5.570  0.3195 -0.0944  0.0770
 6235SOL    HW130167   0.126   2.941   5.577  0.3547 -0.1369 -0.2480
 6235SOL    HW230168   0.095   3.076   5.524 -0.2767 -2.3571 -1.3551
 6236SOL     OW30169   4.056   2.873   0.904 -0.4528  0.0172  0.0363
 6236SOL    HW130170   4.041   2.928   0.981  0.7881  0.0203  0.2846
 6236SOL    HW230171   3.971   2.879   0.862  0.5875  0.9395 -1.9087
 6237SOL     OW30172   4.241   4.633   4.667  0.1864  0.3334  0.1985
 6237SOL    HW130173   4.209   4.564   4.725 -0.5671  0.7663  0.2926
 6237SOL    HW230174   4.161   4.685   4.654  0.2860  0.3789 -0.2441
 6238SOL     OW30175   0.060   1.156   0.619  0.4934 -0.1900  0.0833
 6238SOL    HW130176   0.025   1.090   0.679 -0.5889  0.4518  0.1699
 6238SOL    HW230177   0.062   1.100   0.542  0.8551  0.1689 -0.1671
 6239SOL     OW30178   2.729   4.401  10.525 -0.2138  0.1283  0.1745
 6239SOL    HW130179   2.682   4.388  10.442 -0.1622  0.3864  0.1054
 6239SOL    HW230180   2.686   4.476  10.566 -2.2597 -0.5039 -0.8110
 6240SOL     OW30181   1.245   1.243   8.944  0.2780  0.0792 -0.1306
 6240SOL    HW130182   1.266   1.150   8.949  2.5997  0.4652 -2.6295
 6240SOL    HW230183   1.202   1.252   9.029  1.4009  0.3271  0.4220
 6241SOL     OW30184   3.111   2.873   4.695  0.0081  0.3315 -0.3353
 6241SOL    HW130185   3.107   2.791   4.744 -0.2430 -1.1004 -2.7538
 6241SOL    HW230186   3.016   2.875   4.683 -0.1928 -1.0778  1.0641
 6242SOL     OW30187   3.253   3.606   6.455  0.8888 -0.1442 -0.2869
 6242SOL    HW130188   3.332   3.553   6.446 -0.5767 -2.5478  1.0680
 6242SOL    HW230189   3.293   3.676   6.507  0.4594  0.3300 -0.5974
 6243SOL     OW30190   4.299   3.561   6.689 -0.8924  0.8805 -0.5306
 6243SOL    HW130191   4.264   3.499   6.625  1.1523  0.0660 -0.8469
 6243SOL    HW230192   4.263   3.539   6.774 -0.7580 -0.0536 -0.7222
 6244SOL     OW30193   3.818   2.652  11.135 -0.0592  0.3305 -0.5337
 6244SOL    HW130194   3.753   2.687  11.197  1.1439  1.8162 -0.1106
 6244SOL    HW230195   3.904   2.645  11.178  0.1001  0.8498 -0.7634
 6245SOL     OW30196   1.322   2.294   9.286 -0.4951  0.0294 -0.3550
 6245SOL    HW130197   1.402   2.262   9.327 -0.8274  1.2196  1.2103
 6245SOL    HW230198   1.317   2.234   9.212 -3.3317  0.5569 -0.6017
 6246SOL     OW30199   4.393   2.380   9.754  0.6301 -0.5080 -0.5765
 6246SOL    HW130200   4.366   2.297   9.714 -0.4787 -0.3920 -0.0849
 6246SOL    HW230201   4.326   2.439   9.719  0.7305  1.0658  1.9615
 6247SOL     OW30202   2.261   2.921   6.523 -0.1721 -0.0141  0.3517
 6247SOL    HW130203   2.249   2.877   6.607 -1.5148  0.7254  0.5413
 6247SOL    HW230204   2.292   3.008   6.548  1.2824 -0.0940 -1.2274
 6248SOL     OW30205   2.252   1.097   9.363  0.1862 -0.4112  0.3279
 6248SOL    HW130206   2.299   1.131   9.286 -1.7848  0.6474 -0.4053
 6248SOL    HW230207   2.323   1.096   9.427 -0.4344 -1.6020  0.9906
 6249SOL     OW30208   0.404   3.724  10.579 -0.1249 -0.2517  0.3140
 6249SOL    HW130209   0.334   3.777  10.618 -1.0790  1.3014 -3.4386
 6249SOL    HW230210   0.343   3.653  10.560  1.2301 -1.7737  1.7307
 6250SOL     OW30211   3.832   4.615   7.815 -0.0043 -0.3482 -0.3301
 6250SOL    HW130212   3.842   4.704   7.848  2.6638 -0.7229 -0.1499
 6250SOL    HW230213   3.753   4.594   7.866 -0.4106  3.5407  0.6191
 6251SOL     OW30214   0.010   3.349   2.029 -0.3498  0.7417 -0.2876
 6251SOL    HW130215   0.060   3.348   1.947 -2.4015  2.9176 -1.5683
 6251SOL    HW230216   0.078   3.372   2.092 -2.6978 -0.9500  2.8494
 6252SOL     OW30217   1.232   3.519   8.124  0.0659  0.2593  0.1201
 6252SOL    HW130218   1.138   3.511   8.113  0.2214 -1.0102 -0.2103
 6252SOL    HW230219   1.259   3.428   8.133  2.7476  0.8089 -2.0406
 6253SOL     OW30220   4.524   1.877   2.118 -0.4570 -0.1242 -1.1062
 6253SOL    HW130221   4.493   1.955   2.072  1.0107  0.4567 -1.1210
 6253SOL    HW230222   4.616   1.905   2.118 -0.1964 -1.0100  0.6635
 6254SOL     OW30223   0.074   2.135  11.248  0.6064 -0.1533  0.0590
 6254SOL    HW130224   0.021   2.156  11.325 -0.0826 -2.0592  0.0962
 6254SOL    HW230225   0.105   2.047  11.267 -3.1222 -1.8380 -1.6238
 6255SOL     OW30226   1.526   2.832   6.723  0.3116 -0.0028 -0.0845
 6255SOL    HW130227   1.541   2.924   6.744  0.0850  0.5451 -2.3153
 6255SOL    HW230228   1.530   2.845   6.628  1.2846 -0.6777 -0.1391
 6256SOL     OW30229   1.942   3.263  11.880 -0.5578  0.5661  0.2110
 6256SOL    HW130230   1.999   3.340  11.885 -1.4353  1.0472  2.6380
 6256SOL    HW230231   1.977   3.219  11.802  2.3259  0.1128  1.7485
 6257SOL     OW30232   0.387   3.070   9.113  0.2990  0.5125 -0.1673
 6257SOL    HW130233   0.428   3.154   9.090 -1.0828  1.0218 -0.7648
 6257SOL    HW230234   0.462   3.022   9.148  0.6121  1.4446  0.4491
 6258SOL     OW30235   0.902   3.181   9.051 -0.3790 -0.0118  0.0782
 6258SOL    HW130236   0.921   3.252   9.112 -1.6628  0.2802  0.1330
 6258SOL    HW230237   0.959   3.111   9.084  0.5075 -0.2729 -2.0457
 6259SOL     OW30238   2.061   2.080   8.253 -0.2669  0.0516 -0.5915
 6259SOL    HW130239   2.083   2.003   8.306 -0.2165  1.2053  1.0631
 6259SOL    HW230240   1.996   2.125   8.306 -1.0153  1.5492 -2.7903
 6260SOL     OW30241   2.261   1.846   9.686 -0.4890 -0.2585 -0.7677
 6260SOL    HW130242   2.222   1.837   9.599 -0.4931  1.0267 -0.9021
 6260SOL    HW230243   2.192   1.888   9.738 -0.8091 -0.7413 -0.8067
 6261SOL     OW30244   3.721   3.707  10.745 -0.0434  0.2179 -0.0506
 6261SOL    HW130245   3.676   3.792  10.743 -0.6698 -0.1297 -0.6521
 6261SOL    HW230246   3.649   3.655  10.780 -0.6310  0.4468 -0.9235
 6262SOL     OW30247   1.696   3.181   4.675  0.8257  0.3399  0.0743
 6262SOL    HW130248   1.736   3.095   4.688 -0.4934 -0.5041 -1.4779
 6262SOL    HW230249   1.668   3.195   4.765  0.7944  2.3810 -0.2610
 6263SOL     OW30250   4.622   2.147   9.315 -0.4692  0.2594 -0.0929
 6263SOL    HW130251   4.682   2.216   9.345  0.1891 -0.5227  0.3824
 6263SOL    HW230252   4.541   2.170   9.361 -0.9017  1.0726 -1.2813
 6264SOL     OW30253   1.088   1.200   0.334 -0.3279 -0.0525  0.1631
 6264SOL    HW130254   1.102   1.118   0.382 -2.0783 -1.1941 -1.2885
 6264SOL    HW230255   1.100   1.172   0.243 -1.2732  1.2599 -0.3514
 6265SOL     OW30256   1.337   0.899   9.431  0.0280 -0.7593  0.2446
 6265SOL    HW130257   1.382   0.860   9.506 -0.6886 -2.4568 -0.1957
 6265SOL    HW230258   1.249   0.897   9.469  0.4678 -0.5906  1.2737
 6266SOL     OW30259   1.344   2.787   6.945  0.3261  0.5591 -0.2082
 6266SOL    HW130260   1.398   2.839   6.887 -0.3774 -0.2031 -1.5426
 6266SOL    HW230261   1.345   2.705   6.897  0.9449 -0.6706  1.8815
 6267SOL     OW30262   2.095   1.687  15.213  0.3937  0.3090 -0.6288
 6267SOL    HW130263   2.067   1.778  15.206 -1.4477 -0.1080  1.4431
 6267SOL    HW230264   2.035   1.663  15.284  1.0498  0.3328 -0.0718
 6268SOL     OW30265   1.774   1.288   3.377  0.6150 -0.0119 -1.0817
 6268SOL    HW130266   1.725   1.286   3.460  2.6566  2.8584  0.1670
 6268SOL    HW230267   1.791   1.194   3.371  2.6489  0.3281 -0.4615
 6269SOL     OW30268   2.218   4.493  11.740 -0.2825 -0.2438  0.0634
 6269SOL    HW130269   2.293   4.456  11.694 -0.3977  0.7217 -0.9074
 6269SOL    HW230270   2.203   4.579  11.702  1.1673 -0.1838 -0.3577
 6270SOL     OW30271   3.996   0.436   8.049  0.1155  0.4808  0.5445
 6270SOL    HW130272   4.018   0.424   8.142  0.7660 -2.3166  0.0339
 6270SOL    HW230273   3.901   0.431   8.058  0.0096  0.2123 -0.7097
 6271SOL     OW30274   3.370   1.337  16.520 -0.1663  0.4402 -0.0432
 6271SOL    HW130275   3.285   1.298  16.501 -0.3108  2.2663 -2.9999
 6271SOL    HW230276   3.346   1.429  16.532 -0.2222  0.4376 -0.1366
 6272SOL     OW30277   2.909   1.511   9.104  0.3397 -0.6430  0.2137
 6272SOL    HW130278   2.887   1.508   9.011  1.8394 -1.2289 -0.1266
 6272SOL    HW230279   2.839   1.458   9.143  0.6046  0.2718  1.9048
 6273SOL     OW30280   3.162   2.109   2.983 -0.0730 -0.3395 -0.1301
 6273SOL    HW130281   3.256   2.101   2.999 -0.0678 -2.6343 -1.3041
 6273SOL    HW230282   3.141   2.092   3.075 -0.0873  0.3229 -0.0089
 6274SOL     OW30283   2.428   3.159  13.855 -0.3586  0.2651 -0.3342
 6274SOL    HW130284   2.403   3.137  13.945 -0.5112  1.2944 -0.1228
 6274SOL    HW230285   2.440   3.252  13.875 -0.5497  0.3686 -0.7053
 6275SOL     OW30286   3.038   2.489  13.180  0.0193 -0.7958  0.1679
 6275SOL    HW130287   3.012   2.402  13.149 -0.0050 -0.8252  0.2691
 6275SOL    HW230288   2.980   2.535  13.120 -0.2860 -1.2228  0.1402
 6276SOL     OW30289   1.465   4.237   5.065  0.1318 -0.0376  0.0825
 6276SOL    HW130290   1.523   4.248   4.990 -1.9852 -1.2076 -1.7330
 6276SOL    HW230291   1.511   4.281   5.136 -0.4826  1.7061 -0.5814
 6277SOL     OW30292   3.440   2.863   5.819 -0.6997 -0.1490  0.2977
 6277SOL    HW130293   3.516   2.894   5.770 -0.7385  1.1709  1.0972
 6277SOL    HW230294   3.457   2.904   5.904 -0.3240  0.8406 -0.2543
 6278SOL     OW30295   1.068   0.563   6.940  0.3109  0.3576 -0.0353
 6278SOL    HW130296   1.042   0.595   6.853 -5.0789 -0.7991  1.1610
 6278SOL    HW230297   1.145   0.620   6.948 -0.0148  0.8127 -0.1708
 6279SOL     OW30298   0.804   0.011  10.861 -0.0713 -0.6412  0.0790
 6279SOL    HW130299   0.788   0.010  10.955  0.0131 -1.2986  0.0914
 6279SOL    HW230300   0.852   4.652  10.856  0.2333 -0.3983 -1.0583
 6280SOL     OW30301   3.441   4.369   6.317  0.0909 -0.0570  0.1665
 6280SOL    HW130302   3.500   4.300   6.348 -0.0315  0.0493  0.6256
 6280SOL    HW230303   3.467   4.442   6.372  0.9402  0.3989 -0.8372
 6281SOL     OW30304   2.940   1.507   2.972  0.3540  0.1881 -0.0161
 6281SOL    HW130305   2.954   1.419   3.007  0.8613  0.0483 -0.5646
 6281SOL    HW230306   2.855   1.529   3.012  0.5411  2.2383 -0.7467
 6282SOL     OW30307   1.187   1.627  12.633 -0.6029 -0.9374 -0.3423
 6282SOL    HW130308   1.237   1.618  12.714  0.6674  1.4227 -0.8773
 6282SOL    HW230309   1.223   1.554  12.583 -0.1374 -0.6427 -0.4322
 6283SOL     OW30310   2.816   4.000  16.639 -0.5096 -0.5137  0.1148
 6283SOL    HW130311   2.735   3.977  16.684 -0.0243  0.6179  1.5789
 6283SOL    HW230312   2.874   4.018  16.712 -2.3576 -2.9853  2.1665
 6284SOL     OW30313   2.182   1.006  10.175 -0.2669  0.1551 -0.9411
 6284SOL    HW130314   2.163   1.068  10.105 -0.8176  1.1248  0.0729
 6284SOL    HW230315   2.193   0.930  10.117 -0.9003 -0.3548 -0.4052
 6285SOL     OW30316   2.564   3.826  10.867 -0.0741 -0.0756  0.3220
 6285SOL    HW130317   2.604   3.850  10.950 -0.3744  0.7155  0.2342
 6285SOL    HW230318   2.622   3.856  10.797  1.3437 -1.1599  1.0461
 6286SOL     OW30319   2.305   2.270   7.304 -0.2937  0.0344 -0.6549
 6286SOL    HW130320   2.391   2.306   7.286 -0.8801  2.2239  0.8961
 6286SOL    HW230321   2.323   2.238   7.393  0.5095  0.0361 -0.8237
 6287SOL     OW30322   3.284   2.573   7.959  0.4972 -0.0043  0.5379
 6287SOL    HW130323   3.272   2.555   8.053  1.3850  1.5839  0.9589
 6287SOL    HW230324   3.361   2.520   7.941 -0.3680 -1.0113 -0.1766
 6288SOL     OW30325   3.399   4.294  17.178 -0.3958 -0.2009 -0.3555
 6288SOL    HW130326   3.427   4.211  17.216  0.7965 -1.0457 -3.1044
 6288SOL    HW230327   3.399   4.270  17.086  0.9414  0.2283 -0.4799
 6289SOL     OW30328   3.250   3.508   8.975 -0.8398 -0.0823 -0.0680
 6289SOL    HW130329   3.340   3.490   8.946 -0.1382  1.8877  0.8631
 6289SOL    HW230330   3.242   3.597   8.939  3.2744  1.5910  3.1582
 6290SOL     OW30331   1.294   1.090   3.543  0.5094  0.2050 -0.1675
 6290SOL    HW130332   1.332   1.167   3.585 -0.1852  0.9271 -0.8489
 6290SOL    HW230333   1.202   1.118   3.536  0.0525 -1.0608  0.7732
 6291SOL     OW30334   0.419   1.267   3.674 -0.1234 -0.4856  0.2399
 6291SOL    HW130335   0.365   1.342   3.698 -0.1297 -0.9249  1.6148
 6291SOL    HW230336   0.507   1.295   3.697 -0.2244  1.7915 -2.1896
 6292SOL     OW30337   3.988   1.241   0.349 -0.2145 -0.0338 -0.4859
 6292SOL    HW130338   3.994   1.299   0.273 -1.7741  0.6945 -0.0557
 6292SOL    HW230339   4.079   1.229   0.376 -0.8772 -0.0091  1.8430
 6293SOL     OW30340   3.649   2.233  11.003  0.0905 -0.0420 -0.0377
 6293SOL    HW130341   3.671   2.194  10.919  0.9559 -2.8450  1.4922
 6293SOL    HW230342   3.723   2.289  11.029 -0.1048 -1.3282  3.3358
 6294SOL     OW30343   4.121   3.334   5.325 -0.1827  0.1488  0.2989
 6294SOL    HW130344   4.166   3.405   5.279 -1.4433  0.2770 -0.7624
 6294SOL    HW230345   4.168   3.254   5.301  1.1153  1.3472 -1.1665
 6295SOL     OW30346   1.267   0.687   7.376 -0.2262 -0.6262  0.1501
 6295SOL    HW130347   1.299   0.761   7.429  0.3135  0.7378 -2.0739
 6295SOL    HW230348   1.274   0.618   7.442  1.2147 -0.0306  0.6251
 6296SOL     OW30349   2.172   2.981   3.703  0.3670 -0.6094 -0.0353
 6296SOL    HW130350   2.228   2.911   3.737  0.2077 -0.0402  1.3848
 6296SOL    HW230351   2.091   2.980   3.754 -0.3780 -0.9431 -1.2164
 6297SOL     OW30352   1.069   0.098  12.087  0.2888 -0.2091 -0.1094
 6297SOL    HW130353   1.104   0.073  12.173 -0.8490 -0.1764  0.3599
 6297SOL    HW230354   1.106   0.028  12.032 -0.0508 -0.1834 -0.3733
 6298SOL     OW30355   2.194   1.321   9.156  0.0383 -0.3286 -0.2847
 6298SOL    HW130356   2.254   1.257   9.117 -0.5174  0.5520 -2.5853
 6298SOL    HW230357   2.254   1.396   9.155 -2.2376  1.4895 -0.3753
 6299SOL     OW30358   1.030   0.620   7.811 -0.0642  0.6189 -0.6325
 6299SOL    HW130359   0.990   0.629   7.897  0.7150  0.5532 -0.2670
 6299SOL    HW230360   1.005   0.531   7.784 -0.3505  0.1610  1.1368
 6300SOL     OW30361   4.332   3.423   4.857  0.3239  0.4477 -0.7084
 6300SOL    HW130362   4.415   3.463   4.833  1.3042 -0.4506  1.0986
 6300SOL    HW230363   4.311   3.386   4.772 -0.7422  1.5202 -0.8904
 6301SOL     OW30364   2.932   4.059   8.238  0.6235 -0.1355  0.1521
 6301SOL    HW130365   2.987   4.072   8.316  0.0397 -1.2334  0.7418
 6301SOL    HW230366   2.901   3.971   8.256  1.0899 -0.4097 -0.3822
 6302SOL     OW30367   1.386   1.313   5.609 -0.7712  0.3333 -0.2688
 6302SOL    HW130368   1.456   1.377   5.592 -1.5028  0.6381 -2.1336
 6302SOL    HW230369   1.344   1.294   5.525 -0.5468 -1.0176 -0.0719
 6303SOL     OW30370   3.211   0.185   7.325  0.4927 -0.0755  0.4921
 6303SOL    HW130371   3.238   0.094   7.339  2.9222  0.6899  0.6974
 6303SOL    HW230372   3.155   0.174   7.248  0.9426  1.5490 -0.0694
 6304SOL     OW30373   3.332   2.744   2.304  0.7017 -0.3613  0.1509
 6304SOL    HW130374   3.370   2.760   2.391 -1.3070 -0.1404  0.9708
 6304SOL    HW230375   3.241   2.731   2.331 -0.0311 -0.3692 -2.3348
 6305SOL     OW30376   4.714   3.293   9.451  0.1366  0.1323  0.1275
 6305SOL    HW130377   0.014   3.219   9.395  0.1210 -0.2211  0.5867
 6305SOL    HW230378   0.027   3.262   9.534  0.3190 -0.0175 -0.0094
 6306SOL     OW30379   3.628   2.335   2.562  0.1023 -0.2391 -0.1238
 6306SOL    HW130380   3.578   2.292   2.492 -0.6388 -1.0153  0.8944
 6306SOL    HW230381   3.609   2.425   2.536 -0.1737  0.5146  2.7524
 6307SOL     OW30382   4.097   2.577  11.042 -0.0066 -0.1913 -0.3847
 6307SOL    HW130383   4.086   2.621  11.126 -2.9917 -1.5150 -0.0709
 6307SOL    HW230384   4.184   2.539  11.057  1.5037  2.2445 -2.9610
 6308SOL     OW30385   1.959   0.798   3.314  0.2229 -0.0629 -0.4197
 6308SOL    HW130386   1.883   0.746   3.289 -1.1196  1.1055  1.2862
 6308SOL    HW230387   2.033   0.739   3.295 -0.1590  0.0114 -2.0834
 6309SOL     OW30388   4.592   2.195   6.888 -0.4769  0.5769  0.6691
 6309SOL    HW130389   4.500   2.176   6.907  0.0796 -1.3078  1.4585
 6309SOL    HW230390   4.631   2.108   6.878 -1.3159  0.0772  1.7747
 6310SOL     OW30391   4.210   4.031   6.065  0.1401 -0.0152 -0.1425
 6310SOL    HW130392   4.290   4.041   6.117  0.0160  0.0281  0.0416
 6310SOL    HW230393   4.161   3.970   6.120 -2.0155  1.9362  0.1165
 6311SOL     OW30394   2.503   1.876   4.602  0.1613 -0.1915  0.2074
 6311SOL    HW130395   2.509   1.796   4.653  2.2588 -0.9061 -1.1434
 6311SOL    HW230396   2.551   1.933   4.663  0.8885  1.4651 -1.9161
 6312SOL     OW30397   2.450   0.251   5.165 -0.2997 -0.6883 -0.2846
 6312SOL    HW130398   2.451   0.158   5.186 -0.5771 -0.5176  0.5153
 6312SOL    HW230399   2.358   0.275   5.155  0.3292  2.8610  2.2954
 6313SOL     OW30400   3.305   4.580  13.066 -0.2141 -0.7717  0.1655
 6313SOL    HW130401   3.378   4.581  13.004 -1.7974 -0.3587 -1.7093
 6313SOL    HW230402   3.301   4.486  13.085  0.4975 -0.4292  2.0606
 6314SOL     OW30403   0.931   1.129   6.890  0.1281 -0.1702  0.7396
 6314SOL    HW130404   0.890   1.042   6.894  1.5702 -0.8398  1.1669
 6314SOL    HW230405   0.913   1.148   6.798 -1.5461 -0.9770  0.8934
 6315SOL     OW30406   3.014   2.311   8.450 -0.8259  0.5890 -0.2868
 6315SOL    HW130407   3.045   2.402   8.450  0.6375  0.0862  0.5087
 6315SOL    HW230408   3.018   2.287   8.542 -1.7488 -2.1090 -0.9556
 6316SOL     OW30409   0.631   2.490   1.494 -0.7958  0.3381 -0.2088
 6316SOL    HW130410   0.546   2.461   1.463  0.4853 -1.8646 -1.6589
 6316SOL    HW230411   0.688   2.439   1.437 -2.9064 -1.5434 -0.6387
 6317SOL     OW30412   1.178   4.717  12.307 -0.3596 -0.0604  0.4337
 6317SOL    HW130413   1.263   4.676  12.289  0.1297  1.4773 -0.6596
 6317SOL    HW230414   1.202   0.046  12.383 -0.2331 -1.0774  1.1073
 6318SOL     OW30415   3.702   2.992   4.203  0.0662  0.8098 -0.1575
 6318SOL    HW130416   3.759   3.040   4.143  1.0390 -0.9564 -0.6322
 6318SOL    HW230417   3.696   2.907   4.160 -0.6355  0.9934 -0.4265
 6319SOL     OW30418   0.626   1.490  14.729 -0.2866  0.5781  0.1503
 6319SOL    HW130419   0.617   1.556  14.660 -0.3919 -1.0192 -1.3410
 6319SOL    HW230420   0.603   1.413  14.678  0.5344  1.3052 -1.3233
 6320SOL     OW30421   1.394   3.373   6.441  0.0508  0.2186 -0.1129
 6320SOL    HW130422   1.318   3.381   6.384  0.5089 -1.5332 -0.9561
 6320SOL    HW230423   1.454   3.439   6.407  0.7237 -0.9010 -1.0712
 6321SOL     OW30424   3.453   3.724   5.771 -0.5353  0.3062  0.5551
 6321SOL    HW130425   3.371   3.685   5.803 -0.6858  1.4494  1.5631
 6321SOL    HW230426   3.451   3.803   5.824 -0.4767 -0.1910  1.3096
 6322SOL     OW30427   4.255   1.212   0.411 -0.6749  0.0445 -0.1626
 6322SOL    HW130428   4.340   1.172   0.392 -1.4014 -0.8765 -1.4187
 6322SOL    HW230429   4.285   1.289   0.460  3.3570 -2.5933  1.5142
 6323SOL     OW30430   3.536   2.974  10.221  0.1659 -0.2507 -0.0280
 6323SOL    HW130431   3.492   3.049  10.260  0.0219  0.4012 -1.4162
 6323SOL    HW230432   3.625   2.988  10.254  0.5533  0.2654 -1.2923
 6324SOL     OW30433   1.127   0.604   3.201  0.2538 -0.0499 -0.2256
 6324SOL    HW130434   1.075   0.680   3.226 -1.3838 -0.7754 -1.3772
 6324SOL    HW230435   1.069   0.532   3.228 -1.9359  1.6058 -0.5550
 6325SOL     OW30436   2.240   1.356   3.838  0.2717  0.4557 -0.2089
 6325SOL    HW130437   2.186   1.351   3.759 -1.2576 -0.5882  0.8950
 6325SOL    HW230438   2.292   1.276   3.833  0.4246  0.5258  0.2543
 6326SOL     OW30439   0.300   0.385   5.051 -0.4025  0.6009 -0.3344
 6326SOL    HW130440   0.214   0.412   5.018 -0.9478 -2.6780 -1.6082
 6326SOL    HW230441   0.344   0.465   5.078  2.4173 -0.8524 -0.6787
 6327SOL     OW30442   0.538   4.292   2.536 -0.1525  0.0341  0.7567
 6327SOL    HW130443   0.544   4.352   2.462  0.7577 -1.7040 -0.5743
 6327SOL    HW230444   0.592   4.338   2.600 -1.2495  2.2272  0.0891
 6328SOL     OW30445   3.125   2.064   7.142  0.5240 -0.5818 -0.1653
 6328SOL    HW130446   3.182   2.137   7.165  1.2920 -1.0268 -0.6603
 6328SOL    HW230447   3.177   1.985   7.151  1.1121 -0.0325  1.3741
 6329SOL     OW30448   2.171   3.771   1.724 -0.3147 -0.0804  0.6631
 6329SOL    HW130449   2.188   3.859   1.692 -2.0018 -0.6184 -1.7202
 6329SOL    HW230450   2.083   3.765   1.686 -0.1732 -2.4967  0.7591
 6330SOL     OW30451   0.268   2.128  14.224 -0.1450 -0.1086  0.5714
 6330SOL    HW130452   0.293   2.036  14.215  0.5689  0.3022 -1.6039
 6330SOL    HW230453   0.174   2.127  14.205  0.3453  1.5493 -1.8949
 6331SOL     OW30454   2.490   0.737   5.419  0.6382 -0.4937 -0.2484
 6331SOL    HW130455   2.459   0.799   5.353 -0.7329 -0.5669  0.3152
 6331SOL    HW230456   2.401   0.708   5.442  0.6088  0.0461  0.3073
 6332SOL     OW30457   1.979   3.528  16.383  0.3243  0.4626 -0.1919
 6332SOL    HW130458   2.058   3.570  16.347  0.3215 -1.3737 -2.3188
 6332SOL    HW230459   2.003   3.437  16.364 -0.7522  0.3460 -0.9868
 6333SOL     OW30460   2.782   1.263   8.089 -0.1546 -0.5140 -0.3134
 6333SOL    HW130461   2.807   1.349   8.122 -2.0423  0.0907 -0.4935
 6333SOL    HW230462   2.827   1.268   8.004  2.0867 -0.2755  0.8892
 6334SOL     OW30463   3.574   3.980   3.291  0.1547  0.0530 -0.7338
 6334SOL    HW130464   3.580   3.952   3.382 -0.3381  0.2447 -0.6429
 6334SOL    HW230465   3.663   3.968   3.258  0.3453 -2.4577  0.6615
 6335SOL     OW30466   0.047   2.724  11.097 -0.0266 -0.2111 -0.3699
 6335SOL    HW130467   0.109   2.693  11.031  0.9874 -0.3398  0.6538
 6335SOL    HW230468   0.070   2.817  11.087  2.1066 -0.6679  0.3013
 6336SOL     OW30469   0.635   3.391   4.385 -0.2748  0.0857  0.4538
 6336SOL    HW130470   0.581   3.362   4.312 -0.4705 -0.1008  0.6752
 6336SOL    HW230471   0.646   3.309   4.432  1.8434 -0.4768 -1.0090
 6337SOL     OW30472   1.904   0.931   4.565  0.2164  0.1011  0.9357
 6337SOL    HW130473   1.874   0.921   4.655  0.0806  0.7812  0.9603
 6337SOL    HW230474   1.827   0.970   4.525  1.2765 -0.1871 -1.3716
 6338SOL     OW30475   2.500   4.486  14.601  0.4135 -0.4318  0.1085
 6338SOL    HW130476   2.536   4.476  14.690 -1.2595  0.8671  0.9239
 6338SOL    HW230477   2.586   4.480  14.558  0.7773 -2.0443  1.0585
 6339SOL     OW30478   2.358   1.096   2.798  0.1436 -0.2135  0.2682
 6339SOL    HW130479   2.393   1.047   2.723 -1.6586 -0.3786 -0.4684
 6339SOL    HW230480   2.376   1.037   2.871  2.8464 -1.6018 -1.5081
 6340SOL     OW30481   0.500   4.532  14.258  0.6047 -0.2854 -0.2390
 6340SOL    HW130482   0.530   4.468  14.322 -2.1400 -0.6433  0.6890
 6340SOL    HW230483   0.490   4.468  14.187  0.9912  0.0419 -0.5844
 6341SOL     OW30484   0.343   2.485   8.555  0.5795  0.5807 -1.0491
 6341SOL    HW130485   0.367   2.535   8.633 -1.7783 -1.8660  1.2465
 6341SOL    HW230486   0.252   2.463   8.574  1.4356  0.0261  2.5282
 6342SOL     OW30487   3.200   1.522   3.242  0.3344  0.2215  0.2270
 6342SOL    HW130488   3.133   1.516   3.309 -0.2794  0.6953 -0.3401
 6342SOL    HW230489   3.206   1.427   3.236 -1.6601  0.2127 -1.4340
 6343SOL     OW30490   1.558   3.323  16.835  0.2112  0.0827  0.3955
 6343SOL    HW130491   1.502   3.316  16.912 -0.4652 -0.0434 -0.1082
 6343SOL    HW230492   1.626   3.385  16.863 -1.6238  1.6774  1.3516
 6344SOL     OW30493   4.498   3.597   7.418  0.2503  0.1189 -0.4369
 6344SOL    HW130494   4.496   3.548   7.336 -1.7868 -1.2128  0.4243
 6344SOL    HW230495   4.440   3.666   7.384 -2.2298 -1.0277  1.5002
 6345SOL     OW30496   1.979   3.060   3.868  0.0275 -0.2251 -0.7608
 6345SOL    HW130497   1.910   3.104   3.818 -0.4391 -0.5213 -0.3805
 6345SOL    HW230498   1.934   3.041   3.950 -1.9302 -0.1421 -1.8253
 6346SOL     OW30499   4.235   1.796   7.846  0.5516 -0.2726  0.1239
 6346SOL    HW130500   4.296   1.847   7.792 -1.2767  0.8442 -0.8601
 6346SOL    HW230501   4.157   1.850   7.855  1.1937  0.3360  1.9829
 6347SOL     OW30502   3.010   4.524   1.867 -0.2110  0.9327  0.6382
 6347SOL    HW130503   3.062   4.602   1.881  0.7723  0.2292  0.9022
 6347SOL    HW230504   3.017   4.483   1.953 -0.5718 -1.0565 -0.2627
 6348SOL     OW30505   2.932   4.106  10.897 -0.7759  0.3068  0.4764
 6348SOL    HW130506   2.850   4.147  10.868 -1.6353 -2.2548 -0.7641
 6348SOL    HW230507   2.911   4.014  10.877 -1.6605  0.1192  2.2658
 6349SOL     OW30508   1.923   4.272   4.086  0.9896  0.0540 -0.6135
 6349SOL    HW130509   1.844   4.230   4.117  0.5690  0.8795 -0.5680
 6349SOL    HW230510   1.935   4.339   4.154 -0.3847 -0.2057 -0.1180
 6350SOL     OW30511   2.294   2.456   4.339 -0.0902 -0.0206  0.0038
 6350SOL    HW130512   2.367   2.501   4.382  1.0039 -0.3020 -1.5824
 6350SOL    HW230513   2.303   2.367   4.372  0.6960  0.2626  0.5465
 6351SOL     OW30514   1.564   4.432  11.732  0.2032  0.1963 -0.3512
 6351SOL    HW130515   1.581   4.379  11.654  1.0124 -1.3548  0.8953
 6351SOL    HW230516   1.653   4.447  11.764 -0.3505  1.2918  0.6857
 6352SOL     OW30517   3.398   2.471   7.067  0.0780 -0.7695  0.5530
 6352SOL    HW130518   3.475   2.422   7.038  1.2764  0.7165  1.2275
 6352SOL    HW230519   3.326   2.411   7.050  0.7260 -0.9801 -1.3621
 6353SOL     OW30520   3.002   2.920   3.720  0.6895  0.2710 -0.2154
 6353SOL    HW130521   2.917   2.875   3.714  0.6117  0.2766  0.9993
 6353SOL    HW230522   3.020   2.904   3.812  2.6878  1.1123 -0.4626
 6354SOL     OW30523   0.931   1.018  15.871  0.5099  0.3309 -0.0508
 6354SOL    HW130524   0.884   1.092  15.909  0.2226  0.3817 -0.4943
 6354SOL    HW230525   0.866   0.949  15.890 -0.2951  1.1083  0.0348
 6355SOL     OW30526   0.219   3.212   4.594 -0.2579 -0.1316 -0.5738
 6355SOL    HW130527   0.313   3.213   4.610 -0.7248 -1.7577  2.1668
 6355SOL    HW230528   0.198   3.293   4.642 -2.0941 -0.7880 -0.2660
 6356SOL     OW30529   0.465   0.555   3.371  0.0646  0.0441 -0.1238
 6356SOL    HW130530   0.409   0.613   3.320  0.1315  1.6170  1.5967
 6356SOL    HW230531   0.501   0.621   3.430  1.0860 -0.3095 -0.3572
 6357SOL     OW30532   3.625   4.440  12.605 -0.1878  0.0965  0.2878
 6357SOL    HW130533   3.616   4.349  12.578  0.1291 -0.4210  1.9154
 6357SOL    HW230534   3.708   4.441  12.653 -1.1087  1.3468  1.8483
 6358SOL     OW30535   1.664   4.518  16.039  0.2162 -0.2635 -0.5975
 6358SOL    HW130536   1.643   4.516  16.133 -0.3203 -0.6016 -0.7273
 6358SOL    HW230537   1.742   4.573  16.040  1.0433 -1.4607  0.0756
 6359SOL     OW30538   1.568   3.746   0.151  0.1790  0.2625  0.1718
 6359SOL    HW130539   1.519   3.735   0.070 -0.1210 -1.5736  0.5969
 6359SOL    HW230540   1.598   3.657   0.169  0.1128  0.7487  2.6985
 6360SOL     OW30541   2.210   0.056   4.524 -0.2713  0.0305  0.2636
 6360SOL    HW130542   2.192   0.126   4.587 -1.9047  0.1022 -0.2763
 6360SOL    HW230543   2.286   0.092   4.478 -0.8281  0.6235 -0.1806
 6361SOL     OW30544   3.674   3.637   3.787 -0.0815  0.2672 -0.4031
 6361SOL    HW130545   3.588   3.679   3.780 -0.1807 -0.2297 -2.2821
 6361SOL    HW230546   3.698   3.631   3.694 -0.7031  0.3369 -0.5690
 6362SOL     OW30547   3.382   3.063   3.618 -0.0664  0.3206 -0.0203
 6362SOL    HW130548   3.300   3.110   3.629 -0.7645 -0.5896 -1.3489
 6362SOL    HW230549   3.356   2.976   3.648 -0.6792 -0.4439 -2.7365
 6363SOL     OW30550   4.218   2.655  17.230  0.1908 -0.7835 -0.2897
 6363SOL    HW130551   4.281   2.727  17.227  0.1151 -0.7100 -0.0370
 6363SOL    HW230552   4.147   2.686  17.175  0.7110 -0.5649 -0.8422
 6364SOL     OW30553   3.828   1.291  11.153  0.0302  0.2708  0.0426
 6364SOL    HW130554   3.835   1.268  11.246 -0.0711  2.7302  0.6573
 6364SOL    HW230555   3.754   1.234  11.130  1.5479 -1.9356  0.7217
 6365SOL     OW30556   1.822   0.169   4.682  0.4721 -0.3083 -0.0546
 6365SOL    HW130557   1.784   0.112   4.615 -2.2442  0.6712  0.6929
 6365SOL    HW230558   1.771   0.250   4.684 -0.7281 -1.1526  2.7285
 6366SOL     OW30559   3.239   1.767   2.432  0.7299 -0.2392 -0.0327
 6366SOL    HW130560   3.157   1.725   2.456  0.0334  1.3224  0.2989
 6366SOL    HW230561   3.256   1.755   2.338  3.4772  2.2273  0.1232
 6367SOL     OW30562   0.760   1.237   5.404  0.2010 -0.4112  0.1357
 6367SOL    HW130563   0.750   1.326   5.440  0.9061 -0.5311  0.6394
 6367SOL    HW230564   0.674   1.204   5.429  1.1367  0.0725  4.0060
 6368SOL     OW30565   0.341   2.730   1.976  0.2624 -0.5725  0.1930
 6368SOL    HW130566   0.387   2.650   1.950 -0.1636  0.0135 -2.3266
 6368SOL    HW230567   0.360   2.731   2.070  0.4607 -0.3284  0.1498
 6369SOL     OW30568   1.315   0.361   3.478  0.2049  0.0175  0.0546
 6369SOL    HW130569   1.339   0.431   3.418  1.2616 -1.3213 -1.0942
 6369SOL    HW230570   1.222   0.380   3.489  0.0668 -1.3638  1.2028
 6370SOL     OW30571   1.803   0.538   9.758 -0.2306  0.6297  0.3923
 6370SOL    HW130572   1.732   0.602   9.758  1.6117  2.6754 -0.3869
 6370SOL    HW230573   1.765   0.465   9.805  0.4064  1.0293  1.5280
 6371SOL     OW30574   0.597   2.607   9.027  0.4776  0.3104  0.1050
 6371SOL    HW130575   0.650   2.617   8.948  0.5365 -0.3951  0.0527
 6371SOL    HW230576   0.668   2.612   9.091 -1.5992 -2.0559  2.5792
 6372SOL     OW30577   4.432   4.193   2.566  0.2749  0.5077  0.3975
 6372SOL    HW130578   4.343   4.159   2.558  1.1923 -1.3108 -1.9093
 6372SOL    HW230579   4.475   4.112   2.591 -0.4344 -0.5059 -1.6432
 6373SOL     OW30580   0.103   0.777   7.699  0.1556  0.2339 -0.3444
 6373SOL    HW130581   0.190   0.770   7.659  0.9076 -1.0991  1.5341
 6373SOL    HW230582   0.099   0.696   7.749 -1.8592  0.9138  0.6020
 6374SOL     OW30583   0.686   4.420   2.739 -0.6130  0.3034 -0.1623
 6374SOL    HW130584   0.736   4.374   2.807 -0.6847  2.7416  1.5244
 6374SOL    HW230585   0.757   4.440   2.680 -0.9255  0.0171 -0.6374
 6375SOL     OW30586   4.411   2.655   6.796 -0.4390  0.1843  0.7306
 6375SOL    HW130587   4.446   2.649   6.884 -1.7493 -3.1384  1.0338
 6375SOL    HW230588   4.444   2.575   6.755  3.9683  1.3581  2.0878
 6376SOL     OW30589   1.309   3.639   4.281  0.4245  0.5172 -0.5643
 6376SOL    HW130590   1.365   3.562   4.286 -3.7253 -2.4611  0.2814
 6376SOL    HW230591   1.239   3.624   4.344 -0.1535 -0.2057 -1.3741
 6377SOL     OW30592   2.094   4.440   5.693  0.3526 -0.0472  0.1914
 6377SOL    HW130593   2.152   4.364   5.690 -1.5033 -1.4124 -1.4437
 6377SOL    HW230594   2.006   4.402   5.698  1.2780 -2.2077  0.2589
 6378SOL     OW30595   3.702   2.028  13.081 -0.1236  0.0313  0.5705
 6378SOL    HW130596   3.610   2.002  13.076  0.1675 -1.0825  1.0172
 6378SOL    HW230597   3.710   2.066  12.993  1.8373 -0.8785  0.3731
 6379SOL     OW30598   2.186   4.040  17.211  0.3190  0.1088  0.0220
 6379SOL    HW130599   2.208   4.128  17.179  0.7793  0.0805  0.2678
 6379SOL    HW230600   2.110   4.023  17.155  0.7742 -1.7849 -0.0259
 6380SOL     OW30601   1.675   3.370   5.253 -0.3954  0.0333 -0.1707
 6380SOL    HW130602   1.650   3.459   5.277  0.5069  0.3463 -0.4029
 6380SOL    HW230603   1.593   3.322   5.264  0.2421 -1.2135 -0.8149
 6381SOL     OW30604   0.139   4.308  14.055 -0.6449  0.7265 -0.1815
 6381SOL    HW130605   0.109   4.351  13.975 -0.3455  1.5777  0.1675
 6381SOL    HW230606   0.232   4.330  14.046 -0.6617  0.8983  0.0783
 6382SOL     OW30607   3.934   4.610  17.035  0.4830 -0.0949 -0.1970
 6382SOL    HW130608   3.905   4.697  17.006  3.3145  0.9335  0.0247
 6382SOL    HW230609   4.028   4.616  17.016  0.4666  1.3611  0.2309
 6383SOL     OW30610   3.300   2.486   0.838  0.0537 -0.1717 -0.3330
 6383SOL    HW130611   3.250   2.476   0.756 -0.3354 -2.9418  0.2410
 6383SOL    HW230612   3.236   2.437   0.890 -0.6203 -1.1482 -2.0809
 6384SOL     OW30613   2.276   1.021  15.894 -0.6022  0.0386  0.0594
 6384SOL    HW130614   2.188   0.994  15.921  0.2252 -1.4882  1.2074
 6384SOL    HW230615   2.286   1.089  15.960 -0.2176 -1.7300  1.8192
 6385SOL     OW30616   3.563   2.488   7.551  0.0830 -0.3024  0.2550
 6385SOL    HW130617   3.606   2.572   7.566  0.9892 -0.6785 -0.1973
 6385SOL    HW230618   3.535   2.498   7.460 -1.6674 -3.9312  0.3535
 6386SOL     OW30619   0.833   3.887   2.955  0.3410 -0.0674  0.4657
 6386SOL    HW130620   0.929   3.891   2.957  0.4556 -2.0026 -2.0253
 6386SOL    HW230621   0.819   3.850   2.868  3.1921 -1.0713  0.4417
 6387SOL     OW30622   2.015   1.324   6.201 -0.3425 -0.1554  0.0860
 6387SOL    HW130623   1.948   1.302   6.136  0.5690  1.2466 -1.3392
 6387SOL    HW230624   2.019   1.419   6.188 -2.2099  0.1895  2.0562
 6388SOL     OW30625   1.209   4.500   6.666  0.2798 -0.1359  0.3344
 6388SOL    HW130626   1.275   4.451   6.714 -1.7245 -3.5347 -0.3919
 6388SOL    HW230627   1.194   4.448   6.587 -0.2298  1.6301 -0.7406
 6389SOL     OW30628   0.538   1.637   4.488 -0.8502 -1.1842  0.0078
 6389SOL    HW130629   0.554   1.624   4.395 -1.2645 -1.6374 -0.0022
 6389SOL    HW230630   0.492   1.720   4.484  1.8328  0.3649  1.4173
 6390SOL     OW30631   0.289   2.728   6.415 -0.0001  0.3263  0.2047
 6390SOL    HW130632   0.293   2.731   6.510  1.0181  0.6480  0.1517
 6390SOL    HW230633   0.354   2.658   6.405 -0.2168  0.2596 -0.7871
 6391SOL     OW30634   2.692   1.699   3.301 -0.0563 -0.8376 -0.0570
 6391SOL    HW130635   2.622   1.764   3.307  0.3913 -0.2759 -1.0424
 6391SOL    HW230636   2.773   1.748   3.291 -0.9501  0.6435  0.0937
 6392SOL     OW30637   4.475   3.115  14.726 -0.5736 -0.3468  0.1905
 6392SOL    HW130638   4.399   3.175  14.728  1.7419  2.6895 -2.0940
 6392SOL    HW230639   4.491   3.112  14.632 -0.2871  0.5509  0.2135
 6393SOL     OW30640   3.809   1.955  15.354 -0.0198  0.2882  0.5204
 6393SOL    HW130641   3.878   1.921  15.298  0.2732  2.3446 -0.3605
 6393SOL    HW230642   3.850   1.970  15.439 -3.6882 -0.8096  2.4693
 6394SOL     OW30643   3.619   3.580   6.638  0.3900 -0.2053  0.3767
 6394SOL    HW130644   3.713   3.570   6.624  0.1150 -1.9233 -0.1410
 6394SOL    HW230645   3.606   3.619   6.725 -2.9661 -1.8253  0.5750
 6395SOL     OW30646   3.372   3.176   4.672  0.1434 -0.6921 -0.1107
 6395SOL    HW130647   3.392   3.232   4.597 -4.1439  0.3845 -0.4345
 6395SOL    HW230648   3.354   3.097   4.621  1.0056 -2.0224  1.6217
 6396SOL     OW30649   2.291   3.175   4.557  0.3501 -0.4137  0.2161
 6396SOL    HW130650   2.245   3.118   4.495  1.4994 -1.6759  0.5208
 6396SOL    HW230651   2.359   3.217   4.503 -0.8240 -0.8052 -1.5809
 6397SOL     OW30652   4.592   4.646   5.792  0.1940 -0.0534  0.2039
 6397SOL    HW130653   4.593   4.697   5.711 -0.0822  0.0368  0.2584
 6397SOL    HW230654   4.535   4.572   5.773  2.9906 -1.7163 -1.6390
 6398SOL     OW30655   2.192   3.014   3.128  0.3365 -0.4774 -0.0178
 6398SOL    HW130656   2.180   3.074   3.202  2.1676 -0.1596  0.0145
 6398SOL    HW230657   2.282   3.042   3.112  0.2380 -0.1756 -0.0310
 6399SOL     OW30658   3.987   0.055  13.924 -0.4709  0.8059  0.5943
 6399SOL    HW130659   3.908   0.004  13.943 -0.8444  1.5083  0.9171
 6399SOL    HW230660   4.032   4.707  13.879  0.3107  2.3287 -1.0355
 6400SOL     OW30661   0.360   1.338   7.863  0.0283 -0.5414 -0.8090
 6400SOL    HW130662   0.305   1.406   7.825 -1.2429 -0.9375  0.3382
 6400SOL    HW230663   0.446   1.378   7.849 -0.5473  0.9678 -0.0337
 6401SOL     OW30664   3.200   2.467   3.177  0.3597 -0.1523 -0.5456
 6401SOL    HW130665   3.181   2.480   3.084 -0.9802 -1.2247 -0.4215
 6401SOL    HW230666   3.147   2.534   3.218  1.3021  0.5613 -0.4867
 6402SOL     OW30667   0.336   2.610  17.239 -0.5172  0.3912 -0.4442
 6402SOL    HW130668   0.432   2.621  17.239 -0.6137  1.2536 -1.0331
 6402SOL    HW230669   0.318   2.632  17.148  0.3489  0.3658 -0.6230
 6403SOL     OW30670   2.100   2.595   0.033  0.5175 -0.5985 -0.0345
 6403SOL    HW130671   2.029   2.614  17.668 -0.2915 -4.8103 -0.3876
 6403SOL    HW230672   2.171   2.593  17.666  2.0443  1.0916  1.6191
 6404SOL     OW30673   3.293   2.926   1.920 -0.1927 -0.5524 -0.6126
 6404SOL    HW130674   3.234   2.874   1.974  1.0182 -0.3863  0.8656
 6404SOL    HW230675   3.234   2.994   1.888  2.2971  0.9066 -2.1666
 6405SOL     OW30676   0.794   1.052  17.570  0.0601  0.3650 -0.4888
 6405SOL    HW130677   0.863   1.007  17.619 -0.3077 -0.2337 -0.5290
 6405SOL    HW230678   0.818   1.145  17.574 -0.0011  0.4180 -1.4726
 6406SOL     OW30679   2.289   1.555   4.474  0.4643  0.6753  0.1687
 6406SOL    HW130680   2.352   1.566   4.546  3.5562 -0.8295 -2.2634
 6406SOL    HW230681   2.292   1.459   4.473  0.6398  0.6947 -2.0984
 6407SOL     OW30682   0.113   4.494   5.954 -0.3116 -0.0375 -0.8129
 6407SOL    HW130683   0.020   4.484   5.931 -0.4720 -0.5393  0.0275
 6407SOL    HW230684   0.114   4.437   6.032 -1.8955  0.6234 -0.3090
 6408SOL     OW30685   0.100   1.802   6.121  0.1685 -0.1571 -0.3846
 6408SOL    HW130686   0.008   1.810   6.146  0.0888  0.3270 -0.8335
 6408SOL    HW230687   0.085   1.827   6.030  0.0845 -1.0216 -0.6154
 6409SOL     OW30688   1.124   1.836  14.029  0.1955  0.1867 -0.1820
 6409SOL    HW130689   1.066   1.863  13.958 -0.5589 -0.6791  0.1176
 6409SOL    HW230690   1.153   1.749  14.000  1.0821  0.2784  0.4286
 6410SOL     OW30691   2.619   0.480   3.133  0.2769 -0.6372 -0.0658
 6410SOL    HW130692   2.694   0.498   3.077 -1.3124  1.0130 -1.6476
 6410SOL    HW230693   2.639   0.393   3.166 -2.5476 -1.3086 -0.0962
 6411SOL     OW30694   0.070   2.900   6.460 -0.3783 -0.1055 -0.6164
 6411SOL    HW130695   0.149   2.847   6.474 -0.0741  0.4925 -0.0482
 6411SOL    HW230696   0.021   2.900   6.542  0.7298 -0.9703  0.0460
 6412SOL     OW30697   1.063   2.453  12.460  0.0948 -0.0342 -0.1378
 6412SOL    HW130698   0.991   2.390  12.453  0.1383  0.1899 -2.6658
 6412SOL    HW230699   1.009   2.521  12.499 -2.2003 -2.2850  0.6051
 6413SOL     OW30700   0.439   2.654   7.898  0.1051  0.3076  0.1730
 6413SOL    HW130701   0.403   2.705   7.970 -1.9435 -0.3176 -0.4212
 6413SOL    HW230702   0.447   2.572   7.946  0.8438 -0.3777 -1.1064
 6414SOL     OW30703   2.106   4.280   1.718 -0.3727 -0.0568  0.2734
 6414SOL    HW130704   2.133   4.364   1.755  0.7318 -0.2500 -0.0743
 6414SOL    HW230705   2.048   4.251   1.788 -0.3072  2.1555  1.2435
 6415SOL     OW30706   0.189   1.502   3.567 -0.5349 -0.4633 -0.1382
 6415SOL    HW130707   0.127   1.437   3.600 -1.0532 -0.4963 -1.1824
 6415SOL    HW230708   0.156   1.588   3.594  1.5802 -0.1056  1.3042
 6416SOL     OW30709   3.446   0.808  11.134 -0.7841 -1.0922  0.2972
 6416SOL    HW130710   3.437   0.752  11.057  0.0282  0.2474 -0.7509
 6416SOL    HW230711   3.361   0.790  11.176 -1.3056  1.9321  0.5287
 6417SOL     OW30712   1.073   2.333   4.043  0.3718 -0.4410  0.1401
 6417SOL    HW130713   1.086   2.400   4.110  1.4105  1.8870 -2.4150
 6417SOL    HW230714   1.002   2.375   3.995  0.9267  0.1057 -0.1907
 6418SOL     OW30715   1.650   2.521   8.872 -0.0111  0.7495  0.1075
 6418SOL    HW130716   1.650   2.484   8.960  0.3433 -2.9269 -1.4493
 6418SOL    HW230717   1.738   2.560   8.873  1.2036 -2.0078 -0.5379
 6419SOL     OW30718   0.893   1.214  10.809 -0.0106 -0.6418  0.1045
 6419SOL    HW130719   0.902   1.180  10.721 -0.0555  1.8492 -0.8674
 6419SOL    HW230720   0.889   1.309  10.795  0.4675 -0.2796  2.3966
 6420SOL     OW30721   4.292   2.943   2.667  0.1662  0.6818  0.9601
 6420SOL    HW130722   4.201   2.973   2.654 -0.1095 -0.3084  0.6096
 6420SOL    HW230723   4.338   3.011   2.618  2.6263 -2.1475 -0.6299
 6421SOL     OW30724   4.395   3.603   8.436  0.2169 -0.3027 -0.1002
 6421SOL    HW130725   4.391   3.698   8.426  2.8305 -0.2385 -0.3646
 6421SOL    HW230726   4.390   3.602   8.532 -0.6071 -2.5609 -0.1655
 6422SOL     OW30727   0.149   0.411   6.983 -0.1534  0.1391 -0.2233
 6422SOL    HW130728   0.082   0.405   7.052 -0.9735 -0.3456 -1.0605
 6422SOL    HW230729   0.153   0.505   6.967  0.5706  0.1817  0.1976
 6423SOL     OW30730   4.630   1.053   9.116  0.7681  0.3236  0.0250
 6423SOL    HW130731   4.656   1.075   9.206  3.0036 -0.4715 -0.4262
 6423SOL    HW230732   4.574   0.978   9.138 -0.0197  1.2656  1.2897
 6424SOL     OW30733   4.342   3.394   8.888 -0.2770  0.3399  0.4569
 6424SOL    HW130734   4.261   3.379   8.841 -0.1367  0.3958  0.1972
 6424SOL    HW230735   4.329   3.480   8.927  0.2233  0.9042 -0.6244
 6425SOL     OW30736   2.422   3.598   4.988 -0.0451 -0.8478  0.1147
 6425SOL    HW130737   2.407   3.558   4.903 -0.7975 -1.9658  0.7662
 6425SOL    HW230738   2.344   3.653   4.992  0.6662 -0.0171  2.6575
 6426SOL     OW30739   3.135   3.387   7.925  0.4474 -0.1454  0.4555
 6426SOL    HW130740   3.163   3.478   7.930 -0.3580  0.1574 -0.3883
 6426SOL    HW230741   3.092   3.375   8.010 -0.1172  2.5101  0.5626
 6427SOL     OW30742   2.241   3.482  17.422  0.7609  0.0632 -0.0956
 6427SOL    HW130743   2.217   3.546  17.356  1.3675  0.2245 -0.1615
 6427SOL    HW230744   2.309   3.530  17.469  0.1199  1.6729 -0.8217
 6428SOL     OW30745   0.108   1.438   4.432  1.0989  0.1357 -0.6856
 6428SOL    HW130746   0.111   1.515   4.489  1.3938  0.7439 -1.5108
 6428SOL    HW230747   0.061   1.477   4.358  1.4995  0.8047 -0.5892
 6429SOL     OW30748   0.238   2.047  12.830 -0.3221 -0.3763 -0.6008
 6429SOL    HW130749   0.147   2.072  12.846  0.1363  0.3067  0.9510
 6429SOL    HW230750   0.239   1.952  12.812  0.9276 -0.9642  2.5612
 6430SOL     OW30751   2.815   0.387   6.223 -0.1747 -0.3632  0.1687
 6430SOL    HW130752   2.767   0.440   6.286 -1.2186  0.3814 -1.2470
 6430SOL    HW230753   2.901   0.429   6.225 -1.3537  1.9829  0.5124
 6431SOL     OW30754   2.389   4.564   4.643  0.6035 -0.2016 -0.6267
 6431SOL    HW130755   2.425   4.605   4.722 -0.1955 -0.7366  0.0204
 6431SOL    HW230756   2.350   4.642   4.603 -0.8193 -1.1108 -1.0072
 6432SOL     OW30757   4.433   4.014   1.044 -0.1445  0.1466 -0.2977
 6432SOL    HW130758   4.442   3.939   0.985 -0.0365 -0.3920  0.3913
 6432SOL    HW230759   4.507   3.991   1.101 -0.0126  0.0824 -0.4929
 6433SOL     OW30760   4.177   0.747   4.357  0.6809  0.1937  0.2705
 6433SOL    HW130761   4.240   0.723   4.289  0.9520  1.2279  0.1567
 6433SOL    HW230762   4.106   0.685   4.345  0.3571  0.2106  2.0731
 6434SOL     OW30763   4.555   4.681   7.801  0.1812 -0.2078 -0.3297
 6434SOL    HW130764   4.628   0.014   7.826  0.2019 -0.0068 -0.8508
 6434SOL    HW230765   4.606   4.643   7.729  1.0850  1.3635 -0.5267
 6435SOL     OW30766   1.378   2.373  14.005  0.2527  0.0709  0.4172
 6435SOL    HW130767   1.356   2.465  14.022 -1.7529 -0.3205 -0.1034
 6435SOL    HW230768   1.404   2.348  14.094  1.8601 -2.7548 -0.8531
 6436SOL     OW30769   2.355   1.710   8.021 -0.1340  0.1255  0.1412
 6436SOL    HW130770   2.388   1.650   8.088 -0.1824 -0.1205 -0.0559
 6436SOL    HW230771   2.359   1.792   8.071 -0.7814  0.0783  0.2578
 6437SOL     OW30772   2.061   2.743  16.479 -0.1311 -0.4455 -0.3581
 6437SOL    HW130773   2.093   2.719  16.566  0.3692 -2.9467 -1.2239
 6437SOL    HW230774   2.074   2.662  16.429  0.5314  0.1782 -1.1933
 6438SOL     OW30775   0.789   3.220   2.264  0.1186 -0.2509 -0.2014
 6438SOL    HW130776   0.770   3.238   2.172  0.5532  0.7924 -0.0914
 6438SOL    HW230777   0.871   3.177   2.244  0.2032  0.8820 -2.2552
 6439SOL     OW30778   4.320   1.482   4.198  0.7832 -0.4547 -0.0727
 6439SOL    HW130779   4.310   1.573   4.226  0.4536 -0.4625 -0.1575
 6439SOL    HW230780   4.400   1.456   4.243 -0.1194 -2.8203  0.1614
 6440SOL     OW30781   2.333   1.226  16.061 -0.3037 -0.1588  0.2870
 6440SOL    HW130782   2.417   1.217  16.106 -0.2219 -1.0862 -0.0430
 6440SOL    HW230783   2.362   1.294  16.001  2.8858 -0.4964  1.4127
 6441SOL     OW30784   1.348   0.461  15.216 -0.4502  0.2892 -0.2204
 6441SOL    HW130785   1.359   0.470  15.121 -0.3297  0.3198 -0.2042
 6441SOL    HW230786   1.272   0.515  15.235 -0.3235  0.4378 -0.1372
 6442SOL     OW30787   0.555   2.813   8.553 -0.4360 -0.6562 -0.1829
 6442SOL    HW130788   0.485   2.866   8.516  0.5080  0.2528 -0.6432
 6442SOL    HW230789   0.631   2.867   8.532  0.6325 -2.5019 -1.1270
 6443SOL     OW30790   3.195   3.302  15.400  0.5055 -0.2136  0.4930
 6443SOL    HW130791   3.247   3.304  15.481 -0.1163  0.6006  0.8781
 6443SOL    HW230792   3.213   3.215  15.365  1.4077  0.1726  0.0015
 6444SOL     OW30793   2.482   2.073  13.240 -0.2929 -0.0714  0.2896
 6444SOL    HW130794   2.527   2.140  13.189  0.6265 -0.0193  1.1652
 6444SOL    HW230795   2.497   2.118  13.324 -0.4177 -2.2316  1.4700
 6445SOL     OW30796   1.442   2.477   7.516 -0.3526 -0.2534  0.1006
 6445SOL    HW130797   1.404   2.558   7.551 -1.4381 -0.5656 -0.3554
 6445SOL    HW230798   1.369   2.434   7.472 -0.2339 -0.0264 -0.3218
 6446SOL     OW30799   4.190   3.802   9.768 -0.3545  0.0570  0.7049
 6446SOL    HW130800   4.111   3.846   9.737 -0.9280 -0.9228  0.7949
 6446SOL    HW230801   4.194   3.730   9.706 -1.4983 -0.6560  1.4590
 6447SOL     OW30802   1.220   3.852   8.311  0.7302 -0.0128 -0.0786
 6447SOL    HW130803   1.133   3.851   8.351  0.0677 -1.8292 -1.5769
 6447SOL    HW230804   1.234   3.945   8.297 -0.7773 -0.1745 -2.6687
 6448SOL     OW30805   3.612   3.759   6.844 -0.3986  0.3389 -0.4257
 6448SOL    HW130806   3.690   3.805   6.874  0.1351 -2.0961  1.8365
 6448SOL    HW230807   3.547   3.825   6.869 -0.6804 -0.7968  1.7845
 6449SOL     OW30808   2.455   1.229   0.027 -0.4911  0.6365  0.2612
 6449SOL    HW130809   2.524   1.293   0.009  1.8723 -1.9378  0.1300
 6449SOL    HW230810   2.453   1.194  17.635 -1.3564  1.6501 -0.1226
 6450SOL     OW30811   1.338   3.121  10.351  0.1671  0.2815 -1.1556
 6450SOL    HW130812   1.363   3.176  10.426  0.6717 -3.0658  1.1448
 6450SOL    HW230813   1.247   3.150  10.341  0.0198  0.1153 -0.3512
 6451SOL     OW30814   1.472   0.213   5.880  0.1961  0.5310 -0.0035
 6451SOL    HW130815   1.470   0.242   5.971 -0.6295  1.6022 -0.3659
 6451SOL    HW230816   1.566   0.214   5.860  0.1264  2.8106 -0.2138
 6452SOL     OW30817   1.671   0.318   2.453  0.0372  0.1049 -0.2790
 6452SOL    HW130818   1.654   0.323   2.547 -0.9673 -3.5422 -0.2851
 6452SOL    HW230819   1.620   0.239   2.439  0.0395  0.0970 -0.2426
 6453SOL     OW30820   3.832   2.924   3.717 -0.1834 -0.1745 -0.6056
 6453SOL    HW130821   3.924   2.916   3.741 -0.6853  1.3922  1.8109
 6453SOL    HW230822   3.805   3.010   3.750 -0.6246 -0.1461 -1.0435
 6454SOL     OW30823   1.011   4.293  17.000  0.0857 -0.3856  0.1991
 6454SOL    HW130824   1.074   4.358  17.029 -0.3640 -0.2412  0.8481
 6454SOL    HW230825   0.944   4.295  17.069  0.5975  0.2870  0.6727
 6455SOL     OW30826   3.488   0.998  15.144  0.5059  0.1324 -0.4977
 6455SOL    HW130827   3.476   1.076  15.090 -0.8062 -0.0923 -0.5283
 6455SOL    HW230828   3.490   1.041  15.230 -0.6903 -0.1324 -0.3252
 6456SOL     OW30829   2.542   3.779   8.831 -0.1299 -0.1922  0.6281
 6456SOL    HW130830   2.620   3.729   8.806 -0.7253 -0.1325 -1.3510
 6456SOL    HW230831   2.579   3.849   8.885  1.2452 -0.3895 -0.0598
 6457SOL     OW30832   1.697   1.033   9.172 -0.0182  0.0787 -0.3234
 6457SOL    HW130833   1.774   1.090   9.179  0.2192 -0.4674  1.5641
 6457SOL    HW230834   1.719   0.979   9.249 -5.0096  0.1808  1.1304
 6458SOL     OW30835   3.306   1.801  10.170  0.2283 -0.4463  0.0851
 6458SOL    HW130836   3.397   1.772  10.162  0.0525 -0.6958 -1.0830
 6458SOL    HW230837   3.296   1.850  10.088  0.4030 -0.7984 -0.1468
 6459SOL     OW30838   0.604   3.459  16.939  0.1041  0.1980  0.3044
 6459SOL    HW130839   0.575   3.545  16.910  1.4657  0.7216  0.4964
 6459SOL    HW230840   0.562   3.398  16.878  0.9751 -1.0952  0.9850
 6460SOL     OW30841   3.699   1.363   2.827  0.8862  0.3117  0.0312
 6460SOL    HW130842   3.740   1.370   2.914  3.2895 -2.2723 -0.8942
 6460SOL    HW230843   3.772   1.398   2.777  0.1629  2.3519  0.4158
 6461SOL     OW30844   3.174   3.583   6.878  0.4821 -0.2679  0.1531
 6461SOL    HW130845   3.171   3.669   6.838  0.0269 -1.1740 -1.7527
 6461SOL    HW230846   3.081   3.571   6.893  0.3943  1.7836  1.2015
 6462SOL     OW30847   0.552   3.813   4.937  0.0677 -0.0183 -0.7253
 6462SOL    HW130848   0.469   3.851   4.965  0.8685  1.1098  0.1001
 6462SOL    HW230849   0.616   3.871   4.976 -0.6376  0.4164 -0.2165
 6463SOL     OW30850   0.611   1.973  16.862 -0.1826 -0.3763 -0.1213
 6463SOL    HW130851   0.644   1.891  16.898  1.8029  1.0826  1.3842
 6463SOL    HW230852   0.619   1.956  16.768  1.1099 -1.8853  0.2718
 6464SOL     OW30853   0.130   2.332  11.074 -0.0605  0.4412 -0.1906
 6464SOL    HW130854   0.090   2.264  11.129  0.6590 -0.3941 -0.6924
 6464SOL    HW230855   0.217   2.311  11.108 -0.9274  1.5907  2.7269
 6465SOL     OW30856   0.641   2.531  13.361  0.3086 -0.9959  0.2990
 6465SOL    HW130857   0.640   2.625  13.377 -1.2662 -1.3155  2.1013
 6465SOL    HW230858   0.587   2.526  13.282 -0.0755  0.0338  0.4982
 6466SOL     OW30859   3.831   3.249  14.154 -0.0496  0.6694 -0.1845
 6466SOL    HW130860   3.813   3.333  14.112 -1.0532  1.7515  2.3997
 6466SOL    HW230861   3.743   3.213  14.166  1.2731 -2.5254 -0.0112
 6467SOL     OW30862   1.924   0.956  16.556 -0.3871 -0.7592 -0.0808
 6467SOL    HW130863   1.978   0.995  16.625  0.3165  1.0626 -1.6473
 6467SOL    HW230864   1.882   0.890  16.611  0.5924 -0.6543  0.7776
 6468SOL     OW30865   1.105   2.261   8.137  0.2399  0.2658  0.0760
 6468SOL    HW130866   1.103   2.235   8.045  0.2442  1.0047 -0.1379
 6468SOL    HW230867   1.200   2.266   8.146  0.1979 -1.2840  1.4131
 6469SOL     OW30868   0.669   3.147   4.506  0.2519  0.8225 -0.0671
 6469SOL    HW130869   0.596   3.085   4.514  0.2226  1.0891  1.8106
 6469SOL    HW230870   0.722   3.101   4.440 -2.5011 -0.1086 -1.6138
 6470SOL     OW30871   4.497   1.207   7.550 -0.3140  0.1249  0.0183
 6470SOL    HW130872   4.467   1.171   7.633 -0.5438 -1.6830 -0.8443
 6470SOL    HW230873   4.592   1.194   7.560 -0.7258 -3.7931 -1.0241
 6471SOL     OW30874   3.643   4.585   8.905 -0.3869  0.6381  0.4239
 6471SOL    HW130875   3.599   4.503   8.881 -1.5398  2.0300 -2.2359
 6471SOL    HW230876   3.735   4.559   8.902  0.4131  3.7160 -1.4903
 6472SOL     OW30877   1.051   0.742   1.654 -0.4434 -0.0683 -0.0566
 6472SOL    HW130878   0.973   0.727   1.599 -1.3466  0.9421  0.9458
 6472SOL    HW230879   1.027   0.683   1.725  3.8617 -1.6556  0.0193
 6473SOL     OW30880   2.098   3.057  14.505  0.0888 -0.7856  0.1704
 6473SOL    HW130881   2.089   3.018  14.592  0.1267  1.4567  1.1665
 6473SOL    HW230882   2.122   2.975  14.462  1.9229 -0.4245  0.5276
 6474SOL     OW30883   1.452   3.332   0.073  0.2831  0.1591  0.1694
 6474SOL    HW130884   1.471   3.397   0.006 -0.1485 -1.0562 -1.1139
 6474SOL    HW230885   1.424   3.382   0.151  0.3753  1.5081 -0.6672
 6475SOL     OW30886   1.448   2.028   4.916  0.2154 -0.0604  0.2448
 6475SOL    HW130887   1.410   1.943   4.937  1.5884 -0.1112  2.6150
 6475SOL    HW230888   1.403   2.052   4.835 -0.3924  2.0609  1.2220
 6476SOL     OW30889   3.135   1.646  15.277  0.1367  0.1727  0.5818
 6476SOL    HW130890   3.222   1.680  15.296  0.2137  0.8590 -1.0468
 6476SOL    HW230891   3.087   1.729  15.280  0.6878  0.5204 -0.3671
 6477SOL     OW30892   3.920   4.466  13.135 -0.5177  0.4024  0.5960
 6477SOL    HW130893   3.841   4.456  13.082  0.1756 -1.5893 -0.0555
 6477SOL    HW230894   3.913   4.390  13.192 -1.4276 -0.3770 -0.5477
 6478SOL     OW30895   0.140   3.544   9.440  0.1652  0.0806 -0.4206
 6478SOL    HW130896   0.083   3.615   9.409 -0.2567  0.2651  0.7621
 6478SOL    HW230897   0.090   3.473   9.479  0.4391  0.0558 -0.1175
 6479SOL     OW30898   4.479   1.513   1.973 -0.3486  0.0435 -0.0982
 6479SOL    HW130899   4.441   1.601   1.977 -0.0955  0.0901  1.1338
 6479SOL    HW230900   4.426   1.473   1.903 -0.0305 -0.3715 -0.1014
 6480SOL     OW30901   0.095   2.447   5.881  0.3460 -0.3634 -0.1490
 6480SOL    HW130902   0.075   2.446   5.787 -0.2606  1.6572 -0.0224
 6480SOL    HW230903   0.150   2.525   5.889 -0.4420  0.2101 -0.3493
 6481SOL     OW30904   4.710   3.456   4.503  0.1463  0.2320 -0.1693
 6481SOL    HW130905   4.716   3.483   4.412  0.7348  0.1019 -0.1660
 6481SOL    HW230906   4.713   3.361   4.494 -0.6099  0.0945  0.9824
 6482SOL     OW30907   1.676   2.284   8.631  0.1956  0.1978 -0.1490
 6482SOL    HW130908   1.689   2.337   8.709 -1.9989  0.8252 -0.2189
 6482SOL    HW230909   1.689   2.197   8.667 -0.7728 -0.2295 -0.8589
 6483SOL     OW30910   4.552   2.965   4.031 -1.0927  0.3499 -0.2799
 6483SOL    HW130911   4.511   3.015   3.961 -1.5362  2.3967  1.4461
 6483SOL    HW230912   4.636   3.012   4.032 -2.0212  1.9957 -0.3441
 6484SOL     OW30913   1.782   1.431   5.734 -0.1129  0.5401  0.0048
 6484SOL    HW130914   1.689   1.449   5.746  0.2015  1.4052  1.0772
 6484SOL    HW230915   1.802   1.495   5.667 -2.2578 -0.4811 -1.6056
 6485SOL     OW30916   0.462   1.465   6.985  0.0649  0.0449  0.2153
 6485SOL    HW130917   0.452   1.513   6.903 -0.3688  2.9422  1.9662
 6485SOL    HW230918   0.404   1.511   7.045 -1.2379 -1.1134 -0.1622
 6486SOL     OW30919   1.150   1.147   6.407 -0.4611  0.3109  0.4071
 6486SOL    HW130920   1.232   1.175   6.448  1.0668 -1.1451 -1.6396
 6486SOL    HW230921   1.114   1.229   6.372 -1.8732 -0.1351  0.8096
 6487SOL     OW30922   4.213   2.436   4.776 -0.1313  0.0352 -0.1719
 6487SOL    HW130923   4.263   2.511   4.810  1.6727 -0.8795 -0.7979
 6487SOL    HW230924   4.138   2.419   4.832 -1.8076 -0.0604 -2.4445
 6488SOL     OW30925   0.134   4.086   3.034 -0.1035 -0.1786  0.0844
 6488SOL    HW130926   0.127   3.991   3.030 -1.5643 -0.0881  0.7902
 6488SOL    HW230927   0.161   4.104   2.944 -0.8643 -1.3244 -0.3756
 6489SOL     OW30928   3.215   3.545   9.360 -0.1189 -0.5281 -0.3879
 6489SOL    HW130929   3.170   3.517   9.280  0.9020  0.4823 -1.3048
 6489SOL    HW230930   3.216   3.470   9.419  2.7782 -0.2269 -0.0735
 6490SOL     OW30931   1.240   1.959   2.475  0.0847  0.2883  0.0868
 6490SOL    HW130932   1.294   1.955   2.555  0.2824 -0.5912 -0.0959
 6490SOL    HW230933   1.280   2.019   2.412  2.9792 -2.8011 -1.0307
 6491SOL     OW30934   1.545   2.414  14.837 -0.6769  0.4992 -0.4585
 6491SOL    HW130935   1.627   2.366  14.851 -0.7155  1.1965  2.1319
 6491SOL    HW230936   1.555   2.459  14.754 -0.4385 -0.1910 -0.8078
 6492SOL     OW30937   0.281   3.685   3.883  0.3589 -0.2591  0.7888
 6492SOL    HW130938   0.319   3.631   3.953  0.6505 -0.6638  0.3207
 6492SOL    HW230939   0.198   3.641   3.869 -1.3807  2.2962  3.1731
 6493SOL     OW30940   1.574   3.427   3.840 -0.1509 -0.2279 -0.6258
 6493SOL    HW130941   1.670   3.421   3.834 -0.0634  2.0264 -1.4586
 6493SOL    HW230942   1.581   3.471   3.926  1.2412 -0.7205 -0.4754
 6494SOL     OW30943   4.011   2.931   1.891  0.2064 -0.4994 -0.9858
 6494SOL    HW130944   4.066   2.923   1.813  0.3797  1.3600 -1.0390
 6494SOL    HW230945   3.982   3.022   1.889  2.8432  0.3937  1.5292
 6495SOL     OW30946   3.254   0.320   2.823 -0.1820  0.4197  0.1909
 6495SOL    HW130947   3.320   0.371   2.776 -1.2339  0.9825 -0.6829
 6495SOL    HW230948   3.310   0.289   2.893 -0.6172  1.3726  0.9639
 6496SOL     OW30949   4.209   4.383   7.680 -0.1323  0.4919  0.1136
 6496SOL    HW130950   4.184   4.322   7.611 -0.5047 -0.3426  1.0012
 6496SOL    HW230951   4.173   4.336   7.755 -1.5569  0.2475 -0.7240
 6497SOL     OW30952   1.282   0.825  11.598 -0.1032 -0.2144 -0.1929
 6497SOL    HW130953   1.334   0.832  11.518 -0.6506  0.4940 -0.4863
 6497SOL    HW230954   1.327   0.888  11.653 -0.7231  0.9055 -0.9706
 6498SOL     OW30955   3.605   0.368   5.161  0.5680  0.1529  0.1263
 6498SOL    HW130956   3.677   0.386   5.222  0.4526  0.8895  0.0510
 6498SOL    HW230957   3.534   0.398   5.218 -1.3742  0.4355 -2.4636
 6499SOL     OW30958   0.333   0.919   5.565  0.2712 -0.4418  0.6796
 6499SOL    HW130959   0.329   0.906   5.470  1.9639  0.8544  0.4315
 6499SOL    HW230960   0.399   0.858   5.598  0.2698 -0.9788 -0.3015
 6500SOL     OW30961   0.120   1.641   6.555 -0.2148 -0.6945  0.3383
 6500SOL    HW130962   0.080   1.566   6.598 -2.0788  0.3793  0.5111
 6500SOL    HW230963   0.139   1.693   6.634 -0.8599 -0.4963  0.3588
 6501SOL     OW30964   2.017   0.391   3.935 -0.2747  0.1944 -0.2810
 6501SOL    HW130965   2.042   0.416   4.023  1.9348  0.5723 -1.0311
 6501SOL    HW230966   2.052   0.302   3.942  1.0632  0.7786  0.2812
 6502SOL     OW30967   3.776   3.688   6.373 -0.4473  0.3411 -0.1023
 6502SOL    HW130968   3.697   3.731   6.406 -1.4813 -1.5691 -0.0877
 6502SOL    HW230969   3.747   3.647   6.292  0.7494 -1.4532  0.3856
 6503SOL     OW30970   2.211   4.003   4.628  0.2424  0.5599 -0.3195
 6503SOL    HW130971   2.153   4.043   4.563 -0.9622 -0.7042 -0.0242
 6503SOL    HW230972   2.142   3.968   4.685 -0.3244 -1.5420 -2.3311
 6504SOL     OW30973   2.234   1.198   9.957 -0.4589 -0.9578  0.0055
 6504SOL    HW130974   2.148   1.159   9.939 -0.5639 -0.4490 -0.5829
 6504SOL    HW230975   2.244   1.267   9.892  0.0821 -1.3306 -0.3075
 6505SOL     OW30976   1.841   4.046   4.363  1.0103 -0.2005  0.3325
 6505SOL    HW130977   1.784   4.061   4.288 -0.2153  1.3058  1.5536
 6505SOL    HW230978   1.867   3.955   4.348  0.2694 -0.4307  0.4358
 6506SOL     OW30979   0.670   2.621   8.768  0.1095 -0.0388  0.0977
 6506SOL    HW130980   0.683   2.528   8.754  1.6434  0.2751 -0.5571
 6506SOL    HW230981   0.623   2.652   8.691 -2.2568  1.1804  2.0285
 6507SOL     OW30982   1.409   0.682   0.168  0.1905 -0.0975  0.2264
 6507SOL    HW130983   1.461   0.758   0.143 -2.1347  0.4857 -2.9386
 6507SOL    HW230984   1.437   0.650   0.253  0.6523  0.3812  0.2520
 6508SOL     OW30985   1.892   3.766   1.105 -0.0867 -0.4452  0.1299
 6508SOL    HW130986   1.816   3.738   1.156  0.7732  0.3481  1.8581
 6508SOL    HW230987   1.853   3.819   1.036  0.9580 -0.8029 -0.7433
 6509SOL     OW30988   0.917   2.662   1.947 -0.2497  0.0920  0.0225
 6509SOL    HW130989   0.961   2.728   1.894 -0.4727 -0.4561 -0.8311
 6509SOL    HW230990   0.981   2.591   1.940 -0.6514 -0.1392 -1.3301
 6510SOL     OW30991   0.634   2.244   9.724  0.4653  0.1502  0.0995
 6510SOL    HW130992   0.619   2.212   9.635  1.3812 -1.3262  0.4766
 6510SOL    HW230993   0.629   2.339   9.719 -0.7550  0.0997  0.6262
 6511SOL     OW30994   0.532   4.628  13.013  0.1327 -0.3262  0.2637
 6511SOL    HW130995   0.540   4.601  13.105  0.1243  0.4127  0.4832
 6511SOL    HW230996   0.569   4.716  13.023  1.3857 -1.0964  2.5687
 6512SOL     OW30997   1.412   3.639   3.814 -0.1186  0.0065 -0.4791
 6512SOL    HW130998   1.452   3.554   3.831 -1.0243 -0.6345 -1.5642
 6512SOL    HW230999   1.420   3.675   3.902  1.7654 -0.9262 -0.2746
 6513SOL     OW31000   3.697   1.760   9.849 -0.3289 -0.5134  0.4180
 6513SOL    HW131001   3.752   1.835   9.871  0.1178 -1.2006  1.6467
 6513SOL    HW231002   3.762   1.691   9.863 -1.0939 -0.7184  3.0325
 6514SOL     OW31003   1.462   1.647   1.271 -0.2055 -0.1345  1.0198
 6514SOL    HW131004   1.467   1.630   1.177  0.3902 -0.9339  1.1984
 6514SOL    HW231005   1.367   1.656   1.281 -0.2177 -1.5842  2.1714
 6515SOL     OW31006   0.663   4.417   5.525 -0.2713  0.1540  0.5540
 6515SOL    HW131007   0.593   4.367   5.567 -0.3112 -0.8675 -0.7350
 6515SOL    HW231008   0.683   4.484   5.590  0.2348  0.2246  0.3306
 6516SOL     OW31009   0.471   2.363   0.966 -0.0495 -0.1056  0.7191
 6516SOL    HW131010   0.391   2.310   0.966  0.5904 -1.0741  0.1396
 6516SOL    HW231011   0.518   2.313   1.033  0.3411 -1.1224 -0.3024
 6517SOL     OW31012   0.238   1.210  17.380 -0.5228  0.2072 -0.8951
 6517SOL    HW131013   0.275   1.244  17.462 -2.3335 -0.0085  0.0213
 6517SOL    HW231014   0.255   1.116  17.386 -2.0496 -0.0377 -0.2762
 6518SOL     OW31015   1.156   4.638  11.912  0.7783  0.0958  0.0571
 6518SOL    HW131016   1.181   4.679  11.829  1.9422 -0.2502  0.2313
 6518SOL    HW231017   1.180   4.547  11.893  1.0796 -0.1132  1.4720
 6519SOL     OW31018   2.163   2.432   2.044  0.1372  0.1603 -0.3370
 6519SOL    HW131019   2.110   2.362   2.081  0.6025 -0.2107 -0.3804
 6519SOL    HW231020   2.165   2.503   2.108  4.1805  0.1617 -0.4448
 6520SOL     OW31021   2.317   1.469   7.326 -0.6955 -0.4157 -0.1869
 6520SOL    HW131022   2.296   1.556   7.360 -0.1701 -0.7686  1.0396
 6520SOL    HW231023   2.407   1.474   7.296 -1.3852  1.3034 -2.0019
 6521SOL     OW31024   3.336   1.079   6.616 -0.4188 -0.5455 -0.0466
 6521SOL    HW131025   3.291   1.091   6.700  0.0985 -0.4326  0.2171
 6521SOL    HW231026   3.262   1.080   6.555  1.2465  0.8742 -2.0277
 6522SOL     OW31027   2.440   3.592   2.687  0.2827 -0.5120 -0.3315
 6522SOL    HW131028   2.466   3.559   2.601  0.8660  1.2419 -0.8306
 6522SOL    HW231029   2.371   3.530   2.709 -0.8965  1.3951  1.3899
 6523SOL     OW31030   2.873   4.341   8.320 -0.1300 -0.2003 -0.2309
 6523SOL    HW131031   2.898   4.281   8.249  0.2255 -0.3306  0.0034
 6523SOL    HW231032   2.862   4.422   8.270 -0.1187 -0.1770 -0.1951
 6524SOL     OW31033   3.214   3.683   8.219  0.3310 -0.5366  0.0530
 6524SOL    HW131034   3.222   3.589   8.233 -1.6638 -1.1859 -3.1241
 6524SOL    HW231035   3.120   3.695   8.211  0.6881  1.9521 -0.5953
 6525SOL     OW31036   3.550   1.998   4.991 -0.4231  0.1847  0.9160
 6525SOL    HW131037   3.520   2.028   4.905  1.0751  1.2891  0.7746
 6525SOL    HW231038   3.465   1.995   5.034 -0.3803  3.3447  1.1937
 6526SOL     OW31039   3.571   1.427  16.804  0.1672  0.5030  0.0956
 6526SOL    HW131040   3.511   1.469  16.866  0.0348  0.6438 -0.1297
 6526SOL    HW231041   3.606   1.505  16.760 -1.2558  0.5846 -0.8884
 6527SOL     OW31042   0.240   4.621  13.863 -0.0807  0.2039  0.4614
 6527SOL    HW131043   0.262   4.704  13.819 -1.5141  0.3089 -0.0418
 6527SOL    HW231044   0.179   4.575  13.806 -0.5902 -0.9684  1.9693
 6528SOL     OW31045   4.422   2.385   0.868 -0.0834  0.3154  0.0523
 6528SOL    HW131046   4.502   2.426   0.834 -0.4274  1.5829  0.7968
 6528SOL    HW231047   4.428   2.310   0.809 -0.9350  0.8753 -0.7306
 6529SOL     OW31048   3.598   1.618   4.235 -0.2983 -0.0511  0.5075
 6529SOL    HW131049   3.576   1.528   4.259 -0.1212 -1.0889 -3.3236
 6529SOL    HW231050   3.667   1.636   4.298 -1.5378 -0.5017  2.0036
 6530SOL     OW31051   3.345   0.328   3.526 -0.0427 -0.1124 -0.4239
 6530SOL    HW131052   3.254   0.350   3.509  0.0816  1.5689  1.0521
 6530SOL    HW231053   3.353   0.323   3.621 -2.2021  1.4062 -0.1641
 6531SOL     OW31054   1.012   4.391   2.855  0.1853  0.2344  0.5917
 6531SOL    HW131055   1.032   4.308   2.811 -0.4343 -1.5854  3.6758
 6531SOL    HW231056   1.062   4.457   2.808 -1.8113  1.7808  0.6420
 6532SOL     OW31057   1.994   2.973   7.106 -0.2199  0.4122 -0.1511
 6532SOL    HW131058   1.986   2.886   7.067 -1.8181  0.5358 -0.1084
 6532SOL    HW231059   2.082   2.958   7.141 -0.0656 -0.0974 -0.7413
 6533SOL     OW31060   0.732   2.228  13.344  0.1405 -0.4606  0.7712
 6533SOL    HW131061   0.685   2.303  13.382 -1.1262 -0.5985 -0.5315
 6533SOL    HW231062   0.749   2.258  13.255  0.8401  2.1558  1.7639
 6534SOL     OW31063   0.265   1.545   7.734  0.0227 -0.0393  0.3929
 6534SOL    HW131064   0.346   1.595   7.748  1.3676 -2.2712  0.6671
 6534SOL    HW231065   0.259   1.540   7.639  1.9919 -0.9435  0.3054
 6535SOL     OW31066   0.777   2.929   8.456 -0.1973 -0.4232  0.1248
 6535SOL    HW131067   0.771   3.025   8.451 -0.0098 -0.4899 -1.3969
 6535SOL    HW231068   0.872   2.914   8.458  0.4293  2.9078 -3.1341
 6536SOL     OW31069   3.582   1.465   8.937  0.0042 -0.5005  1.0603
 6536SOL    HW131070   3.542   1.534   8.990 -0.6124  0.1806 -0.2933
 6536SOL    HW231071   3.513   1.400   8.952 -2.3860  1.1480 -2.6523
 6537SOL     OW31072   2.355   2.276   7.881  0.1922  0.6496 -0.2206
 6537SOL    HW131073   2.390   2.361   7.909  3.1198 -0.7900  0.4114
 6537SOL    HW231074   2.295   2.259   7.954  1.9235  0.1025  1.0694
 6538SOL     OW31075   0.008   4.664  14.068  0.6779 -0.7525  0.0135
 6538SOL    HW131076   0.003   4.577  14.028  1.6674 -0.4540 -0.7806
 6538SOL    HW231077   4.661   4.657  14.131 -1.9399  2.7092 -2.5251
 6539SOL     OW31078   3.854   4.594   8.546 -0.1601  0.0045 -1.1858
 6539SOL    HW131079   3.771   4.640   8.552 -1.1406 -1.6930 -1.7389
 6539SOL    HW231080   3.825   4.520   8.494 -0.5670  2.2262 -4.0975
 6540SOL     OW31081   1.266   1.616   5.748  0.6703  0.0077 -0.0335
 6540SOL    HW131082   1.209   1.687   5.719 -0.1329 -0.2828  0.8383
 6540SOL    HW231083   1.320   1.663   5.813 -0.2898  1.7925 -0.5150
 6541SOL     OW31084   1.904   1.407   1.831  0.4461  0.1897  0.2978
 6541SOL    HW131085   1.855   1.472   1.881 -1.7079 -0.1106 -1.4322
 6541SOL    HW231086   1.957   1.366   1.898  0.9568 -0.3527 -0.4354
 6542SOL     OW31087   1.990   1.033   2.816  0.5544  0.2873 -0.4082
 6542SOL    HW131088   1.998   1.088   2.894  1.6762  1.0864 -1.0898
 6542SOL    HW231089   2.081   1.033   2.786  1.6943 -0.1812  3.0383
 6543SOL     OW31090   1.583   3.840   3.686 -0.1707 -0.3295 -0.1138
 6543SOL    HW131091   1.610   3.915   3.634 -0.4589 -0.2874 -0.2016
 6543SOL    HW231092   1.667   3.818   3.726  1.3477  4.3905 -0.7860
 6544SOL     OW31093   3.891   3.094   4.052  0.3738  0.4358 -0.0319
 6544SOL    HW131094   3.945   3.016   4.042 -0.3818 -0.1018  0.0744
 6544SOL    HW231095   3.953   3.167   4.059  0.3702  0.7457 -3.5963
 6545SOL     OW31096   4.317   2.101   0.435 -0.1432 -0.2876 -0.1067
 6545SOL    HW131097   4.227   2.071   0.445  0.5970 -2.0858  1.1450
 6545SOL    HW231098   4.366   2.029   0.475 -1.6557 -1.3665 -0.2302
 6546SOL     OW31099   4.558   2.767   2.694 -0.8148  0.0472 -0.2307
 6546SOL    HW131100   4.490   2.834   2.706 -0.0204  0.5386  1.4971
 6546SOL    HW231101   4.535   2.704   2.762 -3.2045  2.7786  1.4965
 6547SOL     OW31102   1.843   0.848  14.447  0.1649 -0.0012  0.3427
 6547SOL    HW131103   1.819   0.940  14.459 -0.5364  0.0098 -1.2156
 6547SOL    HW231104   1.783   0.807  14.510 -1.1248 -0.9358 -1.4731
 6548SOL     OW31105   0.740   4.158   8.715  0.0023  0.0190 -0.0380
 6548SOL    HW131106   0.708   4.131   8.801 -0.2172  0.7621  0.1135
 6548SOL    HW231107   0.654   4.192   8.691  0.8587  1.9796 -0.3448
 6549SOL     OW31108   3.623   0.626  14.402  0.3280 -0.3871  0.4397
 6549SOL    HW131109   3.642   0.547  14.352  1.4631 -0.1253  0.4603
 6549SOL    HW231110   3.604   0.599  14.492  0.3543 -1.8609  0.0035
 6550SOL     OW31111   1.706   0.139  14.718  0.6948  0.1439 -0.3710
 6550SOL    HW131112   1.669   0.059  14.681 -1.9934  0.4742  1.5618
 6550SOL    HW231113   1.793   0.137  14.680  1.5249 -0.8705  1.5640
 6551SOL     OW31114   1.820   4.287   8.764 -0.0013  0.3899 -0.5986
 6551SOL    HW131115   1.768   4.212   8.793  0.1405  0.5645  0.1213
 6551SOL    HW231116   1.779   4.362   8.806  0.0591  0.4427 -0.6334
 6552SOL     OW31117   3.594   3.146   6.049  0.1458  0.2383  0.2678
 6552SOL    HW131118   3.574   3.195   6.128 -1.0593 -1.7833  1.2210
 6552SOL    HW231119   3.542   3.066   6.061  1.9781 -0.9382  0.3778
 6553SOL     OW31120   3.362   0.431  15.931  0.8084  0.0818 -0.2285
 6553SOL    HW131121   3.352   0.435  15.836  0.2977  0.6491 -0.1500
 6553SOL    HW231122   3.287   0.482  15.963 -0.9341 -1.1083 -2.4762
 6554SOL     OW31123   2.783   2.341  13.502  0.5262 -0.3220  0.3843
 6554SOL    HW131124   2.829   2.342  13.587  1.3634 -0.1452 -0.0655
 6554SOL    HW231125   2.773   2.436  13.492 -0.2727 -0.3814  0.6666
 6555SOL     OW31126   1.743   4.594  13.373 -0.1999 -0.3046  0.1526
 6555SOL    HW131127   1.658   4.578  13.416  0.0897  1.3660  1.3471
 6555SOL    HW231128   1.738   4.689  13.362 -0.4833 -0.3712 -0.3167
 6556SOL     OW31129   3.614   3.819  14.197  0.5322 -0.4511 -0.3404
 6556SOL    HW131130   3.536   3.859  14.159  1.0897  0.6378 -0.3646
 6556SOL    HW231131   3.654   3.781  14.119 -1.8355 -4.0472  0.2056
 6557SOL     OW31132   3.874   1.280   1.861 -0.5139  0.1008 -0.2755
 6557SOL    HW131133   3.814   1.247   1.927  1.4920  1.9337  2.4787
 6557SOL    HW231134   3.923   1.347   1.909 -0.9757  0.2522 -0.0124
 6558SOL     OW31135   3.063   1.096   3.852 -0.7232  0.3938 -0.3206
 6558SOL    HW131136   3.078   1.184   3.885 -0.3182  0.3349 -0.3478
 6558SOL    HW231137   2.977   1.110   3.813 -1.1571 -1.0031  0.1262
 6559SOL     OW31138   2.047   4.202   4.452  0.2335  0.4014 -0.0926
 6559SOL    HW131139   2.129   4.206   4.403 -0.3996 -1.3015 -1.2824
 6559SOL    HW231140   1.985   4.155   4.396 -1.1530  3.0199 -0.7833
 6560SOL     OW31141   3.890   0.490   1.040  0.4865  0.9577  0.1226
 6560SOL    HW131142   3.816   0.442   1.003  0.5441  0.7535  0.2753
 6560SOL    HW231143   3.869   0.484   1.133 -1.4124  0.6186 -0.3184
 6561SOL     OW31144   0.430   0.290   7.716 -0.1125 -0.2290 -0.4207
 6561SOL    HW131145   0.421   0.254   7.628  1.3918 -0.2139 -0.5761
 6561SOL    HW231146   0.453   0.212   7.768  0.0368  0.6430  0.8168
 6562SOL     OW31147   0.228   4.442   8.478 -0.0608 -0.1728  0.2735
 6562SOL    HW131148   0.149   4.432   8.425  0.2353 -0.2001 -0.1680
 6562SOL    HW231149   0.229   4.352   8.508  0.3454 -0.4005 -0.4186
 6563SOL     OW31150   4.635   4.586   2.601  0.7214  0.5450 -0.1887
 6563SOL    HW131151   4.694   4.519   2.566 -1.1620 -1.3663  0.3157
 6563SOL    HW231152   4.563   4.569   2.541  1.1996 -2.2754  0.0055
 6564SOL     OW31153   3.698   0.315   0.348 -0.1968 -0.2491 -0.1390
 6564SOL    HW131154   3.710   0.233   0.395  1.9785 -0.7519 -1.5575
 6564SOL    HW231155   3.628   0.358   0.397  0.8946 -2.2262  3.1546
 6565SOL     OW31156   3.340   2.971   1.438  0.3007  0.6178 -0.1170
 6565SOL    HW131157   3.403   2.915   1.392  1.8588  2.4513 -0.1868
 6565SOL    HW231158   3.343   3.045   1.377 -0.3266 -0.6752 -1.7282
 6566SOL     OW31159   4.014   1.912   4.507 -0.1711  0.3101  0.2287
 6566SOL    HW131160   3.938   1.894   4.563  0.9786 -0.6389  1.4994
 6566SOL    HW231161   4.083   1.865   4.554  0.9525  2.1189  0.3843
 6567SOL     OW31162   0.224   4.693  10.736  0.1437 -0.0543  0.1455
 6567SOL    HW131163   0.264   4.662  10.818  1.7844  0.2493 -0.5352
 6567SOL    HW231164   0.229   0.062  10.758 -5.0586 -0.1624  1.7118
 6568SOL     OW31165   1.762   1.216   3.854 -0.3378 -0.1727 -1.0881
 6568SOL    HW131166   1.829   1.213   3.786  1.1896  2.3134  0.3231
 6568SOL    HW231167   1.766   1.303   3.893  0.3777 -0.3114 -0.8435
 6569SOL     OW31168   1.367   3.751   9.057 -0.1302 -0.0080  0.2465
 6569SOL    HW131169   1.272   3.750   9.068 -0.1750  1.2537 -0.0673
 6569SOL    HW231170   1.400   3.679   9.110  1.7433  1.8605  1.6087
 6570SOL     OW31171   3.421   3.709   2.818 -0.3581  0.0465  0.0312
 6570SOL    HW131172   3.335   3.724   2.857 -1.0970 -1.4068 -1.0481
 6570SOL    HW231173   3.461   3.654   2.885 -0.5217  0.9453  0.8683
 6571SOL     OW31174   3.773   1.538   8.759 -0.0314  0.4833 -0.2389
 6571SOL    HW131175   3.745   1.518   8.669  3.6957 -0.1576 -1.2653
 6571SOL    HW231176   3.714   1.486   8.814 -0.0575  1.4848  0.6641
 6572SOL     OW31177   0.281   4.190   3.228  0.0360 -0.3087  0.3668
 6572SOL    HW131178   0.202   4.157   3.183  0.2584 -1.3685  0.7502
 6572SOL    HW231179   0.346   4.129   3.193 -0.1552 -0.2179 -0.1569
 6573SOL     OW31180   3.592   3.741   7.827 -0.1349 -0.0588  0.3695
 6573SOL    HW131181   3.526   3.683   7.791  1.4298 -1.4716 -0.2420
 6573SOL    HW231182   3.538   3.812   7.862  1.0349  1.1767 -0.3168
 6574SOL     OW31183   3.770   4.291  11.809 -0.0181  0.3529 -0.2008
 6574SOL    HW131184   3.807   4.346  11.878 -0.1411 -1.5349  1.3753
 6574SOL    HW231185   3.713   4.246  11.871  1.5285 -1.5999 -0.2220
 6575SOL     OW31186   0.511   1.841   1.889 -0.2095 -0.1826  0.3076
 6575SOL    HW131187   0.470   1.913   1.842  0.0731 -0.3508 -0.1955
 6575SOL    HW231188   0.455   1.764   1.881 -0.5307 -0.0100  0.9005
 6576SOL     OW31189   4.463   2.989   2.005 -0.4317  0.0741 -0.0649
 6576SOL    HW131190   4.550   3.025   1.987 -0.6362 -0.8943 -3.0774
 6576SOL    HW231191   4.480   2.939   2.085  0.2907 -0.7579 -0.7384
 6577SOL     OW31192   2.734   2.906  14.802 -0.1263  0.4740 -0.0432
 6577SOL    HW131193   2.738   2.873  14.712  1.4955  0.2419  0.1227
 6577SOL    HW231194   2.819   2.950  14.800 -1.0189  2.1013 -2.5396
 6578SOL     OW31195   2.847   4.248   3.739 -0.1522  0.0489  0.0805
 6578SOL    HW131196   2.872   4.305   3.666  1.8371  0.0393  0.7636
 6578SOL    HW231197   2.781   4.301   3.783  0.4937  2.1693 -1.5150
 6579SOL     OW31198   1.037   0.646   5.573 -0.0641  0.4119  0.2338
 6579SOL    HW131199   1.020   0.614   5.661 -0.7901 -0.5937 -0.2763
 6579SOL    HW231200   1.058   0.568   5.521  1.6519  0.3550  1.0015
 6580SOL     OW31201   0.072   1.695  11.607 -0.0632 -0.0642  0.0695
 6580SOL    HW131202   0.076   1.612  11.559  1.2109 -1.5593  2.7236
 6580SOL    HW231203   0.165   1.718  11.608 -0.5573  1.9566 -0.6676
 6581SOL     OW31204   0.395   3.838   5.409 -0.0019  0.5299 -0.2145
 6581SOL    HW131205   0.451   3.910   5.439  0.5713 -0.7922  1.8651
 6581SOL    HW231206   0.408   3.774   5.479 -0.2587  0.7320  0.0172
 6582SOL     OW31207   3.991   0.693   8.706  0.0958  0.0041  0.2282
 6582SOL    HW131208   3.978   0.668   8.615 -0.4158  0.1244  0.2655
 6582SOL    HW231209   3.947   0.623   8.755  1.7284 -2.7473 -2.2736
 6583SOL     OW31210   3.871   3.683  12.170  0.7789  0.0838  0.7489
 6583SOL    HW131211   3.883   3.766  12.125 -1.8188 -1.5984 -3.0479
 6583SOL    HW231212   3.848   3.629  12.094 -0.1621  1.9093 -0.2624
 6584SOL     OW31213   3.951   3.307   2.974 -0.1384 -0.0006 -0.3573
 6584SOL    HW131214   3.864   3.273   2.993 -0.1285 -0.3036 -0.8611
 6584SOL    HW231215   3.972   3.349   3.058 -0.1934  2.4488 -1.5926
 6585SOL     OW31216   2.197   2.895   4.019 -0.1590  0.2393 -0.1015
 6585SOL    HW131217   2.247   2.850   3.951  0.2640 -0.3537  0.6063
 6585SOL    HW231218   2.152   2.817   4.052  1.1725 -1.1431 -1.5466
 6586SOL     OW31219   1.499   2.675   9.166  0.0427 -0.0706 -0.6538
 6586SOL    HW131220   1.553   2.742   9.126 -1.0875  2.6357  2.3633
 6586SOL    HW231221   1.490   2.704   9.257 -1.7156  0.9817 -1.1693
 6587SOL     OW31222   1.969   0.282  15.127 -0.1045  0.2244  0.6582
 6587SOL    HW131223   1.910   0.306  15.055 -1.7507 -1.1846  1.5399
 6587SOL    HW231224   2.053   0.300  15.085 -0.1691  1.7416  1.1487
 6588SOL     OW31225   3.927   1.770  10.689 -0.0634  0.2050 -0.2122
 6588SOL    HW131226   3.914   1.694  10.633  0.6670  0.1065 -0.2476
 6588SOL    HW231227   3.871   1.749  10.764  2.2106 -0.1139  1.4034
 6589SOL     OW31228   0.099   1.534   4.855 -0.2138 -0.3222 -0.2353
 6589SOL    HW131229   0.008   1.518   4.830 -0.1571  2.5190 -2.2176
 6589SOL    HW231230   0.106   1.470   4.926 -1.8325 -1.8012 -1.3945
 6590SOL     OW31231   1.541   3.949   3.941 -0.0958 -0.1140 -0.0234
 6590SOL    HW131232   1.473   3.893   3.980  0.7593 -1.5673 -0.5917
 6590SOL    HW231233   1.564   3.901   3.861  1.1933  2.7637 -1.3820
 6591SOL     OW31234   2.723   3.054   5.045  0.0060  0.1217 -0.3698
 6591SOL    HW131235   2.630   3.068   5.030  0.2753  0.8468 -1.2993
 6591SOL    HW231236   2.756   3.142   5.026  0.5824 -0.2016 -0.8703
 6592SOL     OW31237   0.764   0.375   2.269  0.5899 -0.5406  0.0311
 6592SOL    HW131238   0.688   0.318   2.277  1.2859 -1.2551  1.5957
 6592SOL    HW231239   0.748   0.432   2.194 -2.1594 -0.7551  0.4553
 6593SOL     OW31240   1.025   4.381   7.638  0.7435  0.1289  0.6956
 6593SOL    HW131241   1.057   4.307   7.586  1.5245  0.1507  1.1291
 6593SOL    HW231242   0.972   4.437   7.582  2.5403  2.0844  0.9233
 6594SOL     OW31243   3.978   2.033   3.521 -0.3383 -0.3533 -0.1392
 6594SOL    HW131244   4.008   2.006   3.608 -0.3235 -1.6606 -0.5511
 6594SOL    HW231245   3.913   1.965   3.499  0.4895 -0.8899 -0.9090
 6595SOL     OW31246   4.486   2.975   6.692 -0.3205 -0.1446  0.4106
 6595SOL    HW131247   4.446   2.957   6.607  0.0754  2.6550 -0.3573
 6595SOL    HW231248   4.430   2.923   6.750  1.6912 -0.2637  2.2228
 6596SOL     OW31249   1.351   0.117   5.298 -0.1719 -0.5309 -0.0293
 6596SOL    HW131250   1.409   0.193   5.296 -1.4025  0.4517  1.2850
 6596SOL    HW231251   1.381   0.073   5.219 -1.0963 -1.7099  0.2749
 6597SOL     OW31252   4.038   4.540   0.848  0.6575 -0.2717  0.2665
 6597SOL    HW131253   3.943   4.540   0.837  0.4234 -1.2232  2.2009
 6597SOL    HW231254   4.053   4.537   0.943  2.3869 -1.1158 -0.0328
 6598SOL     OW31255   3.426   4.112   7.136 -0.0575 -0.2374 -0.2572
 6598SOL    HW131256   3.424   4.018   7.152 -0.1649 -0.5222 -1.9079
 6598SOL    HW231257   3.379   4.149   7.211 -1.2903  1.0655 -1.6575
 6599SOL     OW31258   3.284   1.750  11.907 -0.4332 -0.3385 -0.6994
 6599SOL    HW131259   3.283   1.813  11.978 -2.9443 -2.3029  0.9953
 6599SOL    HW231260   3.318   1.681  11.964 -0.9933 -0.4685 -0.5285
 6600SOL     OW31261   0.633   2.298   7.610  0.1684  0.3988  0.4120
 6600SOL    HW131262   0.582   2.280   7.689  0.1026 -0.9798  0.0440
 6600SOL    HW231263   0.575   2.364   7.572 -0.0157 -2.5866 -4.4906
 6601SOL     OW31264   2.554   2.437   6.554 -0.4798 -0.5599  0.2739
 6601SOL    HW131265   2.553   2.521   6.510  0.7735 -1.4358 -1.4425
 6601SOL    HW231266   2.486   2.393   6.503 -1.0340 -0.1486  0.6605
 6602SOL     OW31267   2.645   0.550  10.555 -0.0886  0.6404 -0.1952
 6602SOL    HW131268   2.738   0.561  10.533  0.0188  0.5986  0.2365
 6602SOL    HW231269   2.611   0.533  10.468 -1.0236 -1.6290  0.6225
 6603SOL     OW31270   1.321   3.087   9.455 -0.5486 -0.4763  0.3844
 6603SOL    HW131271   1.348   3.124   9.540 -0.0221 -1.0994  0.4863
 6603SOL    HW231272   1.318   2.995   9.482 -0.2521 -0.2602  1.1686
 6604SOL     OW31273   4.556   1.186   2.097  0.1693 -0.2064  0.0891
 6604SOL    HW131274   4.522   1.265   2.138  1.2136  0.5681 -0.5351
 6604SOL    HW231275   4.491   1.187   2.027 -0.5721  1.8172  0.8102
 6605SOL     OW31276   0.230   3.385   1.837 -0.6574 -0.0758  0.0636
 6605SOL    HW131277   0.322   3.361   1.844 -0.2472  1.0227 -1.4962
 6605SOL    HW231278   0.226   3.481   1.839 -1.9330 -0.0785 -2.1971
 6606SOL     OW31279   0.519   2.223   1.953 -0.3164  0.0109  0.1931
 6606SOL    HW131280   0.584   2.183   2.010  1.0685  1.9496 -0.0110
 6606SOL    HW231281   0.484   2.145   1.910 -1.1541  0.6253 -0.2333
 6607SOL     OW31282   3.497   0.314  15.299  0.5255 -0.5269  0.1371
 6607SOL    HW131283   3.501   0.291  15.392 -0.6693 -2.4645 -0.2954
 6607SOL    HW231284   3.582   0.282  15.268  0.8089  1.1801 -0.8757
 6608SOL     OW31285   4.393   3.169   0.985  0.0615  0.1082  0.2360
 6608SOL    HW131286   4.301   3.157   0.960  0.9252 -1.3590 -2.3321
 6608SOL    HW231287   4.378   3.198   1.074 -2.1787  0.0576 -0.1256
 6609SOL     OW31288   1.646   2.837  14.862 -0.2232 -0.1089  0.3384
 6609SOL    HW131289   1.713   2.862  14.926 -1.7515 -1.1416  2.3203
 6609SOL    HW231290   1.571   2.895  14.879 -0.3308 -0.3177  0.5745
 6610SOL     OW31291   2.846   2.073   5.007 -0.2881  0.2395 -0.0585
 6610SOL    HW131292   2.923   2.069   5.063  0.2801 -1.9695 -1.0276
 6610SOL    HW231293   2.868   2.142   4.945 -1.9813  1.6050  0.8275
 6611SOL     OW31294   1.463   2.302   1.237 -0.2539 -0.0445  0.4329
 6611SOL    HW131295   1.546   2.256   1.252 -0.3843 -1.1551 -2.3506
 6611SOL    HW231296   1.435   2.276   1.150  1.2682  1.7520 -0.5817
 6612SOL     OW31297   3.931   0.511  10.788 -0.0833  0.2918  0.7661
 6612SOL    HW131298   3.856   0.525  10.846  0.6284  0.6773  1.5965
 6612SOL    HW231299   3.930   0.595  10.742  0.2657 -0.2050 -0.1491
 6613SOL     OW31300   1.810   3.873  15.869 -0.5963 -0.3149  0.4899
 6613SOL    HW131301   1.893   3.876  15.917 -0.6951 -2.0547  0.7726
 6613SOL    HW231302   1.790   3.966  15.861  0.1017 -0.2128 -0.0827
 6614SOL     OW31303   1.953   0.714   5.516  0.3029 -0.0109 -0.0484
 6614SOL    HW131304   1.936   0.638   5.572 -1.4579 -0.1628 -0.7940
 6614SOL    HW231305   1.912   0.690   5.433 -1.6485  0.6258  0.7311
 6615SOL     OW31306   0.321   4.213   2.348 -0.2119  0.4607 -0.1082
 6615SOL    HW131307   0.383   4.268   2.300 -1.1271  2.6954  1.2894
 6615SOL    HW231308   0.325   4.264   2.428  1.2054 -1.4646  1.0673
 6616SOL     OW31309   0.523   1.762   6.255 -0.3838 -0.0045  0.3382
 6616SOL    HW131310   0.558   1.729   6.173  0.4823 -1.4139  1.2873
 6616SOL    HW231311   0.550   1.854   6.261  0.4423 -0.2636  0.4958
 6617SOL     OW31312   1.126   1.207   4.231  0.5068  0.3894  0.0625
 6617SOL    HW131313   1.150   1.199   4.139 -2.5617 -2.8283 -0.4146
 6617SOL    HW231314   1.138   1.117   4.262 -0.2082  1.0055  2.0857
 6618SOL     OW31315   2.857   3.114   4.309 -0.4850  0.7171 -0.0280
 6618SOL    HW131316   2.762   3.107   4.297 -0.4507 -2.1412  1.4850
 6618SOL    HW231317   2.865   3.128   4.403  2.2422 -0.5700 -0.0740
 6619SOL     OW31318   1.537   2.784  14.421  0.6461  0.2978  0.5022
 6619SOL    HW131319   1.516   2.697  14.388  0.3929  0.0149  1.4098
 6619SOL    HW231320   1.467   2.790  14.486 -0.5298 -0.3441 -0.6935
 6620SOL     OW31321   3.132   1.664   5.414 -0.0964  0.1097  0.5521
 6620SOL    HW131322   3.122   1.759   5.410  1.6894  0.1917 -2.3110
 6620SOL    HW231323   3.163   1.646   5.503 -0.2186 -2.3214  0.0902
 6621SOL     OW31324   1.507   3.431  15.976 -0.7545  0.0918  0.2224
 6621SOL    HW131325   1.545   3.435  15.888 -2.4824  1.9650 -0.4407
 6621SOL    HW231326   1.566   3.480  16.033  0.0568 -1.0830  0.3868
 6622SOL     OW31327   0.781   1.608   2.576 -0.6405 -0.2361 -0.0440
 6622SOL    HW131328   0.757   1.526   2.533 -0.9780 -1.0268  1.6296
 6622SOL    HW231329   0.777   1.668   2.502 -2.2713  0.8568  0.9207
 6623SOL     OW31330   4.658   2.661  10.349  0.1398  0.0769  0.7690
 6623SOL    HW131331   4.580   2.656  10.403  0.2876  0.4100  1.0200
 6623SOL    HW231332   4.609   2.648  10.268  1.9146  1.2820 -0.5258
 6624SOL     OW31333   3.798   3.996  16.101 -0.5157  0.0323  0.1025
 6624SOL    HW131334   3.715   4.023  16.141  0.0934  0.4409  1.1111
 6624SOL    HW231335   3.827   3.935  16.170 -0.8686 -1.1373 -0.7818
 6625SOL     OW31336   2.780   0.317   4.663 -0.4574  0.1048  0.0916
 6625SOL    HW131337   2.713   0.262   4.703 -0.6610  0.7751  0.6723
 6625SOL    HW231338   2.824   0.251   4.610 -0.7604 -0.0850  0.0750
 6626SOL     OW31339   4.588   3.925   2.259  0.1238 -0.9727  0.3426
 6626SOL    HW131340   4.498   3.897   2.274  0.3567  0.5515  4.6280
 6626SOL    HW231341   4.643   3.854   2.293 -1.3405 -1.4974  1.6109
 6627SOL     OW31342   0.386   2.408   7.496  0.1129  0.1291 -0.3529
 6627SOL    HW131343   0.301   2.432   7.533 -0.7944 -1.9526 -1.0728
 6627SOL    HW231344   0.378   2.439   7.406  0.4239 -0.3246 -0.5431
 6628SOL     OW31345   1.722   2.104   4.044 -0.3877  0.0319 -0.3776
 6628SOL    HW131346   1.748   2.098   4.136  1.2468  2.4318 -0.6646
 6628SOL    HW231347   1.683   2.017   4.038 -1.4844  0.4619  0.4952
 6629SOL     OW31348   3.816   0.890   1.162 -0.3064 -0.6421  0.8961
 6629SOL    HW131349   3.787   0.952   1.230  1.4912 -1.1010  2.0820
 6629SOL    HW231350   3.752   0.913   1.095  1.6769 -2.0293 -1.4580
 6630SOL     OW31351   2.950   0.653   6.502  0.0772 -0.3852 -0.6008
 6630SOL    HW131352   2.885   0.717   6.472 -1.8044 -1.3175  1.3959
 6630SOL    HW231353   3.020   0.681   6.445 -1.0721  2.0566 -0.8294
 6631SOL     OW31354   1.769   4.393   5.174 -0.0572  0.2113  0.0241
 6631SOL    HW131355   1.687   4.408   5.222 -0.2956 -0.1774 -0.2700
 6631SOL    HW231356   1.769   4.466   5.112 -0.1872  0.2481  0.0674
 6632SOL     OW31357   1.401   0.569  14.612  0.1290 -0.3511  0.2779
 6632SOL    HW131358   1.387   0.660  14.585  3.0882 -0.3633 -1.2568
 6632SOL    HW231359   1.310   0.545  14.627 -0.0806  1.0641  1.3253
 6633SOL     OW31360   4.624   3.285  17.530  0.4039  0.3988 -0.1079
 6633SOL    HW131361   4.552   3.289  17.594 -0.7072  1.6876 -1.4363
 6633SOL    HW231362   4.601   3.368  17.489 -0.2273 -0.7547 -2.1449
 6634SOL     OW31363   2.613   3.459  10.539 -0.5136  0.4844  0.5142
 6634SOL    HW131364   2.527   3.460  10.579 -0.4901  0.8346  0.5543
 6634SOL    HW231365   2.664   3.481  10.617 -0.0385 -0.2313  0.4088
 6635SOL     OW31366   2.831   2.626   3.994 -0.0736 -0.0392 -0.2267
 6635SOL    HW131367   2.875   2.546   3.963  0.5062 -0.1237  0.8274
 6635SOL    HW231368   2.760   2.587   4.045 -0.3172  0.8811  0.1258
 6636SOL     OW31369   2.693   0.933   1.626  0.7040 -0.4977  0.3778
 6636SOL    HW131370   2.669   0.988   1.701 -0.8503  0.8115 -1.0891
 6636SOL    HW231371   2.786   0.955   1.623 -0.0108  2.3479 -0.3666
 6637SOL     OW31372   2.698   0.367  16.717 -0.3775  0.5893 -0.1836
 6637SOL    HW131373   2.728   0.447  16.759 -1.4080  0.5640  0.5929
 6637SOL    HW231374   2.645   0.329  16.787 -1.0174  1.3597 -0.2503
 6638SOL     OW31375   4.210   2.885   3.237  0.0813  0.3189  0.0357
 6638SOL    HW131376   4.204   2.945   3.311 -1.9706  1.1067 -0.7962
 6638SOL    HW231377   4.259   2.811   3.274 -0.3131 -0.2548 -0.5830
 6639SOL     OW31378   2.153   3.587   5.886 -0.1282 -0.5672  0.3012
 6639SOL    HW131379   2.118   3.498   5.879  0.8079 -0.8036 -1.4463
 6639SOL    HW231380   2.245   3.569   5.866 -0.8340 -0.9137 -2.5951
 6640SOL     OW31381   3.126   0.943  10.492  0.0254 -0.0939  0.1983
 6640SOL    HW131382   3.184   1.002  10.443  0.2316 -0.5805 -0.1457
 6640SOL    HW231383   3.040   0.983  10.480  1.4661  2.8101 -0.5220
 6641SOL     OW31384   3.329   0.828   3.635  0.1185  0.4617  0.7099
 6641SOL    HW131385   3.384   0.750   3.619 -0.4171  0.1097  0.5954
 6641SOL    HW231386   3.256   0.786   3.681 -0.0083  0.4715  0.5164
 6642SOL     OW31387   3.810   0.362   6.609  0.0805  0.6200  0.2621
 6642SOL    HW131388   3.748   0.389   6.541  2.8352  0.7847 -2.1866
 6642SOL    HW231389   3.768   0.371   6.694 -0.4492  0.3502  0.0311
 6643SOL     OW31390   4.697   2.665   3.369 -0.6783 -0.0281  0.3969
 6643SOL    HW131391   4.670   2.594   3.311  0.4055  0.3329 -0.5549
 6643SOL    HW231392   4.695   2.735   3.303 -2.6616 -2.0399 -1.6595
 6644SOL     OW31393   1.740   1.706   6.044  0.3767  0.0064 -0.4452
 6644SOL    HW131394   1.663   1.723   6.099  1.2305 -0.2315  0.8069
 6644SOL    HW231395   1.709   1.633   5.990 -2.6756  1.4522 -0.6528
 6645SOL     OW31396   0.028   3.167  13.928  0.0677  0.2727 -0.0121
 6645SOL    HW131397   4.666   3.195  13.894  0.1985  1.3811  0.5790
 6645SOL    HW231398   0.068   3.246  13.891  0.6475 -0.7222 -1.5054
 6646SOL     OW31399   1.208   0.268   6.774 -0.2294  0.3506 -0.5531
 6646SOL    HW131400   1.220   0.316   6.856 -1.6275  0.5236 -0.4417
 6646SOL    HW231401   1.158   0.192   6.806 -0.5003  1.2701  1.1662
 6647SOL     OW31402   1.749   4.544   0.824 -0.0809  0.2009  0.0973
 6647SOL    HW131403   1.838   4.563   0.854 -0.8590 -3.1110  4.4565
 6647SOL    HW231404   1.717   4.623   0.868 -0.8015  0.5726 -1.0875
 6648SOL     OW31405   1.887   2.408   1.217  0.2933  0.6798  0.0372
 6648SOL    HW131406   1.857   2.499   1.216  0.3268  0.6484 -2.7394
 6648SOL    HW231407   1.877   2.390   1.311  0.3355 -1.5191 -0.3911
 6649SOL     OW31408   2.257   1.290   8.068  0.5808 -0.3418 -0.7880
 6649SOL    HW131409   2.341   1.249   8.084 -0.2662 -0.9086  2.2194
 6649SOL    HW231410   2.195   1.218   8.055 -2.8117  1.8336  3.4229
 6650SOL     OW31411   1.040   0.405  10.727  0.0759 -0.2333 -0.2893
 6650SOL    HW131412   0.964   0.458  10.748 -0.8068 -2.0075  1.0622
 6650SOL    HW231413   0.996   0.324  10.699 -1.1106 -0.0268  1.0040
 6651SOL     OW31414   2.755   2.132   9.306  0.6734 -0.0905  0.3287
 6651SOL    HW131415   2.740   2.143   9.400 -0.3052  1.0475  0.0407
 6651SOL    HW231416   2.723   2.044   9.285 -0.4698  0.4864 -0.3543
 6652SOL     OW31417   2.177   0.557   3.765 -0.1025  0.4724  0.7317
 6652SOL    HW131418   2.177   0.605   3.848 -2.4184  1.5215  0.1198
 6652SOL    HW231419   2.134   0.474   3.787  0.6220  0.4093  1.9068
 6653SOL     OW31420   0.804   1.975  10.057  0.7069  0.7070  0.5977
 6653SOL    HW131421   0.840   2.031  10.126  0.0596  1.7884  0.0606
 6653SOL    HW231422   0.760   2.041  10.003  0.1600 -1.3011 -1.4039
 6654SOL     OW31423   1.124   0.828   9.564  0.2630  0.1376 -0.3982
 6654SOL    HW131424   1.103   0.836   9.657  0.3118 -1.9619 -0.2118
 6654SOL    HW231425   1.038   0.816   9.523  0.9145  0.9792 -2.0267
 6655SOL     OW31426   2.338   2.062   3.633  0.3630 -0.1067  0.4639
 6655SOL    HW131427   2.250   2.032   3.654  0.4471  0.6652  1.9160
 6655SOL    HW231428   2.386   1.983   3.607  0.6729 -0.0929  0.9728
 6656SOL     OW31429   2.163   2.075   5.022  0.2728  0.9225  0.2515
 6656SOL    HW131430   2.226   2.067   5.094  0.9597  2.0593 -0.2124
 6656SOL    HW231431   2.212   2.028   4.954 -1.6287 -0.1771 -0.3469
 6657SOL     OW31432   3.793   1.281   9.929 -0.3924 -0.2776  0.0933
 6657SOL    HW131433   3.818   1.197   9.891 -1.1187 -1.1897  1.6577
 6657SOL    HW231434   3.811   1.262  10.021  0.8726  0.8983  0.0939
 6658SOL     OW31435   3.847   2.375  10.394 -0.1492  0.0531  0.3244
 6658SOL    HW131436   3.755   2.378  10.371  0.0088 -0.2316 -0.3485
 6658SOL    HW231437   3.851   2.308  10.463  0.5728 -1.4054 -1.1128
 6659SOL     OW31438   0.859   2.768   3.466  0.0868 -0.2720 -0.7137
 6659SOL    HW131439   0.916   2.792   3.539 -0.1807  0.6818 -0.8226
 6659SOL    HW231440   0.897   2.694   3.418 -2.7707 -0.9839 -1.8584
 6660SOL     OW31441   0.348   0.973  13.502  0.1751 -0.4341 -0.8280
 6660SOL    HW131442   0.262   0.996  13.467  0.5183  0.2921 -1.1890
 6660SOL    HW231443   0.340   0.878  13.501 -1.2791 -0.3383  0.2546
 6661SOL     OW31444   1.558   3.411   7.855 -0.0805  0.0490 -0.3372
 6661SOL    HW131445   1.653   3.410   7.869 -0.1438  0.6263  0.1641
 6661SOL    HW231446   1.528   3.501   7.869  0.3438 -0.2381  2.2989
 6662SOL     OW31447   1.750   1.271   4.743  0.1024  0.6797 -0.5548
 6662SOL    HW131448   1.697   1.344   4.775  0.4137 -0.5383  2.7210
 6662SOL    HW231449   1.682   1.207   4.723  1.0745 -0.7556  0.8190
 6663SOL     OW31450   1.321   4.032   4.923 -0.4386 -0.0463  0.2476
 6663SOL    HW131451   1.403   4.081   4.930 -0.3026 -0.0397 -1.2897
 6663SOL    HW231452   1.342   3.986   4.841 -0.3286  0.5015 -0.0289
 6664SOL     OW31453   0.262   3.411   9.226  0.0082  0.0736 -0.0563
 6664SOL    HW131454   0.234   3.457   9.305  0.2541  1.7586 -0.9563
 6664SOL    HW231455   0.190   3.350   9.212  0.1874 -0.9895  3.5458
 6665SOL     OW31456   1.976   1.924  17.503  0.1924 -0.8992 -0.6957
 6665SOL    HW131457   1.950   2.001  17.553  1.0461 -0.0829 -1.4926
 6665SOL    HW231458   1.934   1.948  17.420 -1.0275 -0.4517  0.0643
 6666SOL     OW31459   4.063   3.926  15.747  0.7300 -0.6171  0.7463
 6666SOL    HW131460   4.117   3.991  15.701 -1.5723  0.9689  0.3309
 6666SOL    HW231461   4.063   3.950  15.840 -0.2462  0.5145  0.4477
 6667SOL     OW31462   2.849   2.825   4.709 -0.2841 -0.3197 -0.4734
 6667SOL    HW131463   2.832   2.796   4.620 -0.8645  1.5043 -0.9625
 6667SOL    HW231464   2.760   2.839   4.743 -0.0087  2.4669 -0.8477
 6668SOL     OW31465   0.229   3.372   2.732 -0.1878 -0.0997 -0.0569
 6668SOL    HW131466   0.283   3.333   2.664 -0.1998 -0.8216  0.3508
 6668SOL    HW231467   0.259   3.318   2.805  1.4187 -0.3212 -0.8770
 6669SOL     OW31468   1.918   2.567   8.902  0.1253 -0.6561  0.1636
 6669SOL    HW131469   1.965   2.585   8.821  1.2627 -1.1562  0.7244
 6669SOL    HW231470   1.982   2.582   8.971 -0.1818  0.0742  0.2891
 6670SOL     OW31471   0.512   3.841   1.932  0.5148  0.1828  0.8701
 6670SOL    HW131472   0.442   3.892   1.974 -0.7680 -0.5641 -0.3567
 6670SOL    HW231473   0.484   3.853   1.841  1.1331  1.2345  0.8109
 6671SOL     OW31474   4.594   3.180   0.812 -0.1851 -0.5087 -0.0539
 6671SOL    HW131475   4.649   3.172   0.890 -0.0052  0.9543 -0.0388
 6671SOL    HW231476   4.509   3.156   0.849  0.1508  0.0898  1.0912
 6672SOL     OW31477   2.759   1.104   6.226 -0.1144  0.2886 -0.3884
 6672SOL    HW131478   2.668   1.118   6.251  0.6487  3.3076  0.7032
 6672SOL    HW231479   2.802   1.132   6.307 -0.6866  0.1779 -0.0501
 6673SOL     OW31480   2.325   4.411  17.610  0.2304 -0.0154  0.4266
 6673SOL    HW131481   2.300   4.495  17.648  0.5910 -0.7476  2.2997
 6673SOL    HW231482   2.306   4.351  17.682 -2.0961 -0.6541 -0.7343
 6674SOL     OW31483   1.689   2.574   5.231  0.0858 -0.0627 -0.4880
 6674SOL    HW131484   1.750   2.598   5.161  0.9473 -0.6957  0.0421
 6674SOL    HW231485   1.678   2.481   5.210  3.2885 -0.7045  0.5992
 6675SOL     OW31486   4.094   0.718  12.413 -0.6691 -0.1976  0.3064
 6675SOL    HW131487   4.127   0.632  12.439  2.3848  0.3589 -1.6629
 6675SOL    HW231488   4.120   0.779  12.481 -0.8119  1.0976 -0.7914
 6676SOL     OW31489   2.321   4.147   5.063 -0.1476 -0.4853 -0.6050
 6676SOL    HW131490   2.327   4.179   5.153  1.7019 -1.7117 -0.2905
 6676SOL    HW231491   2.243   4.198   5.039  0.6618  0.7915 -0.4890
 6677SOL     OW31492   1.023   3.556   2.798 -0.2865  0.1659  0.1999
 6677SOL    HW131493   1.110   3.596   2.794 -1.0438  1.9746  2.0221
 6677SOL    HW231494   0.962   3.618   2.757 -0.9418 -1.9145 -1.9623
 6678SOL     OW31495   3.533   2.599   6.474  0.2800  0.1100  0.1891
 6678SOL    HW131496   3.478   2.538   6.524 -0.2534 -0.4706 -1.1083
 6678SOL    HW231497   3.542   2.665   6.543  0.4329  0.8957 -0.5935
 6679SOL     OW31498   2.996   0.056   8.576  0.2983 -0.5697 -0.5860
 6679SOL    HW131499   2.913   0.020   8.544 -0.4286 -0.0343  0.7034
 6679SOL    HW231500   2.973   0.144   8.608  0.3101 -0.8242  0.1145
 6680SOL     OW31501   3.062   4.141   8.476 -0.3380  0.1199 -0.7076
 6680SOL    HW131502   2.989   4.203   8.477 -2.0998 -1.9666  0.9190
 6680SOL    HW231503   3.047   4.087   8.554  1.9590  1.1456  0.4623
 6681SOL     OW31504   0.588   0.110  16.372  0.4012 -0.0953 -0.0152
 6681SOL    HW131505   0.573   0.019  16.346 -0.0895  0.0703 -0.3226
 6681SOL    HW231506   0.657   0.115  16.438 -0.0204 -1.1228  0.4920
 6682SOL     OW31507   1.463   2.333   7.795  0.5119  0.6180  0.5794
 6682SOL    HW131508   1.546   2.289   7.812  0.2556 -0.3231 -0.6779
 6682SOL    HW231509   1.458   2.343   7.700 -0.8390 -1.5554  0.4325
 6683SOL     OW31510   1.306   3.248   1.746  0.1857 -0.3436  0.1821
 6683SOL    HW131511   1.236   3.253   1.811  0.8767 -2.4285  1.0872
 6683SOL    HW231512   1.351   3.332   1.740  0.2447 -0.3573  0.4203
 6684SOL     OW31513   1.306   2.056   3.964 -0.0989  0.0838  0.2012
 6684SOL    HW131514   1.276   2.145   3.978 -0.3769 -0.1414  1.0352
 6684SOL    HW231515   1.321   2.050   3.869  0.3047 -0.5270  0.2986
 6685SOL     OW31516   2.748   4.172   0.753 -0.2854 -0.1106 -0.0273
 6685SOL    HW131517   2.828   4.131   0.784  0.5657  1.0978 -0.6084
 6685SOL    HW231518   2.771   4.265   0.763 -4.1888  0.9053 -0.6704
 6686SOL     OW31519   3.436   0.830   6.500 -0.2446  0.1610  0.2170
 6686SOL    HW131520   3.531   0.833   6.512 -0.2074 -0.3463  0.0881
 6686SOL    HW231521   3.407   0.911   6.542  0.5873 -0.2145  1.5155
 6687SOL     OW31522   3.772   2.618   5.531 -0.0778  0.1240  0.1267
 6687SOL    HW131523   3.837   2.627   5.601  1.0171  1.4620 -1.0549
 6687SOL    HW231524   3.776   2.705   5.491 -0.7549  0.1681  0.1537
 6688SOL     OW31525   0.361   4.370  11.189 -0.0414  0.0559 -0.1406
 6688SOL    HW131526   0.435   4.310  11.195 -2.4953 -2.8519  0.7956
 6688SOL    HW231527   0.283   4.315  11.194  0.7671 -1.1281 -0.4921
 6689SOL     OW31528   1.677   1.045  12.575 -0.5920  0.4489 -0.6954
 6689SOL    HW131529   1.725   0.964  12.590  1.7444  1.8887 -0.3621
 6689SOL    HW231530   1.686   1.051  12.479 -2.1212 -3.1513 -1.0839
 6690SOL     OW31531   1.461   2.057   2.661  0.6872 -0.2642  0.7708
 6690SOL    HW131532   1.498   2.113   2.593 -0.0371 -0.8229 -0.0873
 6690SOL    HW231533   1.454   2.114   2.738  2.4853  0.2186  0.5728
 6691SOL     OW31534   0.218   3.834  11.070  0.5887 -0.1947 -0.2479
 6691SOL    HW131535   0.164   3.754  11.076  0.1196  0.1382 -0.0150
 6691SOL    HW231536   0.190   3.877  10.990 -0.4650 -0.5935 -0.0993
 6692SOL     OW31537   3.236   2.960   2.685  0.1959  0.1316 -0.4817
 6692SOL    HW131538   3.309   3.019   2.664 -0.0181  0.1340 -1.2403
 6692SOL    HW231539   3.279   2.875   2.692  2.2614  1.3870  2.3210
 6693SOL     OW31540   2.692   2.668   7.626 -0.5771  0.3764 -0.2007
 6693SOL    HW131541   2.735   2.749   7.656 -0.6029  0.6094 -0.7817
 6693SOL    HW231542   2.597   2.682   7.623 -0.5863 -0.0496 -2.0529
 6694SOL     OW31543   1.573   2.741   2.564  0.6307 -0.1155  0.0144
 6694SOL    HW131544   1.569   2.835   2.550 -2.2236 -0.0485  1.3119
 6694SOL    HW231545   1.561   2.710   2.475 -3.2595 -2.0457  1.2032
 6695SOL     OW31546   4.019   3.831  10.209 -0.2563 -0.1317 -0.1608
 6695SOL    HW131547   3.965   3.907  10.231 -0.4937 -0.3158 -0.1101
 6695SOL    HW231548   4.101   3.878  10.197  1.6294 -2.9346  1.8433
 6696SOL     OW31549   0.338   0.383  14.839 -0.1474  0.0995  0.2917
 6696SOL    HW131550   0.344   0.310  14.778 -0.4091 -0.7716  1.2862
 6696SOL    HW231551   0.428   0.414  14.834 -0.9166  1.6186 -3.5297
 6697SOL     OW31552   2.364   2.702  10.893 -0.0124  0.1011 -0.5383
 6697SOL    HW131553   2.457   2.688  10.909  0.3406  1.5272 -1.2942
 6697SOL    HW231554   2.321   2.648  10.959 -0.6028  1.2866  0.0400
 6698SOL     OW31555   2.412   3.202   7.655  0.0131  0.6999  0.1648
 6698SOL    HW131556   2.380   3.204   7.745 -0.6412 -0.4127 -0.0475
 6698SOL    HW231557   2.352   3.142   7.610 -0.8344 -0.5325  2.9259
 6699SOL     OW31558   1.119   0.936   3.121 -0.2413 -0.2385  0.2201
 6699SOL    HW131559   1.074   1.000   3.176 -1.4381  1.3206 -2.5951
 6699SOL    HW231560   1.203   0.982   3.127  0.1499 -1.0243  0.7783
 6700SOL     OW31561   3.194   4.278   1.936 -0.4915 -0.7959 -0.6023
 6700SOL    HW131562   3.283   4.258   1.907 -0.7240 -0.1139 -1.7806
 6700SOL    HW231563   3.195   4.365   1.975  3.6091 -1.2702  0.2800
 6701SOL     OW31564   1.972   0.841   5.795 -0.6521  0.1141  0.0350
 6701SOL    HW131565   1.935   0.926   5.821 -0.0821  1.4505 -3.5368
 6701SOL    HW231566   1.948   0.826   5.703  0.2378  0.3250 -0.2311
 6702SOL     OW31567   2.623   4.704   3.850 -0.1965 -0.2755 -0.3704
 6702SOL    HW131568   2.609   0.046   3.782 -2.4440 -0.4637 -0.0913
 6702SOL    HW231569   2.618   0.039   3.925  0.1775  2.5240 -2.5514
 6703SOL     OW31570   0.751   1.949   3.341 -0.0333  0.0186  0.1724
 6703SOL    HW131571   0.747   1.876   3.280  0.7504  0.2721 -0.1881
 6703SOL    HW231572   0.799   1.913   3.416 -0.0806 -0.4040 -0.0045
 6704SOL     OW31573   3.876   4.635   1.315  0.5579 -0.1882 -0.3664
 6704SOL    HW131574   3.820   4.562   1.342  0.8514 -0.2730  0.0033
 6704SOL    HW231575   3.867   4.686   1.395  0.8890  2.8015 -2.2106
 6705SOL     OW31576   2.305   2.915  17.328 -0.2334 -0.0430  0.1684
 6705SOL    HW131577   2.399   2.913  17.311 -0.1069 -0.3173  0.9075
 6705SOL    HW231578   2.294   3.010  17.331 -1.6272 -0.1875 -0.3368
 6706SOL     OW31579   0.579   2.997   6.518  0.2710  0.4616 -0.9177
 6706SOL    HW131580   0.616   2.949   6.444  0.4179 -0.6703 -0.1154
 6706SOL    HW231581   0.576   3.088   6.491  1.0155  1.2843  1.7767
 6707SOL     OW31582   1.872   0.006  16.025  0.4189  0.3591 -0.2130
 6707SOL    HW131583   1.928   4.702  16.098  0.6403  0.2212 -0.4338
 6707SOL    HW231584   1.923   4.697  15.951 -2.8883 -0.3878 -2.1388
 6708SOL     OW31585   3.661   0.769   8.651 -0.4398  0.4245 -0.1419
 6708SOL    HW131586   3.754   0.775   8.630 -0.1604  0.0760  1.0403
 6708SOL    HW231587   3.656   0.836   8.719 -3.9068 -1.1908  1.1832
 6709SOL     OW31588   2.197   3.585   5.198 -0.2543  0.2242  0.2906
 6709SOL    HW131589   2.292   3.583   5.213  0.0354 -0.1348 -1.6173
 6709SOL    HW231590   2.172   3.496   5.222 -0.5721  0.1751 -0.2326
 6710SOL     OW31591   0.350   1.098   8.307  0.1790 -0.1856  0.6586
 6710SOL    HW131592   0.401   1.145   8.373  2.2523 -0.7285 -0.5230
 6710SOL    HW231593   0.301   1.035   8.360  2.3181 -2.7611 -0.3736
 6711SOL     OW31594   3.560   4.478  12.017  0.5029  0.3178  0.0016
 6711SOL    HW131595   3.600   4.524  11.943 -0.4795 -0.8958 -1.2759
 6711SOL    HW231596   3.629   4.432  12.066 -0.2683 -0.7847  0.0591
 6712SOL     OW31597   3.020   2.868  14.285 -0.0308  0.0987 -0.2417
 6712SOL    HW131598   3.037   2.809  14.212  0.7631  1.4210 -1.1317
 6712SOL    HW231599   2.937   2.830  14.316  1.1629 -1.6983  0.7320
 6713SOL     OW31600   3.477   3.317   5.313 -0.6772 -0.5344  0.1014
 6713SOL    HW131601   3.383   3.326   5.301 -0.3389  1.3753 -1.0681
 6713SOL    HW231602   3.506   3.261   5.241 -0.1376  0.4351 -0.4315
 6714SOL     OW31603   3.142   3.821   5.828  0.0191  0.9010  1.1519
 6714SOL    HW131604   3.169   3.854   5.742 -1.1548 -1.2832 -0.0431
 6714SOL    HW231605   3.048   3.841   5.827 -0.0185  0.7687  2.0709
 6715SOL     OW31606   2.784   1.906   7.319  0.0496  0.0295 -0.0220
 6715SOL    HW131607   2.729   1.932   7.245 -0.0840 -0.5119 -0.1131
 6715SOL    HW231608   2.719   1.870   7.379 -0.3031  0.1770 -0.3127
 6716SOL     OW31609   2.709   2.111  13.801  0.8853 -0.6223  0.2292
 6716SOL    HW131610   2.616   2.105  13.826  1.2159  2.7599  2.3015
 6716SOL    HW231611   2.716   2.044  13.733  1.6031  0.3287 -0.6388
 6717SOL     OW31612   0.579   1.969   7.066 -0.0837  0.1357  0.1347
 6717SOL    HW131613   0.560   1.952   7.159  2.4564 -2.6125  0.1575
 6717SOL    HW231614   0.655   2.026   7.077  0.3809 -0.5288  0.3349
 6718SOL     OW31615   4.615   4.720  13.272 -0.3298 -0.4211  0.0401
 6718SOL    HW131616   4.597   0.016  13.180 -0.5145 -0.1815  0.1282
 6718SOL    HW231617   4.708   4.702  13.257 -0.4003 -1.1884  0.5125
 6719SOL     OW31618   0.825   0.465   7.278  0.0332 -0.2074 -0.6594
 6719SOL    HW131619   0.896   0.528   7.268 -1.4603  1.4956 -0.6548
 6719SOL    HW231620   0.834   0.423   7.192  0.2605 -3.0366  0.7288
 6720SOL     OW31621   3.984   1.980   7.441  0.2358 -0.8473 -0.3218
 6720SOL    HW131622   3.933   1.912   7.484  0.0790 -1.5910 -1.6968
 6720SOL    HW231623   3.935   2.060   7.458  1.7772  0.3721 -1.6463
 6721SOL     OW31624   3.871   3.229   7.852 -0.1795  0.1294  0.0748
 6721SOL    HW131625   3.818   3.164   7.807 -1.0296  0.3165  0.8025
 6721SOL    HW231626   3.954   3.206   7.809  0.1909  1.4015  0.1127
 6722SOL     OW31627   1.404   1.578   8.614 -0.2762 -0.0475  1.0733
 6722SOL    HW131628   1.479   1.584   8.555 -2.6894  0.7713 -1.8925
 6722SOL    HW231629   1.424   1.506   8.675 -0.6588  0.5404  1.8934
 6723SOL     OW31630   1.211   0.124  12.590 -0.4301  0.3882 -0.2448
 6723SOL    HW131631   1.173   0.207  12.561 -1.2670  0.2527  0.4727
 6723SOL    HW231632   1.170   0.121  12.676  0.5151 -0.1087  0.1802
 6724SOL     OW31633   3.967   2.677   3.279  0.2141  0.1172 -0.1392
 6724SOL    HW131634   4.017   2.755   3.301  0.5042  0.1480 -0.9200
 6724SOL    HW231635   3.900   2.686   3.347 -0.6648  0.6948 -1.0853
 6725SOL     OW31636   1.652   2.053   5.163  0.0429  0.2289  0.1541
 6725SOL    HW131637   1.746   2.042   5.149  0.4535  0.9524  2.3176
 6725SOL    HW231638   1.623   1.972   5.122  1.6421  0.2760 -1.0872
 6726SOL     OW31639   2.653   3.516   7.249 -0.4410  0.3628  0.5225
 6726SOL    HW131640   2.605   3.590   7.211  0.6744 -0.0263 -1.6124
 6726SOL    HW231641   2.614   3.501   7.335  0.0932 -1.6081  0.4028
 6727SOL     OW31642   3.682   4.666   1.923  0.4874  0.1544 -0.5515
 6727SOL    HW131643   3.688   4.571   1.915  0.4346  0.2091 -1.2544
 6727SOL    HW231644   3.735   4.683   2.001 -2.7247  0.0340  1.6608
 6728SOL     OW31645   1.435   0.202   0.148  0.2356  0.0831 -0.2301
 6728SOL    HW131646   1.457   0.278   0.094 -0.5883  0.9610  0.6915
 6728SOL    HW231647   1.362   0.240   0.195 -0.5842 -0.4165 -1.0925
 6729SOL     OW31648   3.146   4.039   8.024 -0.4457 -0.2481  0.8120
 6729SOL    HW131649   3.070   4.047   7.966 -0.7606  0.5042  1.3166
 6729SOL    HW231650   3.108   4.039   8.112  1.4522 -2.5313  1.6265
 6730SOL     OW31651   1.527   2.886   2.063  0.2612 -0.0487 -0.0553
 6730SOL    HW131652   1.543   2.806   2.013 -1.5153  0.0054 -0.7124
 6730SOL    HW231653   1.536   2.953   1.994  1.5702 -2.0197 -1.8040
 6731SOL     OW31654   4.286   3.293   3.229 -0.4494 -0.0181  0.1821
 6731SOL    HW131655   4.264   3.280   3.321 -1.1595 -2.1630 -0.2827
 6731SOL    HW231656   4.362   3.237   3.213 -0.2007  0.2501  0.4173
 6732SOL     OW31657   1.255   4.220  10.110 -0.6136 -0.1420  0.2340
 6732SOL    HW131658   1.197   4.292  10.085 -0.4959 -0.5507 -1.2346
 6732SOL    HW231659   1.260   4.175  10.026 -0.3045  0.4701 -0.0823
 6733SOL     OW31660   3.388   4.155  16.928 -0.4638  0.2838 -0.2364
 6733SOL    HW131661   3.452   4.160  16.857  1.0119  1.1578  1.1635
 6733SOL    HW231662   3.306   4.153  16.878 -1.6812  1.8540  1.6598
 6734SOL     OW31663   3.662   1.906  13.874 -0.2714  0.0092  0.1045
 6734SOL    HW131664   3.724   1.848  13.829  1.4400  1.9746 -0.0443
 6734SOL    HW231665   3.599   1.924  13.804  0.3314 -1.2442 -0.7666
 6735SOL     OW31666   1.783   2.355   2.739 -0.1129 -0.0066 -0.7524
 6735SOL    HW131667   1.809   2.361   2.831  0.8855 -1.3637 -0.9515
 6735SOL    HW231668   1.861   2.380   2.689 -0.4147  0.6620 -0.8874
 6736SOL     OW31669   2.360   4.201  11.652  0.0410 -0.4332 -0.1513
 6736SOL    HW131670   2.434   4.256  11.626  0.7612 -1.7800 -0.9763
 6736SOL    HW231671   2.319   4.196  11.565  0.8143  0.1148 -0.5473
 6737SOL     OW31672   0.434   1.114   8.569  0.0271 -0.0981  0.1128
 6737SOL    HW131673   0.356   1.158   8.603 -0.4193  0.2887 -1.4564
 6737SOL    HW231674   0.497   1.142   8.636 -0.5993  3.0383 -0.6235
 6738SOL     OW31675   2.679   1.400   5.251  0.4087  0.8129 -0.1406
 6738SOL    HW131676   2.749   1.448   5.205 -0.1514 -0.9932 -2.8517
 6738SOL    HW231677   2.613   1.400   5.182 -0.5475  0.6568  0.7793
 6739SOL     OW31678   3.581   1.643   0.180  0.8581  0.5556  0.1578
 6739SOL    HW131679   3.591   1.548   0.178 -1.6029  0.2308  2.8935
 6739SOL    HW231680   3.569   1.661   0.273  0.3286 -1.8358  0.5447
 6740SOL     OW31681   2.897   3.289  13.337  0.1419 -0.2613  0.0155
 6740SOL    HW131682   2.845   3.364  13.310 -1.6091 -0.5143  2.7355
 6740SOL    HW231683   2.832   3.234  13.381 -2.6792  1.4267 -2.0905
 6741SOL     OW31684   4.701   1.828  14.139 -0.7224 -0.4536 -0.1322
 6741SOL    HW131685   4.650   1.825  14.058 -2.4229 -0.0603  0.9227
 6741SOL    HW231686   4.637   1.776  14.188  0.1861 -0.0253  1.5355
 6742SOL     OW31687   1.461   2.068   7.317 -0.6595  0.1652  0.0675
 6742SOL    HW131688   1.443   2.019   7.237  0.7659  2.1277 -1.4622
 6742SOL    HW231689   1.556   2.057   7.308 -0.6203  0.2395  0.4058
 6743SOL     OW31690   2.281   1.149   8.914  0.4694 -0.0167 -0.1921
 6743SOL    HW131691   2.350   1.121   8.855 -0.0907 -1.0944 -0.3242
 6743SOL    HW231692   2.343   1.168   8.985 -0.8175  3.0509  0.1164
 6744SOL     OW31693   1.494   3.263  16.175  0.0241  0.1880  0.1575
 6744SOL    HW131694   1.563   3.232  16.115  0.9978  0.3138  1.2224
 6744SOL    HW231695   1.464   3.341  16.127  0.0131 -0.9748 -1.7098
 6745SOL     OW31696   3.238   3.545   5.828 -0.6280  0.4929  0.2549
 6745SOL    HW131697   3.286   3.506   5.902 -2.1094 -1.5102  0.1818
 6745SOL    HW231698   3.161   3.571   5.880 -2.6736 -1.8525 -1.5782
 6746SOL     OW31699   3.133   0.459   5.981  0.5807  0.1707 -0.0259
 6746SOL    HW131700   3.117   0.529   5.918  0.5851 -1.8499 -2.2586
 6746SOL    HW231701   3.055   0.405   5.972 -0.9631  2.3147  0.5373
 6747SOL     OW31702   3.826   2.719   3.037  0.4586 -0.5275 -0.4728
 6747SOL    HW131703   3.871   2.664   3.102 -1.8527 -1.0280  0.7094
 6747SOL    HW231704   3.740   2.687   3.064  0.0216  0.3911 -0.7971
 6748SOL     OW31705   0.943   4.436   0.859 -0.2223  0.2491  0.1212
 6748SOL    HW131706   0.859   4.473   0.887 -1.1169  0.4631 -2.8326
 6748SOL    HW231707   0.949   4.460   0.766 -0.1284 -0.2088  0.0090
 6749SOL     OW31708   3.916   4.550   9.040  0.4814  0.1167 -0.5081
 6749SOL    HW131709   3.895   4.598   9.120 -0.9114  3.0264 -2.6176
 6749SOL    HW231710   4.010   4.566   9.029  0.3124  1.4982  0.0428
 6750SOL     OW31711   3.002   1.177   3.062 -0.4282  0.2413 -0.2675
 6750SOL    HW131712   3.002   1.083   3.080 -1.6297  0.4565  0.7904
 6750SOL    HW231713   3.007   1.185   2.966  0.4194  0.6562 -0.1874
 6751SOL     OW31714   2.311   0.765  17.115  0.2058 -0.1277 -0.1335
 6751SOL    HW131715   2.348   0.848  17.146  0.3990 -0.7342  1.2680
 6751SOL    HW231716   2.387   0.710  17.099  0.6834  0.2329  0.9271
 6752SOL     OW31717   0.778   0.340   4.131  1.0599  0.0162 -0.4454
 6752SOL    HW131718   0.873   0.349   4.122  1.0130 -0.1870 -1.0847
 6752SOL    HW231719   0.764   0.282   4.206 -1.4064  1.5321  0.2760
 6753SOL     OW31720   1.973   1.362   7.993 -0.3223  0.6610  0.0875
 6753SOL    HW131721   2.030   1.437   7.976 -1.4978  1.5019 -0.1954
 6753SOL    HW231722   2.035   1.290   7.997 -1.0880 -0.1536 -2.7211
 6754SOL     OW31723   1.916   1.903   5.716 -0.4990 -0.0709  0.4122
 6754SOL    HW131724   1.931   1.928   5.807  2.0221  0.7766 -0.2246
 6754SOL    HW231725   1.979   1.955   5.666 -0.5747 -0.1346  0.2502
 6755SOL     OW31726   4.340   3.091   5.880 -0.2622 -0.2316  0.3602
 6755SOL    HW131727   4.361   3.088   5.973  2.9652 -0.9072 -0.3689
 6755SOL    HW231728   4.268   3.029   5.867 -1.1462  1.2920 -2.1250
 6756SOL     OW31729   4.649   3.948   8.198 -0.2736  0.2778 -0.3793
 6756SOL    HW131730   0.007   3.993   8.218 -1.3682  1.5268  1.3421
 6756SOL    HW231731   4.611   4.010   8.135  0.6401 -0.2824 -1.4643
 6757SOL     OW31732   3.057   2.561  12.844  0.1532 -0.2715 -0.2828
 6757SOL    HW131733   3.130   2.593  12.791  0.3446 -1.4682 -0.7434
 6757SOL    HW231734   3.036   2.641  12.893  3.0269 -0.1693  0.7440
 6758SOL     OW31735   3.094   3.016  14.531 -0.3141 -0.8773 -0.3691
 6758SOL    HW131736   3.174   2.969  14.554  0.7323  0.7022 -0.7719
 6758SOL    HW231737   3.058   2.957  14.465  0.1136 -3.4622  1.7050
 6759SOL     OW31738   4.124   0.979   6.363 -0.0217 -0.0434  0.1483
 6759SOL    HW131739   4.188   1.032   6.410  0.0832 -1.4558  1.5651
 6759SOL    HW231740   4.043   0.994   6.411  1.2157  0.9530  1.9311
 6760SOL     OW31741   2.772   1.303   3.108  0.4542 -0.1003 -0.8517
 6760SOL    HW131742   2.743   1.281   3.019 -1.9623 -2.1090  0.4450
 6760SOL    HW231743   2.846   1.243   3.121 -1.3106 -1.6755  1.9453
 6761SOL     OW31744   1.076   1.404   4.670 -0.0697  0.1557  0.2265
 6761SOL    HW131745   1.043   1.412   4.581 -0.6925 -1.1510  0.3467
 6761SOL    HW231746   1.149   1.344   4.659  1.7115  2.0677  1.5621
 6762SOL     OW31747   0.668   1.881   2.132 -0.1593 -0.3317 -0.5629
 6762SOL    HW131748   0.669   1.976   2.131  0.5821 -0.3057  3.0008
 6762SOL    HW231749   0.621   1.864   2.050 -0.9457  1.6902 -0.5098
 6763SOL     OW31750   0.041   4.362   9.619  0.0647  0.2073 -0.3221
 6763SOL    HW131751   4.689   4.419   9.602 -1.5797 -2.2739 -1.4643
 6763SOL    HW231752   0.013   4.324   9.702 -1.7935  1.4914 -0.3553
 6764SOL     OW31753   3.206   2.675   3.972 -0.4208 -0.0545 -0.0922
 6764SOL    HW131754   3.250   2.622   3.905  0.3874  1.0170 -0.4115
 6764SOL    HW231755   3.136   2.726   3.932 -0.7915 -0.0429  0.5672
 6765SOL     OW31756   0.923   4.606   7.207 -0.3448 -0.5404  0.2848
 6765SOL    HW131757   0.949   4.514   7.212 -4.1123 -1.5571  1.1146
 6765SOL    HW231758   0.967   4.634   7.126  0.4784  1.2726  1.3811
 6766SOL     OW31759   1.397   0.639   1.989 -0.3455 -0.3536  0.7307
 6766SOL    HW131760   1.452   0.666   2.063  2.6632 -0.4807 -1.4998
 6766SOL    HW231761   1.312   0.605   2.018  0.2972 -0.6787  2.2461
 6767SOL     OW31762   0.129   0.873  12.034 -0.0614 -0.6813 -0.7667
 6767SOL    HW131763   0.042   0.913  12.032  0.0388 -0.4257 -0.2400
 6767SOL    HW231764   0.164   0.915  11.956  0.5731 -2.8648 -1.6466
 6768SOL     OW31765   3.839   2.493  17.609  0.0417 -0.9043  0.6544
 6768SOL    HW131766   3.877   2.575  17.579  0.0304 -1.0279  0.2995
 6768SOL    HW231767   3.907   2.451  17.662 -0.9450 -2.3536  0.7760
 6769SOL     OW31768   1.285   0.243   1.607 -0.2835 -0.0910  0.2788
 6769SOL    HW131769   1.323   0.328   1.630  0.1300 -0.1525 -0.1727
 6769SOL    HW231770   1.223   0.234   1.679 -0.6409 -1.6111 -0.2269
 6770SOL     OW31771   1.479   0.472   6.943  0.0681  0.3024  0.2051
 6770SOL    HW131772   1.440   0.430   7.020  0.5770 -0.1968  0.1870
 6770SOL    HW231773   1.472   0.405   6.875 -1.1174  1.4571 -0.8283
 6771SOL     OW31774   2.676   1.191  10.487 -0.8973  0.2197  0.3150
 6771SOL    HW131775   2.603   1.144  10.528  0.6601 -2.2920  0.2361
 6771SOL    HW231776   2.662   1.284  10.502  2.5102  0.7890 -0.0474
 6772SOL     OW31777   3.478   0.843  16.635 -0.0802 -0.0060 -0.3040
 6772SOL    HW131778   3.395   0.890  16.636 -0.8313 -1.3526  0.7220
 6772SOL    HW231779   3.537   0.906  16.593  0.7174 -0.4605  0.1422
 6773SOL     OW31780   2.333   4.493  15.726 -0.4132 -0.7243 -0.3864
 6773SOL    HW131781   2.356   4.451  15.643  1.5863  1.3592 -0.9006
 6773SOL    HW231782   2.403   4.557  15.742 -0.3004 -0.4322 -2.0726
 6774SOL     OW31783   3.620   3.595   3.003  0.0329 -0.2493  0.2444
 6774SOL    HW131784   3.715   3.598   3.009 -0.2274 -0.5740  4.1348
 6774SOL    HW231785   3.604   3.577   3.095 -0.1716 -0.7257  0.1173
 6775SOL     OW31786   0.406   3.428  10.266  0.0366 -0.2136 -0.3009
 6775SOL    HW131787   0.386   3.432  10.359  1.4518 -1.3833  0.0492
 6775SOL    HW231788   0.381   3.336  10.257 -0.1645 -0.2792  0.9331
 6776SOL     OW31789   4.230   3.328   4.616  0.8986  0.4315  0.0386
 6776SOL    HW131790   4.278   3.263   4.566 -0.5303  1.4415 -2.6685
 6776SOL    HW231791   4.253   3.415   4.581  2.0352 -0.5160 -1.5741
 6777SOL     OW31792   2.542   2.900  12.422 -0.0021 -0.1202  0.3184
 6777SOL    HW131793   2.557   2.842  12.496  1.5837 -1.1007 -0.7732
 6777SOL    HW231794   2.515   2.981  12.465 -1.9375 -1.6803  2.1040
 6778SOL     OW31795   3.243   0.209   5.977 -0.2901 -0.3876  0.1320
 6778SOL    HW131796   3.227   0.303   5.968 -0.3507 -0.3142  1.0365
 6778SOL    HW231797   3.254   0.173   5.888  0.8549  0.6040 -0.1356
 6779SOL     OW31798   0.950   3.474   9.707  0.3100  0.3254 -0.1768
 6779SOL    HW131799   0.896   3.457   9.784  1.5472 -1.6418  0.2534
 6779SOL    HW231800   0.926   3.402   9.649  1.2787 -0.4231  0.3478
 6780SOL     OW31801   0.531   3.160   3.914  0.7675 -0.0860  0.4932
 6780SOL    HW131802   0.556   3.249   3.889  1.1056 -0.2398  0.2849
 6780SOL    HW231803   0.563   3.106   3.842  0.6476  0.2667  0.1747
 6781SOL     OW31804   2.952   0.418   3.214  0.2780 -0.4419  0.4397
 6781SOL    HW131805   3.044   0.443   3.207 -0.0721  0.8107  0.4841
 6781SOL    HW231806   2.924   0.408   3.123  0.5092 -0.7731  0.4027
 6782SOL     OW31807   0.265   3.303   0.988  0.1479 -0.2563  0.1033
 6782SOL    HW131808   0.287   3.384   0.942  0.1702 -0.2361  0.1491
 6782SOL    HW231809   0.344   3.275   1.035 -0.3764  1.2342  1.8486
 6783SOL     OW31810   2.565   2.190   8.180 -0.3180 -0.3340  0.5240
 6783SOL    HW131811   2.601   2.204   8.093 -2.4339  0.6561 -0.1970
 6783SOL    HW231812   2.545   2.280   8.204  0.6180  0.0317 -0.0750
 6784SOL     OW31813   2.411   4.270   4.680  0.0157  0.3197  0.1178
 6784SOL    HW131814   2.399   4.362   4.705  1.4158  0.3832  0.5709
 6784SOL    HW231815   2.329   4.223   4.692  0.3840 -0.2149  0.5408
 6785SOL     OW31816   1.065   1.147  16.483 -0.1752 -0.2376 -0.1128
 6785SOL    HW131817   1.151   1.187  16.475 -0.1273 -0.2511  0.3340
 6785SOL    HW231818   1.083   1.059  16.513  1.0716  0.1831  0.3459
 6786SOL     OW31819   3.826   4.148   5.868 -0.3996 -1.1444 -0.1686
 6786SOL    HW131820   3.918   4.130   5.851 -0.4903 -1.0634 -0.7379
 6786SOL    HW231821   3.792   4.060   5.886  1.6296 -2.0457 -0.8213
 6787SOL     OW31822   0.867   2.859  16.755  0.4823  0.3935 -0.2799
 6787SOL    HW131823   0.816   2.925  16.802  0.7656  0.6185 -0.2873
 6787SOL    HW231824   0.799   2.832  16.694  0.0280 -0.4668  0.6104
 6788SOL     OW31825   3.763   3.461   4.890  0.5853 -0.4958 -0.5996
 6788SOL    HW131826   3.842   3.415   4.861 -0.2981 -1.4077 -1.5944
 6788SOL    HW231827   3.720   3.457   4.804 -0.5815 -0.8156  0.0065
 6789SOL     OW31828   4.083   3.845   3.320  0.2849  0.7630  0.1567
 6789SOL    HW131829   4.124   3.930   3.340  0.3664  0.8216 -0.2695
 6789SOL    HW231830   4.154   3.781   3.318  1.1857  1.7948 -0.8343
 6790SOL     OW31831   2.905   2.412   3.873  0.1612  0.2675 -0.1067
 6790SOL    HW131832   2.947   2.355   3.937 -1.1665  0.8142  1.2523
 6790SOL    HW231833   2.915   2.354   3.798 -0.1912 -0.3484  0.3218
 6791SOL     OW31834   1.977   2.251  13.566 -0.7371  0.4795  0.4502
 6791SOL    HW131835   1.910   2.241  13.499 -0.4445  0.3465  0.1786
 6791SOL    HW231836   2.012   2.162  13.570 -0.3648  0.5735 -0.7148
 6792SOL     OW31837   4.298   2.498   5.378  0.7475  0.4568  0.5334
 6792SOL    HW131838   4.309   2.572   5.317 -0.4571  1.0150  0.9879
 6792SOL    HW231839   4.336   2.428   5.325  1.3218  1.9918 -1.1099
 6793SOL     OW31840   0.585   3.794  12.751  0.3165  0.1533 -0.5642
 6793SOL    HW131841   0.572   3.886  12.731 -0.0511  0.2761  0.2407
 6793SOL    HW231842   0.680   3.798  12.759  0.1864 -2.2715  2.2424
 6794SOL     OW31843   1.850   4.439  11.484  0.0229 -0.3653 -0.0085
 6794SOL    HW131844   1.935   4.461  11.445 -0.0848 -0.6152 -0.3936
 6794SOL    HW231845   1.869   4.414  11.574  1.4885 -1.1599 -0.5236
 6795SOL     OW31846   2.613   2.970   6.274  0.1245 -0.4715 -0.3088
 6795SOL    HW131847   2.587   3.059   6.250 -0.1225 -0.5917 -0.4808
 6795SOL    HW231848   2.704   2.992   6.294 -0.0326  2.8064 -3.2361
 6796SOL     OW31849   0.090   1.977  17.232  0.2082 -1.0884  0.6813
 6796SOL    HW131850   0.114   2.052  17.287 -0.7421 -0.8965  0.8282
 6796SOL    HW231851   0.007   1.955  17.274 -0.6524  0.7676 -0.0365
 6797SOL     OW31852   3.190   1.370  15.310 -0.3308 -0.5754 -0.2213
 6797SOL    HW131853   3.157   1.458  15.329 -0.7051 -0.1696 -2.8500
 6797SOL    HW231854   3.116   1.336  15.261 -1.5889  0.2014  1.1570
 6798SOL     OW31855   3.229   0.468   3.165 -0.2832 -0.5713  0.5086
 6798SOL    HW131856   3.272   0.528   3.104 -0.1880 -0.5998  0.5464
 6798SOL    HW231857   3.266   0.382   3.143  1.7237  0.4377 -0.1018
 6799SOL     OW31858   0.034   2.017   7.893  0.2226  0.8642  0.5036
 6799SOL    HW131859   0.032   1.961   7.971  0.9513  2.3149  1.5636
 6799SOL    HW231860   0.066   2.101   7.926  0.6904  0.6186  0.6637
 6800SOL     OW31861   4.702   0.426  11.938  0.0290 -0.1444 -0.1339
 6800SOL    HW131862   4.650   0.391  12.011 -1.9182  0.4186 -1.2675
 6800SOL    HW231863   0.026   0.349  11.907  1.5516 -0.3682  2.7614
 6801SOL     OW31864   3.034   1.814   4.191 -0.1385  0.1904  0.2021
 6801SOL    HW131865   3.072   1.896   4.220  0.0283  0.4489 -0.7445
 6801SOL    HW231866   3.115   1.765   4.177 -0.5133 -0.2509 -0.4198
 6802SOL     OW31867   1.145   2.889   4.932 -0.0001  0.0830 -0.0621
 6802SOL    HW131868   1.162   2.807   4.979  2.0442 -0.1184 -1.1649
 6802SOL    HW231869   1.076   2.866   4.870 -1.6177  0.5091  1.5488
 6803SOL     OW31870   1.092   3.608   3.885  0.3258 -0.0548  0.2608
 6803SOL    HW131871   1.185   3.592   3.865  0.4484 -0.4089  1.0897
 6803SOL    HW231872   1.061   3.520   3.862 -2.2345  0.6975  0.8331
 6804SOL     OW31873   2.808   3.110   3.844  0.1811 -0.0231  0.1900
 6804SOL    HW131874   2.891   3.082   3.882  0.2905  0.6391  0.4354
 6804SOL    HW231875   2.831   3.182   3.786 -0.0811  0.4444  0.6731
 6805SOL     OW31876   0.199   3.962   4.737 -0.5186 -0.5684  0.1838
 6805SOL    HW131877   0.277   3.907   4.748  0.0285  0.1030 -0.3862
 6805SOL    HW231878   0.210   3.993   4.647  0.5713  1.3321  0.9744
 6806SOL     OW31879   1.388   2.215   3.132  0.0707 -0.1833 -0.3103
 6806SOL    HW131880   1.456   2.206   3.199  0.7738  2.0819 -0.7198
 6806SOL    HW231881   1.312   2.174   3.174  1.6560 -0.0477  2.7038
 6807SOL     OW31882   1.829   3.647   5.005 -0.4364  0.6686 -0.0409
 6807SOL    HW131883   1.913   3.687   5.030 -1.3278  1.6410  1.4519
 6807SOL    HW231884   1.854   3.609   4.921 -0.7824 -1.3233  0.7670
 6808SOL     OW31885   1.544   1.844   0.903  0.2880  0.8324 -0.1390
 6808SOL    HW131886   1.638   1.864   0.907  0.1793  1.1230  0.9548
 6808SOL    HW231887   1.511   1.905   0.968 -1.3952  1.6585 -1.7709
 6809SOL     OW31888   2.126   1.290   9.632 -0.3608  0.4027  0.3059
 6809SOL    HW131889   2.123   1.357   9.564 -0.5578  1.7710  1.6656
 6809SOL    HW231890   2.075   1.225   9.584  0.5985 -0.9564  1.1296
 6810SOL     OW31891   0.550   4.475   3.201 -0.1738  0.6644  0.7661
 6810SOL    HW131892   0.616   4.512   3.143  0.2312 -0.4823  0.5105
 6810SOL    HW231893   0.508   4.558   3.224  1.3638  1.3252  1.2154
 6811SOL     OW31894   1.119   3.806   7.374  0.6807 -0.3875  0.2789
 6811SOL    HW131895   1.183   3.738   7.397 -0.8054 -1.1592  2.1252
 6811SOL    HW231896   1.085   3.762   7.296  0.4054  1.4604 -0.6496
 6812SOL     OW31897   1.083   1.178   1.454  0.2812  0.2712  0.5654
 6812SOL    HW131898   1.161   1.165   1.508  0.2337 -0.0305  0.5603
 6812SOL    HW231899   1.067   1.085   1.437  0.6408 -0.3756  3.7990
 6813SOL     OW31900   1.957   1.702   8.413  0.2463  0.3514  0.6277
 6813SOL    HW131901   1.985   1.611   8.426  0.9454  0.4171 -0.3886
 6813SOL    HW231902   1.928   1.681   8.324 -0.0874 -0.2144  0.8671
 6814SOL     OW31903   0.520   2.236   2.854  0.5109  0.5455  0.7356
 6814SOL    HW131904   0.501   2.157   2.802  0.1355  1.9235 -1.2376
 6814SOL    HW231905   0.521   2.299   2.782  0.2863 -1.9747 -1.4859
 6815SOL     OW31906   0.579   3.008   3.695 -0.6814  1.0648  0.8540
 6815SOL    HW131907   0.656   3.059   3.670  1.6617 -2.3964  1.0017
 6815SOL    HW231908   0.512   3.033   3.631 -2.5023  0.6010  2.5621
 6816SOL     OW31909   3.659   1.475  12.237  0.2032 -0.5847 -0.4251
 6816SOL    HW131910   3.737   1.529  12.221  0.1393  0.3793  2.4509
 6816SOL    HW231911   3.690   1.397  12.191  1.0097 -0.2922 -0.3923
 6817SOL     OW31912   3.637   1.261  16.486  0.4591  0.4220  0.1316
 6817SOL    HW131913   3.548   1.297  16.480  0.1064 -0.4429  0.1840
 6817SOL    HW231914   3.675   1.285  16.401  2.1068 -2.6054  0.0199
 6818SOL     OW31915   1.135   3.937   7.646  0.2258  0.1332 -0.4214
 6818SOL    HW131916   1.111   3.891   7.565  0.9098  0.4436 -0.8035
 6818SOL    HW231917   1.079   3.904   7.716  2.1292  0.4420  1.2434
 6819SOL     OW31918   0.611   3.626   8.411 -0.3371  0.2303 -0.3015
 6819SOL    HW131919   0.588   3.541   8.449 -1.4702  0.1507 -1.1768
 6819SOL    HW231920   0.564   3.690   8.464 -1.9846  0.9878 -2.6902
 6820SOL     OW31921   0.168   0.568   1.324  0.3586 -0.3417  0.7976
 6820SOL    HW131922   0.153   0.488   1.273  0.2542  0.3854 -0.3155
 6820SOL    HW231923   0.079   0.570   1.361 -0.6483  0.7980 -1.7260
 6821SOL     OW31924   0.534   1.948   5.568 -0.8186 -0.2042  0.0515
 6821SOL    HW131925   0.463   1.971   5.508 -0.7273  0.9671  0.3821
 6821SOL    HW231926   0.494   1.883   5.626 -0.9796  0.3951  0.6188
 6822SOL     OW31927   1.666   0.292   3.465  0.0352 -0.1457  0.1426
 6822SOL    HW131928   1.729   0.286   3.394  0.4889  0.6147  0.4786
 6822SOL    HW231929   1.674   0.212   3.518 -0.0366 -0.3723 -0.1882
 6823SOL     OW31930   3.987   2.286   2.296 -0.2891  0.0439 -0.1592
 6823SOL    HW131931   3.967   2.357   2.357 -2.2749  1.0814 -2.0059
 6823SOL    HW231932   4.062   2.319   2.246 -0.6705  1.9343  0.5008
 6824SOL     OW31933   3.840   3.497   5.636  0.0429 -0.0078  0.3851
 6824SOL    HW131934   3.850   3.430   5.568 -1.4700 -0.0224  0.1821
 6824SOL    HW231935   3.748   3.514   5.617  0.0046 -0.4413  0.1830
 6825SOL     OW31936   2.751   4.422  11.568 -0.2446  0.5674 -0.4671
 6825SOL    HW131937   2.829   4.434  11.622 -0.0682 -1.0518 -0.3371
 6825SOL    HW231938   2.784   4.379  11.488 -0.7949  1.3065 -1.0928
 6826SOL     OW31939   3.486   3.497  16.526  0.0097 -0.0106 -0.4296
 6826SOL    HW131940   3.408   3.547  16.502  0.2970  0.9462  0.6296
 6826SOL    HW231941   3.525   3.467  16.444  0.5383 -2.5061  0.7220
 6827SOL     OW31942   1.926   3.602   7.681 -0.3405 -0.2289 -0.2204
 6827SOL    HW131943   1.946   3.660   7.754  0.4747  1.4225 -1.7305
 6827SOL    HW231944   2.009   3.554   7.686 -0.9579 -1.3259 -0.6082
 6828SOL     OW31945   1.385   0.704   1.428  0.3457  0.1171  0.0060
 6828SOL    HW131946   1.295   0.731   1.447 -0.5042 -3.2383  0.8641
 6828SOL    HW231947   1.424   0.788   1.450 -0.4217  0.7645 -1.0716
 6829SOL     OW31948   3.055   2.094   6.318 -0.0889 -0.4484  0.1988
 6829SOL    HW131949   3.101   2.148   6.253 -0.3202 -0.7270 -0.1954
 6829SOL    HW231950   2.970   2.136   6.326 -0.1682 -0.2270 -1.8337
 6830SOL     OW31951   3.727   3.680  10.434 -0.1008  0.1507  0.1543
 6830SOL    HW131952   3.641   3.671  10.476 -0.1284 -0.0042  0.0643
 6830SOL    HW231953   3.736   3.772  10.409 -2.9983  0.0857 -1.0918
 6831SOL     OW31954   1.498   1.556   2.743 -0.3896  0.3709  0.8589
 6831SOL    HW131955   1.525   1.607   2.667  2.2527  1.4553  2.4886
 6831SOL    HW231956   1.542   1.582   2.824  0.2132  0.0028  0.6538
 6832SOL     OW31957   3.931   2.789   7.696 -0.3212  0.0063  0.0606
 6832SOL    HW131958   3.949   2.859   7.758 -1.7186  0.5703 -0.1671
 6832SOL    HW231959   3.843   2.758   7.719 -0.0241 -2.3634 -1.9196
 6833SOL     OW31960   3.159   3.722  10.639 -0.2359  0.2036  0.0853
 6833SOL    HW131961   3.182   3.629  10.635  0.2559  0.2438  2.1305
 6833SOL    HW231962   3.177   3.751  10.550  0.6037 -3.6068 -1.0090
 6834SOL     OW31963   2.024   1.576   3.395  0.6573 -0.2166 -0.1393
 6834SOL    HW131964   1.993   1.509   3.335 -1.9610 -0.2184  1.2256
 6834SOL    HW231965   2.110   1.600   3.361  1.0943 -2.3565 -0.5605
 6835SOL     OW31966   0.267   1.961   7.750 -0.5854 -0.0673 -0.1297
 6835SOL    HW131967   0.199   1.976   7.815  0.3211  1.9883  0.3442
 6835SOL    HW231968   0.305   1.876   7.771 -0.8317  0.2686  1.6744
 6836SOL     OW31969   2.254   0.171  15.266 -0.0041  0.6614 -0.7473
 6836SOL    HW131970   2.294   0.180  15.352 -2.1088 -1.0059  0.4091
 6836SOL    HW231971   2.293   0.245  15.218  1.1939  0.3393 -0.2526
 6837SOL     OW31972   3.786   0.450  14.742 -0.2200  0.4172  0.2644
 6837SOL    HW131973   3.821   0.539  14.748  1.6301 -0.5278  3.1649
 6837SOL    HW231974   3.764   0.431  14.833 -1.2136  1.4278  0.2437
 6838SOL     OW31975   2.912   4.398  15.170 -0.0912 -0.3869  0.1273
 6838SOL    HW131976   2.978   4.352  15.222 -0.4263 -0.2006  0.7122
 6838SOL    HW231977   2.938   4.487  15.191 -1.9528  0.0418  0.6675
 6839SOL     OW31978   0.954   2.728   8.898  0.2724 -0.8172  0.2841
 6839SOL    HW131979   1.015   2.693   8.834 -1.4705 -0.6586 -1.4592
 6839SOL    HW231980   0.873   2.720   8.849  0.2633 -0.8457  0.3040
 6840SOL     OW31981   2.855   1.852   4.382  1.2341 -0.7459 -0.4712
 6840SOL    HW131982   2.902   1.843   4.299  2.4849  0.2754  0.1419
 6840SOL    HW231983   2.769   1.874   4.345  0.8367  0.7026  1.3174
 6841SOL     OW31984   0.674   2.354   2.614 -0.0819  0.2305 -0.0686
 6841SOL    HW131985   0.758   2.388   2.583 -1.1752  2.4138 -0.6730
 6841SOL    HW231986   0.684   2.266   2.577 -2.6055 -1.1022  2.4158
 6842SOL     OW31987   4.220   2.270   0.211 -0.2934 -0.2291 -0.0713
 6842SOL    HW131988   4.251   2.215   0.139 -1.1759 -1.4927  0.5243
 6842SOL    HW231989   4.284   2.256   0.281 -0.8740 -0.2649  0.4509
 6843SOL     OW31990   3.811   3.024  10.275 -0.0330 -0.4060 -0.0894
 6843SOL    HW131991   3.855   3.030  10.360 -1.1677 -0.7585  0.5138
 6843SOL    HW231992   3.847   2.939  10.252 -1.9224 -0.9701 -0.9227
 6844SOL     OW31993   4.426   0.235   6.358 -0.3232  0.0657 -0.1411
 6844SOL    HW131994   4.358   0.184   6.313  0.3083  0.5996 -1.6901
 6844SOL    HW231995   4.494   0.233   6.291  1.7749 -0.9145  2.0159
 6845SOL     OW31996   2.351   3.373   0.702 -0.6368  0.5134  0.0497
 6845SOL    HW131997   2.356   3.347   0.610  0.6740  1.7572 -0.2444
 6845SOL    HW231998   2.429   3.428   0.707 -1.2102  1.5094 -1.6760
 6846SOL     OW31999   0.001   0.212   6.213 -0.1717  0.0335 -0.6157
 6846SOL    HW132000   4.710   0.171   6.128 -2.3722 -1.3922  0.4493
 6846SOL    HW232001   0.060   0.285   6.194  1.1001 -0.4165  1.6180
 6847SOL     OW32002   3.872   3.611  10.136  0.2859  0.1934  0.0453
 6847SOL    HW132003   3.851   3.600  10.228 -0.2305 -0.4559 -0.1462
 6847SOL    HW232004   3.919   3.694  10.142  0.1599  0.2457  0.2896
 6848SOL     OW32005   4.716   2.173  12.873  0.3112 -0.4986  0.2329
 6848SOL    HW132006   4.630   2.212  12.857  0.1526 -0.7211  0.5374
 6848SOL    HW232007   0.048   2.248  12.893  0.4971 -0.7780  0.7630
 6849SOL     OW32008   1.606   1.998  10.342  0.0618 -0.0297  0.4386
 6849SOL    HW132009   1.692   2.026  10.372 -0.8081  1.2994  1.7014
 6849SOL    HW232010   1.574   1.966  10.427 -0.1471  0.4144  0.5249
 6850SOL     OW32011   0.008   1.962   7.117 -0.2832  0.8223  0.1024
 6850SOL    HW132012   0.057   2.000   7.190 -1.3751  0.0888  1.2097
 6850SOL    HW232013   0.060   1.986   7.040  0.2299  0.0401  0.2047
 6851SOL     OW32014   0.483   0.561   8.656 -0.1431 -0.5614 -0.1927
 6851SOL    HW132015   0.438   0.481   8.628 -1.3248 -0.2505  0.8511
 6851SOL    HW232016   0.428   0.623   8.608  0.1996 -0.2958 -0.2476
 6852SOL     OW32017   2.188   3.417   2.706  0.0996 -0.6160 -0.3141
 6852SOL    HW132018   2.245   3.360   2.757  1.1481  0.9225  0.2340
 6852SOL    HW232019   2.111   3.360   2.702 -0.9002  0.7092  0.0853
 6853SOL     OW32020   0.056   3.918   2.016 -0.0598  0.2282  0.5047
 6853SOL    HW132021   0.108   3.970   2.077 -0.1771  1.6017 -0.5829
 6853SOL    HW232022   4.710   3.975   1.984 -0.4604 -0.2541  0.5083
 6854SOL     OW32023   4.456   2.071  14.059  0.0641 -0.0612  0.3228
 6854SOL    HW132024   4.463   1.987  14.015 -1.3218 -0.2369  0.4421
 6854SOL    HW232025   4.364   2.070  14.082 -0.0579  2.6247 -0.0185
 6855SOL     OW32026   3.976   0.257   9.341  0.4865 -0.4599 -0.1889
 6855SOL    HW132027   3.962   0.311   9.263  0.2903 -0.8208 -0.4019
 6855SOL    HW232028   3.949   0.168   9.321 -0.6259  0.1202 -1.2726
 6856SOL     OW32029   2.696   1.687   9.759  0.0446  1.1103 -0.5738
 6856SOL    HW132030   2.685   1.621   9.690  0.9578 -0.0940  0.4249
 6856SOL    HW232031   2.655   1.767   9.729 -2.0445  0.2008 -0.1217
 6857SOL     OW32032   3.272   3.396   1.835  0.1204  0.4688  0.2339
 6857SOL    HW132033   3.244   3.328   1.774  0.0680  0.9518 -0.2740
 6857SOL    HW232034   3.196   3.392   1.894 -0.3959 -0.6484 -0.5110
 6858SOL     OW32035   1.096   3.955   2.961 -0.0427 -0.2515 -0.2921
 6858SOL    HW132036   1.078   4.036   3.010 -0.8605 -0.2149 -0.6644
 6858SOL    HW232037   1.184   3.937   2.994 -0.4999 -0.2377  0.9076
 6859SOL     OW32038   3.035   1.464  16.047 -0.1789 -0.4538  0.3259
 6859SOL    HW132039   3.051   1.537  15.987  1.4900 -0.8439  0.2934
 6859SOL    HW232040   3.114   1.416  16.022  0.0156  0.0004  0.0688
 6860SOL     OW32041   1.584   0.573   8.383 -0.2933 -0.0352 -0.0381
 6860SOL    HW132042   1.606   0.554   8.474 -0.9000  0.6103  0.2425
 6860SOL    HW232043   1.523   0.501   8.366 -0.1778 -0.0148 -0.5409
 6861SOL     OW32044   1.049   0.951   4.887 -0.1171  0.9900 -0.0306
 6861SOL    HW132045   0.959   0.929   4.861 -0.3020  1.2175  0.4046
 6861SOL    HW232046   1.073   0.870   4.933 -1.6837  1.5838  1.8252
 6862SOL     OW32047   3.467   0.970   0.722 -0.1305 -0.1740  0.0800
 6862SOL    HW132048   3.516   1.005   0.648  2.0931 -0.0439  1.6062
 6862SOL    HW232049   3.520   1.001   0.795  0.9131  0.9930 -1.1805
 6863SOL     OW32050   3.592   4.449  13.274 -0.6480  0.3372 -0.7230
 6863SOL    HW132051   3.640   4.433  13.355 -2.6342 -0.3036  0.3355
 6863SOL    HW232052   3.662   4.478  13.216 -0.6508  1.1379 -0.3191
 6864SOL     OW32053   0.480   2.215   3.719 -0.4111 -0.2271 -0.0426
 6864SOL    HW132054   0.572   2.221   3.745 -0.2324 -1.4173 -0.3972
 6864SOL    HW232055   0.478   2.198   3.625 -0.8061  1.0004 -0.2495
 6865SOL     OW32056   1.143   0.488   8.851  0.2035 -0.1122 -0.0170
 6865SOL    HW132057   1.071   0.425   8.840  0.0085  0.4206 -1.7509
 6865SOL    HW232058   1.129   0.527   8.937 -0.8599  0.1675 -0.3163
 6866SOL     OW32059   2.788   0.245  12.500  0.1672 -0.2842  0.0526
 6866SOL    HW132060   2.881   0.233  12.483 -0.0594 -3.3310  0.7831
 6866SOL    HW232061   2.781   0.339  12.515  0.1885 -0.2293 -0.3010
 6867SOL     OW32062   3.759   0.018  13.638  0.1868 -0.2506 -0.0217
 6867SOL    HW132063   3.830   0.076  13.666  0.2039 -0.8436  1.2036
 6867SOL    HW232064   3.811   4.661  13.634  0.7851  0.2183 -1.7947
 6868SOL     OW32065   0.634   0.153   8.774 -0.5666 -0.0033 -0.0949
 6868SOL    HW132066   0.663   0.183   8.860  1.0870 -1.1486 -0.2474
 6868SOL    HW232067   0.586   0.076   8.802  0.3069 -0.7650 -0.6953
 6869SOL     OW32068   4.420   4.700   1.314  0.2217 -0.4636 -0.2029
 6869SOL    HW132069   4.378   0.032   1.249  1.2880 -0.1453 -0.6120
 6869SOL    HW232070   4.490   4.660   1.263 -0.6872 -1.8418 -0.3717
 6870SOL     OW32071   3.941   3.389  13.275  0.3333  0.0807  0.6513
 6870SOL    HW132072   3.970   3.300  13.257  3.3472  1.0435  0.7984
 6870SOL    HW232073   3.989   3.401  13.357  1.1402 -0.0272  0.1907
 6871SOL     OW32074   2.283   0.051   2.522 -0.4932  0.6112  0.3823
 6871SOL    HW132075   2.360   0.075   2.471 -0.6986  2.7187  1.0687
 6871SOL    HW232076   2.264   4.686   2.491 -0.0176  0.0766  1.6136
 6872SOL     OW32077   2.273   4.444  12.007  0.7675 -0.4582 -0.6554
 6872SOL    HW132078   2.257   4.472  11.917  2.4999 -1.0405 -1.1453
 6872SOL    HW232079   2.274   4.349  11.995 -1.0448 -0.9276  2.8112
 6873SOL     OW32080   2.092   4.464   8.088 -0.5935  0.1044 -0.9352
 6873SOL    HW132081   2.054   4.544   8.053  1.9703  1.6560 -0.1610
 6873SOL    HW232082   2.074   4.468   8.182  2.0793  0.0113 -0.4034
 6874SOL     OW32083   4.077   4.070   5.845  0.0303  0.0651 -0.3124
 6874SOL    HW132084   4.135   4.083   5.921  0.7041  1.1658 -1.0100
 6874SOL    HW232085   4.106   3.982   5.821 -3.4718 -1.4770  1.2571
 6875SOL     OW32086   3.760   1.482  14.333  0.2249  0.0873  0.3594
 6875SOL    HW132087   3.811   1.402  14.346  1.8648  1.1707  0.6692
 6875SOL    HW232088   3.828   1.536  14.293  0.7062 -0.4182  0.5039
 6876SOL     OW32089   2.842   2.509   6.367 -0.4055  0.6133 -0.5691
 6876SOL    HW132090   2.806   2.468   6.289 -0.7471  0.9154 -0.5726
 6876SOL    HW232091   2.928   2.468   6.375  0.0952  1.6296 -0.6654
 6877SOL     OW32092   2.980   4.309  10.498  0.0349  0.3881  0.0800
 6877SOL    HW132093   2.888   4.336  10.493  0.0169 -0.1427 -2.6325
 6877SOL    HW232094   2.998   4.358  10.579 -0.1920  1.9946 -0.8291
 6878SOL     OW32095   4.251   4.591   5.689 -0.2411 -0.1052  0.1120
 6878SOL    HW132096   4.224   4.593   5.597  0.6119 -0.3426 -0.1477
 6878SOL    HW232097   4.266   4.683   5.712 -0.0540 -0.5512  1.7761
 6879SOL     OW32098   2.557   3.668   8.088  0.1820 -0.6766  0.2887
 6879SOL    HW132099   2.578   3.718   8.167  0.2675 -0.2644  0.0066
 6879SOL    HW232100   2.595   3.583   8.108  0.7491 -0.2669  0.9653
 6880SOL     OW32101   2.098   4.569  10.562 -1.0065 -0.1042 -0.1183
 6880SOL    HW132102   2.081   4.480  10.594  0.0620 -0.2075  0.1636
 6880SOL    HW232103   2.006   4.594  10.562 -0.9402  0.1447 -1.8365
 6881SOL     OW32104   2.648   2.998   1.945  0.3481  0.2062  0.7009
 6881SOL    HW132105   2.682   2.952   2.022  1.2487  0.0651  0.2049
 6881SOL    HW232106   2.643   3.088   1.976  1.7627 -0.2333  2.2112
 6882SOL     OW32107   0.508   4.386  16.118 -0.1431  0.4899  0.1847
 6882SOL    HW132108   0.534   4.454  16.055  0.0441  0.5840  0.3645
 6882SOL    HW232109   0.437   4.344  16.069  0.2771  0.6155 -0.5373
 6883SOL     OW32110   2.777   1.866   4.034 -0.4892 -0.0193  0.1595
 6883SOL    HW132111   2.721   1.789   4.022  1.2633 -1.4510  1.0214
 6883SOL    HW232112   2.854   1.817   4.065 -1.5547  0.2210  3.1903
 6884SOL     OW32113   3.223   2.016   2.528 -0.3579  0.5126 -0.1208
 6884SOL    HW132114   3.256   1.943   2.476  1.3766  0.6164  0.8330
 6884SOL    HW232115   3.150   1.983   2.580  0.9271 -3.5510 -0.9047
 6885SOL     OW32116   2.745   2.160   9.595  0.4464 -0.6471  0.2198
 6885SOL    HW132117   2.688   2.235   9.608  0.5578  0.0774 -3.5748
 6885SOL    HW232118   2.750   2.129   9.686 -0.3413 -0.1812  0.4169
 6886SOL     OW32119   3.201   0.824   5.585  0.3281  0.1197  0.3006
 6886SOL    HW132120   3.161   0.892   5.638 -1.3257 -0.4675 -0.2129
 6886SOL    HW232121   3.141   0.814   5.511  1.2823  1.4064 -0.6729
 6887SOL     OW32122   4.410   2.634   1.693 -0.3366 -0.1322 -0.4915
 6887SOL    HW132123   4.465   2.584   1.634 -1.5410 -1.9312 -0.0797
 6887SOL    HW232124   4.465   2.660   1.767 -1.3640 -1.6659  0.8226
 6888SOL     OW32125   4.070   0.753   5.869 -0.6072 -0.3505 -0.3098
 6888SOL    HW132126   3.987   0.731   5.911  0.0908 -1.9755  0.2445
 6888SOL    HW232127   4.056   0.834   5.821  0.1726 -0.1593 -0.2079
 6889SOL     OW32128   0.998   0.637   6.349  0.2261 -0.1363  0.3067
 6889SOL    HW132129   0.975   0.569   6.286  1.6395  0.1547 -0.5187
 6889SOL    HW232130   0.920   0.690   6.368  1.2324  1.4822  0.0054
 6890SOL     OW32131   0.095   1.256   8.042 -0.0097 -0.3887 -0.1247
 6890SOL    HW132132   0.071   1.168   8.014 -2.2881 -0.0647  0.7730
 6890SOL    HW232133   0.008   1.296   8.042 -1.0523 -2.6495  0.7119
 6891SOL     OW32134   3.063   4.219  15.425  0.3968  0.5656 -0.3525
 6891SOL    HW132135   3.047   4.136  15.379 -1.3816  1.2148 -0.8894
 6891SOL    HW232136   3.124   4.265  15.367  0.9052 -1.2749 -1.2834
 6892SOL     OW32137   0.449   0.534  17.571 -0.1734 -0.0579 -0.3782
 6892SOL    HW132138   0.404   0.565  17.492 -2.7060 -0.0574  1.0551
 6892SOL    HW232139   0.398   0.457  17.595 -0.2191  0.4123  1.0333
 6893SOL     OW32140   3.050   2.855   2.245 -0.4989  0.6399  0.6241
 6893SOL    HW132141   3.051   2.769   2.287  0.1015 -0.9092 -2.5279
 6893SOL    HW232142   3.086   2.909   2.315  2.7540 -1.7959  0.8435
 6894SOL     OW32143   4.168   0.451   7.121 -0.0514  0.1786  0.8291
 6894SOL    HW132144   4.111   0.384   7.158  0.5131 -0.5621  0.3623
 6894SOL    HW232145   4.106   0.524   7.118 -0.1485  0.0099 -1.3543
 6895SOL     OW32146   3.176   0.974   4.439 -0.5258  0.3746 -0.3056
 6895SOL    HW132147   3.173   1.050   4.381  1.3059 -0.4886 -1.5126
 6895SOL    HW232148   3.102   0.987   4.498 -0.2211 -3.2572  0.8473
 6896SOL     OW32149   4.611   4.319   2.907 -0.0162  0.1793 -0.3197
 6896SOL    HW132150   4.636   4.231   2.878 -1.1512 -0.4561  0.6505
 6896SOL    HW232151   4.695   4.358   2.934 -0.2782  1.0649 -0.7604
 6897SOL     OW32152   4.223   0.190  12.517 -0.0203 -0.5039 -0.1113
 6897SOL    HW132153   4.162   0.254  12.481  0.1954 -0.0639  0.3028
 6897SOL    HW232154   4.190   0.160  12.602  0.4390 -2.2163 -0.5390
 6898SOL     OW32155   1.765   3.635  14.563 -0.0102  0.0285  0.1348
 6898SOL    HW132156   1.726   3.702  14.507  0.4469  1.4426  1.4945
 6898SOL    HW232157   1.774   3.691  14.640 -2.6436  0.5375  0.0629
 6899SOL     OW32158   1.146   2.294   2.859 -0.1721  0.1471  1.1720
 6899SOL    HW132159   1.056   2.307   2.829  0.8538  0.2018 -1.9002
 6899SOL    HW232160   1.160   2.201   2.846  4.0426  0.9777 -0.1220
 6900SOL     OW32161   0.071   1.529   0.494  0.5960 -0.1878  0.4602
 6900SOL    HW132162   0.159   1.508   0.464  0.7473  1.2566 -0.1120
 6900SOL    HW232163   0.054   1.600   0.432  1.0166  0.9299  1.6120
 6901SOL     OW32164   1.915   1.480  17.203  0.2026  0.3436 -0.1927
 6901SOL    HW132165   1.855   1.450  17.272 -2.3301 -2.1960 -3.5109
 6901SOL    HW232166   1.870   1.475  17.119 -0.6944 -2.0788  0.4305
 6902SOL     OW32167   2.825   0.155   6.710 -0.2139  0.3589  0.4952
 6902SOL    HW132168   2.831   0.228   6.648 -0.5823  0.6225  0.7644
 6902SOL    HW232169   2.737   0.133   6.682 -0.4170  0.0037  1.4060
 6903SOL     OW32170   0.180   2.896   1.827  0.1360 -0.0689 -0.4475
 6903SOL    HW132171   0.255   2.910   1.770  0.0907  0.2709 -0.4217
 6903SOL    HW232172   0.211   2.834   1.893  1.6954  0.3646 -0.7768
 6904SOL     OW32173   2.060   1.598   4.818  0.3095  0.1952 -0.1680
 6904SOL    HW132174   2.001   1.538   4.772 -0.2914 -0.0222  0.8878
 6904SOL    HW232175   2.138   1.544   4.805 -1.3874 -2.0360 -1.0665
 6905SOL     OW32176   4.703   1.018   5.480  0.1544  0.1222 -0.1335
 6905SOL    HW132177   0.013   0.929   5.491  1.0179  0.9104  3.3838
 6905SOL    HW232178   4.720   1.047   5.569 -1.5667  0.0343  0.2179
 6906SOL     OW32179   4.394   1.121   3.210  0.4881 -0.1329 -0.2509
 6906SOL    HW132180   4.368   1.030   3.226 -1.9826  0.8299  1.0822
 6906SOL    HW232181   4.396   1.158   3.298  0.1525 -1.3835  0.2845
 6907SOL     OW32182   1.039   2.303   3.118  0.3772  0.0373  0.5284
 6907SOL    HW132183   1.066   2.327   3.030 -1.3730 -1.0124 -0.2985
 6907SOL    HW232184   1.051   2.208   3.128 -2.5648 -0.2389  1.3663
 6908SOL     OW32185   4.516   4.370   7.258  0.1938 -0.0368 -0.2704
 6908SOL    HW132186   4.446   4.334   7.313  0.6165 -0.4412  0.0090
 6908SOL    HW232187   4.583   4.391   7.323 -1.8688  1.9120  1.2371
 6909SOL     OW32188   4.187   0.735   6.293 -0.0040 -0.1234  0.2737
 6909SOL    HW132189   4.255   0.735   6.360  0.4511 -1.9920 -0.1986
 6909SOL    HW232190   4.142   0.816   6.316  0.6390 -0.0426  1.2381
 6910SOL     OW32191   4.622   4.711   5.522  0.3086  0.0358 -0.5122
 6910SOL    HW132192   4.684   4.712   5.450  0.1396  1.5395 -0.6278
 6910SOL    HW232193   4.597   4.619   5.518 -1.3189  0.3876  1.3856
 6911SOL     OW32194   2.622   1.606  15.863  0.8531  0.2133 -0.0120
 6911SOL    HW132195   2.609   1.700  15.851  1.0906  0.1869 -0.4830
 6911SOL    HW232196   2.690   1.582  15.800 -0.3312 -1.6267 -0.5770
 6912SOL     OW32197   3.237   4.717   6.593 -0.1102  0.1531 -0.0196
 6912SOL    HW132198   3.157   0.036   6.563  0.3426  0.2684 -1.0653
 6912SOL    HW232199   3.302   0.023   6.530  3.0905 -3.5897  1.5298
 6913SOL     OW32200   3.064   0.190   7.085 -0.5250 -0.2287 -0.2504
 6913SOL    HW132201   3.052   0.279   7.053  1.1513  0.0550 -0.0879
 6913SOL    HW232202   3.027   0.138   7.013 -1.5990 -1.9495  1.5503
 6914SOL     OW32203   4.701   3.173   7.100  0.0092 -0.7213  0.2232
 6914SOL    HW132204   4.696   3.269   7.089  0.2232 -0.4693  2.4761
 6914SOL    HW232205   4.608   3.157   7.115 -0.3901  2.1265  0.8914
 6915SOL     OW32206   0.328   3.091   6.646  0.8471 -0.1207  0.3530
 6915SOL    HW132207   0.417   3.071   6.614  1.5055  0.7402  1.6573
 6915SOL    HW232208   0.300   3.001   6.660  0.4427  0.2937  2.1495
 6916SOL     OW32209   4.486   0.863   3.220 -0.4414 -0.4489  0.3623
 6916SOL    HW132210   4.562   0.903   3.176 -0.4843 -1.0331 -0.2479
 6916SOL    HW232211   4.478   0.783   3.167 -1.7893 -1.4942  2.1593
 6917SOL     OW32212   3.768   0.252  15.198  0.1715  0.0753 -0.4572
 6917SOL    HW132213   3.839   0.280  15.256  0.1479  0.8353 -0.7917
 6917SOL    HW232214   3.807   0.168  15.173 -2.5116 -1.5866  0.9756
 6918SOL     OW32215   2.738   1.252   6.744 -0.4250 -0.4711 -0.2467
 6918SOL    HW132216   2.759   1.277   6.834 -0.1922  3.1975 -1.3113
 6918SOL    HW232217   2.688   1.171   6.754 -1.3425  0.3068  1.5092
 6919SOL     OW32218   3.629   4.223  10.270 -0.0295 -0.2624  0.6240
 6919SOL    HW132219   3.657   4.285  10.202  2.5387 -2.7077 -0.5432
 6919SOL    HW232220   3.624   4.277  10.350  0.5530 -0.2603  0.6542
 6920SOL     OW32221   0.012   0.608   8.302 -0.2382  0.3833  0.6690
 6920SOL    HW132222   4.644   0.608   8.328 -0.4362 -3.4784 -0.0282
 6920SOL    HW232223   0.047   0.569   8.382 -0.1513 -0.0507  0.4200
 6921SOL     OW32224   0.548   0.198   3.078  0.2091 -0.5966 -0.4129
 6921SOL    HW132225   0.462   0.184   3.039 -0.6627 -0.6167  1.5338
 6921SOL    HW232226   0.596   0.258   3.021 -1.5051  1.8843  0.7109
 6922SOL     OW32227   3.780   0.268  10.767 -0.1105  0.1299  0.4120
 6922SOL    HW132228   3.796   0.203  10.699 -0.5587  1.1889 -0.7169
 6922SOL    HW232229   3.863   0.317  10.765  2.5096 -4.3375  0.2603
 6923SOL     OW32230   2.693   3.276   3.062  0.1890  0.2176  0.2946
 6923SOL    HW132231   2.687   3.354   3.007 -1.1117  1.4346  2.1573
 6923SOL    HW232232   2.648   3.315   3.137 -1.3684 -0.3763 -0.3518
 6924SOL     OW32233   1.825   2.696   7.514  0.0156 -0.1932  0.0714
 6924SOL    HW132234   1.920   2.687   7.523  0.0150 -0.1893  0.0820
 6924SOL    HW232235   1.811   2.700   7.420 -0.5637  0.6055  0.1943
 6925SOL     OW32236   0.634   2.186   4.063 -0.0328  0.8585  0.1315
 6925SOL    HW132237   0.717   2.148   4.091  0.5897  0.2657 -2.4699
 6925SOL    HW232238   0.603   2.105   4.021  2.2176 -1.0899  2.2513
 6926SOL     OW32239   1.039   4.602   2.128 -0.3954  0.0189  0.4109
 6926SOL    HW132240   1.077   4.643   2.205  1.8470  0.9246 -1.1886
 6926SOL    HW232241   1.029   4.510   2.155  1.5769 -0.4428 -0.4450
 6927SOL     OW32242   0.222   3.144   1.401 -0.2145  0.0587  0.4018
 6927SOL    HW132243   0.236   3.122   1.309 -0.8655  2.4285 -0.2759
 6927SOL    HW232244   0.131   3.173   1.403  0.8207  3.1781  3.0508
 6928SOL     OW32245   0.752   1.143   2.270  0.5367  0.0614  0.0924
 6928SOL    HW132246   0.713   1.057   2.284  0.9529 -0.0792  0.3730
 6928SOL    HW232247   0.687   1.188   2.215 -1.7641 -2.6282  0.5898
 6929SOL     OW32248   3.158   3.111   7.271  0.2699  0.5133 -0.2565
 6929SOL    HW132249   3.063   3.096   7.273  0.3724  0.0029  1.0325
 6929SOL    HW232250   3.175   3.037   7.213 -2.0340 -0.4827  0.3099
 6930SOL     OW32251   3.607   0.845   2.895 -0.0786 -0.0970  0.7109
 6930SOL    HW132252   3.549   0.834   2.971 -1.6218  2.3396 -0.1191
 6930SOL    HW232253   3.687   0.810   2.933 -0.6796  0.3902  2.4500
 6931SOL     OW32254   2.747   4.349   6.915 -0.0276  0.2768 -0.2834
 6931SOL    HW132255   2.839   4.347   6.943  0.1876  1.3716 -0.9122
 6931SOL    HW232256   2.729   4.443   6.920  1.9245  0.6300  0.3462
 6932SOL     OW32257   1.745   3.540  16.151 -0.5505  0.4185  0.2093
 6932SOL    HW132258   1.806   3.606  16.118 -1.6670  1.5033  0.3189
 6932SOL    HW232259   1.795   3.469  16.112 -1.1436 -0.0822  0.3649
 6933SOL     OW32260   2.951   0.075   5.268 -0.2358 -0.0076  0.5207
 6933SOL    HW132261   2.925   0.052   5.179 -2.4383 -0.4763  1.2965
 6933SOL    HW232262   2.866   0.104   5.301 -0.2561  0.1664  0.3178
 6934SOL     OW32263   4.228   0.461   3.373  0.6850 -0.1031  0.0158
 6934SOL    HW132264   4.293   0.479   3.305  0.5361  1.0125  0.1631
 6934SOL    HW232265   4.236   0.366   3.371 -0.7652 -0.2633  1.7579
 6935SOL     OW32266   3.987   3.513  10.724  0.3646  0.0365  0.1304
 6935SOL    HW132267   4.059   3.500  10.786  0.4964  0.8652  0.1416
 6935SOL    HW232268   3.943   3.428  10.726  1.3724 -0.4799  0.3097
 6936SOL     OW32269   3.406   3.199  10.349  0.4902 -0.3993  0.4553
 6936SOL    HW132270   3.409   3.200  10.444 -2.1298  0.4170  0.5352
 6936SOL    HW232271   3.437   3.284  10.316 -0.7747 -0.7496 -1.6623
 6937SOL     OW32272   1.969   0.503   6.685 -0.3689 -0.2314 -0.0546
 6937SOL    HW132273   1.927   0.461   6.610 -0.0853  1.2913 -1.0686
 6937SOL    HW232274   1.907   0.576   6.687  1.1774  1.1227 -1.5288
 6938SOL     OW32275   0.292   0.256   3.311 -0.1632 -0.0466 -0.0641
 6938SOL    HW132276   0.232   0.310   3.363  0.9013 -0.4336  1.5865
 6938SOL    HW232277   0.232   0.198   3.263 -2.7075  0.1489  2.8170
 6939SOL     OW32278   1.540   1.834   3.751 -0.1349 -0.4059 -0.8312
 6939SOL    HW132279   1.491   1.916   3.739  1.3326  0.5472 -0.3002
 6939SOL    HW232280   1.485   1.792   3.817  1.2144  1.1579  1.3034
 6940SOL     OW32281   4.672   3.843   4.822  0.1537  0.1413 -0.7171
 6940SOL    HW132282   4.686   3.767   4.878  2.5409  0.8780 -0.3414
 6940SOL    HW232283   0.037   3.876   4.813 -0.2847  1.1234 -1.5561
 6941SOL     OW32284   2.354   0.170  13.365 -0.3159 -0.0795 -0.6602
 6941SOL    HW132285   2.380   0.208  13.281  0.0162  1.3665  0.0945
 6941SOL    HW232286   2.432   0.199  13.413 -0.5818 -2.6157  1.2813
 6942SOL     OW32287   1.380   4.003  10.587 -0.5104 -0.0969  0.1976
 6942SOL    HW132288   1.330   3.975  10.664  1.0553 -1.0338  0.8754
 6942SOL    HW232289   1.450   3.938  10.596  0.1504  0.3665 -1.6792
 6943SOL     OW32290   2.701   4.599   7.255 -0.3478 -0.3062  0.1711
 6943SOL    HW132291   2.701   4.542   7.332 -0.0964 -2.9227 -1.7606
 6943SOL    HW232292   2.690   4.683   7.299  0.5231 -0.7752  1.3022
 6944SOL     OW32293   1.438   4.254  10.678  0.0439 -0.3822  0.4471
 6944SOL    HW132294   1.356   4.298  10.660  0.9505  0.0370 -2.6321
 6944SOL    HW232295   1.424   4.173  10.629  1.1429 -0.2380 -0.1096
 6945SOL     OW32296   3.017   2.929   5.018  0.1966  0.2569  0.2161
 6945SOL    HW132297   2.934   2.883   5.014  1.0171 -1.2795  0.7072
 6945SOL    HW232298   3.078   2.856   5.023  0.6601  0.4947 -1.8920
 6946SOL     OW32299   2.069   2.173   6.560 -0.0048  0.2945  0.2067
 6946SOL    HW132300   2.038   2.099   6.613  2.2893  0.3413  1.6072
 6946SOL    HW232301   2.160   2.143   6.559  0.7388  2.5654  1.8533
 6947SOL     OW32302   4.037   0.076   6.910  0.0716  0.1096 -0.0974
 6947SOL    HW132303   4.097   0.052   6.981  0.0781 -1.1102 -0.4987
 6947SOL    HW232304   3.992   0.154   6.941  1.0084  1.3312 -1.8156
 6948SOL     OW32305   1.415   1.763   5.365 -0.4522 -0.6419 -0.2069
 6948SOL    HW132306   1.417   1.737   5.457 -3.5449 -1.4489 -0.3565
 6948SOL    HW232307   1.485   1.705   5.336  1.2221  0.3178  1.9931
 6949SOL     OW32308   2.512   2.161  14.112  0.0945  0.8290 -0.0752
 6949SOL    HW132309   2.417   2.164  14.106  0.1040  1.9993  0.4938
 6949SOL    HW232310   2.528   2.216  14.189  0.6757 -0.2620  0.5877
 6950SOL     OW32311   2.280   3.943   3.716 -0.1242  0.2665  0.1409
 6950SOL    HW132312   2.200   3.961   3.766  0.0072 -1.5691  1.0217
 6950SOL    HW232313   2.307   3.858   3.751  1.0432  1.0316  1.1370
 6951SOL     OW32314   1.955   2.584   3.732 -0.1723 -0.1580 -0.5875
 6951SOL    HW132315   1.913   2.500   3.718  0.7521 -0.6290 -0.5135
 6951SOL    HW232316   1.929   2.635   3.655  3.3800 -1.0286 -2.4043
 6952SOL     OW32317   4.580   2.368   6.028  0.4894  0.4332  0.2456
 6952SOL    HW132318   4.669   2.387   6.000 -0.1573  0.9674 -1.4508
 6952SOL    HW232319   4.547   2.457   6.034 -1.8474 -0.2792 -2.0254
 6953SOL     OW32320   0.454   0.448  12.934  0.2563 -0.2104  0.6327
 6953SOL    HW132321   0.451   0.360  12.896 -1.1751 -0.2769  0.9020
 6953SOL    HW232322   0.424   0.436  13.024 -2.4560 -2.2359 -0.5536
 6954SOL     OW32323   4.379   4.459   2.523 -0.0271 -0.1817 -0.0223
 6954SOL    HW132324   4.418   4.375   2.549  1.0045  0.0385 -0.8595
 6954SOL    HW232325   4.296   4.439   2.567  0.0492 -1.7496 -0.5725
 6955SOL     OW32326   1.310   4.509   4.511 -0.4710 -0.0729 -0.2614
 6955SOL    HW132327   1.316   4.413   4.505 -1.1615 -0.2003  1.0488
 6955SOL    HW232328   1.326   4.530   4.603  0.6346  1.2283 -0.7584
 6956SOL     OW32329   3.125   1.229   3.573 -0.2525 -0.1601 -0.1199
 6956SOL    HW132330   3.135   1.156   3.511  1.9169  0.0575 -0.0308
 6956SOL    HW232331   3.126   1.177   3.654 -0.2129 -1.2933 -0.8433
 6957SOL     OW32332   4.210   1.644   7.328 -0.2883  0.2870  0.2943
 6957SOL    HW132333   4.181   1.565   7.281  0.5761  0.0593  0.1260
 6957SOL    HW232334   4.146   1.653   7.398 -0.3446  0.1712  0.2580
 6958SOL     OW32335   3.833   0.222   0.832  0.0844  1.0037  0.2063
 6958SOL    HW132336   3.918   0.179   0.822 -0.6142  0.1559 -1.8479
 6958SOL    HW232337   3.794   0.185   0.911 -1.4679  1.3859 -0.3851
 6959SOL     OW32338   1.680   0.915   4.787 -0.2214 -0.5774  0.4954
 6959SOL    HW132339   1.606   0.864   4.755  1.6022 -0.8607 -3.2077
 6959SOL    HW232340   1.733   0.843   4.820  0.6532 -0.1095  0.1055
 6960SOL     OW32341   3.058   2.104   5.180 -0.1781  0.4385 -0.0652
 6960SOL    HW132342   3.040   2.175   5.242 -1.9305  0.5713 -0.7184
 6960SOL    HW232343   3.152   2.107   5.162  0.2255 -1.0503  1.8012
 6961SOL     OW32344   2.318   0.397   7.231 -0.2897  0.1061 -0.1092
 6961SOL    HW132345   2.278   0.373   7.147 -0.1176  0.9613 -0.4297
 6961SOL    HW232346   2.320   0.316   7.283 -0.0035 -0.9061 -1.6877
 6962SOL     OW32347   0.420   1.390   8.166  0.4518 -0.3001 -0.0047
 6962SOL    HW132348   0.479   1.428   8.231  0.0578 -0.7234  0.6025
 6962SOL    HW232349   0.429   1.458   8.100  0.9919 -0.3735 -0.0032
 6963SOL     OW32350   3.410   2.442   5.421 -0.2632 -0.2064 -0.4947
 6963SOL    HW132351   3.479   2.403   5.368  0.3126 -0.9109  0.7763
 6963SOL    HW232352   3.456   2.449   5.504 -0.0301  2.2387 -0.8250
 6964SOL     OW32353   0.691   3.748  13.478 -0.0812 -0.0730 -0.1797
 6964SOL    HW132354   0.723   3.793  13.556 -0.2477  0.4648 -0.4204
 6964SOL    HW232355   0.770   3.710  13.440 -0.5244 -0.4695 -0.7075
 6965SOL     OW32356   4.129   1.695   2.408 -0.8194 -0.6702  0.1864
 6965SOL    HW132357   4.070   1.745   2.464  0.6796  1.2961  0.0383
 6965SOL    HW232358   4.098   1.748   2.334 -0.1092 -0.9951 -0.3459
 6966SOL     OW32359   3.183   0.497   5.317 -0.1852 -0.2190  0.1233
 6966SOL    HW132360   3.257   0.437   5.329 -1.4932 -1.8476 -0.0141
 6966SOL    HW232361   3.145   0.492   5.405  1.1329  1.1055  0.7774
 6967SOL     OW32362   2.790   0.355  15.228 -0.5032 -0.1648  0.3098
 6967SOL    HW132363   2.868   0.365  15.281  0.7031  0.8354 -1.6656
 6967SOL    HW232364   2.731   0.415  15.273  0.4706  2.4427 -1.9039
 6968SOL     OW32365   3.442   0.221  16.061 -0.1353  0.1193  0.4599
 6968SOL    HW132366   3.433   0.304  16.014  2.7144  0.0185 -0.2848
 6968SOL    HW232367   3.371   0.235  16.123 -0.7149  1.2020 -0.4542
 6969SOL     OW32368   1.499   2.695  14.118 -0.3202  0.2905 -0.4583
 6969SOL    HW132369   1.468   2.678  14.207  0.3100  1.0179 -0.0986
 6969SOL    HW232370   1.413   2.698  14.077  0.6044 -0.6323 -2.5056
 6970SOL     OW32371   0.335   4.522   5.556  0.3903 -0.8347  0.4304
 6970SOL    HW132372   0.416   4.469   5.555  0.9342 -0.0691  3.5742
 6970SOL    HW232373   0.290   4.468   5.621 -0.4300  1.4204  1.7143
 6971SOL     OW32374   1.055   0.363   4.174  0.2082 -0.5496 -0.2773
 6971SOL    HW132375   1.099   0.372   4.259  2.2214  2.3597 -1.6533
 6971SOL    HW232376   1.086   0.273   4.164  0.7718 -0.2670 -0.9663
 6972SOL     OW32377   3.322   0.902   8.802  0.0628 -0.2613  0.5941
 6972SOL    HW132378   3.297   0.994   8.795 -0.2199 -0.4233 -0.5084
 6972SOL    HW232379   3.385   0.895   8.874  1.0045 -0.6000 -0.2647
 6973SOL     OW32380   2.413   2.115   2.901 -0.1868  0.2799  0.0330
 6973SOL    HW132381   2.450   2.078   2.982  0.9051  1.0679 -0.0948
 6973SOL    HW232382   2.403   2.033   2.854 -1.2007  0.1792  0.4390
 6974SOL     OW32383   4.051   3.444   3.183  0.0494 -0.1913  0.3329
 6974SOL    HW132384   4.099   3.519   3.148  0.2329 -2.1170 -3.5771
 6974SOL    HW232385   4.131   3.395   3.200  0.1010 -1.0437 -2.4053
 6975SOL     OW32386   1.902   4.591   6.224  0.4947  0.0376  0.2583
 6975SOL    HW132387   1.972   4.623   6.281 -1.3548 -1.6371  3.4726
 6975SOL    HW232388   1.832   4.591   6.289 -1.1920  0.4835 -1.5432
 6976SOL     OW32389   4.247   0.358  17.555  0.4419  0.4754  0.2785
 6976SOL    HW132390   4.259   0.286  17.616 -2.2935  0.9655  1.4250
 6976SOL    HW232391   4.317   0.342  17.492  0.4933 -0.4664  0.5806
 6977SOL     OW32392   1.229   2.564   3.783  0.1960  0.2886 -0.6421
 6977SOL    HW132393   1.242   2.581   3.876 -1.3808 -2.4532  0.0766
 6977SOL    HW232394   1.137   2.586   3.767  0.2544  0.5992 -0.5565
 6978SOL     OW32395   1.312   2.520   8.248  0.9558  0.0084 -0.3277
 6978SOL    HW132396   1.264   2.445   8.213  0.0433  0.8407 -0.8744
 6978SOL    HW232397   1.361   2.539   8.168  0.4155  1.1058 -0.3986
 6979SOL     OW32398   2.381   2.750   3.455 -0.2539  0.6271  0.2854
 6979SOL    HW132399   2.300   2.800   3.442  0.6011  1.4401 -1.8593
 6979SOL    HW232400   2.343   2.667   3.482 -0.8164  0.2424 -1.6834
 6980SOL     OW32401   3.703   2.791   7.281  0.2703  0.1140  0.0224
 6980SOL    HW132402   3.664   2.870   7.320  0.8896  0.4713 -0.1010
 6980SOL    HW232403   3.778   2.767   7.335  0.6312  0.8423 -0.1549
 6981SOL     OW32404   1.611   0.952   7.687 -0.5978  0.0597  0.7701
 6981SOL    HW132405   1.630   0.926   7.597 -1.8418 -0.3573  0.6267
 6981SOL    HW232406   1.698   0.967   7.724 -1.3545 -1.2015  3.1150
 6982SOL     OW32407   0.420   4.392   7.624 -0.2711  0.3992 -0.5919
 6982SOL    HW132408   0.452   4.441   7.548 -1.7455  3.2965  0.6448
 6982SOL    HW232409   0.491   4.408   7.686 -1.6408 -1.5868  1.4939
 6983SOL     OW32410   1.575   2.246   9.388  0.3051 -0.5131  0.1994
 6983SOL    HW132411   1.586   2.340   9.371 -0.6675 -0.1272  1.6941
 6983SOL    HW232412   1.666   2.221   9.372  0.9626  1.4945  0.7435
 6984SOL     OW32413   4.008   4.638   5.425 -0.5807  0.2076 -0.4933
 6984SOL    HW132414   4.099   4.664   5.443  0.1606 -1.0635 -2.4525
 6984SOL    HW232415   4.015   4.593   5.341 -0.7296 -0.3092 -0.2295
 6985SOL     OW32416   4.346   0.273   1.694  0.9928 -0.3880  0.9961
 6985SOL    HW132417   4.408   0.279   1.622  0.4437  0.0325  0.5616
 6985SOL    HW232418   4.273   0.221   1.661  3.0136 -1.1909 -2.1473
 6986SOL     OW32419   0.496   4.669   8.880  0.5638  0.4645  0.0219
 6986SOL    HW132420   0.426   4.629   8.829 -0.6575  0.2512  1.8799
 6986SOL    HW232421   0.450   0.014   8.927 -1.2857 -0.1475 -0.8976
 6987SOL     OW32422   3.030   0.423   8.143 -0.0656  0.4230  0.0521
 6987SOL    HW132423   2.973   0.491   8.177 -0.5099  0.6766 -1.2267
 6987SOL    HW232424   3.108   0.433   8.198 -0.1057  2.1251 -0.1989
 6988SOL     OW32425   0.996   4.460   8.805 -0.9057 -0.0170  0.1786
 6988SOL    HW132426   1.057   4.534   8.810  2.1884 -2.6967  1.4348
 6988SOL    HW232427   0.948   4.461   8.887 -0.5334  1.1554  0.3882
 6989SOL     OW32428   3.566   3.398   5.765  0.1931  0.4725 -0.2743
 6989SOL    HW132429   3.508   3.331   5.730  1.1106 -2.0932  3.0842
 6989SOL    HW232430   3.528   3.483   5.743 -0.0033  0.4798  0.1035
 6990SOL     OW32431   3.192   2.946   6.662  0.1357 -0.0021 -0.6832
 6990SOL    HW132432   3.207   2.976   6.752  0.0904  1.0694 -1.0353
 6990SOL    HW232433   3.167   2.857   6.686 -2.3997  1.3255  1.5946
 6991SOL     OW32434   1.851   2.410   2.162  0.3308  0.3196  0.3556
 6991SOL    HW132435   1.902   2.490   2.176  2.8582 -1.0399 -0.9780
 6991SOL    HW232436   1.909   2.347   2.205  0.6345 -0.1134 -0.6832
 6992SOL     OW32437   1.407   2.321  15.488  0.0541 -0.4185 -0.4558
 6992SOL    HW132438   1.374   2.357  15.406  0.7510 -2.1324 -1.4921
 6992SOL    HW232439   1.500   2.339  15.473  0.1645  0.4663  1.3144
 6993SOL     OW32440   1.679   3.998   5.176 -0.0150  0.6127  0.3864
 6993SOL    HW132441   1.635   3.951   5.247 -0.5406  0.6251  0.0667
 6993SOL    HW232442   1.609   4.020   5.115 -0.5190  2.2278  1.5290
 6994SOL     OW32443   1.443   3.568   9.265 -0.1391 -0.1104 -0.0005
 6994SOL    HW132444   1.369   3.565   9.325  2.7373 -2.3332  3.4546
 6994SOL    HW232445   1.515   3.530   9.316  0.9240 -0.2148 -1.5782
 6995SOL     OW32446   2.728   0.128   6.227  0.0368  0.1736  0.4397
 6995SOL    HW132447   2.798   0.067   6.248 -0.6053 -0.8763 -0.4990
 6995SOL    HW232448   2.774   0.206   6.194 -0.6040  0.7492  0.9222
 6996SOL     OW32449   0.455   1.608   6.749 -0.3763 -0.0404  0.2133
 6996SOL    HW132450   0.476   1.528   6.701  0.3228  0.1817  0.1477
 6996SOL    HW232451   0.454   1.664   6.671 -0.6705 -1.6122 -0.9160
 6997SOL     OW32452   0.951   0.055  15.171 -0.3192  0.0833  0.1236
 6997SOL    HW132453   1.011   0.026  15.102 -0.1608 -0.6031  0.5510
 6997SOL    HW232454   0.994   0.139  15.189  0.8473 -0.5091  0.0802
 6998SOL     OW32455   3.854   0.144   8.044  0.9195 -0.2516  0.3504
 6998SOL    HW132456   3.811   0.215   8.091 -0.3309 -0.5367 -0.3495
 6998SOL    HW232457   3.844   0.068   8.101  0.4852  0.1291  0.7772
 6999SOL     OW32458   2.496   0.027   6.905  0.1993 -0.0237  0.3292
 6999SOL    HW132459   2.449   0.091   6.960  0.3617  0.8578 -0.5641
 6999SOL    HW232460   2.523   0.084   6.833  0.2199 -0.8446 -0.3108
 7000SOL     OW32461   2.563   3.979   4.214 -0.3475  0.3236  0.2410
 7000SOL    HW132462   2.562   4.003   4.306 -0.5043 -0.6600  0.5008
 7000SOL    HW232463   2.502   4.045   4.179  1.2662  1.7466  0.1298
 7001SOL     OW32464   0.682   3.400   3.957  0.0907 -0.5080 -0.3414
 7001SOL    HW132465   0.710   3.481   4.000 -1.3753  0.6546 -1.5692
 7001SOL    HW232466   0.734   3.403   3.876  1.6454 -1.7401  0.6147
 7002SOL     OW32467   2.514   1.401  11.892  0.1268  0.1987 -0.1509
 7002SOL    HW132468   2.544   1.489  11.871  1.6126 -0.7113 -1.8459
 7002SOL    HW232469   2.568   1.363  11.822 -0.2511  0.2134 -0.4502
 7003SOL     OW32470   1.266   3.508   5.484  0.0462 -0.0452 -0.0900
 7003SOL    HW132471   1.356   3.482   5.503  0.5884  1.8204 -0.1186
 7003SOL    HW232472   1.242   3.444   5.416  0.3679 -1.0158  0.7204
 7004SOL     OW32473   2.656   3.647  13.553 -0.0765  0.0007  0.4380
 7004SOL    HW132474   2.584   3.709  13.568  1.3177  1.4165  1.3418
 7004SOL    HW232475   2.686   3.621  13.640  1.4149 -1.8597 -0.6365
 7005SOL     OW32476   2.478   1.078   5.961  0.0497 -0.1983 -0.0293
 7005SOL    HW132477   2.507   1.153   6.013  0.3816 -0.5571  0.3029
 7005SOL    HW232478   2.418   1.040   6.025  0.3396  0.7973  0.8361
 7006SOL     OW32479   1.650   4.056   4.171 -0.4337 -0.0250  0.1306
 7006SOL    HW132480   1.570   4.098   4.202 -1.9463 -1.9896 -1.1581
 7006SOL    HW232481   1.613   4.015   4.093  1.2160  0.0062 -0.6782
 7007SOL     OW32482   2.289   1.183   7.694 -0.0244 -0.0371  0.7629
 7007SOL    HW132483   2.260   1.253   7.635 -1.5822 -1.4013 -0.0773
 7007SOL    HW232484   2.218   1.119   7.698  0.9039 -1.3039 -3.7661
 7008SOL     OW32485   1.783   1.301   6.864 -0.0329  0.5948 -0.0585
 7008SOL    HW132486   1.798   1.214   6.900 -0.4881  0.0541 -1.1805
 7008SOL    HW232487   1.872   1.337   6.855  0.0332  0.6251  0.7154
 7009SOL     OW32488   1.052   1.836   9.990  0.1307  0.2932 -0.3451
 7009SOL    HW132489   1.102   1.917  10.003  1.3965 -0.4712 -0.3955
 7009SOL    HW232490   0.966   1.877   9.989  0.6411  1.3798  1.5040
 7010SOL     OW32491   4.116   0.477   3.623  0.0616 -0.4838 -0.0918
 7010SOL    HW132492   4.040   0.534   3.625  0.3449 -0.1416  0.7219
 7010SOL    HW232493   4.139   0.486   3.530 -1.9661  2.6251 -0.2835
 7011SOL     OW32494   4.333   2.557   8.440  0.6273 -0.0314  0.2128
 7011SOL    HW132495   4.346   2.474   8.486  0.5472 -0.1915 -0.0538
 7011SOL    HW232496   4.238   2.571   8.439  0.7625  0.7187 -1.2283
 7012SOL     OW32497   1.999   1.862   8.682  0.2976  0.4923 -0.9772
 7012SOL    HW132498   2.014   1.798   8.752  3.2839  1.2854 -0.8793
 7012SOL    HW232499   2.019   1.806   8.606  1.2831 -1.2515  0.5647
 7013SOL     OW32500   1.779   1.981   0.925  0.9078  0.4131  0.2221
 7013SOL    HW132501   1.766   2.076   0.922  1.1785  0.4274 -0.5445
 7013SOL    HW232502   1.849   1.966   0.989  2.3959  3.1766 -0.7326
 7014SOL     OW32503   3.241   3.058   8.268  0.4289 -0.4019  0.3752
 7014SOL    HW132504   3.259   3.094   8.355 -2.0266  1.2306  0.2333
 7014SOL    HW232505   3.189   2.980   8.288  1.1146 -0.7443  0.8040
 7015SOL     OW32506   1.624   1.638  10.876 -0.5402 -0.1736 -0.2934
 7015SOL    HW132507   1.699   1.674  10.924 -0.3654 -0.7076 -0.1703
 7015SOL    HW232508   1.554   1.659  10.938 -1.1164 -1.5043 -0.5053
 7016SOL     OW32509   1.487   4.126   3.190 -0.1495  0.3237 -0.5419
 7016SOL    HW132510   1.438   4.055   3.149  1.4204  0.4028 -2.6018
 7016SOL    HW232511   1.573   4.103   3.154  0.3643  1.5052 -0.0833
 7017SOL     OW32512   3.738   2.148   6.835  0.6006 -0.4457 -0.1384
 7017SOL    HW132513   3.834   2.148   6.843  0.4640  1.9408  1.2430
 7017SOL    HW232514   3.729   2.089   6.760  0.3602 -0.5246 -0.0450
 7018SOL     OW32515   2.130   3.490   3.590  0.3544  0.8772 -0.0695
 7018SOL    HW132516   2.147   3.399   3.613 -1.0136  0.3793 -1.0132
 7018SOL    HW232517   2.112   3.519   3.680 -0.1600  2.9862 -0.8501
 7019SOL     OW32518   3.889   3.305   5.434 -0.3016 -0.1402 -0.3244
 7019SOL    HW132519   3.975   3.300   5.392  0.5145  1.6384  1.0963
 7019SOL    HW232520   3.844   3.335   5.356 -0.0748 -0.5589 -0.6144
 7020SOL     OW32521   0.235   0.355   2.889 -0.1779  0.2677 -0.2700
 7020SOL    HW132522   0.184   0.365   2.969 -0.1200  0.9749 -0.3215
 7020SOL    HW232523   0.273   0.269   2.906 -0.9516 -0.5725 -2.7100
 7021SOL     OW32524   0.589   2.790   7.723  0.3224  0.0034  0.5280
 7021SOL    HW132525   0.648   2.847   7.773 -1.1023  2.3180 -0.4665
 7021SOL    HW232526   0.576   2.713   7.780 -0.6542  0.2067  0.5719
 7022SOL     OW32527   0.854   3.133   0.988 -0.3389 -0.6927 -0.2675
 7022SOL    HW132528   0.836   3.224   1.009 -1.3677 -0.3585 -2.6601
 7022SOL    HW232529   0.813   3.118   0.903  0.3494 -2.2476 -0.3240
 7023SOL     OW32530   1.923   4.105   5.997 -0.0611 -0.6439 -0.2367
 7023SOL    HW132531   2.002   4.103   5.942  0.5036 -3.4720  0.6957
 7023SOL    HW232532   1.955   4.158   6.070  0.6228 -2.2006  0.5961
 7024SOL     OW32533   0.406   3.832   1.289 -0.1348 -0.3378 -0.3648
 7024SOL    HW132534   0.344   3.906   1.286  0.0206 -0.2247 -0.8028
 7024SOL    HW232535   0.357   3.760   1.250 -0.2326  0.6345 -2.0396
 7025SOL     OW32536   3.881   3.560   6.595 -0.1563  0.0556 -0.4780
 7025SOL    HW132537   3.857   3.593   6.509  3.0597 -0.5185 -1.5977
 7025SOL    HW232538   3.970   3.529   6.581 -0.5854 -0.7246 -1.4747
 7026SOL     OW32539   3.801   2.112  10.539 -1.0614 -1.1180 -0.3390
 7026SOL    HW132540   3.766   2.109  10.627 -2.2059  0.4138 -0.7553
 7026SOL    HW232541   3.864   2.039  10.533  0.6358  0.2517  0.7752
 7027SOL     OW32542   1.826   2.027  10.477  0.1702  0.2217  0.4846
 7027SOL    HW132543   1.796   1.970  10.548 -2.7608  0.9582 -0.1574
 7027SOL    HW232544   1.916   2.041  10.503  2.0571 -2.5053 -4.5567
 7028SOL     OW32545   1.824   1.173   6.424  0.3330 -0.1104  0.8964
 7028SOL    HW132546   1.733   1.146   6.415  0.4159 -0.8575  2.2240
 7028SOL    HW232547   1.843   1.124   6.504  1.3460  0.9223  1.2941
 7029SOL     OW32548   0.410   4.069   4.092  0.5231  0.2514  0.5877
 7029SOL    HW132549   0.370   4.130   4.154 -1.9531 -0.2314 -0.5385
 7029SOL    HW232550   0.472   4.131   4.053  0.7259  1.0547  2.1821
 7030SOL     OW32551   3.344   4.430   3.655 -0.2612  0.4165  0.5221
 7030SOL    HW132552   3.282   4.357   3.660 -0.1514  0.1226 -2.1752
 7030SOL    HW232553   3.434   4.398   3.661 -0.6466 -0.5997  0.8328
 7031SOL     OW32554   2.475   3.402   2.460  0.3278  0.3497  0.4366
 7031SOL    HW132555   2.559   3.372   2.495 -0.7728 -0.1230  2.6668
 7031SOL    HW232556   2.443   3.315   2.436 -0.3778  0.5012  0.8425
 7032SOL     OW32557   0.272   0.678  13.819  1.0177  0.0101  0.3820
 7032SOL    HW132558   0.252   0.615  13.887 -2.3816 -1.2583 -1.8261
 7032SOL    HW232559   0.261   0.762  13.863 -0.9404  0.5488 -1.1512
 7033SOL     OW32560   2.040   4.541   5.121 -0.1837 -0.1146  0.0022
 7033SOL    HW132561   2.010   4.475   5.184  0.9895 -0.2278  0.4446
 7033SOL    HW232562   2.073   4.488   5.048  1.5277 -0.0300  0.7217
 7034SOL     OW32563   3.422   2.645   5.201  0.4788 -0.3683  0.4711
 7034SOL    HW132564   3.431   2.740   5.208  2.1842 -0.5003  0.1913
 7034SOL    HW232565   3.411   2.619   5.292 -2.6999  0.5634  0.3400
 7035SOL     OW32566   4.149   0.354   0.985  0.3520 -0.1296  0.1777
 7035SOL    HW132567   4.190   0.435   0.954  1.4168 -0.8320 -0.2765
 7035SOL    HW232568   4.056   0.374   0.988 -0.0046 -1.8302  0.6397
 7036SOL     OW32569   1.459   1.492   4.440  0.3174  0.2049 -0.2169
 7036SOL    HW132570   1.432   1.457   4.525  1.5580 -0.2195 -0.0061
 7036SOL    HW232571   1.551   1.468   4.439  0.0399 -0.8110 -1.2097
 7037SOL     OW32572   3.533   4.007   2.351  0.0638 -0.1713  0.2770
 7037SOL    HW132573   3.454   4.060   2.360  0.7457  0.7801  0.6510
 7037SOL    HW232574   3.545   3.973   2.440  1.5440 -1.6176 -0.4892
 7038SOL     OW32575   0.124   0.975  13.857 -0.0697 -0.1787  0.0542
 7038SOL    HW132576   0.034   0.982  13.825 -0.1060 -1.0080 -0.0324
 7038SOL    HW232577   0.181   1.020  13.795  0.1550  0.2510  0.5687
 7039SOL     OW32578   0.754   2.933   4.801 -0.0465 -0.3797 -0.0420
 7039SOL    HW132579   0.766   2.886   4.884  0.0634 -1.3182 -0.6012
 7039SOL    HW232580   0.692   2.876   4.755 -2.5789  1.9147  0.4824
 7040SOL     OW32581   0.300   4.035  10.857 -0.0176  0.3162  0.0315
 7040SOL    HW132582   0.383   4.081  10.860 -0.3808  1.0728 -1.6925
 7040SOL    HW232583   0.245   4.099  10.902 -1.4854 -1.0035  0.1225
 7041SOL     OW32584   1.098   0.206   1.838  0.0863  0.1243  0.5264
 7041SOL    HW132585   1.102   0.111   1.830  2.1252  0.0590  2.1261
 7041SOL    HW232586   1.004   0.217   1.823  0.3908 -0.5289 -1.8843
 7042SOL     OW32587   0.098   2.886  17.166  0.8644 -0.1353 -0.1988
 7042SOL    HW132588   0.170   2.914  17.109  0.8879  1.7637  0.7763
 7042SOL    HW232589   0.089   2.955  17.232 -0.4580 -1.0002  0.5287
 7043SOL     OW32590   4.523   1.066   7.793  0.0246  0.0931  0.0103
 7043SOL    HW132591   4.484   1.006   7.855  0.1951  0.6653  0.6720
 7043SOL    HW232592   4.611   1.037   7.771  0.1306  0.9564 -0.7092
 7044SOL     OW32593   1.425   0.445   2.916  0.5847  0.2431 -0.3175
 7044SOL    HW132594   1.375   0.473   2.839  0.1460 -1.1354 -0.5336
 7044SOL    HW232595   1.350   0.413   2.967 -0.7424  0.0718 -2.3776
 7045SOL     OW32596   2.257   1.891   9.225  0.1875 -0.1115 -0.0775
 7045SOL    HW132597   2.336   1.842   9.204 -0.1116 -0.4536 -0.3901
 7045SOL    HW232598   2.294   1.952   9.289 -1.2530  0.2383  0.4173
 7046SOL     OW32599   0.619   1.198   8.757  0.2168 -0.0187  0.6127
 7046SOL    HW132600   0.583   1.287   8.759  3.2338  1.1799  1.6733
 7046SOL    HW232601   0.655   1.188   8.845  0.9640 -0.7551  0.2226
 7047SOL     OW32602   1.607   3.619   3.300 -0.2859 -0.4751 -0.2058
 7047SOL    HW132603   1.633   3.528   3.313  1.6887 -0.0680 -1.3466
 7047SOL    HW232604   1.562   3.632   3.383  0.8290  0.9711  0.1626
 7048SOL     OW32605   2.562   1.836   4.343  0.2197  0.2628 -0.0952
 7048SOL    HW132606   2.547   1.798   4.430  2.9680 -0.4643  0.0883
 7048SOL    HW232607   2.498   1.783   4.296  0.1157  0.8421 -0.6045
 7049SOL     OW32608   1.015   4.545  16.450 -0.2654 -0.2431 -0.1914
 7049SOL    HW132609   1.058   4.482  16.393  0.4879  1.1099 -1.1366
 7049SOL    HW232610   1.078   4.547  16.523  0.9279  0.4694 -1.2360
 7050SOL     OW32611   2.625   3.155  17.305  0.3926 -0.4724  0.8683
 7050SOL    HW132612   2.640   3.208  17.383 -0.7990 -0.3430  1.0129
 7050SOL    HW232613   2.708   3.174  17.262 -0.8367 -0.2480 -1.4056
 7051SOL     OW32614   2.944   1.193   7.384  0.2179  0.0276 -0.1417
 7051SOL    HW132615   2.877   1.260   7.395 -1.4519 -1.7281  0.4879
 7051SOL    HW232616   2.942   1.179   7.289  1.0410  2.2579 -0.4808
 7052SOL     OW32617   0.728   2.707   7.471  0.2623 -0.4902 -0.0906
 7052SOL    HW132618   0.692   2.732   7.556 -0.3045 -2.7308  0.3357
 7052SOL    HW232619   0.818   2.733   7.492 -0.1069  0.8717 -0.1912
 7053SOL     OW32620   1.260   3.148   3.744 -0.3815 -0.4903  0.0233
 7053SOL    HW132621   1.301   3.114   3.824 -2.2124  0.1549  1.2244
 7053SOL    HW232622   1.333   3.200   3.711 -0.2899 -1.2453 -0.9390
 7054SOL     OW32623   0.939   0.855   7.448  0.0182 -0.0907 -0.2736
 7054SOL    HW132624   0.999   0.847   7.374  0.3170  0.0416 -0.0431
 7054SOL    HW232625   0.854   0.857   7.404  0.4192  1.5379 -0.9586
 7055SOL     OW32626   4.523   4.446   0.833 -0.5472 -0.8408  0.5388
 7055SOL    HW132627   4.555   4.467   0.745  2.5552  2.4189  2.4140
 7055SOL    HW232628   4.435   4.410   0.821 -2.1722  3.5279 -0.7425
 7056SOL     OW32629   0.675   3.930   7.502 -0.5882 -0.3998 -0.2308
 7056SOL    HW132630   0.655   3.874   7.426 -1.8083 -1.3539  0.7927
 7056SOL    HW232631   0.730   3.874   7.557 -0.1975  0.0410 -0.1750
 7057SOL     OW32632   0.911   2.375   7.384  0.3181 -0.2233 -0.3226
 7057SOL    HW132633   0.899   2.404   7.475  1.0300  0.8139 -0.5652
 7057SOL    HW232634   0.951   2.453   7.347  0.8926 -0.4522 -0.1773
 7058SOL     OW32635   2.527   1.999   9.019  0.0392  0.0277 -0.4380
 7058SOL    HW132636   2.436   2.029   9.021  0.5234  1.5007 -0.2527
 7058SOL    HW232637   2.573   2.080   8.994  1.1576  0.0724  1.7571
 7059SOL     OW32638   4.241   0.646   3.115 -0.2867  0.5382  0.2108
 7059SOL    HW132639   4.266   0.668   3.025 -1.8935 -2.1060 -0.8575
 7059SOL    HW232640   4.177   0.580   3.089  1.2228 -1.6835  2.1114
 7060SOL     OW32641   2.822   2.714   4.477 -0.0050  0.0414  0.0615
 7060SOL    HW132642   2.757   2.690   4.410  0.0959  3.2348 -1.1652
 7060SOL    HW232643   2.881   2.764   4.420 -3.3167  4.2898  0.3267
 7061SOL     OW32644   3.019   2.845   1.964  0.1429 -0.0165  0.1183
 7061SOL    HW132645   3.017   2.872   2.056 -2.0697  1.7773 -0.4545
 7061SOL    HW232646   3.002   2.751   1.960 -0.7255  0.2196 -1.8083
 7062SOL     OW32647   2.337   4.196   5.325 -0.2417 -0.2781  0.1227
 7062SOL    HW132648   2.310   4.145   5.402 -2.0536 -0.3491 -0.5510
 7062SOL    HW232649   2.429   4.201   5.352 -0.0871 -2.1266 -0.0237
 7063SOL     OW32650   3.878   0.168   3.526 -0.1418 -0.1930  0.1013
 7063SOL    HW132651   3.816   0.187   3.596  1.0519  0.9103  0.8597
 7063SOL    HW232652   3.861   0.247   3.474  0.7218 -0.2680 -0.2980
 7064SOL     OW32653   3.977   2.717   8.651 -0.0226 -0.5191 -0.0347
 7064SOL    HW132654   4.042   2.688   8.714 -2.7600 -1.3683  2.4311
 7064SOL    HW232655   4.014   2.670   8.576  2.5695 -0.2437  1.1043
 7065SOL     OW32656   1.144   4.069   8.916 -0.8022 -0.2414 -0.2870
 7065SOL    HW132657   1.066   4.031   8.957  0.3937 -1.9563  0.3785
 7065SOL    HW232658   1.173   4.131   8.983 -0.1549  0.2278 -0.9977
 7066SOL     OW32659   1.431   2.124   4.249  0.5667 -0.1404 -0.4049
 7066SOL    HW132660   1.419   2.041   4.203 -0.8471 -0.7830  1.1013
 7066SOL    HW232661   1.512   2.105   4.296  0.4643  0.0601 -0.1506
 7067SOL     OW32662   1.558   3.940   7.395  0.0681 -0.1364  0.1466
 7067SOL    HW132663   1.511   3.941   7.479  0.0318 -0.7640  0.1344
 7067SOL    HW232664   1.478   3.933   7.343  0.1842  2.4940 -0.3748
 7068SOL     OW32665   1.640   1.855   5.760  0.1889 -0.3921 -0.5943
 7068SOL    HW132666   1.729   1.851   5.726 -0.6747  0.1458 -2.9386
 7068SOL    HW232667   1.658   1.870   5.853  1.8924 -0.4347 -0.9141
 7069SOL     OW32668   1.853   4.095   0.615  0.1278 -0.4767  0.3639
 7069SOL    HW132669   1.820   4.184   0.606  1.0716 -0.3699 -1.9476
 7069SOL    HW232670   1.801   4.061   0.542  0.2107  0.6338 -0.2104
 7070SOL     OW32671   1.677   2.162   7.703 -0.0369  0.9795  0.2928
 7070SOL    HW132672   1.645   2.079   7.666  0.9357  0.3647  0.8073
 7070SOL    HW232673   1.718   2.190   7.621  0.4137  0.4701  0.3372
 7071SOL     OW32674   3.030   4.214   2.948  0.3646 -0.2011 -0.6219
 7071SOL    HW132675   3.075   4.286   2.993  0.8758 -1.1238  0.3333
 7071SOL    HW232676   3.060   4.230   2.859  2.8265 -0.3957  0.1721
 7072SOL     OW32677   0.064   0.691   2.614 -0.1516  0.2976 -0.2144
 7072SOL    HW132678   4.692   0.687   2.605 -0.2646 -0.0373  1.1874
 7072SOL    HW232679   0.073   0.785   2.603 -0.3325  0.6810  2.9313
 7073SOL     OW32680   0.473   3.896   4.689  0.1661  0.0002 -0.1063
 7073SOL    HW132681   0.511   3.854   4.766 -1.5538  0.2514  0.8563
 7073SOL    HW232682   0.534   3.843   4.637 -0.9632 -2.9135  1.5991
 7074SOL     OW32683   0.729   1.759   1.738 -0.6646  0.1755 -0.2735
 7074SOL    HW132684   0.646   1.805   1.754 -0.5114  0.6948 -0.9602
 7074SOL    HW232685   0.799   1.824   1.740 -0.2153 -0.2912 -0.8736
 7075SOL     OW32686   3.991   3.972  14.424 -0.1838 -0.7346  0.9040
 7075SOL    HW132687   3.896   3.962  14.420 -0.3705  0.1777  3.2540
 7075SOL    HW232688   4.008   3.940  14.336 -2.5835 -1.3493  0.6478
 7076SOL     OW32689   1.520   3.464   9.554  0.2113  0.1271 -0.3883
 7076SOL    HW132690   1.604   3.490   9.592  0.2994 -0.5363 -0.1196
 7076SOL    HW232691   1.467   3.543   9.558 -0.8046 -0.5779  0.2670
 7077SOL     OW32692   4.449   1.807  10.316 -0.0193  0.0268 -0.3609
 7077SOL    HW132693   4.536   1.766  10.319  0.4680  1.0515 -0.4347
 7077SOL    HW232694   4.468   1.900  10.307  0.8548 -0.2607 -1.4643
 7078SOL     OW32695   3.471   0.792   7.870 -0.5683 -1.0749  0.1577
 7078SOL    HW132696   3.396   0.850   7.855 -1.4312 -2.4371 -0.7014
 7078SOL    HW232697   3.423   0.735   7.931 -0.3288 -0.4615  0.9295
 7079SOL     OW32698   0.030   2.582   2.943 -0.3133  0.1404  0.0187
 7079SOL    HW132699   0.124   2.568   2.949 -0.4223 -0.3840  0.4173
 7079SOL    HW232700   0.003   2.585   3.034  2.7392  2.8979  0.8493
 7080SOL     OW32701   0.182   3.010   7.094 -0.1663  0.3543  0.1252
 7080SOL    HW132702   0.260   3.058   7.067 -1.2155  0.7416 -2.2361
 7080SOL    HW232703   0.108   3.072   7.095 -0.5186 -0.0408 -1.6299
 7081SOL     OW32704   2.768   0.691  16.118 -0.1134 -0.0747 -0.2375
 7081SOL    HW132705   2.830   0.654  16.056 -0.2061  0.6219 -0.7396
 7081SOL    HW232706   2.688   0.649  16.084 -0.2884 -1.1792  1.5479
 7082SOL     OW32707   3.603   1.652   5.185 -0.3335  0.1022 -0.1659
 7082SOL    HW132708   3.514   1.687   5.197  0.0357  1.0906 -0.3291
 7082SOL    HW232709   3.586   1.558   5.183 -1.9830  0.3919  0.2174
 7083SOL     OW32710   3.453   3.229   1.208  0.0237 -0.4229 -0.2562
 7083SOL    HW132711   3.375   3.249   1.259  0.7739 -4.0943  2.3226
 7083SOL    HW232712   3.462   3.309   1.156  0.7572  1.0357  2.1701
 7084SOL     OW32713   0.459   1.842   1.569  0.4954 -1.1225 -0.4101
 7084SOL    HW132714   0.411   1.865   1.649  0.2756 -1.8654 -0.3321
 7084SOL    HW232715   0.527   1.909   1.568 -2.4491  1.9280  1.1101
 7085SOL     OW32716   3.729   0.896   4.338  0.2041  0.1924  0.4204
 7085SOL    HW132717   3.651   0.917   4.287  0.6542  0.6093 -0.0944
 7085SOL    HW232718   3.778   0.843   4.275  3.4334  1.0082  2.2200
 7086SOL     OW32719   4.601   1.661   8.441  0.4880  0.8068  0.2643
 7086SOL    HW132720   4.605   1.566   8.450 -2.0799  0.9111  2.4570
 7086SOL    HW232721   4.598   1.660   8.346 -2.3619  1.3582  0.3258
 7087SOL     OW32722   3.863   1.091   1.667 -0.5618  0.2673  0.2100
 7087SOL    HW132723   3.891   1.020   1.724 -0.9741  0.6290  0.8724
 7087SOL    HW232724   3.883   1.165   1.725  0.0492  0.3101 -0.0534
 7088SOL     OW32725   0.836   1.383  15.273  0.1955 -0.0568 -0.6596
 7088SOL    HW132726   0.858   1.327  15.198  0.7768 -1.0385  0.2446
 7088SOL    HW232727   0.796   1.463  15.239  1.7046  0.6615 -0.7572
 7089SOL     OW32728   2.989   4.151   4.699  0.0457  0.1216 -0.2111
 7089SOL    HW132729   2.920   4.118   4.641  0.5322 -2.6184  0.7779
 7089SOL    HW232730   2.962   4.241   4.720 -0.0018 -0.5092  2.4655
 7090SOL     OW32731   0.815   3.789   2.704  0.2541 -0.1254  0.3648
 7090SOL    HW132732   0.741   3.730   2.714  0.1373  0.0010  0.2550
 7090SOL    HW232733   0.797   3.828   2.619  1.2338 -3.3359 -1.3140
 7091SOL     OW32734   0.962   1.682   4.535 -0.5512  0.6052 -0.5759
 7091SOL    HW132735   1.025   1.616   4.508 -1.6729  0.1998 -2.1685
 7091SOL    HW232736   0.884   1.627   4.546  1.3003 -1.6220  1.3142
 7092SOL     OW32737   1.952   1.448   7.361  0.2231 -0.2085 -0.0826
 7092SOL    HW132738   1.925   1.531   7.322 -0.9338 -0.2348  0.6490
 7092SOL    HW232739   1.865   1.408   7.365  0.6244 -1.1045 -0.3424
 7093SOL     OW32740   1.396   1.711   0.388  0.0827 -0.5355  0.0681
 7093SOL    HW132741   1.388   1.727   0.482 -0.7628  2.4817 -0.5065
 7093SOL    HW232742   1.490   1.703   0.369  0.3546  0.9871  0.7784
 7094SOL     OW32743   1.441   2.612  16.743  0.2868  0.2602  0.8032
 7094SOL    HW132744   1.414   2.538  16.687  0.7469  0.0355  0.8817
 7094SOL    HW232745   1.366   2.629  16.800 -0.8493 -1.8062 -0.0620
 7095SOL     OW32746   0.664   0.277  14.745  0.0855  0.4255  0.6162
 7095SOL    HW132747   0.635   0.347  14.804 -0.7630 -0.4510  1.2259
 7095SOL    HW232748   0.584   0.248  14.700  0.8199 -1.5163  0.5723
 7096SOL     OW32749   2.481   3.457   1.325  0.3957 -0.1750  0.7041
 7096SOL    HW132750   2.441   3.465   1.238  1.6343 -2.5793 -0.0571
 7096SOL    HW232751   2.480   3.362   1.324  0.2800 -0.1620 -1.3101
 7097SOL     OW32752   1.889   1.440   1.527 -0.2127  0.1341  0.3264
 7097SOL    HW132753   1.905   1.386   1.603  0.6305  0.8356  0.6369
 7097SOL    HW232754   1.793   1.446   1.528 -0.3047 -1.4933  1.1633
 7098SOL     OW32755   4.496   0.315   6.812  0.2652  0.0003  0.2340
 7098SOL    HW132756   4.482   0.366   6.892  1.9676 -1.6662  1.6018
 7098SOL    HW232757   4.499   0.376   6.739 -2.8770 -0.2890 -0.1145
 7099SOL     OW32758   4.607   3.471   4.749  0.5213  0.1765  0.1363
 7099SOL    HW132759   4.649   3.472   4.663 -0.5593  1.9201 -0.3725
 7099SOL    HW232760   4.665   3.520   4.808  0.4429 -1.6638  1.7559
 7100SOL     OW32761   0.514   1.572  16.784 -0.0006  0.0439  0.3113
 7100SOL    HW132762   0.610   1.576  16.776 -0.0957 -1.7879 -1.7640
 7100SOL    HW232763   0.499   1.536  16.697  0.8235  1.4704 -0.4266
 7101SOL     OW32764   3.709   4.188   4.065 -0.1039  0.1258  0.2836
 7101SOL    HW132765   3.784   4.245   4.081  0.1250 -0.5946  1.7382
 7101SOL    HW232766   3.713   4.174   3.970  2.2194 -3.9880  0.9976
 7102SOL     OW32767   2.925   3.203   1.990 -0.0038 -0.1073 -0.6157
 7102SOL    HW132768   2.857   3.242   2.044 -0.1581  1.8363 -2.2092
 7102SOL    HW232769   2.878   3.135   1.942  0.4419  0.5055 -1.9453
 7103SOL     OW32770   1.378   3.921   5.618 -0.0747  0.1940  0.1759
 7103SOL    HW132771   1.465   3.921   5.579 -1.2133 -0.5070 -2.3764
 7103SOL    HW232772   1.333   3.864   5.555  0.6903 -1.4414  1.1152
 7104SOL     OW32773   1.686   2.121   4.821 -0.4611  0.0063  0.1023
 7104SOL    HW132774   1.670   2.192   4.758  0.3635  0.4096  0.3491
 7104SOL    HW232775   1.598   2.095   4.849 -1.1351  1.7480 -0.3888
 7105SOL     OW32776   3.152   2.120  14.595 -0.1123  0.3669  0.0448
 7105SOL    HW132777   3.074   2.144  14.546 -0.1085  0.0155 -0.1317
 7105SOL    HW232778   3.104   2.083  14.669 -1.5014 -1.2228 -1.6485
 7106SOL     OW32779   0.927   1.991   3.064  0.0505  0.1863  0.4202
 7106SOL    HW132780   0.849   2.046   3.058  1.0877  1.2413 -3.2947
 7106SOL    HW232781   0.900   1.905   3.031  1.0854 -1.5323  4.1008
 7107SOL     OW32782   2.334   2.851   4.709  0.1879 -0.3256  0.4008
 7107SOL    HW132783   2.271   2.901   4.761 -0.3067  0.0763 -0.5845
 7107SOL    HW232784   2.295   2.842   4.622  2.5536  2.1762 -0.9232
 7108SOL     OW32785   3.333   3.797  16.928  1.0707 -0.1191  0.2034
 7108SOL    HW132786   3.274   3.761  16.994 -0.6293 -2.1817 -2.4980
 7108SOL    HW232787   3.308   3.885  16.955  0.8586 -0.1595  0.1317
 7109SOL     OW32788   4.458   3.496   2.584 -0.6427  0.5454  0.2212
 7109SOL    HW132789   4.397   3.520   2.655 -1.5690 -0.3269 -0.2793
 7109SOL    HW232790   4.506   3.421   2.618 -0.7101 -0.4550 -1.8686
 7110SOL     OW32791   0.186   2.349   6.349 -0.5716 -0.1308  0.3398
 7110SOL    HW132792   0.256   2.330   6.412 -1.0189  0.8206  1.1161
 7110SOL    HW232793   0.224   2.305   6.272 -2.1082 -0.3922 -0.2641
 7111SOL     OW32794   0.904   1.906   4.676 -0.6360 -0.1938  0.0192
 7111SOL    HW132795   0.921   1.832   4.619 -0.0125 -1.0501  1.3104
 7111SOL    HW232796   0.890   1.861   4.760  0.7766 -0.6712 -0.0039
 7112SOL     OW32797   4.209   0.476   4.703 -0.0239  0.0329  0.3409
 7112SOL    HW132798   4.137   0.525   4.664  1.0740 -0.1045 -1.8762
 7112SOL    HW232799   4.277   0.537   4.676 -0.5568  0.9243  1.0294
 7113SOL     OW32800   2.983   3.505  14.801 -0.2622 -0.3855 -0.4347
 7113SOL    HW132801   2.919   3.443  14.765 -0.5202 -0.7758  0.6991
 7113SOL    HW232802   3.012   3.470  14.885  0.5250 -1.3884 -1.1092
 7114SOL     OW32803   1.008   4.325   2.236  0.1064 -0.5827 -0.4332
 7114SOL    HW132804   1.034   4.239   2.205  0.1445 -1.2005  1.3206
 7114SOL    HW232805   1.041   4.334   2.326  1.3351 -2.6998 -0.6860
 7115SOL     OW32806   0.936   1.970  12.274 -0.2613  0.3946 -0.5099
 7115SOL    HW132807   0.920   2.058  12.240  1.2811  1.5835  1.8492
 7115SOL    HW232808   0.980   1.982  12.358 -0.3279 -1.0553 -0.2740
 7116SOL     OW32809   4.640   1.995   5.894 -0.0943 -0.1243  0.5068
 7116SOL    HW132810   4.661   1.905   5.870 -0.5449  0.8495 -3.5178
 7116SOL    HW232811   4.590   2.020   5.816 -0.7985  0.2689  1.0890
 7117SOL     OW32812   2.151   4.685   0.450  0.4448 -0.1608 -0.2584
 7117SOL    HW132813   2.059   4.661   0.459  0.4861  0.8242  2.8701
 7117SOL    HW232814   2.188   4.607   0.408  1.5262  0.9797 -1.4148
 7118SOL     OW32815   3.299   4.298   6.759  0.0877  0.3444 -0.1631
 7118SOL    HW132816   3.241   4.352   6.706  1.7510  1.7924 -0.5281
 7118SOL    HW232817   3.232   4.235   6.784  1.9096 -0.7733  1.8870
 7119SOL     OW32818   1.443   1.285   7.777 -0.0528 -0.1200 -0.2223
 7119SOL    HW132819   1.477   1.299   7.865  2.1011  0.5490 -1.1624
 7119SOL    HW232820   1.447   1.372   7.736  0.3106  1.8391  4.0336
 7120SOL     OW32821   0.929   0.545   5.085 -0.4064  0.3214  0.2744
 7120SOL    HW132822   0.941   0.470   5.143 -0.0441 -0.5475 -0.9270
 7120SOL    HW232823   0.960   0.495   5.010 -0.3352 -1.8502  1.7425
 7121SOL     OW32824   1.144   4.425  12.174  0.0181  0.2844  0.1309
 7121SOL    HW132825   1.165   4.353  12.115  0.6832  1.3079 -0.8609
 7121SOL    HW232826   1.220   4.482  12.166 -0.5607  1.1488  0.8401
 7122SOL     OW32827   2.014   0.184   5.441  0.0323 -0.0979  0.1115
 7122SOL    HW132828   2.026   0.095   5.474 -0.9442  0.5778  2.2831
 7122SOL    HW232829   2.021   0.176   5.346 -0.7585  1.6144 -0.0847
 7123SOL     OW32830   3.064   4.218   7.447  0.1476 -0.7088  0.5529
 7123SOL    HW132831   2.977   4.243   7.417 -0.0294  0.6912  2.1885
 7123SOL    HW232832   3.131   4.255   7.390  1.2744  0.3956  2.5589
 7124SOL     OW32833   0.566   0.205   7.407  0.7516  0.1918 -0.3727
 7124SOL    HW132834   0.619   0.200   7.328  1.4966  0.8169  0.0870
 7124SOL    HW232835   0.479   0.220   7.370  0.1492 -0.0474  0.9343
 7125SOL     OW32836   2.682   3.012  10.964 -0.3130  0.6761 -0.4262
 7125SOL    HW132837   2.774   2.987  10.968  0.0494  1.8784 -1.1381
 7125SOL    HW232838   2.679   3.070  10.888  0.3106  1.8379  0.4415
 7126SOL     OW32839   3.938   0.033   9.635 -0.0106 -0.0685  0.5693
 7126SOL    HW132840   4.019   4.716   9.665 -2.0656 -1.8481  3.7203
 7126SOL    HW232841   3.902   4.691   9.575  0.0770  0.6851 -0.2998
 7127SOL     OW32842   0.057   2.589   3.600 -0.1506  0.1552  0.3709
 7127SOL    HW132843   0.040   2.637   3.519 -0.2859  0.1345  0.3870
 7127SOL    HW232844   0.148   2.615   3.607 -0.0557  0.0668 -0.5219
 7128SOL     OW32845   4.213   1.168  13.152  0.1848  0.1738  0.1334
 7128SOL    HW132846   4.125   1.151  13.187 -0.0596 -1.6626 -1.3775
 7128SOL    HW232847   4.211   1.262  13.134  2.0900  0.8135  3.1940
 7129SOL     OW32848   3.454   3.389   7.268  0.4086  0.1028  0.2167
 7129SOL    HW132849   3.510   3.429   7.335  0.0541 -0.3339  0.7704
 7129SOL    HW232850   3.486   3.300   7.276 -1.0443 -0.4503 -0.1379
 7130SOL     OW32851   1.564   2.788   4.438 -0.6971 -0.1410  0.0404
 7130SOL    HW132852   1.569   2.881   4.417  0.2762 -0.2280 -0.1030
 7130SOL    HW232853   1.616   2.744   4.371 -0.4778 -0.4233  0.3958
 7131SOL     OW32854   4.020   2.609   1.013 -0.2870 -0.0079 -0.6962
 7131SOL    HW132855   4.077   2.539   1.047  0.1173  1.4072  1.5609
 7131SOL    HW232856   4.082   2.681   1.014  0.8113 -0.9696  3.6961
 7132SOL     OW32857   2.038   3.933   8.880 -0.5600 -0.1577 -0.3017
 7132SOL    HW132858   2.087   3.851   8.877  1.0647  0.8770 -1.8511
 7132SOL    HW232859   1.950   3.909   8.911 -1.0583 -0.2873 -1.8311
 7133SOL     OW32860   2.926   3.426   8.125  0.1618  0.6626 -0.0694
 7133SOL    HW132861   2.901   3.427   8.217 -1.7942  1.4295 -0.6059
 7133SOL    HW232862   2.924   3.331   8.115  2.2607  0.4852  1.2195
 7134SOL     OW32863   0.786   3.795   0.145  0.0307 -0.0170  0.3537
 7134SOL    HW132864   0.828   3.735   0.208 -0.3516 -1.0608 -0.3983
 7134SOL    HW232865   0.733   3.844   0.208 -1.9273 -1.2488 -0.3736
 7135SOL     OW32866   3.564   3.353   1.735  0.4991 -0.4246 -0.2551
 7135SOL    HW132867   3.520   3.273   1.707 -0.2641  0.0088 -0.2870
 7135SOL    HW232868   3.508   3.382   1.806  2.4562  2.0229  0.3177
 7136SOL     OW32869   1.173   2.798   6.027 -0.9047  0.8611 -0.5887
 7136SOL    HW132870   1.259   2.812   5.987 -0.6724 -1.4731 -0.9204
 7136SOL    HW232871   1.143   2.888   6.040  0.8625  1.2390  0.8512
 7137SOL     OW32872   4.298   1.309   5.091  0.5986  0.4783 -0.5676
 7137SOL    HW132873   4.388   1.310   5.123  0.3686 -0.6404  0.1162
 7137SOL    HW232874   4.312   1.364   5.013 -2.2555  0.4825 -1.0603
 7138SOL     OW32875   1.755   4.125   7.832  0.4010 -0.5803 -0.4956
 7138SOL    HW132876   1.675   4.158   7.872  0.3821  0.5019 -1.4440
 7138SOL    HW232877   1.747   4.031   7.849 -1.8102 -0.2486  0.2864
 7139SOL     OW32878   2.649   1.546   8.617 -0.6285 -0.6634 -0.0724
 7139SOL    HW132879   2.613   1.607   8.553  1.0564  0.0176 -0.3530
 7139SOL    HW232880   2.660   1.471   8.558  0.2157 -0.4993 -0.1301
 7140SOL     OW32881   2.514   1.878   3.478  0.3323 -0.6376 -0.3471
 7140SOL    HW132882   2.539   1.858   3.568  0.0585 -0.6172 -0.2667
 7140SOL    HW232883   2.584   1.931   3.439 -0.7866 -0.0366 -1.5265
 7141SOL     OW32884   0.823   1.482  10.775  0.2683  0.4375 -0.1729
 7141SOL    HW132885   0.873   1.546  10.726  0.3417  0.4775 -0.0467
 7141SOL    HW232886   0.755   1.456  10.713  2.7955  2.2264 -3.6748
 7142SOL     OW32887   3.197   4.438   3.002  0.2942  0.3817  0.2597
 7142SOL    HW132888   3.203   4.513   2.943 -1.0304  1.2631  1.2457
 7142SOL    HW232889   3.187   4.483   3.086  0.7443 -0.2861  0.6712
 7143SOL     OW32890   2.687   1.088   7.782 -0.2907  0.2731  0.4765
 7143SOL    HW132891   2.607   1.139   7.769  0.2244  1.6645  2.7341
 7143SOL    HW232892   2.752   1.158   7.786  0.8670 -0.8443  1.2093
 7144SOL     OW32893   1.974   0.072   7.417  0.3753  0.3045  0.1050
 7144SOL    HW132894   1.974   4.715   7.468  0.3450 -0.4114 -1.0127
 7144SOL    HW232895   2.021   0.133   7.473  1.9623  0.6686 -1.6208
 7145SOL     OW32896   4.018   4.217   6.162 -0.6574 -0.6040  0.1975
 7145SOL    HW132897   4.014   4.305   6.126 -0.0726 -0.7961 -0.3489
 7145SOL    HW232898   4.087   4.171   6.114 -0.7064 -0.0152 -0.4225
 7146SOL     OW32899   2.995   0.493  13.364  0.5037  0.3503  0.2083
 7146SOL    HW132900   2.966   0.549  13.292 -0.6009 -0.0431  0.3493
 7146SOL    HW232901   3.038   0.558  13.420 -1.2163  2.1358 -0.5518
 7147SOL     OW32902   2.250   3.405   4.032  0.4142  0.2321  0.3834
 7147SOL    HW132903   2.333   3.411   4.080 -0.5918 -0.7347  2.2040
 7147SOL    HW232904   2.242   3.311   4.020  1.5940  0.1547  0.1490
 7148SOL     OW32905   3.262   1.005   2.431  0.1232  0.0724  0.0202
 7148SOL    HW132906   3.269   1.066   2.505 -2.6810  0.4513 -0.0186
 7148SOL    HW232907   3.210   1.057   2.370  1.4135 -0.2990 -1.3957
 7149SOL     OW32908   4.019   0.658   5.009 -0.0157  0.5265  0.3266
 7149SOL    HW132909   3.939   0.664   4.956 -0.8693  0.0921  1.5538
 7149SOL    HW232910   3.994   0.706   5.088 -0.2037  0.7649  0.1249
 7150SOL     OW32911   1.693   1.585   5.306 -0.3092 -0.0427 -0.0599
 7150SOL    HW132912   1.658   1.519   5.366 -0.8848 -0.6428 -1.0779
 7150SOL    HW232913   1.777   1.550   5.336 -0.3365  0.8691  1.0873
 7151SOL     OW32914   0.196   3.382   2.357  0.0379  0.0035 -0.0082
 7151SOL    HW132915   0.104   3.375   2.382 -0.1213  0.6796 -0.4368
 7151SOL    HW232916   0.192   3.450   2.291  0.8111 -1.1098 -1.2055
 7152SOL     OW32917   3.311   4.143   6.213 -0.1318  1.0205 -0.4502
 7152SOL    HW132918   3.319   4.234   6.239  1.8628  0.9424 -0.7542
 7152SOL    HW232919   3.382   4.129   6.150 -1.2929 -2.5896 -0.9610
 7153SOL     OW32920   1.151   3.991   9.641  0.7344  0.5375 -0.2557
 7153SOL    HW132921   1.107   3.906   9.635 -1.6699  1.6770  1.3450
 7153SOL    HW232922   1.228   3.960   9.593  0.6837  0.2174 -0.1338
 7154SOL     OW32923   2.805   2.498   3.209  0.2214  0.6001  0.1395
 7154SOL    HW132924   2.743   2.499   3.282 -0.3608  1.0398 -0.3646
 7154SOL    HW232925   2.824   2.590   3.192  0.0132  0.1967 -2.2937
 7155SOL     OW32926   2.336   1.617   1.015  0.2630 -0.2998  0.0244
 7155SOL    HW132927   2.376   1.593   0.932 -0.5920  1.0599 -0.7804
 7155SOL    HW232928   2.266   1.553   1.024 -2.5540  2.8935  1.1186
 7156SOL     OW32929   1.442   0.683  15.518 -0.1689 -0.5626 -0.0956
 7156SOL    HW132930   1.376   0.668  15.586  1.8194  1.1323  2.2005
 7156SOL    HW232931   1.433   0.600  15.473 -0.4354  0.3080 -1.6435
 7157SOL     OW32932   2.746   0.825  12.737 -0.4887  0.5000 -0.4350
 7157SOL    HW132933   2.737   0.859  12.648  0.1395  0.9273 -0.3415
 7157SOL    HW232934   2.841   0.830  12.752 -0.1533  0.0442 -2.4030
 7158SOL     OW32935   3.590   0.472   8.854  0.4625  0.0314 -0.4146
 7158SOL    HW132936   3.536   0.395   8.835  0.4887 -0.8573  2.9375
 7158SOL    HW232937   3.551   0.545   8.807  2.4850  2.2853  1.4014
 7159SOL     OW32938   1.095   3.721   9.660 -0.1148  0.5157  0.0175
 7159SOL    HW132939   1.160   3.718   9.730 -1.2232 -1.6056  0.9502
 7159SOL    HW232940   1.052   3.638   9.681  1.8851  0.1340  2.5636
 7160SOL     OW32941   1.368   2.110   6.669 -0.0774  0.6744  0.1830
 7160SOL    HW132942   1.290   2.078   6.624  0.0797  0.0404  0.3667
 7160SOL    HW232943   1.419   2.030   6.659 -0.9572  0.1967 -0.4100
 7161SOL     OW32944   2.404   3.875  17.248  0.1674 -0.2638 -1.1212
 7161SOL    HW132945   2.327   3.927  17.225  0.9386 -0.6254 -4.4972
 7161SOL    HW232946   2.475   3.931  17.215  1.0750 -0.6333  0.1864
 7162SOL     OW32947   0.585   1.145   7.199  0.5814  0.0234  0.6478
 7162SOL    HW132948   0.674   1.172   7.220  0.2402  1.4779  0.2037
 7162SOL    HW232949   0.536   1.196   7.262  1.0668  1.9216 -0.5143
 7163SOL     OW32950   3.801   4.090  11.413 -0.3976 -0.5618  0.2327
 7163SOL    HW132951   3.793   4.005  11.457  0.4966 -1.5279 -1.4671
 7163SOL    HW232952   3.709   4.098  11.387 -0.3479 -0.1760  0.1776
 7164SOL     OW32953   4.483   0.290   8.516 -0.1762 -0.0235  0.0785
 7164SOL    HW132954   4.472   0.197   8.536  2.2230  0.2420  2.6118
 7164SOL    HW232955   4.442   0.324   8.596  0.5319  1.4661 -0.2007
 7165SOL     OW32956   2.915   2.432  17.049  0.8865 -0.4387  0.0841
 7165SOL    HW132957   2.829   2.448  17.008 -0.2260 -0.6912  2.3534
 7165SOL    HW232958   2.979   2.455  16.981  0.5696  1.6090  0.4759
 7166SOL     OW32959   2.147   0.566   7.937  0.2858  0.1095  0.2665
 7166SOL    HW132960   2.112   0.481   7.963 -0.6933  0.1185 -1.0652
 7166SOL    HW232961   2.192   0.550   7.854  1.7254 -0.4678  1.1562
 7167SOL     OW32962   1.656   2.954   7.184 -0.1882 -0.2842 -0.0376
 7167SOL    HW132963   1.730   2.893   7.192 -0.0974 -0.4149 -1.8433
 7167SOL    HW232964   1.697   3.032   7.147 -0.4856 -0.2117 -0.2125
 7168SOL     OW32965   3.174   2.492   3.487 -0.3099  0.4367 -0.0958
 7168SOL    HW132966   3.101   2.432   3.472  2.4012 -2.6274 -1.1551
 7168SOL    HW232967   3.137   2.577   3.464  1.9265  1.4897  0.1752
 7169SOL     OW32968   1.447   0.809  14.806 -0.1002 -0.2085  0.2941
 7169SOL    HW132969   1.400   0.888  14.832 -1.1858 -0.5834 -0.5284
 7169SOL    HW232970   1.413   0.809  14.716  0.7320 -1.1853 -0.0315
 7170SOL     OW32971   2.523   0.245   3.472 -0.7216 -0.4847  0.2339
 7170SOL    HW132972   2.480   0.330   3.459  1.1216  0.3598 -0.3151
 7170SOL    HW232973   2.502   0.200   3.390  2.9148  2.0955 -2.1237
 7171SOL     OW32974   2.840   2.636   8.445  0.0654  0.0289 -0.0739
 7171SOL    HW132975   2.922   2.595   8.471  1.4839  1.8746 -1.5977
 7171SOL    HW232976   2.772   2.569   8.453 -0.2993 -0.0838 -4.1100
 7172SOL     OW32977   0.873   4.540  13.116  0.3979 -0.1254  0.2970
 7172SOL    HW132978   0.867   4.631  13.143 -3.5848 -1.3420  3.4856
 7172SOL    HW232979   0.828   4.548  13.032  1.8366  1.7530 -0.2953
 7173SOL     OW32980   3.836   2.918  13.845  0.2626  0.3448  0.3602
 7173SOL    HW132981   3.775   2.872  13.903  0.3990  0.8098  0.8715
 7173SOL    HW232982   3.779   2.970  13.788 -0.4637 -0.1615  0.6280
 7174SOL     OW32983   2.307   4.519   2.186  0.2066  0.1154  0.0757
 7174SOL    HW132984   2.307   4.612   2.208  0.2448  0.1011  0.1378
 7174SOL    HW232985   2.251   4.488   2.257  0.6930 -0.2254  0.3111
 7175SOL     OW32986   2.108   4.191   8.780  0.1230  0.7174  0.4252
 7175SOL    HW132987   2.107   4.121   8.845  0.1564  0.2114 -0.1161
 7175SOL    HW232988   2.015   4.216   8.779 -0.4330 -1.4560 -2.3636
 7176SOL     OW32989   2.830   4.307   7.967 -0.1458  0.6429  0.7109
 7176SOL    HW132990   2.851   4.215   7.949 -0.5328  0.3167  1.9208
 7176SOL    HW232991   2.737   4.309   7.945 -0.0870  0.8459  0.4880
 7177SOL     OW32992   0.823   1.242  16.527 -0.7545  0.8929  0.2389
 7177SOL    HW132993   0.835   1.319  16.472  0.2513  1.2775  1.0027
 7177SOL    HW232994   0.912   1.210  16.508 -1.6917 -1.0979 -0.8354
 7178SOL     OW32995   1.509   3.184  13.993 -0.4182  0.4546  0.0475
 7178SOL    HW132996   1.549   3.269  14.011 -1.2098  1.3444 -2.4457
 7178SOL    HW232997   1.423   3.204  13.957 -0.3690 -1.5754 -1.2043
 7179SOL     OW32998   2.856   3.881   4.626 -0.2942 -0.3206  0.1193
 7179SOL    HW132999   2.885   3.945   4.691  0.5487  1.4850 -2.0458
 7179SOL    HW233000   2.835   3.804   4.680 -0.3409  0.2611  0.9239
 7180SOL     OW33001   3.577   4.596   7.909  0.5296 -0.3886  0.4149
 7180SOL    HW133002   3.541   4.507   7.903  1.9065 -0.9429  0.3407
 7180SOL    HW233003   3.508   4.658   7.887  1.1646  0.4645  0.8422
 7181SOL     OW33004   0.427   2.786  12.928 -0.1501  0.0305 -0.1888
 7181SOL    HW133005   0.398   2.774  12.837 -0.3465  1.6446 -0.3475
 7181SOL    HW233006   0.349   2.796  12.982 -0.6111  2.1690 -1.2545
 7182SOL     OW33007   3.241   2.427   4.112 -0.4952  0.3008  0.3160
 7182SOL    HW133008   3.245   2.505   4.057 -0.9240  1.3158  1.7155
 7182SOL    HW233009   3.328   2.425   4.152 -0.1295 -1.4532 -0.5729
 7183SOL     OW33010   1.831   2.019  15.480 -0.0088 -0.2122 -0.3757
 7183SOL    HW133011   1.849   2.070  15.559  0.6281 -0.3353 -0.4375
 7183SOL    HW233012   1.737   2.034  15.474  0.1034  0.2625 -0.9221
 7184SOL     OW33013   3.326   0.456  14.774  0.8100 -0.9874  0.2264
 7184SOL    HW133014   3.376   0.500  14.842  0.6354 -0.9337  0.3215
 7184SOL    HW233015   3.254   0.515  14.749 -1.2286 -3.8252 -0.5972
 7185SOL     OW33016   2.220   4.623   8.389 -0.7294 -0.2577  0.1760
 7185SOL    HW133017   2.287   4.564   8.354 -0.1619  0.5126 -0.0328
 7185SOL    HW233018   2.259   4.676   8.457  1.1754  0.8063 -1.7714
 7186SOL     OW33019   1.307   3.235   2.154  0.6124  0.6628  0.1061
 7186SOL    HW133020   1.358   3.288   2.093  2.4290  0.0656  1.0979
 7186SOL    HW233021   1.226   3.223   2.105  2.2848 -3.7310 -1.4948
 7187SOL     OW33022   3.624   3.270  16.655  1.0592  0.3765  0.0865
 7187SOL    HW133023   3.554   3.209  16.678 -0.7604  1.3141 -3.0183
 7187SOL    HW233024   3.570   3.337  16.614 -0.6846 -0.6921  0.6484
 7188SOL     OW33025   3.021   1.468   7.654  0.2519  0.1755 -0.2223
 7188SOL    HW133026   2.989   1.547   7.610  0.8125 -0.1178 -1.1475
 7188SOL    HW233027   3.089   1.445   7.592 -0.7190 -1.7965 -0.5613
 7189SOL     OW33028   3.768   2.981   8.195  0.3009  0.3254 -0.3915
 7189SOL    HW133029   3.687   2.938   8.168 -1.4772  2.7516  1.0554
 7189SOL    HW233030   3.738   3.072   8.195 -0.3674  0.1027 -1.7224
 7190SOL     OW33031   1.629   3.510   8.925  0.1478  0.9122 -1.2118
 7190SOL    HW133032   1.576   3.450   8.978 -0.9928 -0.8311 -4.3453
 7190SOL    HW233033   1.560   3.565   8.889 -3.0781 -2.9396 -0.8908
 7191SOL     OW33034   4.031   3.597   4.142  0.0519 -0.6395  0.0574
 7191SOL    HW133035   4.085   3.668   4.174 -2.0848  0.8854  0.2828
 7191SOL    HW233036   3.972   3.648   4.087 -0.0617 -2.0694 -1.1473
 7192SOL     OW33037   3.619   2.335   8.988  0.1466  0.3758  0.6912
 7192SOL    HW133038   3.642   2.296   8.904 -0.2022  2.1197 -0.2104
 7192SOL    HW233039   3.527   2.310   8.987  0.4632 -0.6936 -1.3235
 7193SOL     OW33040   3.437   3.731  12.812  0.2295 -0.1709 -0.1758
 7193SOL    HW133041   3.530   3.710  12.820  0.3925  0.9267  0.8322
 7193SOL    HW233042   3.408   3.658  12.758 -1.0507  0.5233 -0.4357
 7194SOL     OW33043   1.735   1.349   2.842 -0.3315  0.2059 -0.4212
 7194SOL    HW133044   1.740   1.437   2.804 -1.0926  1.9591  3.5691
 7194SOL    HW233045   1.753   1.358   2.935 -0.8621 -0.0874 -0.2887
 7195SOL     OW33046   2.714   3.494  13.283  0.4857  0.9230  0.2541
 7195SOL    HW133047   2.672   3.556  13.342 -0.8345  1.5296 -1.3239
 7195SOL    HW233048   2.758   3.555  13.223  2.0509  1.5381  2.0001
 7196SOL     OW33049   3.757   3.576   1.000  0.0041  0.5322  0.0110
 7196SOL    HW133050   3.677   3.551   0.954 -0.4134 -1.5814  1.9374
 7196SOL    HW233051   3.743   3.671   0.994 -2.9366  0.1821  1.4373
 7197SOL     OW33052   4.200   3.814   5.797 -0.0844  0.5092 -0.2917
 7197SOL    HW133053   4.277   3.770   5.834  0.1661 -0.1285 -1.5486
 7197SOL    HW233054   4.159   3.736   5.760  1.9090 -0.8881  0.4512
 7198SOL     OW33055   4.084   0.211   1.363 -0.3639  0.0349 -0.2073
 7198SOL    HW133056   3.989   0.210   1.368 -0.3309  0.9711  0.3847
 7198SOL    HW233057   4.094   0.306   1.365 -1.1534  0.0021  4.3684
 7199SOL     OW33058   1.933   3.284   6.645  0.2013 -0.0488  0.7586
 7199SOL    HW133059   1.899   3.348   6.708  0.7356  1.9808 -1.0195
 7199SOL    HW233060   1.926   3.204   6.697  1.3882 -1.9282 -1.9494
 7200SOL     OW33061   0.716   0.706   8.137 -0.0978  0.5347  0.0423
 7200SOL    HW133062   0.709   0.770   8.208  0.1322  0.6091 -0.0037
 7200SOL    HW233063   0.639   0.650   8.146  0.0412  0.3998  0.3888
 7201SOL     OW33064   0.334   0.880   6.274 -0.5068  0.1630  0.2198
 7201SOL    HW133065   0.251   0.841   6.303 -0.6967 -0.2671 -0.8949
 7201SOL    HW233066   0.307   0.958   6.225  2.1414  0.4168 -0.8097
 7202SOL     OW33067   0.562   3.384   2.862  0.0038 -0.4726  0.7616
 7202SOL    HW133068   0.529   3.314   2.807 -0.9542  2.1026 -1.9604
 7202SOL    HW233069   0.652   3.376   2.829 -0.4533  2.1196 -1.0849
 7203SOL     OW33070   1.446   4.478   3.602  0.2598  0.6116 -0.3007
 7203SOL    HW133071   1.392   4.557   3.605 -2.0464 -0.8965 -1.5817
 7203SOL    HW233072   1.407   4.444   3.521 -0.5186  1.2668 -0.2008
 7204SOL     OW33073   3.201   2.472   5.081  0.2704  0.4703  0.3184
 7204SOL    HW133074   3.296   2.468   5.091  0.5067  1.0320 -1.6171
 7204SOL    HW233075   3.201   2.406   5.012 -1.2844  1.2369 -0.4129
 7205SOL     OW33076   1.341   3.639   3.095 -0.0898 -0.5336 -1.2449
 7205SOL    HW133077   1.302   3.570   3.041  1.0647 -3.1919  1.2548
 7205SOL    HW233078   1.384   3.586   3.163  0.9507  1.5832 -0.2647
 7206SOL     OW33079   0.627   3.497   5.584  0.2645 -0.0031  0.1429
 7206SOL    HW133080   0.654   3.408   5.561  1.2555 -0.9645  5.1134
 7206SOL    HW233081   0.686   3.508   5.658 -1.4943 -1.1708  1.7130
 7207SOL     OW33082   3.134   3.454  12.806  0.0144  0.1370 -0.2701
 7207SOL    HW133083   3.206   3.477  12.747 -0.0971  1.6574  0.2100
 7207SOL    HW233084   3.125   3.531  12.862  5.2451  0.3273  0.3666
 7208SOL     OW33085   0.662   1.169  17.186 -0.2050 -0.0033 -0.6415
 7208SOL    HW133086   0.743   1.121  17.203 -1.0426 -1.0045  0.4858
 7208SOL    HW233087   0.642   1.152  17.094 -0.3794  0.0290 -0.6085
 7209SOL     OW33088   3.615   3.509   9.421 -0.2958  0.7068  0.0949
 7209SOL    HW133089   3.558   3.433   9.430 -1.4299  1.3909 -1.2986
 7209SOL    HW233090   3.640   3.525   9.512  1.4301 -0.5076 -0.1566
 7210SOL     OW33091   2.059   1.431   2.660 -0.4523 -0.2352 -0.4758
 7210SOL    HW133092   2.066   1.514   2.612  1.4513  0.3915  0.8809
 7210SOL    HW233093   2.040   1.364   2.594  3.2875 -2.5362  0.7873
 7211SOL     OW33094   4.570   3.484   2.987 -0.4348 -0.4583 -0.0051
 7211SOL    HW133095   4.664   3.503   2.990 -0.4633 -0.3361  0.1083
 7211SOL    HW233096   4.576   3.390   2.972 -0.5648 -0.5087  0.2790
 7212SOL     OW33097   3.348   1.143   4.793 -0.2515 -0.1663  0.0178
 7212SOL    HW133098   3.382   1.228   4.767 -1.1711  0.4012  0.6376
 7212SOL    HW233099   3.274   1.138   4.732 -0.8445  0.7511  0.6517
 7213SOL     OW33100   1.297   0.471   5.248 -0.2553  0.2681  0.1214
 7213SOL    HW133101   1.364   0.448   5.312 -0.4855  0.2722  0.3633
 7213SOL    HW233102   1.286   0.562   5.276  0.8373  0.4207  0.0685
 7214SOL     OW33103   1.220   0.295  16.680 -0.2714 -0.2618 -0.5926
 7214SOL    HW133104   1.193   0.358  16.747  2.3600  0.9340 -0.6101
 7214SOL    HW233105   1.143   0.303  16.624 -0.5791 -1.1371 -0.2837
 7215SOL     OW33106   4.020   4.241   0.259  0.3388 -0.0981 -0.8308
 7215SOL    HW133107   3.931   4.263   0.286  0.2109 -1.2211 -0.3756
 7215SOL    HW233108   4.065   4.252   0.343 -0.5257 -0.9575 -0.2708
 7216SOL     OW33109   2.883   3.502   5.808  0.5665 -0.3071 -0.4421
 7216SOL    HW133110   2.945   3.430   5.795  1.3667  0.6581 -1.9016
 7216SOL    HW233111   2.830   3.491   5.729 -0.3934  2.8930 -0.2340
 7217SOL     OW33112   3.779   1.838   1.208 -0.0413  0.3358  0.2723
 7217SOL    HW133113   3.783   1.931   1.228  0.5249  0.6645 -1.3877
 7217SOL    HW233114   3.697   1.812   1.250 -1.9309  1.6391 -2.5649
 7218SOL     OW33115   2.050   0.640  17.156 -0.4210  0.0558 -0.5723
 7218SOL    HW133116   2.054   0.628  17.250  1.9228  0.4217 -0.6234
 7218SOL    HW233117   2.129   0.691  17.137  0.2162 -0.9552 -0.5946
 7219SOL     OW33118   3.050   1.952   5.412  0.2900 -0.6447 -0.0479
 7219SOL    HW133119   2.970   1.996   5.439  0.4423  1.2012 -2.5678
 7219SOL    HW233120   3.066   2.000   5.330  0.0966  0.7366  0.7309
 7220SOL     OW33121   0.581   0.891   8.341 -0.8215 -0.2470  0.1925
 7220SOL    HW133122   0.548   0.940   8.265  0.1847  2.1381  1.2933
 7220SOL    HW233123   0.660   0.942   8.359  0.0158 -1.2765 -0.5934
 7221SOL     OW33124   2.852   4.143   9.323 -0.1766  0.5539  0.1603
 7221SOL    HW133125   2.786   4.082   9.289 -0.3894  1.1668 -0.5451
 7221SOL    HW233126   2.880   4.102   9.405  0.6793  1.3029  0.2331
 7222SOL     OW33127   1.850   3.990   8.180  0.1711 -0.5926  0.1090
 7222SOL    HW133128   1.777   3.929   8.168 -0.6083  0.3613 -0.0085
 7222SOL    HW233129   1.825   4.073   8.140 -2.0635 -0.6224  1.4531
 7223SOL     OW33130   1.449   0.167   1.898  0.6470 -0.0200 -0.1965
 7223SOL    HW133131   1.354   0.181   1.901  0.3820 -2.2044  0.9663
 7223SOL    HW233132   1.481   0.253   1.925  1.0015 -0.4260  0.6584
 7224SOL     OW33133   0.659   2.895   6.813 -0.0200  0.0707 -0.1243
 7224SOL    HW133134   0.648   2.924   6.722  0.4452  0.5954 -0.0155
 7224SOL    HW233135   0.587   2.839   6.841 -0.9843  0.5130 -1.6888
 7225SOL     OW33136   1.284   2.543  12.590 -0.5403 -0.5535 -0.4522
 7225SOL    HW133137   1.315   2.470  12.643 -2.7165 -0.8483  0.4020
 7225SOL    HW233138   1.208   2.501  12.551 -1.7680  0.0368  1.3033
 7226SOL     OW33139   3.912   0.589  17.666  0.4959  0.2027  0.3204
 7226SOL    HW133140   3.910   0.685  17.658 -1.7159 -0.0443 -1.9424
 7226SOL    HW233141   3.829   0.571   0.014  1.4726 -0.0454  2.0335
 7227SOL     OW33142   2.875   4.612  16.618 -0.3219  0.1163 -0.6523
 7227SOL    HW133143   2.913   4.531  16.650  1.2329  0.8701 -0.5823
 7227SOL    HW233144   2.798   4.581  16.570 -1.5273 -0.5516  1.7333
 7228SOL     OW33145   1.598   3.712  12.771 -0.2000  0.6186 -0.6048
 7228SOL    HW133146   1.628   3.672  12.852  0.1266  2.0025 -0.0336
 7228SOL    HW233147   1.668   3.688  12.711 -0.2560  1.7195 -1.1158
 7229SOL     OW33148   3.938   3.089   5.062 -0.1005  0.4021  0.4615
 7229SOL    HW133149   3.997   3.046   5.124 -0.6617  0.4838  1.0507
 7229SOL    HW233150   3.996   3.103   4.987 -2.6372  0.8858 -1.4075
 7230SOL     OW33151   0.684   0.912   1.781  0.7457 -0.0499  0.4589
 7230SOL    HW133152   0.621   0.859   1.734  0.7758 -1.1524  1.6612
 7230SOL    HW233153   0.680   0.871   1.867  1.5290  0.1879  0.6126
 7231SOL     OW33154   0.248   4.111  11.452 -0.0387  0.3714  0.2241
 7231SOL    HW133155   0.204   4.156  11.379  2.0965  0.1486 -1.2020
 7231SOL    HW233156   0.302   4.185  11.480 -0.9540  1.2136 -0.2446
 7232SOL     OW33157   2.022   3.893   5.285 -0.3517  0.1450 -0.0611
 7232SOL    HW133158   1.960   3.821   5.297 -0.6553  0.3573 -0.3347
 7232SOL    HW233159   2.010   3.910   5.191 -2.7398 -0.9391  0.0498
 7233SOL     OW33160   3.267   2.830   3.624  0.0255 -0.1048 -0.0647
 7233SOL    HW133161   3.233   2.782   3.549  0.8560 -0.1628 -0.3971
 7233SOL    HW233162   3.185   2.870   3.654 -0.7073 -0.9903 -0.8928
 7234SOL     OW33163   1.148   0.019   0.666  0.0417  0.2358 -0.1703
 7234SOL    HW133164   1.203   4.675   0.628 -0.5569 -0.3665  0.0527
 7234SOL    HW233165   1.147   0.086   0.597 -2.2642 -3.1731 -3.4665
 7235SOL     OW33166   1.801   1.707   1.907 -0.0014 -0.3726  0.3000
 7235SOL    HW133167   1.804   1.747   1.821  0.1421  0.8647  0.8760
 7235SOL    HW233168   1.885   1.736   1.942  1.0528 -0.0597 -2.5016
 7236SOL     OW33169   0.839   1.464  15.710  0.2717  0.3813  0.4527
 7236SOL    HW133170   0.857   1.550  15.672 -0.0501  0.3646  0.2635
 7236SOL    HW233171   0.821   1.414  15.630 -0.3498  0.8391  0.3062
 7237SOL     OW33172   2.128   1.531   7.842 -0.5012  0.1939  0.6303
 7237SOL    HW133173   2.218   1.563   7.847  0.4034 -2.5149  1.2860
 7237SOL    HW233174   2.105   1.544   7.750 -2.5945  0.7096  1.2156
 7238SOL     OW33175   0.558   1.512  11.556  0.0084 -0.1505 -0.2100
 7238SOL    HW133176   0.572   1.430  11.604 -0.5097 -0.0071  0.1835
 7238SOL    HW233177   0.640   1.508  11.507 -0.3583 -0.6192 -0.7886
 7239SOL     OW33178   3.352   1.722   2.954  0.0243  0.2353  0.3045
 7239SOL    HW133179   3.275   1.731   3.010  1.1418  2.8741  1.4116
 7239SOL    HW233180   3.395   1.652   3.005  0.4175 -0.1104 -0.5019
 7240SOL     OW33181   3.623   3.735   1.951 -0.6628  0.7835 -0.1695
 7240SOL    HW133182   3.562   3.736   1.877 -1.8493 -1.2960  0.7939
 7240SOL    HW233183   3.597   3.651   1.989 -0.2281  0.2192 -1.1025
 7241SOL     OW33184   3.119   0.836  11.017  0.1260  0.0307  0.2470
 7241SOL    HW133185   3.040   0.836  10.964  0.0778 -1.5042  0.2956
 7241SOL    HW233186   3.113   0.754  11.067  1.5272 -0.1725  0.0946
 7242SOL     OW33187   2.474   2.457   7.156 -0.0150 -0.1072  0.3437
 7242SOL    HW133188   2.558   2.413   7.141  1.2249  1.5901  2.2993
 7242SOL    HW233189   2.493   2.545   7.123 -1.7946 -0.2397 -0.9930
 7243SOL     OW33190   0.416   1.597  16.032  0.3321 -0.0778 -0.2094
 7243SOL    HW133191   0.508   1.612  16.055 -0.0978  0.6988  0.9920
 7243SOL    HW233192   0.430   1.517  15.982 -0.2992  0.4034 -1.1578
 7244SOL     OW33193   3.859   2.879   6.246 -0.1792 -0.0534  0.6622
 7244SOL    HW133194   3.929   2.851   6.306 -1.8405 -1.4283  1.9588
 7244SOL    HW233195   3.781   2.882   6.301 -0.9526  2.4877 -0.6340
 7245SOL     OW33196   3.499   0.683   7.480 -0.2582  0.3295  0.6000
 7245SOL    HW133197   3.425   0.639   7.437  0.4429  0.9542 -1.2274
 7245SOL    HW233198   3.572   0.635   7.440 -1.4581  1.2197 -2.6227
 7246SOL     OW33199   3.811   2.272  16.585  0.2659  0.1384  0.1308
 7246SOL    HW133200   3.734   2.239  16.632  0.2174  1.8247  1.2502
 7246SOL    HW233201   3.799   2.257  16.492 -1.1109  0.9166  0.1840
 7247SOL     OW33202   3.657   2.982   5.639  0.3367  0.3825 -0.2373
 7247SOL    HW133203   3.713   2.922   5.590 -0.2833 -2.5454  2.6289
 7247SOL    HW233204   3.634   3.038   5.565 -0.8595 -1.4181 -1.2333
 7248SOL     OW33205   0.825   4.430   8.597 -0.4456  0.2799  0.5648
 7248SOL    HW133206   0.892   4.468   8.654 -2.2322  3.2717  0.6904
 7248SOL    HW233207   0.799   4.348   8.638 -1.5888 -0.0325 -0.7942
 7249SOL     OW33208   2.340   4.091   6.648  0.3483 -0.0825  0.0990
 7249SOL    HW133209   2.266   4.117   6.593  1.5318  0.6199 -1.1545
 7249SOL    HW233210   2.377   4.179   6.642  1.6367 -0.7675 -1.8796
 7250SOL     OW33211   4.705   0.528   4.642  0.0637 -0.7697 -0.2315
 7250SOL    HW133212   4.618   0.490   4.636  0.3127 -1.2728 -0.6563
 7250SOL    HW233213   0.034   0.494   4.570  1.9326  1.8073 -0.0855
 7251SOL     OW33214   2.551   1.343   8.377 -0.6737 -0.1495  0.2937
 7251SOL    HW133215   2.540   1.275   8.311  3.0653 -1.1379  0.6435
 7251SOL    HW233216   2.504   1.301   8.449  0.5427  0.4915  1.4793
 7252SOL     OW33217   3.134   2.583   5.430 -0.3232  0.0372  0.4730
 7252SOL    HW133218   3.208   2.588   5.369 -0.2504  1.6017  0.6915
 7252SOL    HW233219   3.169   2.582   5.520 -2.7056 -0.4047  1.3897
 7253SOL     OW33220   4.022   2.803   2.561 -0.5577 -0.4302  0.0376
 7253SOL    HW133221   4.006   2.762   2.646 -0.7095 -1.2692 -0.3896
 7253SOL    HW233222   4.030   2.721   2.512 -0.4521 -0.4641  0.1097
 7254SOL     OW33223   1.635   4.529   1.651  0.4530 -0.3790  0.0491
 7254SOL    HW133224   1.577   4.603   1.632 -0.8024 -1.1475  0.8591
 7254SOL    HW233225   1.689   4.560   1.724  0.0644  1.2452 -0.3468
 7255SOL     OW33226   1.040   1.786   7.054  0.0150  0.7118  0.7877
 7255SOL    HW133227   1.018   1.790   7.147  2.0136  1.2505  1.2550
 7255SOL    HW233228   1.116   1.727   7.053  0.1835  0.9331  0.2213
 7256SOL     OW33229   3.809   0.633   5.675  0.8660 -0.1783 -0.2852
 7256SOL    HW133230   3.896   0.613   5.641  1.2596  3.0368 -1.2240
 7256SOL    HW233231   3.761   0.679   5.606  0.6197  0.2824  0.1878
 7257SOL     OW33232   3.381   0.115  11.187  0.1458  0.3751 -0.1238
 7257SOL    HW133233   3.424   0.158  11.261 -0.4406  0.9317 -0.1085
 7257SOL    HW233234   3.439   0.153  11.121  1.0735  2.6839  2.0160
 7258SOL     OW33235   0.879   0.229  14.897  0.5834  0.0080 -0.0603
 7258SOL    HW133236   0.870   0.136  14.915  0.2341 -0.3088 -1.9101
 7258SOL    HW233237   0.803   0.243  14.841  0.4036 -0.9776 -0.0636
 7259SOL     OW33238   1.737   0.386   0.363  0.1201  0.0276 -0.3606
 7259SOL    HW133239   1.777   0.467   0.331 -1.4610  0.6905 -0.6248
 7259SOL    HW233240   1.708   0.425   0.446  0.9139  0.9535 -0.5022
 7260SOL     OW33241   0.174   0.590  12.654 -0.0201  0.6369  0.3614
 7260SOL    HW133242   0.146   0.553  12.570  0.4388 -1.2902  1.0449
 7260SOL    HW233243   0.253   0.638  12.634 -1.2451  2.3019 -0.4562
 7261SOL     OW33244   4.684   2.816   3.146  0.0085  0.4816  0.3432
 7261SOL    HW133245   4.618   2.884   3.132 -0.7763 -0.3644 -0.0760
 7261SOL    HW233246   4.709   2.801   3.055  1.5454  3.0351  0.3484
 7262SOL     OW33247   0.403   4.267   4.306 -0.5260  0.2923  0.4196
 7262SOL    HW133248   0.452   4.311   4.236 -1.8355  1.3692  0.1710
 7262SOL    HW233249   0.456   4.292   4.381  0.1398  0.6199 -0.1647
 7263SOL     OW33250   0.188   3.039   7.902  0.2148  0.0188  0.9026
 7263SOL    HW133251   0.110   3.094   7.912 -1.1281 -2.2846  3.1294
 7263SOL    HW233252   0.145   2.954   7.892 -1.8444  0.9751  1.6762
 7264SOL     OW33253   0.456   0.370   8.290 -0.3573  0.4980  0.9616
 7264SOL    HW133254   0.542   0.372   8.246 -0.4922  2.8792  0.8479
 7264SOL    HW233255   0.430   0.290   8.243 -3.9356  1.3059  1.6466
 7265SOL     OW33256   2.719   0.831   6.392  0.1161 -0.2152  0.4391
 7265SOL    HW133257   2.712   0.900   6.326  3.0585  1.3239  1.7687
 7265SOL    HW233258   2.667   0.867   6.463  1.0447  1.5338  0.2256
 7266SOL     OW33259   4.079   3.383   9.753 -0.3011  1.0968 -0.5023
 7266SOL    HW133260   4.162   3.426   9.734  0.2793  0.0559 -0.2551
 7266SOL    HW233261   4.035   3.445   9.812 -1.2012 -1.2647  1.3012
 7267SOL     OW33262   4.522   3.602  17.250  0.0387  0.2617  0.1484
 7267SOL    HW133263   4.518   3.693  17.280  0.9299 -0.0950  1.3448
 7267SOL    HW233264   4.476   3.563  17.324  0.5842 -1.9444 -0.6884
 7268SOL     OW33265   4.511   3.468   3.316 -0.0001  0.0389  0.0487
 7268SOL    HW133266   4.590   3.415   3.305 -1.7890 -2.5883 -0.1302
 7268SOL    HW233267   4.486   3.464   3.224 -0.6022 -0.4460  0.2421
 7269SOL     OW33268   2.215   2.831   7.637  0.2670 -0.1258 -0.4283
 7269SOL    HW133269   2.197   2.822   7.731  0.0058 -0.4690 -0.5096
 7269SOL    HW233270   2.167   2.911   7.618  1.1744  0.0860 -1.8030
 7270SOL     OW33271   4.488   1.729  14.333  0.8100  0.0875 -0.5748
 7270SOL    HW133272   4.513   1.668  14.403  0.8939  0.1109 -0.5839
 7270SOL    HW233273   4.395   1.745  14.343  0.5216 -0.7546 -1.8966
 7271SOL     OW33274   3.306   0.120   8.202 -0.2533  0.2979  0.1458
 7271SOL    HW133275   3.234   0.070   8.240 -0.4088  0.1515 -0.3411
 7271SOL    HW233276   3.321   0.177   8.277 -3.9758  0.3049  0.8844
 7272SOL     OW33277   4.293   1.689   6.736 -0.0286 -0.3720 -0.1518
 7272SOL    HW133278   4.268   1.681   6.828  0.1504  1.5185  0.0660
 7272SOL    HW233279   4.207   1.691   6.694 -0.1925 -1.0318  0.1533
 7273SOL     OW33280   3.120   0.079  11.068 -0.2092  0.2210  0.3183
 7273SOL    HW133281   3.078   0.154  11.110  0.0152 -0.5080  1.8577
 7273SOL    HW233282   3.208   0.080  11.105  0.2347 -0.3095 -0.7330
 7274SOL     OW33283   1.690   1.594  15.466 -0.0874  0.0209  0.0080
 7274SOL    HW133284   1.719   1.524  15.407 -0.8415  2.9616 -3.8831
 7274SOL    HW233285   1.606   1.607  15.422  0.2366  2.2309  0.0580
 7275SOL     OW33286   3.859   3.742  15.740  0.5699 -0.1681 -0.0291
 7275SOL    HW133287   3.800   3.772  15.671 -1.0576  1.9042  2.2734
 7275SOL    HW233288   3.935   3.798  15.721 -0.4460  0.8107 -1.1957
 7276SOL     OW33289   1.893   2.906   5.824 -0.0386 -0.7511 -0.0517
 7276SOL    HW133290   1.953   2.950   5.885  0.4206 -0.2442 -0.8783
 7276SOL    HW233291   1.861   2.830   5.873 -1.7304 -0.4277 -0.6443
 7277SOL     OW33292   1.086   2.842   1.485  0.0605  0.0127  0.0803
 7277SOL    HW133293   1.110   2.905   1.417  0.3428 -0.2443 -0.0570
 7277SOL    HW233294   1.002   2.815   1.449 -0.7075  0.4486  1.5610
 7278SOL     OW33295   3.838   0.398   3.353 -0.3654 -0.0677 -0.5515
 7278SOL    HW133296   3.898   0.427   3.285  1.0313 -0.0665  0.6727
 7278SOL    HW233297   3.828   0.477   3.406  0.7604 -0.6262  0.4932
 7279SOL     OW33298   2.918   4.049   7.893 -0.0018  0.5253  0.2799
 7279SOL    HW133299   2.916   4.050   7.798  1.2938 -0.7657  0.2451
 7279SOL    HW233300   2.827   4.032   7.918  0.0680 -1.0057 -0.5136
 7280SOL     OW33301   1.777   0.228   6.172 -0.0080  0.0048  0.9176
 7280SOL    HW133302   1.829   0.297   6.213  0.1985  0.0576  0.5622
 7280SOL    HW233303   1.799   0.158   6.233  0.1195 -1.0075 -0.2871
 7281SOL     OW33304   1.962   1.569   5.359 -0.0012 -0.1563 -0.3895
 7281SOL    HW133305   2.013   1.648   5.343  0.3807 -0.3362 -0.0258
 7281SOL    HW233306   2.016   1.514   5.416  0.4125 -0.5768 -1.1866
 7282SOL     OW33307   4.236   3.988   1.224  0.2683  0.6855  0.5050
 7282SOL    HW133308   4.175   4.058   1.247  1.5183  2.2039 -0.8630
 7282SOL    HW233309   4.285   4.028   1.153 -1.6089  0.7163 -0.7653
 7283SOL     OW33310   1.203   2.240   8.682 -0.4221 -0.1686 -0.0707
 7283SOL    HW133311   1.241   2.155   8.661 -2.3493 -1.4943  1.8082
 7283SOL    HW233312   1.278   2.282   8.725 -1.9281  0.6526  1.7355
 7284SOL     OW33313   3.517   0.983   7.234 -0.1405 -0.6571 -0.5261
 7284SOL    HW133314   3.469   1.059   7.201  0.7805  0.9027  1.7118
 7284SOL    HW233315   3.561   1.014   7.313 -0.5884 -1.6647  0.1249
 7285SOL     OW33316   2.897   2.998   6.334 -0.5078 -0.3514  0.1509
 7285SOL    HW133317   2.883   2.911   6.295 -1.3530  0.3609 -1.1133
 7285SOL    HW233318   2.947   3.052   6.272  0.9172 -1.9635 -0.1080
 7286SOL     OW33319   1.672   0.153   1.344 -0.3856  0.1373 -0.2961
 7286SOL    HW133320   1.757   0.129   1.379  0.0684 -2.0309 -2.8388
 7286SOL    HW233321   1.662   0.086   1.276  0.0896  0.8879 -1.1079
 7287SOL     OW33322   4.077   2.235  10.346  0.0360  0.2075 -0.1127
 7287SOL    HW133323   4.022   2.311  10.363  0.8630  0.7883 -0.0293
 7287SOL    HW233324   4.026   2.173  10.293 -1.4232  1.8414 -0.5899
 7288SOL     OW33325   3.479   0.222   3.300  0.2636  0.0763 -0.2997
 7288SOL    HW133326   3.430   0.254   3.376  1.4697  2.7263 -0.6143
 7288SOL    HW233327   3.541   0.153   3.323  1.7787  1.2498 -0.7697
 7289SOL     OW33328   2.942   4.581   5.464  0.3494 -0.1094  0.4485
 7289SOL    HW133329   2.888   4.638   5.408  3.8491  0.3515 -2.4590
 7289SOL    HW233330   2.988   4.532   5.396  2.1119  1.6010  0.3998
 7290SOL     OW33331   4.392   3.641   8.145  0.3576  0.1540  0.5190
 7290SOL    HW133332   4.412   3.657   8.237 -2.1868  1.8215  0.7840
 7290SOL    HW233333   4.431   3.556   8.124 -1.7789 -1.4645  3.1591
 7291SOL     OW33334   4.305   1.109   3.854 -0.2272  0.1939  0.2873
 7291SOL    HW133335   4.311   1.080   3.945 -2.2724 -1.5297 -0.1284
 7291SOL    HW233336   4.381   1.166   3.841 -0.5931  0.5940 -0.1215
 7292SOL     OW33337   1.787   4.562   0.332  0.5620 -0.2812  1.1401
 7292SOL    HW133338   1.869   4.525   0.364  1.0996  1.0305  1.3151
 7292SOL    HW233339   1.805   4.656   0.345 -0.5591  0.1560 -0.4714
 7293SOL     OW33340   0.130   0.251   0.651 -0.5137  0.7059  0.5990
 7293SOL    HW133341   0.092   0.194   0.718 -1.8267  1.5167  0.5568
 7293SOL    HW233342   0.194   0.194   0.610 -1.4261 -0.2692  0.5198
 7294SOL     OW33343   2.108   2.346   5.498 -0.3888  0.1942  0.0557
 7294SOL    HW133344   2.075   2.297   5.422  2.2325 -1.3253 -0.1010
 7294SOL    HW233345   2.145   2.417   5.445 -0.7404  1.1359  1.0875
 7295SOL     OW33346   0.000   0.184   6.479 -0.3211  0.6260  0.5928
 7295SOL    HW133347   4.714   0.195   6.384  1.6310  2.0874  0.5621
 7295SOL    HW233348   4.695   0.094   6.490  3.4571 -0.4204  2.2075
 7296SOL     OW33349   3.669   1.159   5.228  0.6201 -0.2675  0.0222
 7296SOL    HW133350   3.706   1.123   5.147  0.3104  1.0061 -0.6946
 7296SOL    HW233351   3.747   1.190   5.274 -0.5748  0.3850  1.5945
 7297SOL     OW33352   3.476   0.713   0.093  0.8593  0.0278  0.2586
 7297SOL    HW133353   3.552   0.656   0.106 -0.5301 -1.5669  1.4759
 7297SOL    HW233354   3.446   0.731   0.182 -0.0689  0.9204 -0.2364
 7298SOL     OW33355   4.617   0.282   8.900  0.1919 -0.0464  0.2328
 7298SOL    HW133356   4.684   0.304   8.964 -0.0737  1.1395  0.1027
 7298SOL    HW233357   4.553   0.351   8.918 -0.7349 -1.1497  1.2264
 7299SOL     OW33358   3.201   2.297   6.989 -0.1759 -0.0769  0.2092
 7299SOL    HW133359   3.202   2.231   6.920  1.4713  0.3196 -0.1550
 7299SOL    HW233360   3.111   2.297   7.022  0.0756  0.5089  0.8965
 7300SOL     OW33361   4.463   3.019   3.069 -0.5243 -0.2090  0.3184
 7300SOL    HW133362   4.387   2.969   3.097  0.9711 -2.0964  1.0501
 7300SOL    HW233363   4.494   3.066   3.146 -0.3104 -0.4688  0.3919
 7301SOL     OW33364   2.274   1.017   1.121  0.1046 -0.5758 -0.0191
 7301SOL    HW133365   2.342   1.022   1.188 -0.9785 -3.1662  1.2781
 7301SOL    HW233366   2.314   0.949   1.066  0.6669 -0.4380  0.2238
 7302SOL     OW33367   0.956   0.292   8.782 -0.2239  0.3103 -0.2702
 7302SOL    HW133368   0.911   0.224   8.832 -0.0557  0.6760  0.3680
 7302SOL    HW233369   0.892   0.363   8.777  1.1848  1.6751  1.1065
 7303SOL     OW33370   0.416   3.395   7.881 -0.0597  0.6264 -0.4324
 7303SOL    HW133371   0.444   3.305   7.896  0.2867  1.1492  2.0271
 7303SOL    HW233372   0.424   3.423   7.972  2.1465 -0.6229 -0.2417
 7304SOL     OW33373   0.105   2.246  10.824  0.4225  0.5668  0.3263
 7304SOL    HW133374   0.027   2.193  10.810 -0.6288  2.1313  0.2142
 7304SOL    HW233375   0.100   2.280  10.914 -1.0470 -2.4610  1.3904
 7305SOL     OW33376   1.565   2.543   3.239 -0.0833 -0.2625  0.1516
 7305SOL    HW133377   1.643   2.500   3.275  1.1161  1.8898  0.0941
 7305SOL    HW233378   1.602   2.614   3.188  1.7342 -0.9618  0.5029
 7306SOL     OW33379   0.169   0.122  13.696 -0.6687  0.0713 -0.4800
 7306SOL    HW133380   0.119   0.043  13.674  0.4358 -0.8277  0.1618
 7306SOL    HW233381   0.199   0.155  13.612  1.0409 -2.8053 -1.0326
 7307SOL     OW33382   3.840   4.267   7.082  0.1610  0.3755  0.4244
 7307SOL    HW133383   3.897   4.340   7.106 -0.1233  1.0227 -0.8548
 7307SOL    HW233384   3.851   4.261   6.987 -0.3937 -0.7173  0.4391
 7308SOL     OW33385   0.337   2.226   6.531  0.3782  0.7580  0.5414
 7308SOL    HW133386   0.429   2.220   6.558  0.7667  1.5867 -0.5768
 7308SOL    HW233387   0.312   2.135   6.519 -0.1712  0.9856 -0.0874
 7309SOL     OW33388   2.858   2.672   5.591  0.1007 -0.4182  0.7756
 7309SOL    HW133389   2.854   2.706   5.681  0.6493 -1.4685  1.2027
 7309SOL    HW233390   2.943   2.628   5.600  0.1207 -0.2020  1.6263
 7310SOL     OW33391   1.566   3.117   6.331 -0.3227 -0.1254 -0.2671
 7310SOL    HW133392   1.579   3.167   6.411 -0.5776  1.3432 -1.1330
 7310SOL    HW233393   1.504   3.177   6.288  0.5192  1.3580  0.6065
 7311SOL     OW33394   3.658   2.005   5.683 -0.3501 -0.7926  0.7688
 7311SOL    HW133395   3.729   1.940   5.691  0.2697 -0.4556 -2.0055
 7311SOL    HW233396   3.639   2.004   5.589 -1.8654  1.3579  1.0745
 7312SOL     OW33397   0.145   0.149   4.172 -0.4108 -0.3618 -0.0605
 7312SOL    HW133398   0.057   0.120   4.148 -1.6038  0.6869  3.0416
 7312SOL    HW233399   0.148   0.121   4.263  0.8694  2.1066  0.6647
 7313SOL     OW33400   0.538   4.552   5.132  0.2399 -0.9602 -0.1015
 7313SOL    HW133401   0.594   4.554   5.055  0.2638  2.1795 -0.0214
 7313SOL    HW233402   0.582   4.614   5.191 -1.2423  0.8426 -0.9007
 7314SOL     OW33403   2.975   2.551   5.975  0.2450  0.1128 -0.3407
 7314SOL    HW133404   2.997   2.500   5.897 -3.0284 -0.1906 -1.0822
 7314SOL    HW233405   3.039   2.509   6.032 -0.5012 -0.1184  0.3345
 7315SOL     OW33406   1.709   3.872   7.901 -0.7502 -0.2489  0.6938
 7315SOL    HW133407   1.686   3.853   7.992  1.4247 -1.4399  1.0213
 7315SOL    HW233408   1.795   3.829   7.890 -0.1131  0.7186  1.9351
 7316SOL     OW33409   1.518   2.384   4.253 -0.2735 -0.4276 -0.3532
 7316SOL    HW133410   1.469   2.438   4.190 -1.2817  0.4918  1.1962
 7316SOL    HW233411   1.488   2.298   4.225 -1.0765 -0.1123 -0.4706
 7317SOL     OW33412   1.638   4.006   4.765 -0.3499  0.0598 -0.2630
 7317SOL    HW133413   1.684   3.923   4.772 -0.6003  0.0897  1.6284
 7317SOL    HW233414   1.570   3.989   4.700 -0.3605 -0.3127 -0.1527
 7318SOL     OW33415   2.810   0.817   8.094 -0.3490  0.3024 -0.1628
 7318SOL    HW133416   2.847   0.754   8.155  0.6102  0.8094 -0.2197
 7318SOL    HW233417   2.732   0.774   8.059 -0.4689 -0.1630  0.6788
 7319SOL     OW33418   1.178   3.501   8.445  0.7699 -0.5399 -0.1741
 7319SOL    HW133419   1.083   3.488   8.452  1.2115 -2.6697  2.0189
 7319SOL    HW233420   1.205   3.587   8.477 -0.4682 -0.2284  0.0543
 7320SOL     OW33421   3.464   3.616   4.840 -0.1569 -0.4944  0.0581
 7320SOL    HW133422   3.513   3.568   4.773 -0.9663 -0.2634 -0.7051
 7320SOL    HW233423   3.522   3.678   4.884 -0.3064  0.1909 -0.7123
 7321SOL     OW33424   4.413   3.132   3.861  0.4466  0.3668 -0.0001
 7321SOL    HW133425   4.481   3.165   3.802  0.8491 -0.4184  0.0241
 7321SOL    HW233426   4.352   3.203   3.844  1.3060  0.7679 -1.3799
 7322SOL     OW33427   3.225   4.581   9.641 -0.1118 -0.4091  0.0495
 7322SOL    HW133428   3.201   4.668   9.609 -0.2660 -0.1945  0.7346
 7322SOL    HW233429   3.170   4.565   9.718  2.8953 -0.4626  2.1932
 7323SOL     OW33430   1.829   0.249  12.483  0.6973 -0.3780  0.4876
 7323SOL    HW133431   1.912   0.215  12.517 -0.6891 -0.3504  3.8576
 7323SOL    HW233432   1.769   0.186  12.523 -0.6435 -1.2444 -2.9308
 7324SOL     OW33433   2.487   2.657   9.899 -0.0747 -0.1915  0.3836
 7324SOL    HW133434   2.449   2.578   9.860 -0.3912 -0.8065  1.9358
 7324SOL    HW233435   2.575   2.620   9.904 -0.3685 -1.0350 -0.6999
 7325SOL     OW33436   3.120   0.111   4.370  0.9623 -0.0705  0.7698
 7325SOL    HW133437   3.161   0.145   4.450  0.0743 -0.2272  1.2886
 7325SOL    HW233438   3.186   0.146   4.311  2.4015 -1.2842  1.6420
 7326SOL     OW33439   0.092   0.328   6.712 -0.6846 -0.8400  0.5927
 7326SOL    HW133440   0.010   0.299   6.672 -0.7350 -1.2360  0.9828
 7326SOL    HW233441   0.066   0.344   6.803  0.4450  0.6211  0.6772
 7327SOL     OW33442   3.168   3.115  16.963 -0.2557  0.0159 -0.5754
 7327SOL    HW133443   3.250   3.166  16.962 -0.0825 -0.2370  2.3472
 7327SOL    HW233444   3.108   3.165  16.907 -1.0625  0.0013  0.2767
 7328SOL     OW33445   4.120   1.316   6.121 -0.1702  0.1830 -0.6997
 7328SOL    HW133446   4.155   1.389   6.173 -0.0356  0.0432 -0.5964
 7328SOL    HW233447   4.032   1.354   6.120 -1.0036 -1.8166 -2.2349
 7329SOL     OW33448   4.029   2.999   6.099 -0.5693 -0.0201 -0.1396
 7329SOL    HW133449   4.071   3.053   6.165 -0.3568 -1.5081  0.9533
 7329SOL    HW233450   3.955   2.973   6.153 -0.8159  1.6886  0.3181
 7330SOL     OW33451   4.252   3.250  15.662  0.0733  0.2407  0.0912
 7330SOL    HW133452   4.284   3.165  15.632  1.8234  0.7030  0.6434
 7330SOL    HW233453   4.310   3.284  15.731  0.8163 -1.8489  0.5078
 7331SOL     OW33454   0.285   0.346   7.945  0.0369  0.1183 -0.4607
 7331SOL    HW133455   0.351   0.357   7.876  1.9722 -0.6640  1.2651
 7331SOL    HW233456   0.230   0.419   7.916 -1.2924 -0.4882  0.5639
 7332SOL     OW33457   0.850   1.707   9.189 -0.2882  0.4502  0.1010
 7332SOL    HW133458   0.778   1.764   9.216 -0.3750  0.1268  0.5472
 7332SOL    HW233459   0.925   1.766   9.202 -1.4523  1.2010  3.2941
 7333SOL     OW33460   3.023   3.641   7.374 -0.1842  0.4520  0.5310
 7333SOL    HW133461   3.091   3.602   7.318 -1.4394  0.8464 -1.2623
 7333SOL    HW233462   2.969   3.563   7.388  2.3723 -0.9629  2.4722
 7334SOL     OW33463   0.418   2.850   5.444 -0.5110  0.2488 -0.1118
 7334SOL    HW133464   0.492   2.795   5.420  0.4787  1.3920  0.2833
 7334SOL    HW233465   0.349   2.784   5.449  0.7835 -1.0986 -0.2230
 7335SOL     OW33466   1.540   4.232  11.551 -0.5948  0.2773  0.2386
 7335SOL    HW133467   1.493   4.156  11.585 -0.4508  1.1207  2.2950
 7335SOL    HW233468   1.476   4.264  11.486 -1.2912 -0.7676  0.3977
 7336SOL     OW33469   2.740   3.379   4.013 -0.0784  0.3310 -0.1321
 7336SOL    HW133470   2.826   3.345   4.038  1.1532  2.4904 -1.3935
 7336SOL    HW233471   2.752   3.379   3.918  1.8228  1.2440  0.0996
 7337SOL     OW33472   1.664   1.939   2.882  0.2528  0.2370 -0.4197
 7337SOL    HW133473   1.639   1.915   2.793  0.0710  2.3624 -0.9364
 7337SOL    HW233474   1.647   2.032   2.872  0.7938  0.2499 -1.2873
 7338SOL     OW33475   1.951   1.960   5.984  0.5578 -0.5801 -0.5442
 7338SOL    HW133476   1.898   1.932   6.058  0.2900  0.9162 -0.1723
 7338SOL    HW233477   2.041   1.967   6.015 -0.1106  1.0258  1.0256
 7339SOL     OW33478   2.464   1.234   7.126  0.1638 -0.3765 -0.2459
 7339SOL    HW133479   2.406   1.157   7.128 -1.0090  0.4930 -0.5139
 7339SOL    HW233480   2.516   1.216   7.205 -0.3725  0.3191  0.2726
 7340SOL     OW33481   3.688   0.416   6.855 -0.1323 -0.0074 -0.3447
 7340SOL    HW133482   3.594   0.397   6.856 -0.2888  0.8682  1.8455
 7340SOL    HW233483   3.679   0.511   6.856  1.2556  0.1123  0.2723
 7341SOL     OW33484   1.168   4.196   7.493  0.1865 -0.0266 -0.0585
 7341SOL    HW133485   1.178   4.119   7.549 -0.8756  0.1921  0.4288
 7341SOL    HW233486   1.258   4.230   7.500 -0.1087 -0.0327  4.0619
 7342SOL     OW33487   3.990   4.421   7.237  0.3980 -0.1986  0.2711
 7342SOL    HW133488   3.977   4.384   7.324  2.0345 -0.7208  0.2875
 7342SOL    HW233489   4.023   4.508   7.259 -0.2792  0.0142  0.4533
 7343SOL     OW33490   0.236   3.050   8.232 -0.7132  0.0681  0.3061
 7343SOL    HW133491   0.257   2.978   8.173 -3.4075  0.8298 -1.6019
 7343SOL    HW233492   0.164   3.002   8.274  1.9952 -3.7499  0.5074
 7344SOL     OW33493   0.765   1.413   6.320  0.0366 -0.1873  0.1238
 7344SOL    HW133494   0.739   1.486   6.263  0.4054  1.1436  1.6535
 7344SOL    HW233495   0.740   1.340   6.263  4.1812 -1.1644 -0.4418
 7345SOL     OW33496   3.590   2.331   6.355  0.5130  0.3093 -0.3544
 7345SOL    HW133497   3.539   2.411   6.358 -0.4974 -0.4232  2.3288
 7345SOL    HW233498   3.614   2.319   6.447 -2.6712 -2.5122  0.0932
 7346SOL     OW33499   2.546   2.146   5.239  0.2545 -0.5676  0.3422
 7346SOL    HW133500   2.626   2.191   5.268  0.1988  0.3933 -1.0332
 7346SOL    HW233501   2.539   2.188   5.154 -0.1209  2.7836  2.0356
 7347SOL     OW33502   4.226   0.134   9.934  0.1720  0.1701 -0.1271
 7347SOL    HW133503   4.254   0.175   9.852 -1.2544 -1.4903 -1.4620
 7347SOL    HW233504   4.190   0.204   9.989  0.7829  0.2960  0.1082
 7348SOL     OW33505   1.043   0.657  16.688  0.2947 -0.1649 -0.3333
 7348SOL    HW133506   1.041   0.743  16.732 -2.2393  0.4001 -1.5135
 7348SOL    HW233507   1.033   0.683  16.596  0.5251 -1.0120 -0.6001
 7349SOL     OW33508   2.846   1.478   3.803 -0.1703 -0.3006  0.3548
 7349SOL    HW133509   2.923   1.477   3.746 -1.1789  0.9292 -1.0647
 7349SOL    HW233510   2.825   1.385   3.800  1.6253 -0.6623 -0.4543
 7350SOL     OW33511   1.631   1.505   4.807 -0.0916  0.0892 -0.5306
 7350SOL    HW133512   1.694   1.519   4.877  0.3462 -1.9695 -0.5317
 7350SOL    HW233513   1.632   1.594   4.771 -1.0555 -0.2024 -1.2921
 7351SOL     OW33514   1.842   0.959  17.008  0.3328  0.0453 -0.0249
 7351SOL    HW133515   1.779   0.924  17.072  0.5084  0.1571  0.2078
 7351SOL    HW233516   1.887   0.887  16.964  0.1307  0.3193 -0.6879
 7352SOL     OW33517   0.622   2.970  17.108 -0.2081  0.0105  0.5809
 7352SOL    HW133518   0.700   2.993  17.058 -0.2749  0.8444  0.8592
 7352SOL    HW233519   0.590   3.059  17.119 -0.2827 -0.2680  2.5179
 7353SOL     OW33520   1.183   4.600   8.523 -0.0216 -0.0522  0.0137
 7353SOL    HW133521   1.167   4.620   8.615  0.7651 -0.1169  0.1589
 7353SOL    HW233522   1.094   4.589   8.489 -0.2602  2.3027 -0.1411
 7354SOL     OW33523   3.970   3.316   0.115 -0.2674 -0.0225  0.2117
 7354SOL    HW133524   4.004   3.363   0.191 -1.3081 -1.2740  1.4461
 7354SOL    HW233525   3.877   3.298   0.132  0.1070 -1.9697  0.1152
 7355SOL     OW33526   3.434   0.494   4.328  0.2375 -0.2082 -0.0956
 7355SOL    HW133527   3.399   0.487   4.416 -1.6303  1.8306 -0.7030
 7355SOL    HW233528   3.373   0.432   4.288  0.3080 -0.3437  0.0073
 7356SOL     OW33529   1.217   2.315   9.707 -0.1440 -0.4440  0.2268
 7356SOL    HW133530   1.169   2.359   9.637  1.1831  1.1360  0.3055
 7356SOL    HW233531   1.192   2.223   9.694 -0.9599  0.0079 -1.4314
 7357SOL     OW33532   2.239   3.191   6.634 -0.1889 -0.3102  0.2928
 7357SOL    HW133533   2.219   3.282   6.609 -1.9082 -1.0031 -0.8155
 7357SOL    HW233534   2.222   3.178   6.727  0.2141 -0.2024  0.3829
 7358SOL     OW33535   4.306   3.243   2.828 -0.4782  0.0618  0.3768
 7358SOL    HW133536   4.300   3.157   2.787  2.2991 -0.0327  0.1491
 7358SOL    HW233537   4.315   3.212   2.918  0.4443  0.1368  0.3121
 7359SOL     OW33538   0.244   0.456   2.635  0.6903 -0.2358 -1.0265
 7359SOL    HW133539   0.171   0.505   2.599 -0.1615  0.4897  1.7020
 7359SOL    HW233540   0.213   0.408   2.712 -0.2919  1.8228 -0.1520
 7360SOL     OW33541   4.473   4.005   2.914  0.2218  0.4644 -0.7134
 7360SOL    HW133542   4.436   4.091   2.896  0.7540  0.2718 -2.7561
 7360SOL    HW233543   4.460   3.963   2.828  3.4712 -1.5347 -0.2169
 7361SOL     OW33544   3.990   0.955   1.857 -0.1491 -0.1005  0.1356
 7361SOL    HW133545   4.016   0.867   1.883  0.0254 -0.4679 -1.3241
 7361SOL    HW233546   4.002   0.998   1.942 -0.0548  2.0321 -0.9631
 7362SOL     OW33547   4.423   1.638   2.846 -0.2225 -0.1468 -0.2453
 7362SOL    HW133548   4.392   1.604   2.762  0.6258 -0.0993 -0.5772
 7362SOL    HW233549   4.343   1.654   2.895 -0.9008  0.5437 -1.5845
 7363SOL     OW33550   2.046   1.803   5.099 -0.3315  0.0673  0.4152
 7363SOL    HW133551   2.127   1.817   5.050 -0.3559  0.5332  0.5017
 7363SOL    HW233552   2.005   1.890   5.096  0.6683  0.4459 -2.9535
 7364SOL     OW33553   0.470   2.042  13.135  0.1699  0.1801 -0.1393
 7364SOL    HW133554   0.438   2.105  13.201 -1.9836 -0.8148 -0.2287
 7364SOL    HW233555   0.476   2.097  13.057  1.2748 -0.9407 -0.8355
 7365SOL     OW33556   3.951   2.581   8.056  0.0902 -0.1327  0.3320
 7365SOL    HW133557   4.000   2.507   8.092  1.9022  1.5176  1.2344
 7365SOL    HW233558   3.860   2.560   8.075 -0.3670  0.2791 -1.4313
 7366SOL     OW33559   1.298   0.669   7.875 -0.0339 -0.2345 -0.0719
 7366SOL    HW133560   1.203   0.657   7.872 -0.0613 -0.1141  0.4501
 7366SOL    HW233561   1.319   0.728   7.947 -1.1234 -1.8057  1.5152
 7367SOL     OW33562   0.588   2.906   6.004  0.2752 -0.2583 -0.2730
 7367SOL    HW133563   0.625   2.968   5.942  0.0070 -0.9151 -1.0911
 7367SOL    HW233564   0.527   2.867   5.941 -0.1020  0.2722 -0.2353
 7368SOL     OW33565   1.330   4.556   0.541 -0.2309  0.0920  0.6779
 7368SOL    HW133566   1.404   4.531   0.487  0.0893  0.4986  0.9268
 7368SOL    HW233567   1.276   4.482   0.570 -0.0290 -0.1350  0.4704
 7369SOL     OW33568   1.127   2.366   6.013  0.1812 -0.1284  0.3881
 7369SOL    HW133569   1.178   2.293   5.977  0.7319 -0.6739  2.2581
 7369SOL    HW233570   1.122   2.345   6.106  1.5919  2.7769  1.1168
 7370SOL     OW33571   0.321   2.452   4.613  0.1447 -0.5482 -0.0236
 7370SOL    HW133572   0.410   2.487   4.603  0.2314 -0.2494  1.7370
 7370SOL    HW233573   0.297   2.488   4.527 -1.4251 -1.0007  0.2309
 7371SOL     OW33574   1.063   4.505   5.244 -0.3925  0.0160 -0.2843
 7371SOL    HW133575   1.076   4.594   5.277 -1.3580  0.5136 -1.2685
 7371SOL    HW233576   0.976   4.474   5.267 -0.2465  0.4062  0.8436
 7372SOL     OW33577   3.906   0.064  17.395 -0.4668 -0.3278 -0.2128
 7372SOL    HW133578   3.840   0.055  17.463 -0.9292  3.6818 -0.1717
 7372SOL    HW233579   3.873   0.135  17.341 -2.3298  0.7428  2.3606
 7373SOL     OW33580   0.555   3.536   2.293  0.0719  0.3099 -0.2418
 7373SOL    HW133581   0.508   3.518   2.212 -0.1591  0.8426 -0.2269
 7373SOL    HW233582   0.605   3.616   2.275  0.1202 -0.3712 -3.1825
 7374SOL     OW33583   3.042   1.962   2.197 -0.1049 -0.1900  0.2666
 7374SOL    HW133584   3.128   1.919   2.190  0.5959  1.4130 -1.1165
 7374SOL    HW233585   3.061   2.045   2.153 -0.8850  0.0987  0.4861
 7375SOL     OW33586   3.042   2.246  11.815 -0.2854  0.2435 -0.6093
 7375SOL    HW133587   3.074   2.237  11.726 -0.9471 -1.0360 -0.7136
 7375SOL    HW233588   2.947   2.247  11.798 -0.3780  1.7996  0.0048
 7376SOL     OW33589   2.120   1.178  11.543  0.4513  0.0014  0.0031
 7376SOL    HW133590   2.103   1.146  11.454  0.6861 -0.7353  0.2207
 7376SOL    HW233591   2.079   1.265  11.544 -0.9771 -0.6618 -0.4148
 7377SOL     OW33592   3.138   0.575  14.277 -0.0814  0.3729  0.3115
 7377SOL    HW133593   3.166   0.485  14.292  0.6531  0.3799 -1.0620
 7377SOL    HW233594   3.139   0.622  14.361  0.4301  0.7369  0.1038
 7378SOL     OW33595   3.874   3.829   9.916 -0.4528 -0.0961 -0.2329
 7378SOL    HW133596   3.855   3.915   9.878 -1.7078 -0.7065 -0.9760
 7378SOL    HW233597   3.910   3.855  10.001  0.1695 -0.6689 -0.3198
 7379SOL     OW33598   1.950   0.044  15.292 -0.3505  0.7552  0.0692
 7379SOL    HW133599   1.969   0.121  15.239 -0.7768  0.9731  0.2361
 7379SOL    HW233600   1.867   0.008  15.259 -0.1374 -1.0436  1.4745
 7380SOL     OW33601   4.575   2.586   5.442  0.0374  0.4785 -0.4159
 7380SOL    HW133602   4.579   2.521   5.371  0.9954 -1.0375  1.0223
 7380SOL    HW233603   4.489   2.623   5.424  0.4251  2.1445  1.1678
 7381SOL     OW33604   2.909   0.953  11.540 -0.3152 -0.0440  0.3681
 7381SOL    HW133605   2.996   0.982  11.569 -0.2495 -1.0489  1.1732
 7381SOL    HW233606   2.868   0.964  11.625  1.2752  2.1694  0.8539
 7382SOL     OW33607   2.661   3.378   3.302 -0.1610  0.6948 -0.1980
 7382SOL    HW133608   2.740   3.384   3.355 -0.5444  0.7052  0.3689
 7382SOL    HW233609   2.615   3.320   3.363  0.8139  1.9989  1.7747
 7383SOL     OW33610   0.675   1.469   9.176 -0.5890  0.1593  0.1366
 7383SOL    HW133611   0.602   1.530   9.187 -0.4051  0.2125  1.0378
 7383SOL    HW233612   0.747   1.529   9.193  0.4447 -0.4789 -2.0110
 7384SOL     OW33613   4.536   0.738  11.173 -0.0487  0.0101  0.6290
 7384SOL    HW133614   4.532   0.756  11.079 -0.6835 -0.4708  0.5614
 7384SOL    HW233615   4.583   0.655  11.172  0.6351  0.3853  1.3288
 7385SOL     OW33616   2.575   3.644   0.469  0.2384 -0.0367 -0.0280
 7385SOL    HW133617   2.590   3.738   0.484  0.8693  0.3202 -2.9770
 7385SOL    HW233618   2.555   3.632   0.376  0.6076 -0.4532 -0.0495
 7386SOL     OW33619   1.283   3.158  10.795 -0.2044  0.2066  0.2129
 7386SOL    HW133620   1.341   3.125  10.726 -0.5116  1.4742 -0.6571
 7386SOL    HW233621   1.317   3.247  10.792  1.1185 -0.3026  0.1139
 7387SOL     OW33622   0.393   1.660   6.489 -0.3396 -0.3213  0.1492
 7387SOL    HW133623   0.302   1.634   6.503  0.0827 -1.6774  0.3936
 7387SOL    HW233624   0.397   1.641   6.395 -2.2740  0.8970 -0.1831
 7388SOL     OW33625   1.926   2.522   2.455 -0.7472 -0.3983  0.5776
 7388SOL    HW133626   1.964   2.448   2.408  1.9091  1.2245  0.1437
 7388SOL    HW233627   1.997   2.533   2.518 -0.6948  0.1091  0.4304
 7389SOL     OW33628   3.375   0.157   8.692  0.5269 -1.1412 -0.4332
 7389SOL    HW133629   3.315   0.082   8.687 -1.9220  0.7941 -0.1982
 7389SOL    HW233630   3.361   0.184   8.783 -0.1311 -0.5914 -0.6981
 7390SOL     OW33631   0.430   2.898   0.264  0.1091 -0.5202 -0.4777
 7390SOL    HW133632   0.349   2.850   0.245 -0.1104 -0.4067  0.1711
 7390SOL    HW233633   0.386   2.978   0.291 -0.4857 -1.0363  0.0960
 7391SOL     OW33634   2.458   3.224   6.184 -0.3301  0.4673 -0.0321
 7391SOL    HW133635   2.516   3.273   6.242 -0.6847 -0.4051  1.0731
 7391SOL    HW233636   2.375   3.258   6.215 -0.5723  0.1900 -0.3743
 7392SOL     OW33637   2.662   1.631   0.901 -0.0757  0.0737  0.5074
 7392SOL    HW133638   2.614   1.560   0.858 -1.2267  1.0235  0.2297
 7392SOL    HW233639   2.730   1.649   0.836  0.6568 -0.6838  1.0636
 7393SOL     OW33640   4.059   2.004   3.766 -0.4050  0.1238 -0.1129
 7393SOL    HW133641   4.118   2.080   3.769 -0.8675  0.4700  0.4100
 7393SOL    HW233642   4.127   1.939   3.780 -0.2486  0.2248 -0.4095
 7394SOL     OW33643   0.806   2.318  13.113  0.5464  0.4952  0.1827
 7394SOL    HW133644   0.836   2.247  13.057  1.9150  0.3970  1.0675
 7394SOL    HW233645   0.789   2.382  13.043  1.5577 -0.9496 -1.3779
 7395SOL     OW33646   4.500   3.986   0.474 -0.0288 -0.2598 -0.1104
 7395SOL    HW133647   4.436   3.991   0.404  1.6911  1.7097 -1.5087
 7395SOL    HW233648   4.461   3.916   0.528 -0.9161  1.3468  1.3496
 7396SOL     OW33649   3.938   0.925   8.005 -0.2699 -0.5663 -1.0289
 7396SOL    HW133650   3.861   0.976   8.029 -0.9089 -0.7544 -2.6962
 7396SOL    HW233651   3.996   0.996   7.977 -1.6397  0.7775 -0.4577
 7397SOL     OW33652   1.529   0.522   8.107  0.0769  0.1346 -0.3157
 7397SOL    HW133653   1.441   0.491   8.084  0.1882 -0.0775 -0.4580
 7397SOL    HW233654   1.515   0.586   8.176 -1.2790 -2.1776  1.5625
 7398SOL     OW33655   0.120   2.984  11.102 -0.0394 -0.0072 -0.4569
 7398SOL    HW133656   0.033   3.015  11.075  0.5791  1.5251 -0.6513
 7398SOL    HW233657   0.171   3.065  11.104 -1.6661  1.0090  0.0999
 7399SOL     OW33658   0.563   4.574   2.379  0.1450  0.8246  0.0207
 7399SOL    HW133659   0.618   4.647   2.348 -0.8110  1.0680 -1.1131
 7399SOL    HW233660   0.602   4.507   2.323  0.8458  0.3110  1.1173
 7400SOL     OW33661   1.592   0.708   2.179  0.2803  0.2559 -0.3086
 7400SOL    HW133662   1.669   0.673   2.224 -1.5917  0.7701  3.2481
 7400SOL    HW233663   1.560   0.745   2.261  0.5976 -1.6092  0.6741
 7401SOL     OW33664   2.900   3.429   7.175 -0.2922  0.2771 -0.0590
 7401SOL    HW133665   2.866   3.368   7.240 -0.1163 -1.2324 -1.4001
 7401SOL    HW233666   2.826   3.490   7.181 -0.0601  0.3866  1.6394
 7402SOL     OW33667   0.039   0.273   8.451 -0.0092 -0.3291 -0.1631
 7402SOL    HW133668   4.685   0.218   8.466  0.1962 -0.3979  0.6767
 7402SOL    HW233669   0.002   0.321   8.377  0.1321  2.0010  1.2887
 7403SOL     OW33670   3.441   3.156   0.314 -0.1292  0.1454 -0.4586
 7403SOL    HW133671   3.447   3.061   0.323 -0.8076  0.1405 -0.0747
 7403SOL    HW233672   3.514   3.184   0.369  0.2714  0.8394 -1.3426
 7404SOL     OW33673   3.595   4.242   3.448 -0.1810  0.0247  0.1241
 7404SOL    HW133674   3.523   4.278   3.396  1.1451 -0.0200 -1.7525
 7404SOL    HW233675   3.552   4.169   3.491 -0.5535  0.6231  0.7699
 7405SOL     OW33676   4.360   4.214   5.002  0.5204  0.1866 -0.4847
 7405SOL    HW133677   4.431   4.155   5.025 -0.4505 -1.5498 -1.8878
 7405SOL    HW233678   4.315   4.217   5.086  1.6795  0.6719  0.1164
 7406SOL     OW33679   2.260   4.409   0.785  0.4109  0.0493 -0.0069
 7406SOL    HW133680   2.188   4.347   0.774 -1.0282  1.3328  2.0872
 7406SOL    HW233681   2.215   4.493   0.799 -1.6704 -1.4144  1.9902
 7407SOL     OW33682   1.884   0.394   4.455 -0.1290 -0.5349  0.2276
 7407SOL    HW133683   1.876   0.303   4.427  0.8050  0.0527 -1.9290
 7407SOL    HW233684   1.974   0.390   4.488 -0.6914  0.4870  1.8938
 7408SOL     OW33685   3.200   0.254   6.816 -0.0238  0.3980 -0.3120
 7408SOL    HW133686   3.153   0.178   6.849  1.0427  0.1766  0.7065
 7408SOL    HW233687   3.150   0.333   6.836  0.5648  0.3234  1.4278
 7409SOL     OW33688   0.399   2.882  14.622  0.6959  0.3044 -0.3757
 7409SOL    HW133689   0.390   2.960  14.567 -2.4177  1.2852  1.4957
 7409SOL    HW233690   0.486   2.905  14.653 -1.0959  3.2939  2.4396
 7410SOL     OW33691   3.224   1.974   5.907 -0.3026  0.4624  0.4885
 7410SOL    HW133692   3.320   1.978   5.914 -0.4008 -0.8256  2.5657
 7410SOL    HW233693   3.210   1.937   5.820 -1.8617 -0.9575  1.3337
 7411SOL     OW33694   4.241   1.844  10.899 -0.6659 -0.5166  0.6402
 7411SOL    HW133695   4.221   1.752  10.881  0.3468 -1.0724  2.2860
 7411SOL    HW233696   4.232   1.881  10.812 -0.2504 -0.5041  0.5992
 7412SOL     OW33697   3.723   3.237   8.128  0.2269 -0.2590  0.2941
 7412SOL    HW133698   3.644   3.212   8.082  0.0693  2.0270 -0.6955
 7412SOL    HW233699   3.782   3.266   8.057 -1.7960  1.3958 -0.7062
 7413SOL     OW33700   0.074   3.028   3.879  0.0295  0.1535 -0.3634
 7413SOL    HW133701   0.141   3.038   3.947  0.1915  1.0691 -0.6523
 7413SOL    HW233702   0.032   3.114   3.886  1.9735  1.1994 -1.3916
 7414SOL     OW33703   1.932   4.017   4.993 -0.3397  0.8256  0.4289
 7414SOL    HW133704   1.855   4.006   5.049 -2.0309  0.9200 -1.8387
 7414SOL    HW233705   1.974   4.098   5.019 -0.8099  0.6568  1.6944
 7415SOL     OW33706   1.611   1.369  12.814 -0.6046  0.4626 -0.8943
 7415SOL    HW133707   1.660   1.287  12.810  0.3882  0.9030  2.2700
 7415SOL    HW233708   1.530   1.351  12.861  1.4801  0.5121  2.7059
 7416SOL     OW33709   2.777   0.836   7.736 -0.1140 -0.1966  0.4150
 7416SOL    HW133710   2.765   0.798   7.823  1.5124  1.5972  1.4152
 7416SOL    HW233711   2.763   0.930   7.742 -2.4735 -0.3003 -3.1132
 7417SOL     OW33712   0.500   0.536   2.018 -0.4778  0.4020  0.1400
 7417SOL    HW133713   0.594   0.539   2.033 -0.4020  0.5596 -0.3523
 7417SOL    HW233714   0.511   0.568   1.928 -0.1664  1.2353  0.4747
 7418SOL     OW33715   0.941   1.693   6.827 -0.1939  0.0661  0.1449
 7418SOL    HW133716   0.976   1.712   6.914  2.0201 -1.6004 -0.3942
 7418SOL    HW233717   0.853   1.726   6.845 -0.7581 -1.8869  0.9786
 7419SOL     OW33718   3.508   2.402  13.061  0.0644 -0.2669 -0.2140
 7419SOL    HW133719   3.487   2.454  13.138  0.9003 -2.9001  1.7821
 7419SOL    HW233720   3.419   2.395  13.027 -1.6058 -2.1119  4.6049
 7420SOL     OW33721   0.031   3.502   6.243 -0.1633  0.2316  0.1975
 7420SOL    HW133722   4.659   3.490   6.247 -0.1923 -0.5878 -3.6107
 7420SOL    HW233723   0.062   3.424   6.196 -1.6188 -0.2289 -0.0269
 7421SOL     OW33724   1.112   3.276   1.950 -0.6668 -0.2297  0.3888
 7421SOL    HW133725   1.045   3.208   1.951 -0.3355 -0.5414  1.5869
 7421SOL    HW233726   1.070   3.352   1.991  0.5755  0.0856  1.0776
 7422SOL     OW33727   2.589   4.449   1.806 -0.1148  0.7889 -0.1989
 7422SOL    HW133728   2.522   4.404   1.755  1.9593 -0.4811 -1.8209
 7422SOL    HW233729   2.633   4.376   1.851 -2.7499 -1.2561 -0.9304
 7423SOL     OW33730   4.336   0.967   5.168  0.6526 -0.0905  0.1809
 7423SOL    HW133731   4.273   0.895   5.180  0.9612 -0.4106 -0.1097
 7423SOL    HW233732   4.396   0.917   5.112  0.3270  1.6369 -1.7028
 7424SOL     OW33733   4.609   4.073   3.151  0.9960  0.3350 -0.1309
 7424SOL    HW133734   4.554   4.027   3.088  0.3389 -1.0516  1.4530
 7424SOL    HW233735   4.699   4.068   3.120  1.7523  1.0062  1.9526
 7425SOL     OW33736   1.964   4.506   7.250  0.2389  0.7417  0.0368
 7425SOL    HW133737   1.882   4.485   7.295  0.9039  0.9116  1.3098
 7425SOL    HW233738   2.029   4.516   7.320 -0.6438 -0.0548  0.9705
 7426SOL     OW33739   2.951   3.440   7.655  0.5317  0.0216 -0.4769
 7426SOL    HW133740   3.021   3.409   7.597 -0.5316  2.2230 -2.8974
 7426SOL    HW233741   2.988   3.424   7.742 -0.1456 -0.0329 -0.2021
 7427SOL     OW33742   2.327   4.321   1.521  0.3784  0.2195 -0.0195
 7427SOL    HW133743   2.237   4.321   1.554  0.2557 -1.5418 -0.3632
 7427SOL    HW233744   2.366   4.287   1.601  0.7083  0.2613 -0.1650
 7428SOL     OW33745   2.140   0.837  14.508 -0.0329  0.7400  0.2628
 7428SOL    HW133746   2.054   0.873  14.485  0.5324  1.8227 -0.1731
 7428SOL    HW233747   2.194   0.912  14.531 -0.4574  0.6013  1.7522
 7429SOL     OW33748   2.706   2.745  12.593  0.4686  0.6524 -0.2994
 7429SOL    HW133749   2.741   2.666  12.552  0.4600  0.8064 -0.6059
 7429SOL    HW233750   2.785   2.799  12.589  2.6503 -2.0941  5.7992
 7430SOL     OW33751   0.615   3.769   9.162 -0.3902 -0.1024  0.3556
 7430SOL    HW133752   0.701   3.765   9.121 -0.8924 -1.9240 -0.5226
 7430SOL    HW233753   0.606   3.683   9.203  0.6959 -0.4308 -0.1044
 7431SOL     OW33754   1.510   0.612   9.564 -0.1480 -0.2211  0.0087
 7431SOL    HW133755   1.580   0.597   9.500  0.6956  0.9210  0.6744
 7431SOL    HW233756   1.440   0.594   9.501  0.1693 -2.8833  0.3854
 7432SOL     OW33757   4.489   2.405   5.651 -0.3670  0.0714  0.0691
 7432SOL    HW133758   4.573   2.364   5.628  0.2898  0.5186  1.7043
 7432SOL    HW233759   4.508   2.487   5.605  2.5946 -0.6578 -0.0029
 7433SOL     OW33760   3.913   0.947   8.799 -0.4811 -0.0749 -0.3392
 7433SOL    HW133761   3.954   0.879   8.747 -0.8893  0.7420 -1.7179
 7433SOL    HW233762   3.930   0.906   8.884 -1.2986  2.5797  1.1266
 7434SOL     OW33763   2.765   2.197   6.026  0.2554  0.4371  0.2655
 7434SOL    HW133764   2.714   2.223   5.949 -0.9586  0.6633  1.1484
 7434SOL    HW233765   2.808   2.116   5.999  0.3923  1.2222 -1.8691
 7435SOL     OW33766   3.752   1.222  12.170 -0.7112  1.3685  0.2650
 7435SOL    HW133767   3.780   1.205  12.080 -0.8308 -0.9306  0.6711
 7435SOL    HW233768   3.666   1.182  12.162  0.0775 -0.4441  0.9273
 7436SOL     OW33769   2.253   1.616   6.842 -0.4436 -0.0257 -0.0668
 7436SOL    HW133770   2.258   1.712   6.848  1.9600 -0.1096 -0.5237
 7436SOL    HW233771   2.342   1.582   6.828 -0.3888 -0.4262  1.1832
 7437SOL     OW33772   2.178   4.096   7.632  0.1313 -0.0165  0.1509
 7437SOL    HW133773   2.130   4.082   7.714 -1.9131 -0.2882 -1.1201
 7437SOL    HW233774   2.257   4.049   7.659  2.0260  2.1746 -1.5274
 7438SOL     OW33775   3.396   2.454  15.083 -0.5211  0.0959 -0.7649
 7438SOL    HW133776   3.355   2.499  15.009 -0.5134  3.5927  1.3318
 7438SOL    HW233777   3.485   2.489  15.080 -0.0247 -1.2695 -2.0255
 7439SOL     OW33778   1.515   4.072   0.190 -0.8277  0.4277 -0.5467
 7439SOL    HW133779   1.471   4.157   0.191 -0.2111  0.7280  0.2752
 7439SOL    HW233780   1.543   4.074   0.099  0.3473  0.3129 -0.1840
 7440SOL     OW33781   1.312   2.871   4.660 -0.6621 -0.0350  0.4466
 7440SOL    HW133782   1.288   2.901   4.748 -1.3164  0.7094  0.0210
 7440SOL    HW233783   1.406   2.885   4.653 -0.7207  1.0829  1.9219
 7441SOL     OW33784   3.353   2.329   1.294  0.0836  0.4487 -0.2758
 7441SOL    HW133785   3.290   2.390   1.255  1.4513  1.0600 -1.5649
 7441SOL    HW233786   3.291   2.262   1.321  1.8493 -1.1272 -0.1566
 7442SOL     OW33787   3.518   2.183   4.765 -0.1825  0.2494 -0.1530
 7442SOL    HW133788   3.549   2.272   4.778  0.7899  0.0790 -1.3008
 7442SOL    HW233789   3.599   2.154   4.722 -0.7477 -1.7495  0.0944
 7443SOL     OW33790   1.553   1.867   9.748 -0.0004 -0.6691 -0.2724
 7443SOL    HW133791   1.543   1.962   9.753  3.8246 -0.1854 -1.4908
 7443SOL    HW233792   1.648   1.857   9.739 -0.2234 -1.4068 -1.7741
 7444SOL     OW33793   4.542   4.233   2.041  0.3230  0.4349  0.1788
 7444SOL    HW133794   4.608   4.279   1.989  1.5489  0.5462  1.8527
 7444SOL    HW233795   4.466   4.261   1.990 -1.0611 -1.1239  1.3746
 7445SOL     OW33796   3.547   1.495  10.721 -0.1643  0.2605 -0.6417
 7445SOL    HW133797   3.514   1.408  10.743 -0.0504  0.3651 -0.0704
 7445SOL    HW233798   3.501   1.509  10.638  0.7366  2.0782 -0.8460
 7446SOL     OW33799   1.531   4.456  15.814 -0.4798 -0.1659 -0.3539
 7446SOL    HW133800   1.610   4.404  15.797 -0.5009 -0.6583  1.0442
 7446SOL    HW233801   1.560   4.498  15.895  1.3689 -0.1213 -1.0337
 7447SOL     OW33802   3.955   4.665   1.585  0.0473  0.0061 -0.2083
 7447SOL    HW133803   3.944   4.595   1.650  0.9621  0.5675  0.5615
 7447SOL    HW233804   3.867   4.696   1.607 -0.5223 -1.0696 -0.9831
 7448SOL     OW33805   2.633   1.022   4.746 -0.2339 -0.0099  0.5538
 7448SOL    HW133806   2.618   0.983   4.660 -3.7518 -1.3591  1.7513
 7448SOL    HW233807   2.662   0.943   4.793  1.2037 -1.1451 -2.2653
 7449SOL     OW33808   1.601   3.081   7.773  0.1961  0.1280 -0.5655
 7449SOL    HW133809   1.576   3.030   7.696  2.1107 -0.7230 -0.6243
 7449SOL    HW233810   1.682   3.130   7.758 -0.3330  0.9460 -0.7879
 7450SOL     OW33811   1.788   2.265   1.489  0.0605  0.2459  0.1565
 7450SOL    HW133812   1.729   2.275   1.563  0.6124 -3.5964  1.1490
 7450SOL    HW233813   1.861   2.321   1.517 -0.3404  1.0612 -0.4381
 7451SOL     OW33814   0.784   0.694  14.232  0.3248 -0.1110 -0.1126
 7451SOL    HW133815   0.736   0.770  14.266  0.3894 -1.1694  2.3528
 7451SOL    HW233816   0.713   0.658  14.180  0.4844 -0.5155 -0.0539
 7452SOL     OW33817   1.157   0.155  17.408  0.5176 -0.2964 -0.1529
 7452SOL    HW133818   1.189   0.067  17.424  0.7718 -0.1639  0.0757
 7452SOL    HW233819   1.092   0.159  17.478 -0.8801 -0.1539 -1.4662
 7453SOL     OW33820   0.293   4.435   9.646  0.0012  0.0095 -0.1537
 7453SOL    HW133821   0.289   4.486   9.565  4.7194  1.2153  0.3323
 7453SOL    HW233822   0.203   4.405   9.642  0.2107 -0.3540 -1.7826
 7454SOL     OW33823   0.977   0.903   8.146  0.1631 -0.0292  0.3119
 7454SOL    HW133824   1.008   0.954   8.071 -1.4535  0.2387 -0.1716
 7454SOL    HW233825   1.047   0.924   8.209 -0.9541  0.2833  1.4596
 7455SOL     OW33826   0.744   0.781   5.772  0.1442  0.1558  0.2765
 7455SOL    HW133827   0.812   0.729   5.816  0.2890 -0.3450 -0.5208
 7455SOL    HW233828   0.787   0.865   5.759 -2.8354  1.6868  0.4100
 7456SOL     OW33829   0.003   3.700   8.042  0.0326 -0.3187  0.4832
 7456SOL    HW133830   0.040   3.773   7.992 -0.1493 -0.9016 -0.5063
 7456SOL    HW233831   4.702   3.746   8.122  0.2839 -0.2060  0.4958
 7457SOL     OW33832   2.083   0.971   6.791  0.0479 -0.8458  0.4068
 7457SOL    HW133833   2.159   0.932   6.748  1.3311  2.3498 -0.2084
 7457SOL    HW233834   2.118   1.032   6.855 -0.0954 -0.0388 -0.2845
 7458SOL     OW33835   1.853   3.663  15.278  0.0250 -0.4005  0.4599
 7458SOL    HW133836   1.852   3.578  15.234  3.0181  1.6257 -3.4368
 7458SOL    HW233837   1.948   3.671  15.287  0.4041 -1.2271 -2.9744
 7459SOL     OW33838   0.122   2.883   2.176 -0.6561  0.1128  0.0166
 7459SOL    HW133839   0.159   2.969   2.195 -2.3305  0.6240  0.9720
 7459SOL    HW233840   0.035   2.908   2.144 -0.0586  1.3248 -0.6387
 7460SOL     OW33841   0.618   4.384   4.453  0.2986  0.5897 -0.6453
 7460SOL    HW133842   0.670   4.329   4.511  0.0308  2.1716  1.0957
 7460SOL    HW233843   0.682   4.449   4.423  0.2743  0.7303 -0.3904
 7461SOL     OW33844   4.252   1.146   9.173 -0.2201  0.0695  0.0506
 7461SOL    HW133845   4.168   1.132   9.218 -1.3519  0.5412 -1.9415
 7461SOL    HW233846   4.284   1.222   9.221  0.4549 -1.4204  1.9758
 7462SOL     OW33847   1.603   0.805  15.719 -0.0664  0.2909  0.4235
 7462SOL    HW133848   1.546   0.773  15.649  0.0127  1.0857  0.0079
 7462SOL    HW233849   1.540   0.863  15.762 -0.6272  0.7115 -0.9706
 7463SOL     OW33850   1.091   4.229   8.708  0.4935  0.1893  0.4204
 7463SOL    HW133851   1.057   4.309   8.747 -1.9780 -1.0974  0.9046
 7463SOL    HW233852   1.109   4.182   8.790  0.9465  1.9630  1.3381
 7464SOL     OW33853   1.255   0.990   8.956 -0.6829 -1.2757  0.1597
 7464SOL    HW133854   1.328   0.964   9.011  2.9497  0.8001 -3.6796
 7464SOL    HW233855   1.297   0.968   8.873 -1.0264  1.1748 -0.6662
 7465SOL     OW33856   4.623   1.209   6.066  0.5262 -0.1332  0.1235
 7465SOL    HW133857   4.564   1.256   6.124  0.6710 -1.3133  1.2222
 7465SOL    HW233858   4.666   1.151   6.129  0.9173 -1.1161 -1.0396
 7466SOL     OW33859   1.479   2.119  15.639  0.0154 -0.3344 -0.9409
 7466SOL    HW133860   1.452   2.157  15.555  1.2762  1.3876 -0.5695
 7466SOL    HW233861   1.415   2.163  15.697  1.7196  1.0019 -0.0749
 7467SOL     OW33862   0.129   3.347   5.959  0.4229 -0.3151  0.6412
 7467SOL    HW133863   0.178   3.267   5.979  2.7718  0.5504 -1.7209
 7467SOL    HW233864   0.076   3.329   5.881  2.6520 -0.0754 -0.9301
 7468SOL     OW33865   0.375   4.502  15.171  0.5715  0.1266 -0.0977
 7468SOL    HW133866   0.338   4.432  15.225  1.9544 -1.0646 -0.6734
 7468SOL    HW233867   0.457   4.510  15.220 -0.6680 -0.1896  2.0333
 7469SOL     OW33868   1.538   1.544  12.507 -0.1635  0.2051  0.0027
 7469SOL    HW133869   1.609   1.523  12.567  0.3896 -3.5462 -1.9565
 7469SOL    HW233870   1.472   1.489  12.549 -0.4264  0.2116 -0.4030
 7470SOL     OW33871   0.158   2.953  14.023 -0.6422  0.7104 -0.1190
 7470SOL    HW133872   0.092   3.014  13.990 -0.7058  0.0475 -1.2254
 7470SOL    HW233873   0.133   2.941  14.115 -1.0331  4.3700  0.2447
 7471SOL     OW33874   2.004   1.258   0.431  0.5687  0.2872  0.1388
 7471SOL    HW133875   2.074   1.272   0.367  0.5500  1.7261  0.4217
 7471SOL    HW233876   1.960   1.343   0.432 -2.8069 -1.4777  0.5764
 7472SOL     OW33877   3.008   0.129  10.809  0.4079  0.3549  0.1171
 7472SOL    HW133878   2.971   0.216  10.822 -1.5838 -0.3498 -0.7798
 7472SOL    HW233879   3.043   0.110  10.896  1.5657  0.6843 -0.2893
 7473SOL     OW33880   1.810   3.995   3.324 -0.4802 -0.0236 -0.1000
 7473SOL    HW133881   1.886   3.989   3.382  0.2089  1.0298 -0.8973
 7473SOL    HW233882   1.848   3.960   3.243 -1.6866 -0.9666 -0.2627
 7474SOL     OW33883   2.245   3.931   3.184 -0.6570  0.1862 -0.1681
 7474SOL    HW133884   2.271   3.946   3.275 -1.4899  1.9075 -0.2215
 7474SOL    HW233885   2.332   3.905   3.154 -1.1424 -3.0447  1.1284
 7475SOL     OW33886   0.935   1.299  17.581 -0.4309  0.6308  0.0586
 7475SOL    HW133887   0.989   1.343  17.515  0.7370  0.2747  0.7824
 7475SOL    HW233888   0.891   1.376  17.616 -0.7863  1.3137 -1.9173
 7476SOL     OW33889   0.300   4.217   9.451  0.1874 -0.1401 -0.5750
 7476SOL    HW133890   0.345   4.183   9.528 -2.1759 -0.2092  0.7802
 7476SOL    HW233891   0.210   4.186   9.465  1.1373 -1.8073  1.8028
 7477SOL     OW33892   1.878   3.045   0.479  0.1796 -0.0045  0.0921
 7477SOL    HW133893   1.916   3.089   0.556  1.8698 -0.0852 -0.6945
 7477SOL    HW233894   1.829   2.979   0.528  0.6658 -0.1913  0.3360
 7478SOL     OW33895   3.173   4.157  16.749 -0.2900 -0.2727  0.2284
 7478SOL    HW133896   3.181   4.159  16.654 -0.5309  3.2746  0.2885
 7478SOL    HW233897   3.083   4.128  16.760 -0.3027 -0.4872 -0.4447
 7479SOL     OW33898   3.770   3.257  16.911  0.0987  0.0117  0.0204
 7479SOL    HW133899   3.753   3.163  16.924  1.4383 -0.3428 -0.7927
 7479SOL    HW233900   3.716   3.276  16.835 -1.0085 -1.0490  0.5295
 7480SOL     OW33901   0.891   3.740   9.078  0.2359 -0.3909 -0.0888
 7480SOL    HW133902   0.912   3.665   9.023  2.3504 -0.2649  0.5271
 7480SOL    HW233903   0.943   3.714   9.155  0.0049  3.0425  1.2620
 7481SOL     OW33904   3.357   0.158   0.818 -0.4854 -0.2814 -0.2721
 7481SOL    HW133905   3.374   0.206   0.899 -2.4818 -1.8151  1.0607
 7481SOL    HW233906   3.333   0.233   0.764  0.9404  0.2546 -0.1771
 7482SOL     OW33907   3.565   3.267   9.933  0.4298 -0.1878 -0.4297
 7482SOL    HW133908   3.613   3.335   9.886  1.7652 -0.4229  0.5590
 7482SOL    HW233909   3.603   3.268  10.022 -1.0612 -1.8306  0.2216
 7483SOL     OW33910   0.027   4.254  10.590  0.2099  0.4199  0.7930
 7483SOL    HW133911   4.699   4.202  10.529 -0.2621  0.2318  1.3562
 7483SOL    HW233912   4.685   4.277  10.656 -1.7760 -1.9720 -0.3713
 7484SOL     OW33913   0.807   3.146   3.651  0.2716  0.2146  0.4794
 7484SOL    HW133914   0.798   3.225   3.704  1.3902  0.8286 -0.2384
 7484SOL    HW233915   0.871   3.110   3.713  1.2511  2.4571  0.7835
 7485SOL     OW33916   0.504   3.269  12.639  0.5686  0.1393  0.2529
 7485SOL    HW133917   0.593   3.260  12.672  0.2010 -0.1280  1.1707
 7485SOL    HW233918   0.476   3.344  12.693  1.2327 -0.5388  1.5312
 7486SOL     OW33919   2.458   4.499  11.552  0.2023  0.0657  0.3045
 7486SOL    HW133920   2.549   4.476  11.534  0.8040  0.6614  2.6707
 7486SOL    HW233921   2.423   4.520  11.465 -1.3668  2.1602  1.4573
 7487SOL     OW33922   3.425   4.592   8.436 -0.2025  0.1324  0.0906
 7487SOL    HW133923   3.361   4.561   8.371  1.9752 -3.1308 -0.4759
 7487SOL    HW233924   3.374   4.638   8.503  0.9558  0.8774  0.4638
 7488SOL     OW33925   1.930   3.178   9.423  0.4181 -0.0126  0.3266
 7488SOL    HW133926   1.966   3.151   9.507 -1.7532 -0.5070  1.0836
 7488SOL    HW233927   1.937   3.101   9.366 -0.0719 -0.2081  0.5348
 7489SOL     OW33928   3.062   3.700  16.539 -0.1338 -0.3576 -0.4943
 7489SOL    HW133929   3.143   3.688  16.588  0.4741  1.8244 -0.9903
 7489SOL    HW233930   3.049   3.609  16.512 -0.0123 -0.4612 -0.2061
 7490SOL     OW33931   4.586   1.621   8.189  0.0919 -0.3807 -0.1686
 7490SOL    HW133932   4.504   1.658   8.157 -0.6766 -0.1586  2.0192
 7490SOL    HW233933   4.588   1.535   8.148  1.1568 -1.0721  1.3319
 7491SOL     OW33934   2.128   0.759   4.512 -0.2659  0.1356  0.1052
 7491SOL    HW133935   2.196   0.814   4.473 -0.6484  1.0841  0.7577
 7491SOL    HW233936   2.051   0.817   4.510 -0.2055  0.2831  2.2177
 7492SOL     OW33937   0.104   0.704   3.366 -0.7238 -0.3042 -0.1505
 7492SOL    HW133938   0.125   0.739   3.280 -0.7899 -1.3295 -0.5760
 7492SOL    HW233939   0.023   0.750   3.390  0.0704  1.2642 -0.4638
 7493SOL     OW33940   0.533   3.556   5.015 -0.0515 -0.3234 -0.1666
 7493SOL    HW133941   0.527   3.538   5.108 -0.7023  2.7240  0.3918
 7493SOL    HW233942   0.515   3.650   5.005  0.0780 -0.4033 -1.1665
 7494SOL     OW33943   3.935   0.212   5.403 -0.0761  0.3579  0.0392
 7494SOL    HW133944   4.007   0.153   5.424  0.0090  0.7025  0.7096
 7494SOL    HW233945   3.945   0.181   5.313  0.1943 -1.0224  0.5368
 7495SOL     OW33946   4.286   4.224   0.902  0.2300 -0.0669  0.0803
 7495SOL    HW133947   4.345   4.158   0.939 -0.8417 -0.1606  1.6326
 7495SOL    HW233948   4.206   4.187   0.938 -2.0945  2.0142 -2.8877
 7496SOL     OW33949   3.767   4.640   8.174  0.2373 -0.4106  0.1937
 7496SOL    HW133950   3.706   4.582   8.128  0.4837  0.2363 -0.9244
 7496SOL    HW233951   3.830   4.573   8.202 -0.2636 -0.6146  0.8443
 7497SOL     OW33952   4.116   0.873  12.636  0.1149  0.1590 -0.3444
 7497SOL    HW133953   4.162   0.801  12.679 -2.5536 -1.3323 -0.0365
 7497SOL    HW233954   4.100   0.937  12.704  0.6657 -1.0176  0.8948
 7498SOL     OW33955   2.034   3.095   0.694  0.2601  0.1507  0.2901
 7498SOL    HW133956   2.008   3.172   0.745 -1.8947 -0.3622 -0.0592
 7498SOL    HW233957   2.065   3.040   0.766 -1.0118  0.8900  1.4116
 7499SOL     OW33958   0.763   0.422   1.427  0.1619  0.3027  1.3778
 7499SOL    HW133959   0.818   0.425   1.348 -0.7561  1.5026  0.7784
 7499SOL    HW233960   0.688   0.364   1.415 -1.8085  2.8848  1.2060
 7500SOL     OW33961   3.237   2.382   2.208 -0.7810  0.7772 -0.3096
 7500SOL    HW133962   3.267   2.462   2.165  0.1443  0.9451  0.6208
 7500SOL    HW233963   3.250   2.316   2.140  0.5193  1.1028 -0.3785
 7501SOL     OW33964   3.919   0.867  16.231  0.1940 -0.1378 -0.1510
 7501SOL    HW133965   3.919   0.917  16.149 -0.6000 -1.5966 -1.0427
 7501SOL    HW233966   3.977   0.922  16.284  0.7846 -0.7197 -0.1878
 7502SOL     OW33967   4.482   3.944   8.733  0.0811  0.4295  0.1432
 7502SOL    HW133968   4.512   3.958   8.643 -1.1984 -4.6720 -1.0951
 7502SOL    HW233969   4.423   4.020   8.739  0.6523  0.8709  0.1641
 7503SOL     OW33970   1.567   0.634   4.792  0.0034 -0.4489  0.1712
 7503SOL    HW133971   1.497   0.570   4.807 -1.2651  0.4201 -1.9043
 7503SOL    HW233972   1.606   0.646   4.878 -0.0727 -0.6883  0.2410
 7504SOL     OW33973   3.270   0.406  11.336 -0.2074 -0.4945  0.3107
 7504SOL    HW133974   3.193   0.356  11.310  1.3128 -2.1617 -0.9776
 7504SOL    HW233975   3.333   0.336  11.350  1.6298  1.0309 -0.2426
 7505SOL     OW33976   3.500   1.040   2.220  0.2614 -0.4968 -0.4140
 7505SOL    HW133977   3.430   0.996   2.269 -1.4734  0.9235 -1.6355
 7505SOL    HW233978   3.563   1.051   2.291 -1.0051 -0.6553  0.7461
 7506SOL     OW33979   0.087   4.140   2.691  0.0858 -0.1869 -0.0811
 7506SOL    HW133980   0.113   4.055   2.656 -2.3775 -0.5228 -1.0371
 7506SOL    HW233981   0.173   4.181   2.703  0.8613 -2.0069  0.6690
 7507SOL     OW33982   1.193   0.877   4.165  0.0793 -0.0477  0.3498
 7507SOL    HW133983   1.223   0.918   4.084  2.6778  0.3579  1.4934
 7507SOL    HW233984   1.097   0.876   4.161  0.0460 -1.3310  1.5020
 7508SOL     OW33985   0.554   4.714   4.651 -0.0300 -0.3272 -0.0616
 7508SOL    HW133986   0.485   4.649   4.645 -0.6895  0.3600  0.0726
 7508SOL    HW233987   0.513   0.064   4.696 -0.7188 -0.7382 -0.0131
 7509SOL     OW33988   0.037   2.362  17.073 -0.2124  0.4635  0.0270
 7509SOL    HW133989   0.052   2.453  17.047  1.5758 -0.2282 -1.3318
 7509SOL    HW233990   4.676   2.376  17.116 -0.4612 -2.3773  0.4354
 7510SOL     OW33991   3.441   1.891  13.694  0.2688 -0.0081 -0.0359
 7510SOL    HW133992   3.428   1.939  13.612 -1.0654  0.5879  0.5255
 7510SOL    HW233993   3.426   1.797  13.686  0.8889 -0.3821  3.0039
 7511SOL     OW33994   1.336   4.641  13.703 -0.2203  0.0341  0.0279
 7511SOL    HW133995   1.247   4.662  13.731 -0.4675 -0.6653 -0.2442
 7511SOL    HW233996   1.396   4.687  13.762 -0.1796 -1.0460  0.8262
 7512SOL     OW33997   3.821   3.381   8.356 -0.4027 -0.1075  0.6087
 7512SOL    HW133998   3.775   3.449   8.405 -0.0778  0.4410  0.1565
 7512SOL    HW233999   3.779   3.372   8.271 -1.2094  2.3067  0.7561
 7513SOL     OW34000   2.940   3.581   1.059  0.1761 -0.1232 -0.1967
 7513SOL    HW134001   2.946   3.674   1.077  2.0863 -0.0965 -0.9593
 7513SOL    HW234002   2.861   3.578   1.005 -0.2279  0.4900  0.3655
 7514SOL     OW34003   0.767   1.758  16.946  0.0081 -0.0757 -0.1647
 7514SOL    HW134004   0.769   1.697  17.020  2.6531  1.2158  0.8278
 7514SOL    HW234005   0.782   1.694  16.877 -3.2899  0.2899 -1.2205
 7515SOL     OW34006   3.050   3.602   3.832  0.5510 -0.6135  0.6173
 7515SOL    HW134007   3.116   3.565   3.891  2.0460 -1.3616 -1.5240
 7515SOL    HW234008   2.977   3.541   3.844  0.8535 -1.1945 -0.4530
 7516SOL     OW34009   3.426   2.044  12.335  0.2073 -0.1806 -0.2800
 7516SOL    HW134010   3.369   2.000  12.272 -0.2446  0.8093 -0.5673
 7516SOL    HW234011   3.502   1.989  12.320 -1.4079 -1.9988 -1.7181
 7517SOL     OW34012   2.078   3.765   5.039 -0.0965 -0.9337  0.1771
 7517SOL    HW134013   2.141   3.709   5.084 -1.3952 -2.0742  0.5845
 7517SOL    HW234014   2.133   3.808   4.974 -0.3774  1.0669  1.2932
 7518SOL     OW34015   0.716   1.120   3.852 -0.1371  0.5162 -0.2937
 7518SOL    HW134016   0.778   1.188   3.879  0.3329  0.5416 -1.4448
 7518SOL    HW234017   0.778   1.085   3.787 -0.5421  1.7085 -1.3279
 7519SOL     OW34018   1.238   1.428   2.606  0.0449  0.1212  0.2880
 7519SOL    HW134019   1.186   1.354   2.574  1.7820 -1.5319  1.2118
 7519SOL    HW234020   1.260   1.407   2.696 -1.1578  3.2497  1.2885
 7520SOL     OW34021   4.290   1.194   6.388  0.2487 -0.2871 -0.0094
 7520SOL    HW134022   4.374   1.240   6.385 -0.0407  0.5154  3.9881
 7520SOL    HW234023   4.254   1.201   6.300 -1.1710  2.1979  0.7726
 7521SOL     OW34024   4.052   2.269   5.868 -0.0386 -0.1496  0.6519
 7521SOL    HW134025   4.141   2.263   5.902  0.1386 -0.0973  0.1979
 7521SOL    HW234026   4.017   2.332   5.930  1.7814  2.2413 -0.7383
 7522SOL     OW34027   0.698   3.755   8.178 -0.0462 -0.1382  0.5258
 7522SOL    HW134028   0.621   3.813   8.179 -0.8006 -1.1048 -1.3668
 7522SOL    HW234029   0.662   3.684   8.231  0.6426  0.5340  1.9168
 7523SOL     OW34030   4.518   0.834   5.721 -0.2252 -0.1188 -0.4253
 7523SOL    HW134031   4.461   0.797   5.788 -2.8476 -0.0355 -2.5657
 7523SOL    HW234032   4.489   0.798   5.637 -2.7702 -0.0721  0.4194
 7524SOL     OW34033   3.747   3.258  10.153  0.1840  0.3848  0.3109
 7524SOL    HW134034   3.840   3.274  10.138 -0.3463  0.5122 -2.7638
 7524SOL    HW234035   3.752   3.170  10.191  0.2526 -0.4428 -1.6159
 7525SOL     OW34036   0.464   3.543   1.698  0.0545  0.0476 -0.2832
 7525SOL    HW134037   0.405   3.618   1.694  0.3258  0.2072 -1.2995
 7525SOL    HW234038   0.474   3.515   1.606  1.0726  0.3757 -0.2688
 7526SOL     OW34039   0.793   2.626   4.785  0.1795 -0.2999  0.4874
 7526SOL    HW134040   0.873   2.580   4.757 -0.6673 -0.5701 -1.4382
 7526SOL    HW234041   0.804   2.634   4.880 -0.6051  0.5019  0.5106
 7527SOL     OW34042   0.507   1.119   4.697  0.1836 -0.3951  0.1365
 7527SOL    HW134043   0.487   1.033   4.661  3.0702 -0.6799 -0.8406
 7527SOL    HW234044   0.459   1.171   4.634 -0.2865  0.3243  1.0880
 7528SOL     OW34045   2.869   4.413   9.330 -0.2943 -0.2820  0.0372
 7528SOL    HW134046   2.863   4.317   9.328  0.0068 -0.3002  0.0068
 7528SOL    HW234047   2.942   4.431   9.389 -0.0933 -2.0159  0.3151
 7529SOL     OW34048   1.206   3.381   0.839 -0.2170 -0.1390  1.1300
 7529SOL    HW134049   1.279   3.388   0.778 -0.8113  1.3140  0.5999
 7529SOL    HW234050   1.197   3.287   0.857 -0.0027 -0.4602 -0.4934
 7530SOL     OW34051   3.071   1.145   9.197  0.2021  0.3687  0.0628
 7530SOL    HW134052   3.003   1.092   9.156 -1.6324  1.6991  1.3703
 7530SOL    HW234053   3.029   1.153   9.283  1.3058 -2.2690  0.8509
 7531SOL     OW34054   1.267   2.450  10.181 -0.0188 -0.3665 -0.6240
 7531SOL    HW134055   1.284   2.544  10.175 -2.0731 -0.0852 -1.9506
 7531SOL    HW234056   1.215   2.444  10.101 -0.6108 -0.8143 -0.2119
 7532SOL     OW34057   3.322   0.330   6.277  0.0262 -0.2148  0.4140
 7532SOL    HW134058   3.331   0.326   6.182  0.3736 -1.7370  0.5031
 7532SOL    HW234059   3.367   0.413   6.292 -3.7467  1.9477 -0.1660
 7533SOL     OW34060   3.527   3.125   5.102  0.0426  0.4539 -0.5254
 7533SOL    HW134061   3.548   3.139   5.010 -0.0003 -1.5077 -0.8166
 7533SOL    HW234062   3.580   3.053   5.135 -0.4990  0.8435  1.1982
 7534SOL     OW34063   2.670   1.247  12.582 -0.3952 -0.0330  0.0671
 7534SOL    HW134064   2.659   1.156  12.556  0.3349 -0.1064  0.0165
 7534SOL    HW234065   2.754   1.263  12.538 -0.2700  0.7616  0.5934
 7535SOL     OW34066   1.659   4.308   7.569 -0.3965  0.1312 -0.5687
 7535SOL    HW134067   1.677   4.372   7.500  1.5280 -2.3429 -2.4083
 7535SOL    HW234068   1.722   4.239   7.547 -0.2127  0.2804 -0.5107
 7536SOL     OW34069   1.719   1.801   8.124 -0.3843 -0.5708 -0.4175
 7536SOL    HW134070   1.727   1.857   8.202 -0.1894 -2.0251  0.5949
 7536SOL    HW234071   1.723   1.869   8.056  0.8021  0.4007  0.6177
 7537SOL     OW34072   3.687   2.730   2.588 -0.9530  0.4839  0.3934
 7537SOL    HW134073   3.760   2.743   2.648 -0.7164  1.0358 -0.0119
 7537SOL    HW234074   3.671   2.821   2.562 -0.9978  0.5025  0.4867
 7538SOL     OW34075   2.486   4.305   7.113 -0.2213  0.3610 -0.1410
 7538SOL    HW134076   2.530   4.296   7.197 -2.7210 -1.2509  1.0119
 7538SOL    HW234077   2.555   4.292   7.048  0.5691  2.0757  0.3750
 7539SOL     OW34078   0.474   0.786   1.677  0.1547 -0.0658  0.1402
 7539SOL    HW134079   0.472   0.769   1.583 -2.4745  0.8346  0.0285
 7539SOL    HW234080   0.478   0.695   1.704  0.1349 -0.0975  0.0361
 7540SOL     OW34081   4.377   3.524   3.792  0.1147  0.3654  0.0034
 7540SOL    HW134082   4.338   3.610   3.774 -2.1318 -0.4365  1.1373
 7540SOL    HW234083   4.447   3.509   3.728  0.2312  0.7746  0.0323
 7541SOL     OW34084   3.453   1.483   8.525  0.4385 -0.5034  0.2651
 7541SOL    HW134085   3.401   1.549   8.572 -0.4619  0.0920 -1.5345
 7541SOL    HW234086   3.385   1.418   8.510 -0.7879  0.5228  1.3680
 7542SOL     OW34087   1.271   4.100   9.867  0.4411  0.6194 -0.5790
 7542SOL    HW134088   1.240   4.190   9.855 -1.0006  0.7013  3.8359
 7542SOL    HW234089   1.227   4.057   9.793 -2.8205  2.1121  0.4826
 7543SOL     OW34090   0.580   2.227   1.190 -0.3757 -0.2168  0.3973
 7543SOL    HW134091   0.490   2.221   1.224 -0.9313 -0.8500 -1.1773
 7543SOL    HW234092   0.579   2.153   1.129 -1.4084 -2.0575  2.6064
 7544SOL     OW34093   3.017   1.145   5.049 -0.3993 -0.7217 -0.5265
 7544SOL    HW134094   3.028   1.058   5.012  0.7076 -0.3515 -1.0539
 7544SOL    HW234095   3.053   1.151   5.137  2.5496  0.0769 -1.8075
 7545SOL     OW34096   1.656   0.067   3.597  0.3880 -0.3619  0.1721
 7545SOL    HW134097   1.691   4.712   3.639 -0.5488 -1.0546 -0.3357
 7545SOL    HW234098   1.602   0.103   3.667  1.7652  1.6169  0.1974
 7546SOL     OW34099   0.773   4.291   8.986  0.3125 -0.0115  0.2886
 7546SOL    HW134100   0.782   4.196   8.982 -1.6594 -0.1603 -0.4506
 7546SOL    HW234101   0.707   4.293   9.056  0.2913  1.7560  0.2215
 7547SOL     OW34102   3.356   1.004   3.190 -0.0177  0.6842 -0.1016
 7547SOL    HW134103   3.449   1.020   3.176  0.3262  0.6890  2.1621
 7547SOL    HW234104   3.321   1.093   3.197 -1.8681 -0.0141 -0.4597
 7548SOL     OW34105   0.769   3.669  10.823  0.5257 -0.0480  0.0057
 7548SOL    HW134106   0.680   3.691  10.851 -0.8178  0.0506 -4.3568
 7548SOL    HW234107   0.755   3.646  10.731  0.2964 -0.6260  0.1808
 7549SOL     OW34108   1.422   0.585   1.146  0.9048 -0.6505 -0.0109
 7549SOL    HW134109   1.427   0.631   1.230  1.1004 -2.2719  0.8714
 7549SOL    HW234110   1.501   0.619   1.104  1.4236 -0.6489  0.9720
 7550SOL     OW34111   0.375   0.655   5.409 -0.0201  0.1210 -0.1540
 7550SOL    HW134112   0.302   0.625   5.462 -0.2845 -1.2283 -1.2975
 7550SOL    HW234113   0.441   0.682   5.473 -0.7880  0.7680  0.3527
 7551SOL     OW34114   1.382   4.314   0.203  0.3096 -0.2956 -0.0851
 7551SOL    HW134115   1.305   4.258   0.211 -1.0829  1.6829  0.4750
 7551SOL    HW234116   1.389   4.355   0.289 -1.9690  0.4490 -0.2560
 7552SOL     OW34117   1.267   0.259   2.293  0.3621  0.3305  0.2966
 7552SOL    HW134118   1.295   0.281   2.205  1.2954 -2.6648 -0.1712
 7552SOL    HW234119   1.183   0.215   2.283  0.2514  0.3959  0.9071
 7553SOL     OW34120   2.458   2.545   9.590  0.1093  0.3665  0.1641
 7553SOL    HW134121   2.385   2.595   9.626  1.0436 -0.7510  3.6216
 7553SOL    HW234122   2.482   2.600   9.516 -1.1233  0.1785 -0.3899
 7554SOL     OW34123   1.161   3.387  12.620 -0.2499  0.0203  0.0299
 7554SOL    HW134124   1.243   3.354  12.583  0.0887 -0.6508  1.4024
 7554SOL    HW234125   1.171   3.478  12.592 -2.0414  0.1274 -0.2144
 7555SOL     OW34126   3.764   0.901  17.086 -0.2611 -0.1673  0.1247
 7555SOL    HW134127   3.708   0.876  17.013 -0.8908 -2.3006  1.3349
 7555SOL    HW234128   3.729   0.859  17.165 -0.3309  0.8140  0.6141
 7556SOL     OW34129   2.682   2.439   9.253  0.0441 -0.2756 -0.3395
 7556SOL    HW134130   2.593   2.408   9.240 -0.1954 -0.6495  2.1778
 7556SOL    HW234131   2.724   2.365   9.298 -2.5284 -1.2641  0.4498
 7557SOL     OW34132   3.990   2.480   5.999 -0.4911 -0.7016 -0.7966
 7557SOL    HW134133   3.948   2.508   5.918  0.1714  0.9918 -0.5651
 7557SOL    HW234134   4.024   2.565   6.027 -0.2105 -0.2370 -2.5264
 7558SOL     OW34135   3.185   3.365   5.234 -0.3590  0.1861 -0.2483
 7558SOL    HW134136   3.213   3.414   5.157  3.1154 -2.6214 -0.7353
 7558SOL    HW234137   3.166   3.276   5.205  3.8707 -0.9519  0.5419
 7559SOL     OW34138   2.618   3.933   4.474  0.1212  0.4501  0.3087
 7559SOL    HW134139   2.642   3.852   4.429 -2.8805 -0.6493  0.6563
 7559SOL    HW234140   2.702   3.937   4.519 -0.0357 -3.1244  0.9146
 7560SOL     OW34141   1.978   4.059  12.346 -0.2390 -0.3859 -0.5118
 7560SOL    HW134142   2.043   4.112  12.392 -3.1368 -0.0466  3.1952
 7560SOL    HW234143   2.027   3.978  12.360  1.4162  0.7502  0.3373
 7561SOL     OW34144   1.116   4.397   7.252  0.0635  0.2082 -0.1395
 7561SOL    HW134145   1.152   4.308   7.260 -1.4554 -0.2782  1.2614
 7561SOL    HW234146   1.104   4.406   7.158 -2.3112  0.8492  0.2408
 7562SOL     OW34147   3.671   3.253   2.776 -0.1636  0.2660  0.1504
 7562SOL    HW134148   3.638   3.342   2.763 -0.2628  0.2720  0.4338
 7562SOL    HW234149   3.670   3.256   2.872  0.2090 -0.7257  0.1767
 7563SOL     OW34150   0.603   4.573  16.289 -0.5551 -0.3233  0.1961
 7563SOL    HW134151   0.609   4.520  16.368  0.4512 -0.2125  0.1889
 7563SOL    HW234152   0.552   4.515  16.234 -0.4404 -1.4349  1.2720
 7564SOL     OW34153   2.114   3.093   6.233 -0.0580  0.1218  0.1476
 7564SOL    HW134154   2.164   3.167   6.268 -1.4315  2.0589 -1.8826
 7564SOL    HW234155   2.037   3.100   6.289 -0.3848 -0.2047 -0.2679
 7565SOL     OW34156   3.602   2.590   3.125  0.4305  0.2470 -0.7943
 7565SOL    HW134157   3.596   2.501   3.090 -1.1536 -0.2593  0.7496
 7565SOL    HW234158   3.550   2.578   3.204 -0.9081 -0.1175 -1.7173
 7566SOL     OW34159   2.977   4.299   0.678  0.1273  0.7296 -0.0432
 7566SOL    HW134160   2.945   4.226   0.625 -0.6365  2.8724 -2.5435
 7566SOL    HW234161   2.965   4.378   0.624 -1.6140  0.4817 -0.0132
 7567SOL     OW34162   3.845   0.853  17.596  0.1108  1.0963 -0.2510
 7567SOL    HW134163   3.804   0.827  17.513  0.2414 -2.2833  0.7561
 7567SOL    HW234164   3.936   0.872  17.573  0.1546  3.9320  2.3275
 7568SOL     OW34165   2.120   1.622  11.069  0.3758  0.8588 -0.3321
 7568SOL    HW134166   2.136   1.706  11.112 -0.6059  0.8755  0.0147
 7568SOL    HW234167   2.036   1.648  11.030  0.8462  0.2814 -1.7465
 7569SOL     OW34168   3.678   4.649  12.442 -0.2524 -0.7819 -0.4076
 7569SOL    HW134169   3.739   4.615  12.377  1.7975  1.7895  0.1437
 7569SOL    HW234170   3.677   4.578  12.505 -3.5950  0.5423  1.0452
 7570SOL     OW34171   4.575   0.278   8.156 -0.1296  0.4053  0.4032
 7570SOL    HW134172   4.668   0.258   8.147 -0.0962  0.3899  0.8121
 7570SOL    HW234173   4.554   0.334   8.081 -0.2251  0.7126  0.6617
 7571SOL     OW34174   1.266   0.996   4.389 -0.0713  0.6016  0.0599
 7571SOL    HW134175   1.245   0.957   4.304  2.2439 -0.1273 -0.1658
 7571SOL    HW234176   1.272   0.913   4.435 -2.3016  1.1235  1.3039
 7572SOL     OW34177   0.466   3.285   3.255 -0.0741 -0.5411  0.7535
 7572SOL    HW134178   0.472   3.359   3.195  2.4383 -0.3651  1.2560
 7572SOL    HW234179   0.382   3.247   3.228 -1.6367  4.6935 -1.6296
 7573SOL     OW34180   1.822   1.160   0.959  0.0449 -0.4988 -0.4175
 7573SOL    HW134181   1.762   1.225   0.924  1.6967 -0.8626 -3.9853
 7573SOL    HW234182   1.847   1.116   0.878 -0.4707 -0.1441 -0.7647
 7574SOL     OW34183   2.393   1.773   7.759  1.0728  0.1190  0.0100
 7574SOL    HW134184   2.436   1.858   7.763 -0.8015  1.0938 -0.6449
 7574SOL    HW234185   2.377   1.761   7.853 -0.6917 -1.3215 -0.4595
 7575SOL     OW34186   4.228   4.042   7.005 -0.0395  0.6794 -0.4672
 7575SOL    HW134187   4.174   3.964   7.019  1.2649  0.0176  0.8232
 7575SOL    HW234188   4.201   4.110   7.066  2.8333 -0.8467  2.4649
 7576SOL     OW34189   4.128   3.008  10.459  0.1410 -0.6026 -0.5878
 7576SOL    HW134190   4.172   2.956  10.527  2.0994  0.6655 -0.8967
 7576SOL    HW234191   4.038   2.986  10.483  1.0813 -0.6129  2.9387
 7577SOL     OW34192   0.906   0.662   3.839 -0.2417 -0.1625  0.3362
 7577SOL    HW134193   0.949   0.729   3.786 -1.6786  0.3729 -0.1689
 7577SOL    HW234194   0.978   0.601   3.849  0.0688 -0.0493 -1.2527
 7578SOL     OW34195   1.022   3.041   2.216 -0.1795 -0.1662 -0.3347
 7578SOL    HW134196   1.012   3.026   2.122  0.6623  2.0873 -0.7817
 7578SOL    HW234197   1.108   3.000   2.229  0.7253  1.4853 -1.0709
 7579SOL     OW34198   2.593   0.673   1.867 -0.1486  0.0294 -0.1877
 7579SOL    HW134199   2.589   0.584   1.902 -0.8359  0.0414 -0.2287
 7579SOL    HW234200   2.501   0.693   1.886 -0.5373 -3.1777  1.2591
 7580SOL     OW34201   2.209   1.634  12.126 -0.6277  0.2485  0.4510
 7580SOL    HW134202   2.278   1.701  12.127  0.7629 -1.1510 -0.7561
 7580SOL    HW234203   2.245   1.552  12.090  0.2119  0.8908 -0.1789
 7581SOL     OW34204   0.025   2.928   2.829 -0.1731 -1.0472  0.0631
 7581SOL    HW134205   4.710   2.868   2.765 -0.8176 -0.3585 -0.2055
 7581SOL    HW234206   0.116   2.915   2.806 -0.6692 -0.3908 -2.3053
 7582SOL     OW34207   1.330   4.377   4.090  0.7533 -0.0929  0.1362
 7582SOL    HW134208   1.309   4.286   4.070 -0.0656  0.5522 -1.8985
 7582SOL    HW234209   1.402   4.400   4.031  0.4104  2.4314  0.6952
 7583SOL     OW34210   4.248   0.510   2.304  0.4783  0.3146 -0.3052
 7583SOL    HW134211   4.222   0.457   2.229  1.2658  2.4590 -2.0796
 7583SOL    HW234212   4.310   0.568   2.260  0.6487  1.5656  1.5920
 7584SOL     OW34213   2.901   2.052   9.868  0.0089 -0.5379  0.0813
 7584SOL    HW134214   2.988   2.037   9.829  0.8867  1.9090  1.1257
 7584SOL    HW234215   2.875   1.960   9.865  1.2745 -0.8803 -0.7050
 7585SOL     OW34216   3.897   3.400   3.388  0.0316 -0.6025 -0.0589
 7585SOL    HW134217   3.950   3.435   3.317 -1.0213 -1.3421 -1.1914
 7585SOL    HW234218   3.948   3.318   3.389  1.2191  0.1360  2.4808
 7586SOL     OW34219   3.900   1.793  16.934  0.3110 -0.2025  0.2263
 7586SOL    HW134220   3.899   1.881  16.896  2.3750 -1.1465 -2.0614
 7586SOL    HW234221   3.825   1.800  16.993 -0.9533 -1.4165 -1.2050
 7587SOL     OW34222   1.328   2.809   1.802 -0.9658 -0.2459  0.5260
 7587SOL    HW134223   1.375   2.887   1.831 -2.3732  0.3786  1.1100
 7587SOL    HW234224   1.385   2.733   1.786  1.1882  1.6718 -0.8881
 7588SOL     OW34225   0.917   0.403  16.007 -0.5558 -0.6318 -0.4891
 7588SOL    HW134226   0.868   0.368  16.082  1.0287 -3.5239 -0.8152
 7588SOL    HW234227   0.969   0.329  15.978  0.1947 -0.3836  0.2414
 7589SOL     OW34228   2.641   4.219  10.747 -0.4203  0.0103  0.2429
 7589SOL    HW134229   2.664   4.136  10.706 -0.6571  0.4686 -0.8368
 7589SOL    HW234230   2.652   4.294  10.688 -1.4051  0.5501  0.7354
 7590SOL     OW34231   0.784   4.053   2.294  0.2042 -0.6348  0.0331
 7590SOL    HW134232   0.816   4.098   2.372 -0.4079 -1.2689  0.6531
 7590SOL    HW234233   0.868   4.029   2.254 -0.6427  0.6192 -2.4556
 7591SOL     OW34234   4.597   2.388   2.014 -0.0419  0.2684 -0.3852
 7591SOL    HW134235   4.603   2.321   1.946  2.5287  0.5744 -0.4389
 7591SOL    HW234236   4.676   2.441   2.006  0.3473 -0.1279  0.7716
 7592SOL     OW34237   3.406   0.066   6.391  0.4987  0.0381 -0.3275
 7592SOL    HW134238   3.382   0.158   6.379 -0.0918 -0.1545 -0.6300
 7592SOL    HW234239   3.416   0.040   6.299  0.3786 -1.1349 -0.0061
 7593SOL     OW34240   4.057   3.078   2.704 -0.3527  0.5164 -0.0245
 7593SOL    HW134241   4.023   3.151   2.651 -1.1439  1.9690  2.4782
 7593SOL    HW234242   4.093   3.133   2.774 -2.1166  1.9921 -0.2809
 7594SOL     OW34243   0.426   4.668   3.852  0.2474  0.2590  0.2689
 7594SOL    HW134244   0.439   4.634   3.763 -0.4088  2.9058 -0.8257
 7594SOL    HW234245   0.419   4.590   3.908 -2.6350  0.6230  0.4151
 7595SOL     OW34246   2.032   2.887  15.225  0.0557  0.5551 -0.4896
 7595SOL    HW134247   2.125   2.866  15.237 -0.3331 -0.0476  1.4906
 7595SOL    HW234248   1.994   2.868  15.310 -2.1918 -0.6078 -1.7719
 7596SOL     OW34249   3.871   2.704   1.635 -0.1430 -0.3727  0.3862
 7596SOL    HW134250   3.869   2.672   1.545  2.8376  0.1986  0.1273
 7596SOL    HW234251   3.949   2.661   1.669 -0.1633  1.0550  2.2289
 7597SOL     OW34252   3.608   2.886   7.833 -0.3904  0.4749  0.4798
 7597SOL    HW134253   3.521   2.891   7.871 -0.7444  0.2730 -0.3240
 7597SOL    HW234254   3.643   2.969   7.866  0.1740  0.5389 -0.2860
 7598SOL     OW34255   4.484   3.432   9.457 -0.1056  0.3211  0.3921
 7598SOL    HW134256   4.497   3.524   9.481  1.5863  0.1697  0.0299
 7598SOL    HW234257   4.572   3.396   9.452  0.2927  1.3359 -0.0061
 7599SOL     OW34258   3.508   2.354   9.908  0.2618  0.2289 -0.0456
 7599SOL    HW134259   3.543   2.287   9.850 -0.3633 -1.1336  1.1508
 7599SOL    HW234260   3.561   2.343   9.987 -2.2461 -1.3402  1.3943
 7600SOL     OW34261   1.728   3.751   4.736  0.4411 -0.1945 -0.2794
 7600SOL    HW134262   1.715   3.692   4.810  3.1387  0.4775  0.7396
 7600SOL    HW234263   1.681   3.714   4.662  0.3672 -0.2034 -0.2289
 7601SOL     OW34264   1.887   2.179   6.352  0.1086  0.3869 -0.4737
 7601SOL    HW134265   1.947   2.226   6.295 -1.4289  1.0615 -1.5373
 7601SOL    HW234266   1.928   2.169   6.438  0.0355  0.0387 -0.4788
 7602SOL     OW34267   0.522   4.376  10.881  0.0030 -0.0146  0.1091
 7602SOL    HW134268   0.553   4.412  10.798 -1.3552 -1.0506 -0.8584
 7602SOL    HW234269   0.548   4.285  10.868 -2.0557 -0.3260 -1.8057
 7603SOL     OW34270   0.749   2.735   5.047  0.1938  0.1743  0.2775
 7603SOL    HW134271   0.687   2.759   5.116  0.7579 -0.4758  1.0218
 7603SOL    HW234272   0.818   2.714   5.111 -0.1454 -0.9989  0.2508
 7604SOL     OW34273   2.897   1.165   7.123  0.6726 -0.4270  0.0208
 7604SOL    HW134274   2.878   1.249   7.082  0.8998 -0.1428  0.5057
 7604SOL    HW234275   2.862   1.114   7.049  1.9317 -1.3783  0.0768
 7605SOL     OW34276   3.624   4.317   1.189  0.0442  0.0452 -0.1973
 7605SOL    HW134277   3.594   4.408   1.180 -2.3574 -0.7499 -0.3027
 7605SOL    HW234278   3.695   4.330   1.252 -1.3353  0.5421  1.2545
 7606SOL     OW34279   4.010   4.470   7.931  0.2469 -0.7015 -0.0913
 7606SOL    HW134280   3.947   4.527   7.887  0.5482 -0.2334  0.0756
 7606SOL    HW234281   3.998   4.383   7.895  0.6278 -1.3337  1.3122
 7607SOL     OW34282   0.234   0.815   4.888  0.2598  0.2196  0.6043
 7607SOL    HW134283   0.327   0.815   4.865  0.8096  1.1764  2.7566
 7607SOL    HW234284   0.205   0.835   4.799  0.6975  1.0643  0.6480
 7608SOL     OW34285   2.422   2.985   4.999  0.1484 -0.5731  0.2949
 7608SOL    HW134286   2.374   3.008   5.078 -0.4888 -0.1008 -0.2262
 7608SOL    HW234287   2.413   2.890   4.995  0.7643 -0.6038 -0.4250
 7609SOL     OW34288   2.619   0.608  16.799 -0.8774 -0.0294  0.5779
 7609SOL    HW134289   2.600   0.613  16.893 -2.4491  0.7600  0.2258
 7609SOL    HW234290   2.658   0.692  16.777  0.0221 -0.6268 -0.0883
 7610SOL     OW34291   1.430   3.376   4.280  0.6145  0.3133  1.0262
 7610SOL    HW134292   1.361   3.323   4.241  1.5466  0.2316 -0.5087
 7610SOL    HW234293   1.453   3.330   4.360  0.8336  2.3907  2.1732
 7611SOL     OW34294   0.070   0.169   3.144 -0.1814 -0.0874  0.3896
 7611SOL    HW134295   0.065   0.265   3.146  1.4795  0.0438 -1.6596
 7611SOL    HW234296   4.703   0.140   3.154 -0.2421 -0.3380 -0.9622
 7612SOL     OW34297   1.161   1.756   8.117  0.1209  0.0703 -0.6053
 7612SOL    HW134298   1.130   1.822   8.178  1.1077  0.2300 -0.2670
 7612SOL    HW234299   1.251   1.787   8.104 -0.3791  1.8354  0.2782
 7613SOL     OW34300   3.327   4.719   7.791 -0.0762 -0.2852 -0.5602
 7613SOL    HW134301   3.364   0.039   7.715  2.2521 -0.1454  0.6272
 7613SOL    HW234302   3.340   4.625   7.774 -1.6081 -0.7128  0.6675
 7614SOL     OW34303   1.165   3.799   5.221 -0.0802 -0.0954  0.1903
 7614SOL    HW134304   1.109   3.733   5.263  3.0379 -2.4950  0.5915
 7614SOL    HW234305   1.151   3.785   5.127 -3.4522  1.2021  0.5279
 7615SOL     OW34306   3.936   0.842   9.062 -0.5904 -0.3466 -0.5546
 7615SOL    HW134307   3.896   0.924   9.090  2.2992  0.8219  0.0709
 7615SOL    HW234308   3.869   0.774   9.066  0.0461 -1.0412 -1.6498
 7616SOL     OW34309   0.594   1.356   9.933  0.0867  0.5467 -0.1556
 7616SOL    HW134310   0.613   1.382  10.023  1.7472 -0.4514 -0.2063
 7616SOL    HW234311   0.504   1.324   9.937  0.8039 -1.4538  0.2681
 7617SOL     OW34312   2.779   4.633   1.763  0.0242  0.1280 -0.5999
 7617SOL    HW134313   2.854   4.602   1.814 -2.2580 -1.9712  1.4823
 7617SOL    HW234314   2.705   4.577   1.786 -0.4855  0.4040 -1.5643
 7618SOL     OW34315   2.129   3.573   2.474  0.1802  0.1607  0.3859
 7618SOL    HW134316   2.152   3.524   2.553 -0.6990 -1.9633 -0.6984
 7618SOL    HW234317   2.058   3.520   2.438  0.0360 -0.6095  1.8010
 7619SOL     OW34318   0.221   0.487   4.773 -0.2425  0.4739 -0.2808
 7619SOL    HW134319   0.147   0.482   4.713  0.3162  0.1053 -0.9354
 7619SOL    HW234320   0.208   0.558   4.836  1.4287  1.1986 -0.7646
 7620SOL     OW34321   4.067   0.609   5.635  0.7175 -0.3465 -0.5402
 7620SOL    HW134322   4.157   0.578   5.629  0.7038 -0.8726  2.2348
 7620SOL    HW234323   4.068   0.653   5.720  1.5716 -1.4169 -0.0048
 7621SOL     OW34324   3.834   2.733   3.493  0.5112  0.4315  0.4046
 7621SOL    HW134325   3.756   2.682   3.514 -1.8787  3.9287  0.0595
 7621SOL    HW234326   3.824   2.801   3.560 -0.2183  1.3108 -0.5970
 7622SOL     OW34327   4.688   3.789   7.479  0.3869 -0.0094  0.4524
 7622SOL    HW134328   4.651   3.702   7.465  1.0949 -0.4826  1.5199
 7622SOL    HW234329   4.714   3.809   7.389  0.7096  1.2081  0.8224
 7623SOL     OW34330   1.771   4.650   3.157 -0.2387 -0.0233  0.2929
 7623SOL    HW134331   1.695   4.645   3.215 -0.4710 -1.0594 -0.0892
 7623SOL    HW234332   1.737   4.636   3.069  0.3338 -2.0750  0.3981
 7624SOL     OW34333   3.871   3.277  16.368 -0.4230 -0.0725 -0.1690
 7624SOL    HW134334   3.965   3.286  16.380 -0.8760  2.9830  0.9118
 7624SOL    HW234335   3.842   3.366  16.350 -0.0566  0.1852  0.5714
 7625SOL     OW34336   1.746   3.631  16.427  0.2569 -0.0517 -0.2930
 7625SOL    HW134337   1.706   3.608  16.343  2.4684 -2.5591 -0.6331
 7625SOL    HW234338   1.834   3.596  16.416  0.4923  1.5073 -3.3595
 7626SOL     OW34339   1.530   0.243  15.224 -0.2921 -0.1656 -0.3050
 7626SOL    HW134340   1.583   0.245  15.144  1.0067  0.8490  0.5890
 7626SOL    HW234341   1.463   0.308  15.204 -0.3323  0.1001  0.6962
 7627SOL     OW34342   1.675   3.565  15.002 -0.0423 -0.8994 -0.2334
 7627SOL    HW134343   1.683   3.594  15.093 -1.2316  4.1647 -1.7399
 7627SOL    HW234344   1.672   3.650  14.957  1.3691  1.2737  3.7686
 7628SOL     OW34345   3.741   0.179   7.543  0.4695  0.1189  0.2884
 7628SOL    HW134346   3.820   0.222   7.577  1.7340 -1.7409 -0.2609
 7628SOL    HW234347   3.746   0.200   7.450  0.1734 -3.4645 -0.5576
 7629SOL     OW34348   1.863   2.572  17.550  0.1467 -0.1486  0.1691
 7629SOL    HW134349   1.858   2.655  17.502 -1.1057  0.2667  1.0181
 7629SOL    HW234350   1.802   2.594  17.620  0.5946 -1.8668  1.0753
 7630SOL     OW34351   3.720   2.724   8.773  0.0977  0.0629 -0.4365
 7630SOL    HW134352   3.784   2.695   8.708  1.8576  1.9864  0.4519
 7630SOL    HW234353   3.773   2.778   8.831 -0.7510 -1.0418  1.3722
 7631SOL     OW34354   4.583   1.372   7.876 -0.8456  0.0897 -0.0222
 7631SOL    HW134355   4.605   1.352   7.785  0.0265  1.1768 -0.0575
 7631SOL    HW234356   4.510   1.319   7.906 -0.7561 -0.6873 -1.2069
 7632SOL     OW34357   3.913   1.120  12.379  0.4893  0.6001  0.0574
 7632SOL    HW134358   3.864   1.175  12.319  3.4364  0.5406 -2.3943
 7632SOL    HW234359   3.848   1.065  12.422 -1.9053  2.3091 -1.3723
 7633SOL     OW34360   2.360   1.816   3.160 -0.4693 -0.1859 -0.0972
 7633SOL    HW134361   2.408   1.873   3.220  0.8425 -1.3774 -0.0086
 7633SOL    HW234362   2.300   1.876   3.116 -1.2110 -1.4947 -0.8636
 7634SOL     OW34363   1.125   3.316   9.485  0.4419 -0.1377  0.5225
 7634SOL    HW134364   1.072   3.256   9.538 -2.2745 -0.6517 -2.7796
 7634SOL    HW234365   1.208   3.267   9.484  0.4462 -0.1304  0.5008
 7635SOL     OW34366   0.656   3.809   8.787 -0.0759 -0.1545 -0.4372
 7635SOL    HW134367   0.629   3.744   8.852  0.0452  1.6777  1.4470
 7635SOL    HW234368   0.585   3.803   8.724  0.1102  1.4353 -0.8084
 7636SOL     OW34369   4.088   1.349   3.840  0.2053  0.2346  0.3256
 7636SOL    HW134370   4.095   1.280   3.906 -0.6821  0.7533  0.9612
 7636SOL    HW234371   3.996   1.374   3.836  0.5676  1.7372  1.0348
 7637SOL     OW34372   3.949   1.069   2.098  0.0302 -0.0773  0.0189
 7637SOL    HW134373   3.860   1.101   2.110  0.5887  1.3391  0.3353
 7637SOL    HW234374   3.978   1.067   2.189  0.1894 -4.3622 -0.0877
 7638SOL     OW34375   0.115   3.420   1.581 -0.1565 -0.1228  0.5599
 7638SOL    HW134376   0.132   3.352   1.646 -3.1934 -1.0857  0.3344
 7638SOL    HW234377   0.116   3.490   1.646  0.7484  1.3739 -1.0694
 7639SOL     OW34378   3.469   4.566   2.889 -0.6224 -1.1178 -0.0234
 7639SOL    HW134379   3.537   4.588   2.953  0.2938 -1.3320 -0.9187
 7639SOL    HW234380   3.401   4.632   2.899  0.8227 -0.2129  3.8791
 7640SOL     OW34381   2.810   2.295   2.371  0.8269 -0.4288 -0.1537
 7640SOL    HW134382   2.765   2.215   2.397  1.0717 -0.5954 -0.2428
 7640SOL    HW234383   2.900   2.268   2.350  1.3703 -0.6177  2.3952
 7641SOL     OW34384   0.345   0.636   2.233  0.3128 -0.2630 -0.3408
 7641SOL    HW134385   0.416   0.629   2.168  1.5059 -0.9817  1.0560
 7641SOL    HW234386   0.364   0.566   2.296  1.9157  0.7741  0.3132
 7642SOL     OW34387   3.601   0.169   4.143  0.1560  0.1304  0.3407
 7642SOL    HW134388   3.602   0.079   4.111 -1.9509  0.4590 -0.6735
 7642SOL    HW234389   3.577   0.161   4.236 -1.0993 -1.3886 -0.1016
 7643SOL     OW34390   0.212   3.582  15.718 -0.9177 -0.0135 -0.0109
 7643SOL    HW134391   0.181   3.492  15.718  0.7094 -0.5824 -1.4041
 7643SOL    HW234392   0.282   3.558  15.778 -0.3411  1.8667  0.0809
 7644SOL     OW34393   2.008   1.267   2.050  0.0589  0.5685 -0.1837
 7644SOL    HW134394   2.032   1.180   2.019 -3.1657 -0.1356 -0.7085
 7644SOL    HW234395   1.979   1.246   2.139 -0.3338 -1.7784 -0.8482
 7645SOL     OW34396   2.336   0.751   8.023  0.4735 -0.0421  0.4333
 7645SOL    HW134397   2.286   0.807   8.082 -2.7162 -0.3201 -2.0008
 7645SOL    HW234398   2.273   0.687   7.990  0.4616 -0.0445  0.4613
 7646SOL     OW34399   1.614   3.341   3.390 -0.2532  0.7943  0.1639
 7646SOL    HW134400   1.636   3.264   3.338 -0.1488  0.9346 -0.0023
 7646SOL    HW234401   1.698   3.362   3.430 -0.1214 -0.4432  0.5165
 7647SOL     OW34402   0.462   1.149  16.157  0.4203  0.1797  1.1129
 7647SOL    HW134403   0.511   1.231  16.160  1.0692 -0.2183  1.5676
 7647SOL    HW234404   0.482   1.105  16.240  0.0738 -2.3092 -0.1135
 7648SOL     OW34405   3.445   1.270   2.949 -0.5146  0.7370  0.1039
 7648SOL    HW134406   3.530   1.268   2.905 -1.8662 -0.7878 -2.3909
 7648SOL    HW234407   3.446   1.354   2.995  1.1253  0.5806  0.3462
 7649SOL     OW34408   1.045   3.320   3.855  0.0536  0.1887  0.0489
 7649SOL    HW134409   1.116   3.275   3.810 -1.4924 -3.8957  1.7384
 7649SOL    HW234410   1.034   3.268   3.934  2.9552 -1.0177 -0.3277
 7650SOL     OW34411   2.843   2.974   6.610  0.5394  0.8785  0.2226
 7650SOL    HW134412   2.828   2.880   6.594  0.6279  0.6815  1.2823
 7650SOL    HW234413   2.870   2.992   6.520 -1.3733  1.5008 -0.2305
 7651SOL     OW34414   3.360   3.285  13.388 -0.4619  0.0626  0.3028
 7651SOL    HW134415   3.268   3.294  13.361 -0.3718 -3.3451 -1.1380
 7651SOL    HW234416   3.346   3.296  13.482  0.0083 -2.7972  0.7120
 7652SOL     OW34417   3.747   4.403   1.864  0.1062  0.1491  0.4483
 7652SOL    HW134418   3.839   4.404   1.838  0.0084 -0.1481  0.0937
 7652SOL    HW234419   3.746   4.332   1.929 -0.5767 -2.0181 -1.9308
 7653SOL     OW34420   1.352   0.384   3.744  0.2400  0.1364 -0.1189
 7653SOL    HW134421   1.342   0.380   3.649  1.6318  1.2255 -0.3087
 7653SOL    HW234422   1.432   0.437   3.747  0.0652  0.2677  2.0896
 7654SOL     OW34423   1.502   0.787  12.331  0.2577  0.0481 -0.0385
 7654SOL    HW134424   1.572   0.815  12.391  1.5747 -0.8691 -1.1551
 7654SOL    HW234425   1.428   0.778  12.390  1.6310  0.5682  1.7645
 7655SOL     OW34426   2.870   3.598   2.764 -1.0504  0.1718 -0.3341
 7655SOL    HW134427   2.842   3.652   2.837  2.4331 -0.0063  1.1544
 7655SOL    HW234428   2.814   3.629   2.692 -0.2139 -0.0190 -1.0676
 7656SOL     OW34429   4.008   1.800  12.076  0.4392  0.1169  0.5799
 7656SOL    HW134430   3.988   1.893  12.071 -1.3722 -0.3506 -1.0202
 7656SOL    HW234431   4.045   1.780  11.990 -3.0292  0.7164 -1.0950
 7657SOL     OW34432   4.102   3.343   2.195 -0.5850 -0.3216 -0.3643
 7657SOL    HW134433   4.101   3.358   2.290 -1.2282 -2.5003 -0.0212
 7657SOL    HW234434   4.076   3.251   2.185  1.8629 -1.0025 -0.4699
 7658SOL     OW34435   2.555   1.569   7.653 -0.3396 -0.0273  0.2160
 7658SOL    HW134436   2.518   1.483   7.670  0.5718 -0.1305  1.6365
 7658SOL    HW234437   2.493   1.618   7.707 -0.7138 -0.2423 -0.0174
 7659SOL     OW34438   3.381   1.903   6.779  0.0996  0.0749 -0.1117
 7659SOL    HW134439   3.420   1.984   6.746 -0.8985  0.3452 -0.6230
 7659SOL    HW234440   3.294   1.935   6.802 -1.0448 -1.7506 -1.8721
 7660SOL     OW34441   4.006   3.147   3.687 -0.2779 -0.7442 -0.1988
 7660SOL    HW134442   4.029   3.209   3.757  3.7947 -1.1019 -1.2234
 7660SOL    HW234443   3.921   3.178   3.656 -0.1800  0.2920  0.5716
 7661SOL     OW34444   4.074   4.254  16.757  0.0243  0.3247 -0.1775
 7661SOL    HW134445   4.020   4.303  16.819  1.5737  1.9227 -0.0986
 7661SOL    HW234446   4.114   4.184  16.808  0.6512  0.0554 -1.0388
 7662SOL     OW34447   0.934   1.009   1.955  0.0947  0.2186  0.0974
 7662SOL    HW134448   0.897   0.984   1.871  1.5754  0.0151 -0.4855
 7662SOL    HW234449   0.960   1.098   1.933 -1.0819 -0.0968 -2.4686
 7663SOL     OW34450   4.338   3.202   7.417 -0.0647  0.4211  0.0951
 7663SOL    HW134451   4.304   3.119   7.449  1.1442  0.1322  0.6458
 7663SOL    HW234452   4.370   3.255   7.491  0.0014 -0.0155  0.3771
 7664SOL     OW34453   3.959   0.147   8.422  0.3357 -0.2528 -0.0771
 7664SOL    HW134454   3.919   0.081   8.479  0.7636  0.5385  1.1354
 7664SOL    HW234455   4.020   0.094   8.370 -2.3029 -2.6310 -0.7895
 7665SOL     OW34456   0.750   1.769   2.806  0.5283 -0.0769 -0.2696
 7665SOL    HW134457   0.790   1.722   2.733 -1.1591  0.8747 -1.7933
 7665SOL    HW234458   0.810   1.757   2.880  2.0146  0.6232 -1.3809
 7666SOL     OW34459   1.605   3.756   0.476  0.1637  0.0568  0.3229
 7666SOL    HW134460   1.672   3.773   0.542  0.3372 -0.1745  0.2072
 7666SOL    HW234461   1.538   3.708   0.524  0.5181 -1.2735 -0.5183
 7667SOL     OW34462   1.657   3.800   8.149 -0.5213  0.0335 -0.2256
 7667SOL    HW134463   1.674   3.711   8.180 -1.1942 -0.1633 -0.4242
 7667SOL    HW234464   1.562   3.788   8.152 -0.4729 -0.2652  0.0456
 7668SOL     OW34465   1.139   0.159   4.954 -0.1954 -0.4479  0.4646
 7668SOL    HW134466   1.229   0.128   4.940 -1.1287 -1.6184 -3.0054
 7668SOL    HW234467   1.096   0.114   4.881 -0.9487 -0.7510  1.0996
 7669SOL     OW34468   3.466   1.770   1.841  0.1169  0.5813 -0.0156
 7669SOL    HW134469   3.536   1.833   1.861  1.3094 -0.1741 -1.8244
 7669SOL    HW234470   3.418   1.817   1.772  1.4873  0.8470 -0.8034
 7670SOL     OW34471   0.381   4.420  14.005  0.2307  0.2642 -0.4222
 7670SOL    HW134472   0.475   4.438  14.002 -0.0916  1.9541 -0.8145
 7670SOL    HW234473   0.339   4.480  13.943  0.0502  1.4805  0.8745
 7671SOL     OW34474   4.510   2.444  16.634  0.4950 -0.3080  0.1340
 7671SOL    HW134475   4.541   2.502  16.703  0.2990 -0.3386  0.2488
 7671SOL    HW234476   4.457   2.378  16.679  0.4643 -1.2724 -1.2973
 7672SOL     OW34477   2.051   0.609   4.163 -0.2940 -0.3702 -0.6690
 7672SOL    HW134478   2.023   0.530   4.209 -1.1810  0.3241 -0.0014
 7672SOL    HW234479   1.963   0.636   4.137 -0.3913  0.7474  0.8253
 7673SOL     OW34480   0.972   2.867   9.161 -0.3604  0.3602 -0.2588
 7673SOL    HW134481   1.056   2.913   9.165 -0.7024  0.9228  0.4867
 7673SOL    HW234482   0.965   2.811   9.084 -0.9798 -0.2759  0.2649
 7674SOL     OW34483   0.521   0.983  17.555 -0.1542  0.1618  0.1747
 7674SOL    HW134484   0.608   1.011  17.528 -0.5107  1.5657  0.5186
 7674SOL    HW234485   0.542   0.895  17.587 -1.7518 -0.2102  0.1996
 7675SOL     OW34486   1.582   2.037   8.257  0.2067 -0.1417 -0.4566
 7675SOL    HW134487   1.658   1.992   8.294  1.3750  0.1025 -2.6107
 7675SOL    HW234488   1.617   2.100   8.194  1.2632  1.5933  1.8731
 7676SOL     OW34489   4.199   4.093   3.435 -0.2381  0.0657  0.1592
 7676SOL    HW134490   4.225   4.163   3.494  0.1939 -0.9017  1.1150
 7676SOL    HW234491   4.111   4.119   3.407  0.0417  1.1421  0.2788
 7677SOL     OW34492   2.106   3.770   7.554 -0.3042 -0.3193  0.1601
 7677SOL    HW134493   2.119   3.820   7.635 -0.3188  2.0229 -1.2901
 7677SOL    HW234494   2.033   3.806   7.505 -1.7086 -1.2513  1.5542
 7678SOL     OW34495   0.638   2.988   1.956 -0.8092 -0.2375  0.6886
 7678SOL    HW134496   0.676   2.903   1.931  1.1875  1.5143 -2.1705
 7678SOL    HW234497   0.595   2.954   2.035  1.8517 -1.1370  1.7789
 7679SOL     OW34498   0.542   1.822   5.244 -0.3284 -0.1519 -0.0227
 7679SOL    HW134499   0.481   1.894   5.227  0.8483  0.9525  0.4771
 7679SOL    HW234500   0.482   1.747   5.255  2.1264 -1.6938  2.7456
 7680SOL     OW34501   2.668   4.370  15.318  0.0244  0.0180  0.0340
 7680SOL    HW134502   2.723   4.380  15.241 -0.5759 -2.6871 -0.7422
 7680SOL    HW234503   2.639   4.280  15.300  3.2412 -0.4817 -2.6673
 7681SOL     OW34504   2.484   4.446  10.369 -0.4608 -0.4812 -0.2668
 7681SOL    HW134505   2.397   4.453  10.331 -0.9471  1.5278  1.2087
 7681SOL    HW234506   2.468   4.502  10.446 -0.4562  1.0167 -1.3615
 7682SOL     OW34507   2.906   2.078   4.554 -0.7111  0.7103  0.3501
 7682SOL    HW134508   2.836   2.136   4.522 -0.9091  0.8740  1.0801
 7682SOL    HW234509   2.880   1.999   4.507  0.1702 -0.3626  1.6820
 7683SOL     OW34510   1.653   2.406   9.113 -0.1933 -0.3165 -0.4361
 7683SOL    HW134511   1.649   2.454   9.195 -2.4929 -0.9634 -0.1601
 7683SOL    HW234512   1.709   2.336   9.147  1.5684  2.0398  1.5224
 7684SOL     OW34513   4.573   1.314  12.583 -0.2028  1.0102 -0.0627
 7684SOL    HW134514   4.484   1.291  12.609  0.0347  2.5756  2.1957
 7684SOL    HW234515   4.625   1.235  12.600 -1.1234  0.6771  1.1953
 7685SOL     OW34516   2.495   0.656  14.366 -0.0598  0.4870  0.6193
 7685SOL    HW134517   2.484   0.638  14.273 -0.6061 -1.7724  1.1282
 7685SOL    HW234518   2.409   0.629  14.398 -0.6694 -0.2913 -1.7061
 7686SOL     OW34519   1.685   3.841   8.482  0.0537 -0.1945  0.5615
 7686SOL    HW134520   1.589   3.846   8.480  0.1466  1.2598 -0.4914
 7686SOL    HW234521   1.695   3.769   8.419 -0.9104  0.3071 -0.1772
 7687SOL     OW34522   3.827   2.883   0.755  0.8707  0.1575 -0.1710
 7687SOL    HW134523   3.845   2.895   0.661 -0.8189 -1.9866 -0.7629
 7687SOL    HW234524   3.771   2.959   0.770  0.8381  0.5023 -2.0555
 7688SOL     OW34525   4.453   2.330  15.219  0.0693  0.5990  0.7636
 7688SOL    HW134526   4.478   2.422  15.219  3.1768 -0.2373 -0.0623
 7688SOL    HW234527   4.370   2.341  15.172  1.0557  1.7213 -0.7259
 7689SOL     OW34528   3.361   2.234   8.990  0.7577  0.3796  0.0689
 7689SOL    HW134529   3.282   2.206   8.944  1.1843 -0.1833 -0.3326
 7689SOL    HW234530   3.404   2.149   9.003  2.2216  0.9815 -0.7691
 7690SOL     OW34531   1.999   3.255   7.473 -0.5368  0.0251  0.3377
 7690SOL    HW134532   1.972   3.246   7.381  0.9068  3.2900 -0.3756
 7690SOL    HW234533   1.915   3.282   7.509 -0.9324 -0.1558 -0.4438
 7691SOL     OW34534   2.607   0.356   7.594 -0.4797  0.4559  0.0144
 7691SOL    HW134535   2.636   0.385   7.508  0.0693  1.2669  0.4854
 7691SOL    HW234536   2.682   0.384   7.646 -0.3871  0.9704 -0.4041
 7692SOL     OW34537   0.397   2.840  16.065  0.3082 -0.2173 -0.3813
 7692SOL    HW134538   0.491   2.836  16.047  0.1305 -3.9803 -0.5008
 7692SOL    HW234539   0.360   2.873  15.984 -0.3086  0.5273  0.2014
 7693SOL     OW34540   1.514   4.059  13.329  0.3558  0.1027 -0.1261
 7693SOL    HW134541   1.565   4.107  13.395  0.5791 -0.1433 -0.1215
 7693SOL    HW234542   1.507   4.123  13.259 -3.4116  0.3770  0.5245
 7694SOL     OW34543   3.187   3.004   7.752 -0.4790  0.1083 -0.1294
 7694SOL    HW134544   3.205   3.095   7.776  0.0425 -0.1390  0.4272
 7694SOL    HW234545   3.092   3.010   7.746 -0.6891 -0.0557  3.0735
 7695SOL     OW34546   3.502   0.147  12.437  0.6190  0.4765 -0.2288
 7695SOL    HW134547   3.542   0.194  12.510 -2.6602  1.3634  0.9976
 7695SOL    HW234548   3.574   0.089  12.410  1.8357  0.3491  3.3706
 7696SOL     OW34549   4.617   0.698   5.263  0.1718  0.5396 -0.0618
 7696SOL    HW134550   4.673   0.712   5.186 -0.8640  0.2551 -0.8762
 7696SOL    HW234551   4.616   0.603   5.269 -0.6170  0.3241 -3.4176
 7697SOL     OW34552   4.518   4.027   5.902  0.7270  0.1142  0.1525
 7697SOL    HW134553   4.507   4.055   5.992 -0.7849  0.7326 -0.2183
 7697SOL    HW234554   4.498   3.934   5.912  1.0524  0.0008 -0.2679
 7698SOL     OW34555   1.750   2.085   3.214  0.7324 -0.4661  0.2876
 7698SOL    HW134556   1.805   2.102   3.291  0.0738 -2.2260  1.1530
 7698SOL    HW234557   1.672   2.100   3.267 -2.0674 -1.4804 -3.5644
 7699SOL     OW34558   1.561   3.592  11.488  0.0119  0.0693 -1.2748
 7699SOL    HW134559   1.596   3.681  11.483 -0.0852  0.0601 -2.1366
 7699SOL    HW234560   1.614   3.547  11.553 -3.6297 -1.6580  0.5142
 7700SOL     OW34561   1.462   0.671   3.569 -0.3965  0.6042 -0.1718
 7700SOL    HW134562   1.434   0.630   3.488 -1.1998  1.2571 -0.2164
 7700SOL    HW234563   1.430   0.761   3.563  0.6396  0.9103 -1.1691
 7701SOL     OW34564   4.335   3.825   0.619  0.3709  0.3490  0.7526
 7701SOL    HW134565   4.264   3.769   0.589  1.6656  1.1069 -3.7590
 7701SOL    HW234566   4.290   3.894   0.669 -0.4345  0.5671 -0.2467
 7702SOL     OW34567   4.482   2.332   4.856  0.8780 -0.0630  0.0609
 7702SOL    HW134568   4.437   2.387   4.792 -1.6931 -1.7254  0.4307
 7702SOL    HW234569   4.409   2.284   4.895 -0.8766  3.0010  0.5169
 7703SOL     OW34570   4.226   2.219   3.718 -1.0102 -0.0273  0.6402
 7703SOL    HW134571   4.258   2.189   3.803  0.7153 -1.0489 -0.3630
 7703SOL    HW234572   4.303   2.271   3.694 -1.0584  0.1405  0.8505
 7704SOL     OW34573   0.208   2.569  10.932  0.5434  0.0461  0.1749
 7704SOL    HW134574   0.214   2.478  10.962 -3.2435 -0.5195 -0.8108
 7704SOL    HW234575   0.216   2.569  10.837 -0.0471 -1.1838  0.1250
 7705SOL     OW34576   0.549   0.406  16.075  0.1150  0.2835 -0.1512
 7705SOL    HW134577   0.598   0.427  15.996  2.7284 -1.0994  1.1202
 7705SOL    HW234578   0.621   0.365  16.123 -0.1752  2.0591  1.8101
 7706SOL     OW34579   2.156   3.929   6.825 -0.3178 -0.4998 -0.1710
 7706SOL    HW134580   2.237   3.936   6.774 -1.3164  0.1061 -1.6674
 7706SOL    HW234581   2.147   4.011   6.874 -0.4230 -1.9587  2.2250
 7707SOL     OW34582   0.954   3.767   6.492 -0.1355  0.2267  0.4917
 7707SOL    HW134583   0.864   3.735   6.488 -1.1628  2.7920  2.9459
 7707SOL    HW234584   0.953   3.813   6.408  2.7611 -0.6518 -0.0374
 7708SOL     OW34585   1.351   3.668   5.742 -0.3118 -0.1639  0.0350
 7708SOL    HW134586   1.378   3.759   5.758 -1.6676  0.1282  0.7009
 7708SOL    HW234587   1.281   3.690   5.680 -0.1964 -0.1883 -0.1023
 7709SOL     OW34588   4.271   1.875   5.357  0.0628 -0.4048  0.4467
 7709SOL    HW134589   4.325   1.796   5.350 -0.0428 -0.5519  1.2329
 7709SOL    HW234590   4.211   1.841   5.424  0.5661 -0.0496  1.0746
 7710SOL     OW34591   4.370   0.379   2.069 -0.3043  0.3216  0.0014
 7710SOL    HW134592   4.300   0.400   2.008 -1.3850  0.6531  1.3487
 7710SOL    HW234593   4.448   0.417   2.029  0.0394 -1.8590 -1.4067
 7711SOL     OW34594   3.134   1.410   2.389 -0.0810  1.4437 -0.0249
 7711SOL    HW134595   3.065   1.344   2.394 -0.9741  2.2694 -1.3804
 7711SOL    HW234596   3.097   1.482   2.440 -1.1854  0.0266  1.1749
 7712SOL     OW34597   3.683   1.964   6.631  0.0981 -0.0301  0.9109
 7712SOL    HW134598   3.771   1.971   6.593 -1.0700 -0.8712 -1.9441
 7712SOL    HW234599   3.652   1.879   6.599  2.7719 -0.5713 -0.2110
 7713SOL     OW34600   0.150   0.178   4.599  0.0242 -0.1322 -0.0231
 7713SOL    HW134601   0.153   0.109   4.532  1.6494  1.1075 -1.2220
 7713SOL    HW234602   0.114   0.253   4.553 -1.3150 -0.1500  0.9907
 7714SOL     OW34603   1.146   1.489   1.134  0.0657 -0.0951  0.3929
 7714SOL    HW134604   1.176   1.571   1.095  2.4481 -1.0333  0.2717
 7714SOL    HW234605   1.161   1.433   1.058 -0.8989  1.2223 -0.7724
 7715SOL     OW34606   1.765   1.304   0.289 -0.8639  0.2096  0.3656
 7715SOL    HW134607   1.835   1.246   0.321 -0.4705 -0.2653 -1.3221
 7715SOL    HW234608   1.764   1.272   0.199  1.2103 -1.7009  0.9989
 7716SOL     OW34609   0.537   0.211   2.342 -0.1067 -0.5606  0.8178
 7716SOL    HW134610   0.460   0.167   2.378 -1.9405  1.7442 -0.2513
 7716SOL    HW234611   0.576   0.146   2.283 -1.3332 -0.5083 -0.0516
 7717SOL     OW34612   3.357   2.186   7.772  0.4465 -0.1865  0.0745
 7717SOL    HW134613   3.284   2.248   7.773  0.6274  0.0102  0.8807
 7717SOL    HW234614   3.324   2.124   7.707 -0.1698 -1.2077  1.3911
 7718SOL     OW34615   1.473   1.468   0.738  0.1375  0.2113  0.0463
 7718SOL    HW134616   1.421   1.409   0.683  0.4372 -0.0330  0.0263
 7718SOL    HW234617   1.460   1.552   0.694 -0.4684  0.7172  1.2151
 7719SOL     OW34618   1.556   0.768   4.361  0.4838  0.1947 -0.7376
 7719SOL    HW134619   1.498   0.725   4.423  1.3840 -0.4747 -0.3526
 7719SOL    HW234620   1.511   0.744   4.280  0.7666  1.6760 -1.3312
 7720SOL     OW34621   4.064   1.196  16.673  0.0962 -0.1020 -0.3933
 7720SOL    HW134622   3.988   1.252  16.657 -0.3854 -0.7100 -0.2260
 7720SOL    HW234623   4.022   1.138  16.737  0.2598  0.7861  0.5299
 7721SOL     OW34624   0.703   3.654   3.340  0.4805  0.2509 -0.0766
 7721SOL    HW134625   0.771   3.722   3.343  1.8807 -1.1660  0.7913
 7721SOL    HW234626   0.661   3.682   3.259 -2.1736  0.1459  1.2829
 7722SOL     OW34627   3.797   1.382  10.748  0.3569 -0.5604  0.2051
 7722SOL    HW134628   3.707   1.404  10.727  0.5924  1.6163  1.4411
 7722SOL    HW234629   3.838   1.409  10.666 -0.2877  1.3597  0.4982
 7723SOL     OW34630   4.660   1.211   1.479  0.1364 -0.3761  0.3812
 7723SOL    HW134631   0.031   1.226   1.470 -0.8448  4.2766 -1.7541
 7723SOL    HW234632   4.629   1.279   1.539 -1.3411 -0.6574 -0.0854
 7724SOL     OW34633   1.854   3.521   3.897 -0.2546 -0.3960  0.4210
 7724SOL    HW134634   1.909   3.519   3.818  0.9617  1.0173  1.2274
 7724SOL    HW234635   1.889   3.595   3.945  1.3712  0.6263 -2.3745
 7725SOL     OW34636   3.733   3.451  10.891 -0.1816  0.4240  0.0562
 7725SOL    HW134637   3.754   3.515  10.959  0.0142  2.8391 -2.2998
 7725SOL    HW234638   3.642   3.477  10.874 -0.0724  0.7826  0.0246
 7726SOL     OW34639   4.570   2.072   6.526 -0.0586  0.0774 -0.6393
 7726SOL    HW134640   4.527   1.987   6.536  0.2475  0.2226  1.8302
 7726SOL    HW234641   4.492   2.128   6.524  0.3314  0.7007  1.3860
 7727SOL     OW34642   3.979   0.143   7.801 -0.4830 -0.0018 -0.3432
 7727SOL    HW134643   3.953   0.145   7.893 -1.1879  0.9489 -0.5621
 7727SOL    HW234644   3.977   0.237   7.784  1.0461  0.1567  0.3791
 7728SOL     OW34645   1.381   1.931   6.957 -0.7560 -0.5768 -0.4529
 7728SOL    HW134646   1.382   1.876   6.879 -0.0602 -1.9792  0.5701
 7728SOL    HW234647   1.346   1.873   7.024  0.9906 -1.0329  0.0544
 7729SOL     OW34648   4.328   0.920   7.620  0.3526  0.1038 -0.5951
 7729SOL    HW134649   4.310   0.847   7.679 -0.2092  0.3078 -0.5132
 7729SOL    HW234650   4.406   0.949   7.667 -0.6054  0.2106  0.9367
 7730SOL     OW34651   0.624   3.550  12.187  0.1534  0.3294 -0.2936
 7730SOL    HW134652   0.590   3.486  12.249 -0.2204  1.2049  0.3950
 7730SOL    HW234653   0.640   3.624  12.246 -2.3525  1.3145 -0.8812
 7731SOL     OW34654   3.685   3.094   0.793  0.0797  0.1548  0.2550
 7731SOL    HW134655   3.686   3.112   0.887  0.1948  4.0195 -0.4566
 7731SOL    HW234656   3.598   3.056   0.781  0.8067 -1.1096 -0.9921
 7732SOL     OW34657   2.468   3.700   3.818 -0.6418 -0.1965  0.4937
 7732SOL    HW134658   2.551   3.709   3.865 -1.0494  3.0848  0.5978
 7732SOL    HW234659   2.409   3.720   3.890 -1.4822  0.0411 -0.2632
 7733SOL     OW34660   3.252   1.775   2.171 -0.7564 -0.2249  0.3291
 7733SOL    HW134661   3.226   1.784   2.079 -0.9699 -2.3051  0.2054
 7733SOL    HW234662   3.287   1.686   2.168  1.6610  0.7205  0.7196
 7734SOL     OW34663   3.894   2.729   6.038 -0.1802  0.2134 -0.3178
 7734SOL    HW134664   3.890   2.794   6.109  0.7316  1.1815 -1.1414
 7734SOL    HW234665   3.873   2.787   5.965 -0.6489 -0.4190 -0.6873
 7735SOL     OW34666   3.788   2.419   2.880 -0.6689  0.0725 -0.2027
 7735SOL    HW134667   3.881   2.415   2.903 -0.6767  1.8593  0.0792
 7735SOL    HW234668   3.802   2.429   2.786 -0.2530  1.4681  0.0173
 7736SOL     OW34669   3.892   2.785   1.191  0.0635  0.2055 -0.0365
 7736SOL    HW134670   3.941   2.723   1.137 -0.3757  0.0483 -0.2472
 7736SOL    HW234671   3.878   2.739   1.274  0.3507  1.7725  0.8884
 7737SOL     OW34672   3.071   1.788   1.554 -0.0626  0.0404  0.5287
 7737SOL    HW134673   3.097   1.759   1.466 -0.8018 -0.9493  0.6331
 7737SOL    HW234674   3.077   1.712   1.613 -1.3961 -1.3348 -1.0869
 7738SOL     OW34675   1.524   1.110   8.748  0.2206  0.2206  0.3912
 7738SOL    HW134676   1.543   1.053   8.823  0.8198  0.3335  0.3251
 7738SOL    HW234677   1.462   1.053   8.704 -1.3043  1.0378  1.4966
 7739SOL     OW34678   3.093   4.043  10.597 -0.1013  0.4234 -0.2894
 7739SOL    HW134679   3.038   4.103  10.546 -1.3865 -0.8927 -0.4659
 7739SOL    HW234680   3.058   3.962  10.558  0.5698 -1.2357  2.5657
 7740SOL     OW34681   4.349   2.089   2.247 -0.6388 -1.0796  0.0460
 7740SOL    HW134682   4.436   2.108   2.283 -1.5592  0.1781  1.5609
 7740SOL    HW234683   4.362   2.104   2.153 -1.4667  1.5092  0.3498
 7741SOL     OW34684   3.850   3.849   3.184  0.1699 -0.5562 -0.4003
 7741SOL    HW134685   3.850   3.768   3.131 -0.0966 -0.2011 -0.9463
 7741SOL    HW234686   3.933   3.829   3.227 -0.9355  0.2778  2.0723
 7742SOL     OW34687   1.800   0.079   5.787  0.0189  0.1738  0.0413
 7742SOL    HW134688   1.863   0.059   5.857  0.5494  1.3621 -0.0974
 7742SOL    HW234689   1.801   0.174   5.777 -1.8896 -0.0310 -2.0343
 7743SOL     OW34690   3.195   3.671   7.918  0.2311 -0.3332 -0.0429
 7743SOL    HW134691   3.105   3.688   7.947  0.2357  3.3556 -2.2229
 7743SOL    HW234692   3.239   3.717   7.990  0.7979  1.2762 -1.4325
 7744SOL     OW34693   2.301   2.656  16.090  0.3022  0.1015 -0.0897
 7744SOL    HW134694   2.329   2.668  16.180 -1.3084 -2.3115  0.7555
 7744SOL    HW234695   2.314   2.740  16.047  0.3263 -0.1015 -0.4863
 7745SOL     OW34696   2.846   4.705  11.319  0.2477 -0.4619 -0.3020
 7745SOL    HW134697   2.922   0.039  11.318  1.0453 -1.5613 -2.8392
 7745SOL    HW234698   2.849   4.673  11.409  0.0137  0.5428  0.0621
 7746SOL     OW34699   0.737   3.226   3.201 -0.0663  0.3719 -0.1394
 7746SOL    HW134700   0.767   3.151   3.253 -2.2327 -0.0836  0.4478
 7746SOL    HW234701   0.647   3.234   3.232  0.7947  1.9845  2.0148
 7747SOL     OW34702   4.107   3.009   3.461  0.7098  0.3050 -0.5897
 7747SOL    HW134703   4.073   3.019   3.549  0.7576  1.5336 -0.7119
 7747SOL    HW234704   4.174   3.076   3.476 -2.1956  2.3146  3.2755
 7748SOL     OW34705   3.776   1.060   1.423 -0.3857  0.6344 -0.0584
 7748SOL    HW134706   3.707   1.124   1.409 -0.8776  0.9136  3.6965
 7748SOL    HW234707   3.811   1.076   1.510  3.5347  0.3840 -1.5516
 7749SOL     OW34708   1.834   2.774   2.391  0.0068  0.6555  0.5705
 7749SOL    HW134709   1.869   2.829   2.461 -0.3518  1.1021  0.3996
 7749SOL    HW234710   1.874   2.687   2.400  0.3929  0.7136 -0.5183
 7750SOL     OW34711   1.562   3.513   4.082 -0.0973  0.1819  0.4161
 7750SOL    HW134712   1.501   3.452   4.124 -1.9635  1.3868 -0.5619
 7750SOL    HW234713   1.629   3.525   4.150  0.5836  0.1528 -0.2505
 7751SOL     OW34714   1.234   2.199   6.360 -0.1881  0.0574 -0.8040
 7751SOL    HW134715   1.245   2.285   6.399  1.9745  0.5629 -2.5185
 7751SOL    HW234716   1.138   2.189   6.359 -0.1818  0.0577 -2.7613
 7752SOL     OW34717   1.018   1.451   6.915 -0.1057  0.4375 -0.3044
 7752SOL    HW134718   1.053   1.419   6.832 -1.4123 -1.9012  0.0521
 7752SOL    HW234719   0.987   1.530   6.872  0.4560 -0.9240 -3.2010
 7753SOL     OW34720   1.974   3.033   1.493 -0.3754 -0.0286 -0.0557
 7753SOL    HW134721   2.043   3.098   1.488  0.8383 -1.0806  2.9371
 7753SOL    HW234722   1.922   3.044   1.414  0.8800 -1.6546 -1.0958
 7754SOL     OW34723   3.986   2.621  13.352 -0.1833  0.5239 -0.0378
 7754SOL    HW134724   3.920   2.579  13.296 -0.7630 -1.1269  1.8953
 7754SOL    HW234725   3.929   2.677  13.405 -1.9458 -2.4384  1.2028
 7755SOL     OW34726   0.180   0.441   3.493 -0.5375  0.5775 -0.0870
 7755SOL    HW134727   0.234   0.454   3.571 -0.3761  0.4727 -0.1795
 7755SOL    HW234728   0.199   0.524   3.449 -2.4411  1.5742  1.0128
 7756SOL     OW34729   4.144   0.468   1.890  0.2226  0.3686 -0.2433
 7756SOL    HW134730   4.152   0.471   1.795 -0.3082  1.8468 -0.2347
 7756SOL    HW234731   4.057   0.430   1.903 -0.0117 -0.1806 -3.3598
 7757SOL     OW34732   0.314   1.158  13.727 -0.4571  0.0382  0.7303
 7757SOL    HW134733   0.320   1.102  13.650 -2.8853 -0.4945  0.9301
 7757SOL    HW234734   0.308   1.247  13.693  0.8214  0.3590  1.3324
 7758SOL     OW34735   2.531   0.802   6.962  0.2135 -0.3766  0.3315
 7758SOL    HW134736   2.603   0.817   7.024  0.1936  1.0626  0.0200
 7758SOL    HW234737   2.495   0.729   7.012 -1.3358 -1.6909 -2.7050
 7759SOL     OW34738   0.121   2.306   8.574  0.1754 -0.0642 -0.3082
 7759SOL    HW134739   0.067   2.242   8.529  0.1409  0.7754 -1.4673
 7759SOL    HW234740   0.176   2.259   8.636 -1.1034 -0.7978  0.2671
 7760SOL     OW34741   3.778   1.404  16.980  0.2749 -1.3589 -0.0514
 7760SOL    HW134742   3.742   1.379  16.895 -1.3008 -0.6243  0.4158
 7760SOL    HW234743   3.815   1.318  17.003 -0.7495 -2.2319 -1.6671
 7761SOL     OW34744   3.071   1.807   5.165 -0.2501  0.1113  0.3256
 7761SOL    HW134745   3.042   1.736   5.223  1.7419 -0.2967  0.8490
 7761SOL    HW234746   2.988   1.834   5.127 -1.1853 -1.5320  1.1725
 7762SOL     OW34747   2.212   3.031   2.523  0.3768 -0.8185 -0.0229
 7762SOL    HW134748   2.140   2.969   2.532 -1.1134  0.9867  0.6883
 7762SOL    HW234749   2.245   3.037   2.613  0.5598  0.3279 -0.1597
 7763SOL     OW34750   0.085   3.184   6.485 -0.7047 -0.3842 -0.1595
 7763SOL    HW134751   0.065   3.120   6.417  1.5249 -1.8397  0.5696
 7763SOL    HW234752   0.131   3.135   6.554 -1.4359 -0.8313  0.0139
 7764SOL     OW34753   1.966   1.945   4.290  0.1077 -0.0313  0.3399
 7764SOL    HW134754   2.012   1.922   4.370  0.9112  2.7615  0.7016
 7764SOL    HW234755   2.011   1.892   4.224  0.7856  1.1672 -0.1743
 7765SOL     OW34756   3.028   2.632   1.357 -0.5555  0.0486  0.8482
 7765SOL    HW134757   3.122   2.626   1.368 -0.4552  0.5099  0.2363
 7765SOL    HW234758   3.003   2.546   1.325 -2.2468  1.3454 -1.3563
 7766SOL     OW34759   0.097   1.086   3.220  0.4580  0.2957 -0.4380
 7766SOL    HW134760   0.049   1.034   3.155  1.8099  0.3307 -1.4544
 7766SOL    HW234761   0.170   1.107   3.161  1.0990 -0.6981  0.0136
 7767SOL     OW34762   4.073   3.283   9.443 -0.3818 -0.0740  0.1360
 7767SOL    HW134763   4.044   3.374   9.443 -0.3625 -0.0686 -1.0676
 7767SOL    HW234764   4.115   3.276   9.357 -0.7206 -0.2929 -0.0093
 7768SOL     OW34765   0.308   0.199   1.410 -0.2525  0.1395 -0.1332
 7768SOL    HW134766   0.220   0.213   1.377 -0.5188 -1.8434 -0.2629
 7768SOL    HW234767   0.291   0.148   1.489  0.0005  3.1099  1.8450
 7769SOL     OW34768   1.871   3.004   2.817 -0.2214  0.0591 -0.3460
 7769SOL    HW134769   1.875   2.953   2.898 -2.5552 -1.3953 -1.1549
 7769SOL    HW234770   1.787   3.047   2.833  0.1764  1.3016 -1.6154
 7770SOL     OW34771   3.149   1.336   8.186 -0.6616 -0.8013 -0.7413
 7770SOL    HW134772   3.076   1.397   8.193  0.6624  0.9062 -1.5626
 7770SOL    HW234773   3.172   1.320   8.277  0.7641 -3.0919 -1.4990
 7771SOL     OW34774   2.033   1.982   9.783 -0.3078  0.1509 -0.6830
 7771SOL    HW134775   2.013   2.028   9.865 -1.3148 -3.7102  1.2753
 7771SOL    HW234776   1.951   1.941   9.755 -1.7975  2.0135  0.9403
 7772SOL     OW34777   3.318   4.464   7.705 -0.0486  0.2734 -0.1827
 7772SOL    HW134778   3.406   4.452   7.670 -0.8632 -0.4921 -1.9348
 7772SOL    HW234779   3.300   4.382   7.751 -3.0230  1.5470  0.9594
 7773SOL     OW34780   1.777   4.149  15.871  0.3058 -0.4215  0.5329
 7773SOL    HW134781   1.755   4.220  15.812  0.1416  0.1004  1.2214
 7773SOL    HW234782   1.695   4.128  15.915 -0.3051  0.9914  0.0511
 7774SOL     OW34783   1.514   0.816   2.416 -0.4028 -0.4418  0.2467
 7774SOL    HW134784   1.447   0.879   2.443  0.1662  0.7960 -1.2356
 7774SOL    HW234785   1.504   0.744   2.479  0.1236  0.2920  1.1627
 7775SOL     OW34786   1.447   3.245  12.538 -0.7063 -0.6454  0.5283
 7775SOL    HW134787   1.475   3.335  12.527  0.4793 -1.2948 -1.8036
 7775SOL    HW234788   1.511   3.219  12.603  0.0128  2.2777  0.9469
 7776SOL     OW34789   2.931   0.818   5.088  0.5621  0.3864  0.0215
 7776SOL    HW134790   2.996   0.802   5.157  1.1093  0.0882 -0.5677
 7776SOL    HW234791   2.855   0.812   5.145 -1.2894 -0.1261 -2.5154
 7777SOL     OW34792   1.112   4.172   2.710  0.0455  0.0356 -0.1064
 7777SOL    HW134793   1.116   4.077   2.723 -1.5614  0.0431  0.4213
 7777SOL    HW234794   1.192   4.183   2.660 -0.0960 -0.9848 -0.5533
 7778SOL     OW34795   2.563   3.313  10.296  0.1691 -0.3687 -0.1819
 7778SOL    HW134796   2.647   3.313  10.250  0.6301 -1.8155  0.6727
 7778SOL    HW234797   2.581   3.377  10.365  0.9475 -0.2015 -0.5422
 7779SOL     OW34798   2.508   2.547   2.282 -0.5190  0.2275 -0.2678
 7779SOL    HW134799   2.477   2.626   2.327 -0.7140  0.2979 -0.5280
 7779SOL    HW234800   2.600   2.540   2.308  0.3543  2.1800 -2.8792
 7780SOL     OW34801   0.500   4.712   5.804 -0.4361 -0.4601 -0.1893
 7780SOL    HW134802   0.533   0.056   5.862 -0.8833  0.2042 -0.7177
 7780SOL    HW234803   0.421   0.032   5.773 -1.1901 -1.0839  0.8187
 7781SOL     OW34804   2.560   3.581   1.542  0.5202  0.9891 -0.0159
 7781SOL    HW134805   2.508   3.553   1.467  3.1787  0.6332 -1.7245
 7781SOL    HW234806   2.640   3.529   1.549 -0.9505 -1.2430  0.4368
 7782SOL     OW34807   2.782   2.505   8.958  0.0012  0.4400  0.6633
 7782SOL    HW134808   2.851   2.567   8.981 -0.5305  1.2746  0.0152
 7782SOL    HW234809   2.700   2.546   8.985 -1.9366 -1.5352 -2.1822
 7783SOL     OW34810   3.782   2.314   4.082  0.9196  0.4501 -0.3876
 7783SOL    HW134811   3.792   2.401   4.120  2.2111  1.0826 -2.1893
 7783SOL    HW234812   3.848   2.276   4.141  2.5662  0.7005 -2.0795
 7784SOL     OW34813   2.941   1.771   9.837 -0.3615 -0.0203  0.5961
 7784SOL    HW134814   2.876   1.703   9.822 -1.2403  0.9696 -0.0828
 7784SOL    HW234815   3.013   1.767   9.774 -0.1396  1.5147  0.7365
 7785SOL     OW34816   1.386   1.270   6.488  0.8809 -0.2110 -0.1461
 7785SOL    HW134817   1.459   1.301   6.541  0.5007  0.2894  0.0859
 7785SOL    HW234818   1.439   1.195   6.462  1.8252  0.2768  0.3647
 7786SOL     OW34819   3.531   2.831   1.289  0.2343  0.0844  0.1574
 7786SOL    HW134820   3.594   2.890   1.329  1.3528  0.1645 -1.7412
 7786SOL    HW234821   3.526   2.753   1.346 -1.5557 -0.0912 -0.2288
 7787SOL     OW34822   1.147   3.193   6.709 -0.0297  0.4413 -0.2832
 7787SOL    HW134823   1.197   3.154   6.637 -1.1351 -3.4219  1.0726
 7787SOL    HW234824   1.073   3.215   6.653 -0.5674 -2.1551 -0.5699
 7788SOL     OW34825   1.572   0.535  12.213 -0.3993 -0.0347 -0.0627
 7788SOL    HW134826   1.580   0.538  12.308  0.6586  1.1675 -0.1883
 7788SOL    HW234827   1.492   0.583  12.192  0.7548  1.5852 -0.8163
 7789SOL     OW34828   0.196   1.614   5.633 -0.4099 -0.2177 -0.1143
 7789SOL    HW134829   0.226   1.535   5.677  3.4674  1.5319  0.4044
 7789SOL    HW234830   0.107   1.600   5.601 -1.0201  4.2383 -0.4079
 7790SOL     OW34831   1.380   4.238   6.097  0.6910  0.2787 -0.1615
 7790SOL    HW134832   1.434   4.159   6.098  1.4363  0.8073  2.5761
 7790SOL    HW234833   1.445   4.308   6.096  1.9996 -0.9205  1.0006
 7791SOL     OW34834   4.591   1.483   7.347  0.4347  0.1223 -0.5268
 7791SOL    HW134835   4.601   1.578   7.340 -0.8405  0.4304  1.5034
 7791SOL    HW234836   4.579   1.450   7.258 -2.1897  1.2596 -0.5975
 7792SOL     OW34837   2.551   2.208   8.519  0.0699 -0.3215 -0.0886
 7792SOL    HW134838   2.468   2.173   8.487  1.2022  0.5193 -3.9720
 7792SOL    HW234839   2.578   2.139   8.579 -1.0366  1.6384  2.6399
 7793SOL     OW34840   2.296   0.933   7.150 -0.4508 -0.3474  0.0176
 7793SOL    HW134841   2.302   0.893   7.237  0.0971 -1.4101 -0.5145
 7793SOL    HW234842   2.316   0.855   7.099 -2.0266  0.1574 -1.3907
 7794SOL     OW34843   2.622   2.688   9.417  0.5169 -0.2049  0.1116
 7794SOL    HW134844   2.613   2.762   9.357 -0.2714  0.2692  0.8184
 7794SOL    HW234845   2.647   2.617   9.358  0.8489 -1.1637  1.3906
 7795SOL     OW34846   0.266   3.639   9.643 -0.4481  0.0536 -0.0453
 7795SOL    HW134847   0.232   3.598   9.563  0.6190  0.7491 -0.8466
 7795SOL    HW234848   0.323   3.565   9.666  0.1481  1.0256  1.6230
 7796SOL     OW34849   1.417   0.010   5.057  0.3585  0.4923  0.4901
 7796SOL    HW134850   1.489   4.678   5.029  0.2467 -0.2084  1.5797
 7796SOL    HW234851   1.343   4.676   5.078  0.3685 -0.1753 -1.3890
 7797SOL     OW34852   3.324   1.596   9.096 -0.2535  0.2670 -0.1075
 7797SOL    HW134853   3.254   1.539   9.127  1.0174 -1.4544 -0.4379
 7797SOL    HW234854   3.283   1.679   9.120 -0.6400  0.0215  0.0828
 7798SOL     OW34855   1.682   4.031   8.771  0.8445  0.4583  0.1906
 7798SOL    HW134856   1.590   4.035   8.795  1.4658  1.7450  2.2801
 7798SOL    HW234857   1.686   3.938   8.796  2.0900  0.1613 -1.0663
 7799SOL     OW34858   0.198   3.312   3.135 -0.1669 -0.0347  0.0355
 7799SOL    HW134859   0.158   3.387   3.091 -0.1673  0.3941  0.7803
 7799SOL    HW234860   0.234   3.261   3.062 -1.1026 -0.9039  0.1783
 7800SOL     OW34861   4.465   4.695   3.518 -0.3745  0.1363 -0.4721
 7800SOL    HW134862   4.520   4.653   3.452 -0.3231 -0.6529  0.0690
 7800SOL    HW234863   4.528   0.036   3.550  0.5504 -0.2198 -1.5646
 7801SOL     OW34864   0.695   2.683   2.398 -0.6771  0.4299  0.3006
 7801SOL    HW134865   0.787   2.706   2.408 -0.8781  1.8150 -1.0597
 7801SOL    HW234866   0.710   2.623   2.325 -0.5323  2.0613 -0.9767
 7802SOL     OW34867   3.766   2.579   6.992  0.1037 -0.0909 -0.5056
 7802SOL    HW134868   3.829   2.554   6.925  2.2174  1.9672  0.7217
 7802SOL    HW234869   3.818   2.574   7.072  0.4843  0.7437 -0.7084
 7803SOL     OW34870   2.981   2.180   8.686 -0.2036 -0.1817  0.1890
 7803SOL    HW134871   2.902   2.225   8.718  1.7409  1.8300  2.1522
 7803SOL    HW234872   2.941   2.093   8.686 -0.6871  0.0420 -0.4681
 7804SOL     OW34873   0.141   0.024   1.601 -0.2029 -0.4102  0.6531
 7804SOL    HW134874   0.184   4.663   1.610  0.4753 -0.1526 -0.1002
 7804SOL    HW234875   0.097   4.722   1.520 -2.5444 -1.6115  2.3377
 7805SOL     OW34876   0.013   2.585  12.810  0.2053  0.4276 -0.6511
 7805SOL    HW134877   0.067   2.515  12.846 -0.7735 -0.3895 -0.8071
 7805SOL    HW234878   0.086   2.628  12.764  1.1395  0.7529  1.1201
 7806SOL     OW34879   0.071   3.609   5.866  0.3743  0.6781 -0.2357
 7806SOL    HW134880   0.119   3.583   5.788 -0.3174  0.9037 -0.7340
 7806SOL    HW234881   0.109   3.542   5.923  1.9407  1.1628 -0.7135
 7807SOL     OW34882   4.330   4.234  14.235 -0.3589  0.0985 -0.2863
 7807SOL    HW134883   4.312   4.169  14.167 -1.4111  1.0613 -0.9073
 7807SOL    HW234884   4.418   4.259  14.206  0.3006  0.6730  2.2300
 7808SOL     OW34885   0.129   4.348   6.204 -0.6001 -0.2874  0.2590
 7808SOL    HW134886   0.106   4.265   6.246  1.7670 -1.0135  0.1480
 7808SOL    HW234887   0.082   4.408   6.262 -1.4414 -1.4853  0.7982
 7809SOL     OW34888   2.533   1.794   5.454 -0.5509 -0.4248  0.2093
 7809SOL    HW134889   2.471   1.842   5.509 -0.5881 -0.1462 -0.0790
 7809SOL    HW234890   2.471   1.734   5.413  0.3666  0.0367 -1.8455
 7810SOL     OW34891   2.592   2.919   3.535  0.0127  0.2359  0.3860
 7810SOL    HW134892   2.511   2.870   3.528 -0.1082  0.2822  1.5166
 7810SOL    HW234893   2.621   2.892   3.622  0.4936  0.6801  0.3672
 7811SOL     OW34894   2.215   4.152   8.514 -0.1683 -0.1554  0.1009
 7811SOL    HW134895   2.125   4.145   8.481 -0.8977 -0.8598  2.2342
 7811SOL    HW234896   2.200   4.185   8.603  0.7573  1.1261 -0.2200
 7812SOL     OW34897   0.109   1.244   2.147 -0.1166  0.8941 -0.0397
 7812SOL    HW134898   0.089   1.326   2.194  0.6882 -0.2020  2.2093
 7812SOL    HW234899   0.024   1.211   2.119  0.0119  0.0804  0.5370
 7813SOL     OW34900   0.676   4.493  15.340 -0.1441  0.4398 -0.3371
 7813SOL    HW134901   0.680   4.588  15.325  0.7737  0.7234  1.7985
 7813SOL    HW234902   0.733   4.477  15.415  2.1466 -0.3222 -2.2132
 7814SOL     OW34903   0.205   4.495  17.077 -0.3945 -0.6841  0.1729
 7814SOL    HW134904   0.185   4.549  17.000 -0.3350 -0.3029  0.4261
 7814SOL    HW234905   0.113   4.483  17.100 -0.5586 -1.1176 -0.7191
 7815SOL     OW34906   1.144   3.691   3.453 -0.2598  0.0950 -0.0354
 7815SOL    HW134907   1.111   3.758   3.393  0.4379 -0.8591 -1.4815
 7815SOL    HW234908   1.235   3.719   3.463  0.0271 -1.2296  1.0045
 7816SOL     OW34909   3.884   2.373   9.388 -0.5159 -0.1613 -0.0972
 7816SOL    HW134910   3.888   2.279   9.402  1.2473 -0.1601 -0.6704
 7816SOL    HW234911   3.805   2.385   9.335 -0.9805 -2.0979  0.1861
 7817SOL     OW34912   2.046   1.300  12.157 -0.0004 -0.4702  0.5043
 7817SOL    HW134913   2.083   1.387  12.141 -2.2703 -0.0112 -2.4103
 7817SOL    HW234914   1.972   1.315  12.216 -1.0896  0.0702 -0.9831
 7818SOL     OW34915   2.132   2.310   3.752 -0.2621  0.6989 -0.2098
 7818SOL    HW134916   2.193   2.239   3.773 -0.3975 -0.2178 -2.8929
 7818SOL    HW234917   2.154   2.368   3.825 -0.7424 -1.8668  1.9460
 7819SOL     OW34918   0.369   0.996   5.263 -0.0546 -0.0805  0.0309
 7819SOL    HW134919   0.430   0.966   5.196  0.4853  2.5803 -0.6517
 7819SOL    HW234920   0.284   0.978   5.221  0.3417  0.1365 -0.8629
 7820SOL     OW34921   1.369   2.842   3.599  0.5389 -0.0649 -0.3896
 7820SOL    HW134922   1.336   2.767   3.647 -0.2629  1.1580  0.9842
 7820SOL    HW234923   1.294   2.893   3.567  1.1844  0.6928 -0.6900
 7821SOL     OW34924   0.005   3.023  17.509  0.1827  0.5252 -0.0282
 7821SOL    HW134925   4.663   3.092  17.497  0.9079  1.2286  0.0848
 7821SOL    HW234926   4.698   2.956  17.448 -2.7217  3.4075 -1.7188
 7822SOL     OW34927   0.998   1.497   2.042 -0.1265 -0.1383 -0.2441
 7822SOL    HW134928   0.987   1.547   1.962 -3.0387  1.8102  1.3688
 7822SOL    HW234929   1.013   1.573   2.097 -1.3926  0.6603 -1.0001
 7823SOL     OW34930   4.526   1.568   3.797  0.2651  0.1229  0.1130
 7823SOL    HW134931   4.473   1.513   3.855  0.5403 -0.5885 -0.3215
 7823SOL    HW234932   4.569   1.631   3.856  0.0822 -0.1465  0.5382
 7824SOL     OW34933   3.004   2.905  15.970  0.2228  0.0563  0.5761
 7824SOL    HW134934   2.984   2.900  16.063  0.0357  0.2903  0.5475
 7824SOL    HW234935   2.944   2.845  15.926 -0.2399  0.5133  0.5797
 7825SOL     OW34936   2.196   1.659   7.111 -0.5698 -0.3767  0.4027
 7825SOL    HW134937   2.166   1.731   7.055  2.7000  1.5289  1.1104
 7825SOL    HW234938   2.216   1.598   7.040 -0.9382  0.2040 -0.2011
 7826SOL     OW34939   2.391   2.358   6.340  0.6646  0.2883 -0.0035
 7826SOL    HW134940   2.296   2.359   6.328  0.6553  0.0519  0.0507
 7826SOL    HW234941   2.409   2.448   6.311 -2.5648  0.2615 -2.0491
 7827SOL     OW34942   1.188   0.926   6.224  0.2498  0.8954 -0.1415
 7827SOL    HW134943   1.105   0.936   6.178  0.0579  0.7066  0.1706
 7827SOL    HW234944   1.190   0.999   6.286 -2.2033 -0.8697  1.9850
 7828SOL     OW34945   0.961   4.273  10.063 -1.1035  0.6825 -0.0219
 7828SOL    HW134946   0.997   4.296   9.977 -1.2848 -0.7453 -0.4788
 7828SOL    HW234947   0.945   4.180  10.048  3.8934 -0.1704 -0.0825
 7829SOL     OW34948   0.013   1.404   3.141 -0.5038  0.0179  0.8394
 7829SOL    HW134949   4.658   1.363   3.105  0.2720  0.3751 -1.2655
 7829SOL    HW234950   0.064   1.397   3.061 -0.6178  0.0457  0.7637
 7830SOL     OW34951   4.618   2.476   8.685  0.2975 -0.3983 -0.3277
 7830SOL    HW134952   4.543   2.418   8.674  0.0557 -0.0894 -0.2976
 7830SOL    HW234953   4.695   2.422   8.668  1.0692  0.4779  0.3364
 7831SOL     OW34954   2.779   4.336   4.111  0.1454 -0.7489 -0.6771
 7831SOL    HW134955   2.780   4.372   4.022 -0.0393 -0.6939 -0.6565
 7831SOL    HW234956   2.831   4.256   4.099 -2.0943 -2.3294  0.2950
 7832SOL     OW34957   3.302   3.860   7.333 -0.1802 -0.3434  0.1703
 7832SOL    HW134958   3.279   3.901   7.416 -2.3640 -2.2701  0.4961
 7832SOL    HW234959   3.220   3.813   7.322 -0.0793 -0.4757 -0.0313
 7833SOL     OW34960   2.925   0.888  13.636  0.1187 -0.6554 -0.5064
 7833SOL    HW134961   2.843   0.938  13.630  0.8870  0.4642 -1.5359
 7833SOL    HW234962   2.896   0.800  13.662  0.3089 -0.3638  0.7233
 7834SOL     OW34963   3.313   1.603   1.253  0.2993 -0.2043 -0.0787
 7834SOL    HW134964   3.258   1.563   1.185 -0.2875  0.9322 -0.2837
 7834SOL    HW234965   3.273   1.568   1.332 -1.3757  2.2563  0.1718
 7835SOL     OW34966   1.257   4.568   4.777 -0.0380 -0.1135 -0.3215
 7835SOL    HW134967   1.198   4.550   4.849 -1.4742 -0.1785 -1.5136
 7835SOL    HW234968   1.344   4.537   4.800  0.9474  1.9385 -1.2129
 7836SOL     OW34969   3.416   3.094   3.968  0.7777  0.2306 -0.4264
 7836SOL    HW134970   3.406   3.149   3.890  0.4863  0.1611 -0.4395
 7836SOL    HW234971   3.446   3.161   4.030 -1.2551  2.7785 -2.1807
 7837SOL     OW34972   0.788   0.778   5.406 -0.1477  0.0615  1.0181
 7837SOL    HW134973   0.824   0.858   5.444 -1.0587  0.2099  1.5804
 7837SOL    HW234974   0.847   0.778   5.331  1.3217  1.7852  2.1926
 7838SOL     OW34975   2.141   2.723   0.314  0.6046 -0.5120  0.0926
 7838SOL    HW134976   2.209   2.660   0.334 -1.5507 -1.5485  4.2819
 7838SOL    HW234977   2.095   2.689   0.237  0.7407 -2.3805  0.8487
 7839SOL     OW34978   3.432   3.921   5.945 -0.0505 -0.1849  0.1768
 7839SOL    HW134979   3.499   3.874   5.994  0.3432 -1.6039 -1.7469
 7839SOL    HW234980   3.448   4.009   5.981  0.1549 -0.3279  0.4330
 7840SOL     OW34981   0.230   3.995  15.472  0.5261  0.5924 -0.4350
 7840SOL    HW134982   0.143   4.032  15.456  0.8004  2.0826  1.5929
 7840SOL    HW234983   0.276   4.037  15.399  1.3056  2.2070  1.0094
 7841SOL     OW34984   0.513   0.779   4.790  0.2001 -0.9656  0.3382
 7841SOL    HW134985   0.502   0.815   4.702 -1.0042  1.3383  1.4204
 7841SOL    HW234986   0.529   0.686   4.774  1.2519 -1.0845  2.0146
 7842SOL     OW34987   0.172   4.538   7.139 -0.1471 -0.4346 -0.2937
 7842SOL    HW134988   0.245   4.591   7.173  0.4573 -0.1635 -2.0300
 7842SOL    HW234989   0.111   4.610   7.123 -0.0292 -0.2068  0.2904
 7843SOL     OW34990   0.041   0.712   3.658  0.4320 -0.2383 -0.4450
 7843SOL    HW134991   0.119   0.765   3.644 -0.0384  1.3093  2.8020
 7843SOL    HW234992   0.013   0.747   3.743  0.8731 -1.6621  0.3009
 7844SOL     OW34993   3.126   0.050   2.022 -0.3342  0.5327 -0.2730
 7844SOL    HW134994   3.200   0.074   2.078  0.9110  0.9217 -2.0930
 7844SOL    HW234995   3.093   0.133   1.985 -1.5530  0.0665 -0.2285
 7845SOL     OW34996   3.268   2.266  15.994  0.5090  0.1210 -0.1494
 7845SOL    HW134997   3.363   2.260  15.985  0.4188 -0.9495 -0.3887
 7845SOL    HW234998   3.249   2.360  15.994 -1.3302 -0.2331 -2.1341
 7846SOL     OW34999   2.426   0.082   2.810  0.5421  0.0916  0.1519
 7846SOL    HW135000   2.420   0.164   2.858 -0.5200  0.3793 -0.4734
 7846SOL    HW235001   2.477   0.112   2.735  2.3409  2.2830  2.2660
 7847SOL     OW35002   1.696   0.305  11.250 -0.0471  0.2437 -0.3558
 7847SOL    HW135003   1.600   0.307  11.252 -0.0119  0.9115  0.5692
 7847SOL    HW235004   1.720   0.375  11.310  1.9677 -1.6515  1.0711
 7848SOL     OW35005   2.566   3.930   8.280 -0.3488 -0.4236  0.2884
 7848SOL    HW135006   2.552   3.949   8.373  0.6242 -1.9158  0.7386
 7848SOL    HW235007   2.475   3.951   8.262  0.1696  0.9448 -0.6816
 7849SOL     OW35008   2.917   4.024   1.830 -0.0399  1.1168 -0.4721
 7849SOL    HW135009   2.897   3.938   1.866 -3.3999  2.3374  0.5466
 7849SOL    HW235010   3.000   4.019   1.782  0.4782 -2.1366  0.7650
 7850SOL     OW35011   0.889   0.066   2.009  0.0078 -0.0206 -0.3589
 7850SOL    HW135012   0.877   0.030   1.921  3.5307 -0.5912 -0.6072
 7850SOL    HW235013   0.951   0.001   2.041  0.9865  1.2926  0.4218
 7851SOL     OW35014   3.075   0.853   7.345 -0.4036 -0.3695  0.6592
 7851SOL    HW135015   3.095   0.821   7.433 -0.7966  0.0577  0.9031
 7851SOL    HW235016   3.078   0.770   7.296 -0.0144 -0.9146  1.6069
 7852SOL     OW35017   0.594   4.410  16.716  0.1515 -0.1630  0.0601
 7852SOL    HW135018   0.555   4.495  16.695  1.4459  0.1672 -0.9860
 7852SOL    HW235019   0.641   4.398  16.634 -0.4702  3.0557 -0.7817
 7853SOL     OW35020   4.223   2.233  13.547  0.3057  0.1887  0.4264
 7853SOL    HW135021   4.216   2.182  13.466  1.2024  0.6980  0.0240
 7853SOL    HW235022   4.151   2.295  13.533  0.8650  0.2519 -2.2547
 7854SOL     OW35023   1.710   3.317  14.222  0.3170  0.0758 -0.0825
 7854SOL    HW135024   1.746   3.233  14.251  3.5337  1.3303 -0.4421
 7854SOL    HW235025   1.766   3.334  14.146  1.4669 -0.0302  0.7407
 7855SOL     OW35026   2.402   1.237   6.732 -0.3353  0.2608 -0.1046
 7855SOL    HW135027   2.313   1.217   6.759 -0.8039  0.9407 -1.1594
 7855SOL    HW235028   2.391   1.313   6.675 -0.3011 -0.7475 -1.4409
 7856SOL     OW35029   3.388   1.690  15.895 -0.9334  0.7159  0.0007
 7856SOL    HW135030   3.460   1.628  15.903 -0.2042  1.7897  1.5783
 7856SOL    HW235031   3.377   1.688  15.800  1.8575 -2.4196 -0.2436
 7857SOL     OW35032   1.634   0.849   8.310 -0.0146 -0.0860 -0.0302
 7857SOL    HW135033   1.729   0.860   8.312 -0.0243 -0.3298  2.5076
 7857SOL    HW235034   1.626   0.755   8.321  0.4934  0.0841  1.7898
 7858SOL     OW35035   2.584   2.094   2.286  0.0179  0.0662 -0.0826
 7858SOL    HW135036   2.637   2.033   2.235  1.5122  0.5310  0.9017
 7858SOL    HW235037   2.553   2.147   2.212 -1.8384  0.5144  1.0302
 7859SOL     OW35038   0.264   1.140   3.029  0.6224  0.3333 -0.7848
 7859SOL    HW135039   0.236   1.223   2.991  0.4341  0.0865 -1.1893
 7859SOL    HW235040   0.212   1.069   2.991 -0.3550 -0.0649  1.2772
 7860SOL     OW35041   1.562   3.837  15.966 -0.1448  0.1380 -0.2386
 7860SOL    HW135042   1.500   3.793  15.908  0.7874 -1.6225  0.1089
 7860SOL    HW235043   1.641   3.830  15.912 -0.9566  0.3648 -1.4638
 7861SOL     OW35044   1.675   1.097   5.855  0.8532 -0.3056 -0.1525
 7861SOL    HW135045   1.680   1.065   5.765 -0.1920 -0.8164 -0.0273
 7861SOL    HW235046   1.596   1.050   5.879 -0.8641  1.1873 -2.8928
 7862SOL     OW35047   4.378   3.974   5.664  0.4201 -0.2105 -0.2310
 7862SOL    HW135048   4.292   3.934   5.670  0.1679  0.3040 -0.3852
 7862SOL    HW235049   4.402   3.996   5.754 -0.9054 -0.8254  0.2757
 7863SOL     OW35050   3.997   0.555  13.898  0.0634 -0.5306  0.0962
 7863SOL    HW135051   4.069   0.493  13.885 -0.9853 -1.8762  0.6865
 7863SOL    HW235052   4.039   0.604  13.969  1.2068 -0.9117 -0.3179
 7864SOL     OW35053   0.008   1.168   2.816  0.3630  0.2306  0.0358
 7864SOL    HW135054   4.672   1.195   2.885  0.0727  0.2931 -0.2385
 7864SOL    HW235055   0.077   1.233   2.805 -1.4927  2.1198 -0.2198
 7865SOL     OW35056   2.187   4.002  17.516  0.0579 -0.2573  0.1231
 7865SOL    HW135057   2.267   4.037  17.555  1.3570 -2.2174 -0.7557
 7865SOL    HW235058   2.226   3.950  17.445 -1.9804 -1.4696 -0.1043
 7866SOL     OW35059   0.596   2.827  12.653  0.0512 -0.7394 -0.2924
 7866SOL    HW135060   0.531   2.896  12.638 -0.1890 -1.1664 -1.2042
 7866SOL    HW235061   0.635   2.852  12.737 -1.5421  0.4825  0.0865
 7867SOL     OW35062   2.247   0.362   0.605 -0.5403 -0.2952  0.1830
 7867SOL    HW135063   2.287   0.439   0.646 -1.2758  0.0810  0.2006
 7867SOL    HW235064   2.319   0.299   0.618 -0.7220 -0.7327 -0.9317
 7868SOL     OW35065   1.077   1.148   0.028 -0.1888 -0.1825  0.3263
 7868SOL    HW135066   1.040   1.060   0.025  1.7605 -0.9611 -0.8954
 7868SOL    HW235067   1.009   1.196  17.678 -0.2568  0.0621  0.6767
 7869SOL     OW35068   3.723   0.428   8.084  0.0577  0.0229  0.5317
 7869SOL    HW135069   3.705   0.520   8.105  0.3093  0.1544  0.1768
 7869SOL    HW235070   3.651   0.386   8.131 -0.4068 -0.3438 -0.5149
 7870SOL     OW35071   0.104   0.435   4.423 -0.1008  0.0755 -0.1671
 7870SOL    HW135072   0.194   0.449   4.393 -0.3971  3.3476  0.5186
 7870SOL    HW235073   0.057   0.448   4.341 -0.9397 -0.3279  0.2561
 7871SOL     OW35074   2.032   1.860   5.394  0.5246 -0.3169 -0.2550
 7871SOL    HW135075   2.020   1.894   5.305 -0.8622 -0.7888 -0.2444
 7871SOL    HW235076   2.055   1.943   5.436 -0.3356  0.0925 -0.5842
 7872SOL     OW35077   3.733   2.955   5.158  0.1051 -0.4730 -0.0660
 7872SOL    HW135078   3.786   3.025   5.121 -1.9524  1.2424  0.2383
 7872SOL    HW235079   3.752   2.876   5.108 -0.7678 -1.3893  1.0248
 7873SOL     OW35080   0.082   3.344   7.879  0.3517 -0.2300  0.4959
 7873SOL    HW135081   0.175   3.360   7.868  0.4288 -1.1662 -0.1690
 7873SOL    HW235082   0.085   3.359   7.974  2.1866  0.4326  0.3303
 7874SOL     OW35083   0.919   3.429   7.089  0.1189 -0.3506 -0.0007
 7874SOL    HW135084   0.992   3.439   7.028 -0.5466  2.0908 -0.3867
 7874SOL    HW235085   0.892   3.338   7.074  0.9516 -0.7630  0.9026
 7875SOL     OW35086   1.070   1.359   5.473 -0.0253  0.1456 -0.0390
 7875SOL    HW135087   1.064   1.441   5.423 -1.5086 -1.9311 -3.3127
 7875SOL    HW235088   1.147   1.323   5.429 -0.4959  1.2014 -1.7711
 7876SOL     OW35089   1.225   0.894  12.045 -0.3914  0.3966 -0.1005
 7876SOL    HW135090   1.306   0.894  11.995 -0.6953 -1.9899 -0.5833
 7876SOL    HW235091   1.167   0.844  11.987 -0.7737  0.9735 -0.2131
 7877SOL     OW35092   2.556   0.451   6.957 -0.4590  0.0158 -0.1254
 7877SOL    HW135093   2.474   0.406   6.976 -0.6180 -0.5168 -2.0353
 7877SOL    HW235094   2.546   0.475   6.865  1.3175 -1.4956 -0.7129
 7878SOL     OW35095   0.119   2.838  13.478 -0.4607  0.2128 -0.3887
 7878SOL    HW135096   0.077   2.923  13.494 -1.7911 -0.2222 -1.5696
 7878SOL    HW235097   0.058   2.779  13.433 -1.3185 -0.3991  1.5833
 7879SOL     OW35098   4.539   0.525   6.977  0.0823  0.5552 -0.1497
 7879SOL    HW135099   4.514   0.569   7.058 -0.3203 -1.1737  0.6644
 7879SOL    HW235100   4.632   0.514   6.999  0.5461  0.2080 -2.2292
 7880SOL     OW35101   2.868   1.873   9.352  0.3322 -0.3060  0.0827
 7880SOL    HW135102   2.918   1.807   9.305  0.2551 -1.1554  1.1889
 7880SOL    HW235103   2.807   1.819   9.403 -0.7557  0.4847 -0.3777
 7881SOL     OW35104   4.513   4.358   6.731  0.1723  0.1468 -0.5259
 7881SOL    HW135105   4.467   4.276   6.749  0.8504 -0.0804  0.1645
 7881SOL    HW235106   4.588   4.332   6.678 -0.0994 -1.1873 -0.2707
 7882SOL     OW35107   4.580   4.398   9.010  0.7113  0.0530 -0.3393
 7882SOL    HW135108   4.601   4.350   8.930 -1.4764 -0.0635 -0.8291
 7882SOL    HW235109   4.496   4.368   9.044 -0.0514  0.9218 -1.4925
 7883SOL     OW35110   1.933   3.197  10.331 -0.0991 -0.3347 -0.3273
 7883SOL    HW135111   2.009   3.148  10.300  0.2223  0.3202 -0.5763
 7883SOL    HW235112   1.861   3.136  10.310 -1.3474  0.7193  0.9257
 7884SOL     OW35113   2.575   2.367  15.814 -0.1710  0.3794  0.3590
 7884SOL    HW135114   2.508   2.427  15.849  0.1819 -0.5197  2.5592
 7884SOL    HW235115   2.525   2.340  15.736  0.6577 -4.0837  1.3799
 7885SOL     OW35116   4.599   2.167   2.307 -0.0999 -0.1239  0.2296
 7885SOL    HW135117   4.630   2.123   2.386  1.2809 -1.6383 -1.1628
 7885SOL    HW235118   4.639   2.126   2.230 -0.2139 -4.0012  2.2514
 7886SOL     OW35119   0.695   2.012   4.306 -0.3405  0.6811 -0.1351
 7886SOL    HW135120   0.780   2.041   4.336 -0.2842  1.2089 -0.8076
 7886SOL    HW235121   0.665   1.973   4.388 -0.3107 -0.1112 -0.5014
 7887SOL     OW35122   2.964   1.752  12.441 -0.4210 -0.3813  0.0968
 7887SOL    HW135123   2.886   1.809  12.445 -0.7242 -0.6794 -1.9506
 7887SOL    HW235124   2.933   1.672  12.483 -0.4766 -1.2897 -1.6825
 7888SOL     OW35125   1.074   3.952  17.537  0.1877 -0.4516  0.0650
 7888SOL    HW135126   1.004   3.981  17.595 -0.0586 -0.5047 -0.2093
 7888SOL    HW235127   1.019   3.912  17.470 -0.7785 -0.3446  0.7886
 7889SOL     OW35128   4.360   0.557  14.025 -0.3299  0.2255  0.6059
 7889SOL    HW135129   4.406   0.636  13.996 -1.7833  0.8933  0.1293
 7889SOL    HW235130   4.268   0.580  14.032 -1.4016 -3.5641 -0.8504
 7890SOL     OW35131   1.888   1.105  15.385 -0.1625  0.2306 -0.0683
 7890SOL    HW135132   1.866   1.065  15.468  0.6586  2.3350  1.1637
 7890SOL    HW235133   1.806   1.155  15.381 -1.1233 -1.3148  0.2842
 7891SOL     OW35134   3.726   0.020   1.675  0.2490 -0.2030 -0.2572
 7891SOL    HW135135   3.704   0.112   1.689 -1.1827 -0.2815 -2.1769
 7891SOL    HW235136   3.712   4.708   1.763  0.5218  2.9328  1.0814
 7892SOL     OW35137   4.210   3.922   2.139  0.0877  0.2802 -0.4147
 7892SOL    HW135138   4.180   3.931   2.049  1.4091 -0.1703 -0.8916
 7892SOL    HW235139   4.224   4.011   2.169 -0.8207 -0.4639  2.2456
 7893SOL     OW35140   2.876   2.466   7.675  0.1803 -0.0899  0.1366
 7893SOL    HW135141   2.806   2.531   7.673 -0.3070 -0.5313  3.6380
 7893SOL    HW235142   2.837   2.392   7.722  0.6407  0.5397  1.5077
 7894SOL     OW35143   3.584   1.662   9.157  0.1019  0.0168 -0.1624
 7894SOL    HW135144   3.588   1.683   9.250  0.6207  1.3921 -0.5014
 7894SOL    HW235145   3.490   1.662   9.138 -0.0097 -0.0864  0.3943
 7895SOL     OW35146   2.943   2.792  11.555 -0.1946 -0.0555 -0.2204
 7895SOL    HW135147   2.854   2.810  11.525 -0.9427 -0.1392  1.9224
 7895SOL    HW235148   2.930   2.708  11.598 -0.8476  1.6016  2.8234
 7896SOL     OW35149   1.453   2.546  14.347 -0.2587  0.4753  0.1821
 7896SOL    HW135150   1.525   2.489  14.320  0.0294  0.0285  1.8948
 7896SOL    HW235151   1.453   2.532  14.442 -2.8242 -0.0926  0.1146
 7897SOL     OW35152   0.813   3.241  10.873  0.5112 -0.1250  0.0751
 7897SOL    HW135153   0.900   3.202  10.872  0.6868  0.2757 -0.3447
 7897SOL    HW235154   0.775   3.208  10.954 -2.3924  0.6760 -0.9501
 7898SOL     OW35155   2.175   3.990   0.633 -0.5541  0.0061  0.2405
 7898SOL    HW135156   2.207   3.970   0.721 -0.4020 -0.3149  0.1098
 7898SOL    HW235157   2.190   3.903   0.596  2.3170  0.3163  0.7023
 7899SOL     OW35158   2.596   2.893   4.320 -0.0839 -0.0089  0.2516
 7899SOL    HW135159   2.624   2.929   4.404  0.5942 -0.3756  0.1837
 7899SOL    HW235160   2.581   2.969   4.263 -0.8993 -0.3383  0.0235
 7900SOL     OW35161   4.157   0.652   1.656 -0.0060  0.8230 -0.0923
 7900SOL    HW135162   4.167   0.673   1.563 -0.0643  0.6997 -0.1267
 7900SOL    HW235163   4.080   0.700   1.687 -0.5320 -0.1440  0.1188
 7901SOL     OW35164   4.467   4.126   8.522  0.2629  0.1703  0.3371
 7901SOL    HW135165   4.455   4.169   8.438  1.0296  0.6483  0.4766
 7901SOL    HW235166   4.510   4.197   8.570 -2.6169  0.7871  2.0159
 7902SOL     OW35167   1.119   0.800   2.504 -0.4732  1.0031  0.2824
 7902SOL    HW135168   1.041   0.787   2.558 -0.5952 -0.3740 -0.2299
 7902SOL    HW235169   1.174   0.835   2.575 -0.8391 -0.7997  1.4649
 7903SOL     OW35170   3.160   1.515  16.700  0.1175 -0.4014 -0.0932
 7903SOL    HW135171   3.104   1.582  16.738  1.5928  0.0767  1.2658
 7903SOL    HW235172   3.176   1.554  16.614  2.6573  1.0174  1.0202
 7904SOL     OW35173   3.118   2.390   0.991  0.6789 -0.4065  0.4577
 7904SOL    HW135174   3.043   2.437   0.956  0.1954 -1.5928 -0.0821
 7904SOL    HW235175   3.093   2.375   1.082 -2.6521  3.0315  0.1016
 7905SOL     OW35176   4.169   1.147   7.663 -0.0977 -0.1658  0.1963
 7905SOL    HW135177   4.180   1.219   7.601 -1.7463  1.5240  1.8564
 7905SOL    HW235178   4.232   1.083   7.629  0.5704  1.2863 -1.2981
 7906SOL     OW35179   3.563   2.959   2.887  0.2719  0.3134  0.2631
 7906SOL    HW135180   3.659   2.957   2.880  0.0826 -1.7832 -1.7012
 7906SOL    HW235181   3.537   2.979   2.797 -0.2673 -1.2990  0.0537
 7907SOL     OW35182   0.106   0.741   5.105  0.2565 -0.2286  0.4221
 7907SOL    HW135183   0.187   0.699   5.133  1.5906  0.3995 -2.5405
 7907SOL    HW235184   0.142   0.781   5.026 -0.7382 -0.3216 -0.0746
 7908SOL     OW35185   1.660   4.641   3.871  0.3898 -0.4091 -0.9301
 7908SOL    HW135186   1.703   4.588   3.804 -0.0684  1.0080 -2.3563
 7908SOL    HW235187   1.610   4.574   3.917  3.1009 -1.9349 -0.2653
 7909SOL     OW35188   2.860   3.004   7.207  0.6796  0.3125 -0.3307
 7909SOL    HW135189   2.850   3.032   7.116  0.9734  0.0579 -0.4422
 7909SOL    HW235190   2.782   3.039   7.250  0.3071 -0.1335 -0.6308
 7910SOL     OW35191   4.297   4.033  14.035  0.2586  0.2431  0.2398
 7910SOL    HW135192   4.271   4.007  13.947 -0.0653  1.7679 -0.1269
 7910SOL    HW235193   4.393   4.033  14.034  0.2753 -0.6186  2.0236
 7911SOL     OW35194   2.798   4.027   4.109 -0.3005 -0.0487 -0.1156
 7911SOL    HW135195   2.762   4.014   4.021  2.2999  1.2064 -1.3683
 7911SOL    HW235196   2.718   4.003   4.156  0.2427  0.9817  1.3617
 7912SOL     OW35197   2.614   2.236  13.083 -0.1864 -0.3369 -0.5700
 7912SOL    HW135198   2.647   2.326  13.074 -1.2670  0.1507  0.3399
 7912SOL    HW235199   2.602   2.218  12.990  1.8041  0.8282 -1.0574
 7913SOL     OW35200   2.715   1.988   1.613 -0.2471  0.2487 -0.4262
 7913SOL    HW135201   2.753   2.064   1.657  0.6105  0.2267 -1.1156
 7913SOL    HW235202   2.624   2.011   1.628 -0.2499  0.8485 -1.3735
 7914SOL     OW35203   0.348   1.887   2.972 -0.4487 -0.1707  0.6571
 7914SOL    HW135204   0.262   1.855   2.998  0.2227 -1.6890  0.9754
 7914SOL    HW235205   0.308   1.950   2.912  2.1542  1.1839  0.3342
 7915SOL     OW35206   3.483   2.316   4.243 -0.3527 -0.1580 -0.1808
 7915SOL    HW135207   3.408   2.267   4.276 -0.9013  1.0060  0.2702
 7915SOL    HW235208   3.544   2.264   4.296 -2.3458  0.1389  2.3543
 7916SOL     OW35209   2.731   4.523   4.667 -0.1344 -0.7019  0.4358
 7916SOL    HW135210   2.754   4.449   4.724 -0.0755 -0.0429  1.2608
 7916SOL    HW235211   2.638   4.503   4.652 -0.8514  2.4628  0.5906
 7917SOL     OW35212   4.300   4.097  17.264 -0.3030  0.6676 -0.5340
 7917SOL    HW135213   4.244   4.019  17.265 -0.2715  0.6433 -0.6655
 7917SOL    HW235214   4.282   4.122  17.354  0.4006 -2.4836  0.4788
 7918SOL     OW35215   2.683   4.144   0.304 -0.0081  0.5172  0.7047
 7918SOL    HW135216   2.724   4.210   0.360 -2.1047  0.8843  1.7842
 7918SOL    HW235217   2.755   4.104   0.253 -2.1529 -4.2460  1.3734
 7919SOL     OW35218   2.217   2.176  17.305 -0.4065  0.5143 -0.4109
 7919SOL    HW135219   2.191   2.134  17.223  1.9037  0.7046 -1.2406
 7919SOL    HW235220   2.295   2.124  17.327 -2.3474 -1.7148  1.1143
 7920SOL     OW35221   2.149   2.488   3.230 -0.4502  0.1345  0.0399
 7920SOL    HW135222   2.203   2.483   3.309 -1.0695 -1.0047  0.3848
 7920SOL    HW235223   2.170   2.411   3.177  2.5870  0.2269  1.1048
 7921SOL     OW35224   2.960   3.302  10.627 -0.0005  0.3987  0.1643
 7921SOL    HW135225   2.996   3.285  10.540  0.9458  4.3934 -0.1929
 7921SOL    HW235226   2.963   3.220  10.676 -0.5933  0.4774  0.3304
 7922SOL     OW35227   2.419   4.326   7.652 -0.1405  0.6860 -0.1645
 7922SOL    HW135228   2.337   4.328   7.701  0.1135  1.3877  0.2319
 7922SOL    HW235229   2.475   4.335   7.729 -2.0221  1.2236  1.1291
 7923SOL     OW35230   1.822   3.272   2.941  0.2602 -0.3083  0.3939
 7923SOL    HW135231   1.883   3.276   3.014 -1.2394  3.2231  1.4382
 7923SOL    HW235232   1.880   3.289   2.867 -1.0629  1.0001 -0.3401
 7924SOL     OW35233   1.207   0.377   3.037  0.8844 -0.3006 -0.0741
 7924SOL    HW135234   1.118   0.359   3.007  0.9514 -0.4606 -0.1830
 7924SOL    HW235235   1.202   0.457   3.088  0.4163 -0.5764  0.3110
 7925SOL     OW35236   2.896   2.603   0.522  0.2667  0.5425  0.1222
 7925SOL    HW135237   2.801   2.599   0.508 -0.1189 -0.6994  3.0781
 7925SOL    HW235238   2.925   2.583   0.434 -2.3638  1.8651 -1.0612
 7926SOL     OW35239   0.740   2.310   8.590  0.4510 -0.4336  0.2040
 7926SOL    HW135240   0.752   2.215   8.597 -0.0228 -0.4695  0.4930
 7926SOL    HW235241   0.821   2.343   8.629  2.1239 -1.4493 -2.3722
 7927SOL     OW35242   3.187   2.220  17.070 -0.3242  0.5925 -0.1480
 7927SOL    HW135243   3.211   2.134  17.035  0.4663  1.2492 -1.2117
 7927SOL    HW235244   3.231   2.220  17.155  1.1393 -1.7701 -0.8846
 7928SOL     OW35245   2.428   4.368   3.453  0.1940 -0.2309  0.8328
 7928SOL    HW135246   2.429   4.307   3.527 -0.6683 -0.7868  0.3888
 7928SOL    HW235247   2.382   4.324   3.382  2.4116  0.2499 -0.9051
 7929SOL     OW35248   1.447   3.355   9.076  0.2742  0.3541 -0.2677
 7929SOL    HW135249   1.480   3.277   9.121  0.5769 -0.4306 -1.8283
 7929SOL    HW235250   1.437   3.415   9.150  0.3474  0.4255 -0.3167
 7930SOL     OW35251   1.699   1.412   0.869 -0.1015  0.3944 -0.5668
 7930SOL    HW135252   1.767   1.444   0.810 -0.0042 -0.2054 -0.7849
 7930SOL    HW235253   1.618   1.419   0.819 -1.1029 -0.7859  0.8967
 7931SOL     OW35254   2.082   0.225   2.459  0.3566 -0.3399 -0.5196
 7931SOL    HW135255   2.041   0.258   2.539  1.2675  0.7674 -0.5167
 7931SOL    HW235256   2.146   0.159   2.486  0.8064 -1.1103 -3.4382
 7932SOL     OW35257   2.158   2.142   7.558  0.2093 -0.3371 -0.5123
 7932SOL    HW135258   2.103   2.214   7.528  1.3122  0.2734 -1.0682
 7932SOL    HW235259   2.136   2.146   7.651  1.2699  0.2248 -0.2795
 7933SOL     OW35260   1.190   4.675   3.657 -0.0686  0.1141  0.1824
 7933SOL    HW135261   1.198   4.604   3.720  2.1185 -2.0242 -2.4697
 7933SOL    HW235262   1.100   4.681   3.626  0.4678  1.3369 -1.1659
 7934SOL     OW35263   2.120   3.082  13.833  0.2084 -0.1820 -0.1203
 7934SOL    HW135264   2.059   3.130  13.889  2.2021  0.8971  1.0958
 7934SOL    HW235265   2.169   3.157  13.800  1.9762 -0.4602  1.9058
 7935SOL     OW35266   1.421   3.225   9.650 -0.4092  0.8175  0.4557
 7935SOL    HW135267   1.453   3.292   9.589  1.8203  0.1343  0.8973
 7935SOL    HW235268   1.417   3.274   9.732  0.1684 -0.8735  1.5036
 7936SOL     OW35269   0.798   2.062   7.541  0.3177  0.0470 -0.4432
 7936SOL    HW135270   0.852   2.049   7.619 -0.8472 -0.6650  0.2331
 7936SOL    HW235271   0.731   2.117   7.581  0.3734 -1.1645  1.3283
 7937SOL     OW35272   0.750   0.779  10.906 -0.5531  1.4104 -0.2109
 7937SOL    HW135273   0.798   0.707  10.865  0.0114  2.1777 -0.9046
 7937SOL    HW235274   0.771   0.763  10.998 -1.3231  1.1957 -0.0748
 7938SOL     OW35275   0.613   0.095  14.315 -0.4361 -0.5836  0.7081
 7938SOL    HW135276   0.541   0.103  14.377  0.0075 -0.0584  1.1493
 7938SOL    HW235277   0.630   0.188  14.304  0.0412 -0.8246 -0.5979
 7939SOL     OW35278   2.242   2.714   6.011 -0.3215  0.5249  0.5554
 7939SOL    HW135279   2.258   2.775   6.083 -1.4322  0.4525  0.8588
 7939SOL    HW235280   2.320   2.741   5.963 -1.4215 -0.6938 -1.9213
 7940SOL     OW35281   1.945   0.840   1.547  0.1825 -0.0313  0.3752
 7940SOL    HW135282   2.026   0.827   1.597  0.6978 -0.0888 -0.4656
 7940SOL    HW235283   1.982   0.862   1.461 -2.6793 -0.9952 -1.0783
 7941SOL     OW35284   1.669   4.189   3.820  0.5367  0.2597 -0.6746
 7941SOL    HW135285   1.664   4.167   3.727  0.3635 -0.0732 -0.5882
 7941SOL    HW235286   1.606   4.131   3.863  0.5065 -0.3333 -1.5174
 7942SOL     OW35287   3.975   0.542   4.327 -0.0413 -0.4722 -0.2742
 7942SOL    HW135288   3.937   0.501   4.405 -2.8317 -1.5797 -2.1744
 7942SOL    HW235289   3.935   0.480   4.266 -0.1522  0.1902 -0.8691
 7943SOL     OW35290   4.622   3.535   3.654 -0.4317 -0.1311  0.3007
 7943SOL    HW135291   4.715   3.517   3.645 -0.4309 -0.3471  0.7806
 7943SOL    HW235292   4.623   3.630   3.666 -0.1979 -0.4599  2.7183
 7944SOL     OW35293   1.638   2.345  17.638  0.3401 -0.2815  0.8241
 7944SOL    HW135294   1.661   2.321   0.031 -0.8879  0.7023  1.4027
 7944SOL    HW235295   1.546   2.359  17.662  0.4203  0.8429  0.4881
 7945SOL     OW35296   0.466   4.484  14.876 -0.6962  0.1346  0.1529
 7945SOL    HW135297   0.452   4.478  14.971  0.5263  1.7164  0.4351
 7945SOL    HW235298   0.469   4.580  14.867 -1.7151  0.2296  0.7921
 7946SOL     OW35299   2.551   0.630   7.725 -0.1376  0.0792  0.0703
 7946SOL    HW135300   2.572   0.684   7.649 -0.3617  1.2635  0.8585
 7946SOL    HW235301   2.618   0.562   7.716  0.8153  1.0762 -0.3794
 7947SOL     OW35302   4.153   4.217   8.451  0.0586  0.2043 -0.1108
 7947SOL    HW135303   4.141   4.303   8.409  0.1331  1.2883  2.1012
 7947SOL    HW235304   4.238   4.192   8.414  0.9914  2.3979  0.5247
 7948SOL     OW35305   3.791   0.004   5.973 -0.0846  0.1610 -0.0798
 7948SOL    HW135306   3.734   4.668   6.021  0.7406  0.0443  0.7551
 7948SOL    HW235307   3.838   4.674   5.909  0.5769  0.7626 -0.0993
 7949SOL     OW35308   0.382   0.252  17.158 -0.5434 -0.3828  0.0053
 7949SOL    HW135309   0.292   0.254  17.191 -1.1149 -0.0840 -1.5812
 7949SOL    HW235310   0.435   0.260  17.238 -2.0757  0.4396  0.9413
 7950SOL     OW35311   4.065   0.132  16.166 -0.0318 -0.0880  0.2541
 7950SOL    HW135312   4.030   0.221  16.160 -0.0484 -0.0550  0.7975
 7950SOL    HW235313   4.153   0.139  16.129  0.3762 -0.6168  1.1195
 7951SOL     OW35314   3.325   4.295  12.541  0.4551 -0.2599 -0.5191
 7951SOL    HW135315   3.405   4.245  12.526 -2.0089 -4.1023 -0.7614
 7951SOL    HW235316   3.259   4.244  12.589 -1.6004  1.5545 -1.4482
 7952SOL     OW35317   2.789   3.216  11.927 -0.4339 -0.1120  0.5968
 7952SOL    HW135318   2.746   3.132  11.911 -0.5275 -0.3920  2.3137
 7952SOL    HW235319   2.736   3.276  11.874 -0.9904 -1.8043 -0.8053
 7953SOL     OW35320   3.083   3.411  14.181  0.1699  0.5782  0.6011
 7953SOL    HW135321   3.118   3.475  14.243  0.9552 -0.4870  1.2550
 7953SOL    HW235322   3.094   3.465  14.103 -0.6048  0.4727  0.4144
 7954SOL     OW35323   4.512   3.977   1.939 -0.2338  0.1131  0.0415
 7954SOL    HW135324   4.493   3.910   2.004 -0.6717 -1.1321 -1.3813
 7954SOL    HW235325   4.498   4.054   1.994  2.3347  1.8766 -1.7551
 7955SOL     OW35326   2.857   3.831   5.781  0.1897 -0.4039  0.0302
 7955SOL    HW135327   2.771   3.802   5.812  0.3393 -0.4959  0.3579
 7955SOL    HW235328   2.894   3.744   5.765 -0.9831 -0.7678 -0.7057
 7956SOL     OW35329   2.368   2.625  12.918  0.3792 -0.8646 -0.3650
 7956SOL    HW135330   2.449   2.616  12.868  0.9103 -1.2333  0.5642
 7956SOL    HW235331   2.322   2.564  12.861 -2.5664  2.8186 -1.9301
 7957SOL     OW35332   0.478   3.627   7.406 -0.0271 -0.8020  0.3618
 7957SOL    HW135333   0.450   3.718   7.400  0.9923 -0.5034  0.1386
 7957SOL    HW235334   0.521   3.622   7.492 -0.6126 -2.1546  0.5855
 7958SOL     OW35335   4.195   3.568   7.366  0.7476  0.6092 -0.2497
 7958SOL    HW135336   4.245   3.597   7.289 -1.0445  0.1053 -1.6039
 7958SOL    HW235337   4.108   3.600   7.342 -0.0057  0.5176  2.3694
 7959SOL     OW35338   4.518   4.144  13.886 -0.5461  0.1713  0.0171
 7959SOL    HW135339   4.570   4.065  13.898 -0.7111 -0.3198 -2.3129
 7959SOL    HW235340   4.560   4.197  13.954  0.0759  0.1843 -0.3797
 7960SOL     OW35341   2.634   1.417  17.661  0.2007  0.1420 -0.1872
 7960SOL    HW135342   2.712   1.432  17.607  0.1261 -0.1354 -0.3714
 7960SOL    HW235343   2.611   1.486   0.026  0.4076 -1.0569  1.2208
 7961SOL     OW35344   3.118   0.428   8.500 -0.3552 -0.1151  0.0522
 7961SOL    HW135345   3.079   0.495   8.557  0.2043  0.4469 -0.2335
 7961SOL    HW235346   3.047   0.365   8.511 -0.6378  0.0820 -0.6499
 7962SOL     OW35347   0.565   1.615   4.215 -0.1856 -0.1251 -0.1880
 7962SOL    HW135348   0.501   1.676   4.178 -1.1268 -0.2205  1.3001
 7962SOL    HW235349   0.630   1.616   4.145 -0.1491  0.3523 -0.1467
 7963SOL     OW35350   3.467   1.378   3.735  0.0690 -0.1288 -0.2829
 7963SOL    HW135351   3.430   1.398   3.821 -1.2428  3.6803 -1.7090
 7963SOL    HW235352   3.556   1.347   3.749  1.1756  3.0569 -0.2901
 7964SOL     OW35353   4.281   3.192   2.008  0.0172  0.0214  0.1076
 7964SOL    HW135354   4.196   3.151   2.023 -0.0733  0.6167  1.1744
 7964SOL    HW235355   4.337   3.115   2.000  2.1432  1.4163  1.8342
 7965SOL     OW35356   2.694   3.386   4.549  0.1036  0.1049 -0.1494
 7965SOL    HW135357   2.685   3.330   4.626 -1.2793 -0.1667 -0.5041
 7965SOL    HW235358   2.628   3.345   4.493 -1.1076  3.2742 -1.0053
 7966SOL     OW35359   1.987   4.448   0.517 -0.7691  0.4408  0.0684
 7966SOL    HW135360   2.028   4.363   0.499  0.1960  0.4847  2.0035
 7966SOL    HW235361   1.997   4.448   0.613  2.2425 -1.4651 -0.2229
 7967SOL     OW35362   4.399   0.178   4.548  0.2698  0.0264  0.6409
 7967SOL    HW135363   4.319   0.216   4.513 -1.0967 -2.5800  0.9349
 7967SOL    HW235364   4.366   0.098   4.588  2.4513 -0.0814  2.2346
 7968SOL     OW35365   1.876   1.332  12.363  0.3402  0.4970  0.2690
 7968SOL    HW135366   1.802   1.274  12.344  2.1747 -1.8409  0.1715
 7968SOL    HW235367   1.889   1.315  12.457  1.1049 -0.4127  0.0019
 7969SOL     OW35368   0.938   2.987   4.636 -0.1416  0.4077 -0.3256
 7969SOL    HW135369   0.866   2.983   4.699 -0.4551 -0.6094 -0.7534
 7969SOL    HW235370   0.961   3.080   4.643 -0.6211  0.7714 -3.6301
 7970SOL     OW35371   3.145   2.892   5.392 -0.1222  0.0552 -0.3807
 7970SOL    HW135372   3.093   2.812   5.380 -0.3590  0.1184  0.1969
 7970SOL    HW235373   3.183   2.877   5.478 -0.1592  3.5831  0.2621
 7971SOL     OW35374   3.973   2.576   4.049  0.3371  0.2927 -0.0748
 7971SOL    HW135375   3.944   2.562   4.139 -1.3421 -1.6904 -0.9428
 7971SOL    HW235376   4.061   2.537   4.053  1.1296  1.9372 -1.6746
 7972SOL     OW35377   3.829   1.023   6.800 -0.6018 -0.6696  0.2376
 7972SOL    HW135378   3.792   1.071   6.726 -0.8146  1.0057  1.4189
 7972SOL    HW235379   3.783   1.065   6.873  0.3036  0.0528  0.4047
 7973SOL     OW35380   0.596   0.744  17.665  0.1049 -0.1135 -0.2575
 7973SOL    HW135381   0.548   0.664  17.643  0.2619 -0.3489  0.2600
 7973SOL    HW235382   0.685   0.710  17.678  0.1010 -0.8952 -2.2720
 7974SOL     OW35383   1.023   3.330   5.504  0.3705 -0.1377  0.3070
 7974SOL    HW135384   1.028   3.396   5.573 -1.8944 -0.2900  0.6311
 7974SOL    HW235385   1.092   3.267   5.521 -1.7276 -1.8870  2.4004
 7975SOL     OW35386   1.834   0.196   9.658  0.2060  0.4020  0.3412
 7975SOL    HW135387   1.809   0.109   9.689 -1.2301  1.0033  0.8864
 7975SOL    HW235388   1.782   0.254   9.714  0.6279  0.8812  0.2361
 7976SOL     OW35389   0.344   1.378   5.745  0.4850 -0.5699 -0.1318
 7976SOL    HW135390   0.354   1.388   5.650  0.9995 -1.2182 -0.1438
 7976SOL    HW235391   0.433   1.400   5.771  0.4371  0.7521 -1.0456
 7977SOL     OW35392   0.895   0.303   3.786  0.8092  0.0457  0.0239
 7977SOL    HW135393   0.939   0.388   3.794 -0.9223  0.8759  0.8738
 7977SOL    HW235394   0.888   0.266   3.874  0.8241 -0.4718 -0.1942
 7978SOL     OW35395   4.399   3.518  12.054  0.4229 -0.5635 -0.0322
 7978SOL    HW135396   4.318   3.530  12.004  0.2831  0.8720  0.5270
 7978SOL    HW235397   4.368   3.535  12.143  0.9478  0.7571 -0.1033
 7979SOL     OW35398   0.638   2.716   1.867 -0.0607 -0.4790 -0.3116
 7979SOL    HW135399   0.645   2.711   1.771  1.3474  1.4270 -0.3240
 7979SOL    HW235400   0.730   2.717   1.893 -0.4152 -1.0704  0.9822
 7980SOL     OW35401   2.685   3.394  12.467  0.3690  0.1062  0.1969
 7980SOL    HW135402   2.725   3.481  12.478 -0.7046  0.4691  1.2943
 7980SOL    HW235403   2.759   3.343  12.436 -0.4002 -0.3056 -0.9390
 7981SOL     OW35404   0.572   3.064  16.289 -0.3624 -0.1429 -0.2100
 7981SOL    HW135405   0.511   3.105  16.228 -2.0762 -2.5262 -0.1120
 7981SOL    HW235406   0.620   3.007  16.229  2.2490  1.3829  0.4595
 7982SOL     OW35407   2.007   3.898   4.753  0.0867  0.0911 -0.3684
 7982SOL    HW135408   1.949   3.833   4.715  0.2679  2.2144 -4.2004
 7982SOL    HW235409   1.973   3.902   4.843 -0.4052  0.0866 -0.5595
 7983SOL     OW35410   0.312   0.535  15.077  0.4045 -0.6914 -0.0122
 7983SOL    HW135411   0.282   0.594  15.007  0.4279 -1.5432 -0.7506
 7983SOL    HW235412   0.322   0.453  15.028  0.6885 -0.4079 -0.4432
 7984SOL     OW35413   4.371   4.309   1.847 -0.0307 -0.0410  0.5701
 7984SOL    HW135414   4.306   4.256   1.801 -0.6994  1.9042 -0.7247
 7984SOL    HW235415   4.331   4.396   1.854  2.0605  1.0195 -0.7732
 7985SOL     OW35416   3.284   1.003   7.795  0.1595 -0.6625 -0.8680
 7985SOL    HW135417   3.219   1.068   7.825  2.4556  1.9931 -1.6232
 7985SOL    HW235418   3.253   0.976   7.709 -0.4823  0.4020 -0.9781
 7986SOL     OW35419   1.985   2.897   4.620 -0.1231  0.5259  0.3095
 7986SOL    HW135420   1.904   2.913   4.668 -1.2335 -4.2085 -0.0433
 7986SOL    HW235421   1.949   2.941   4.543  1.4235  1.7469  0.2861
 7987SOL     OW35422   1.210   3.012   9.171 -0.0309 -0.3065 -0.8415
 7987SOL    HW135423   1.288   2.975   9.130  1.5934  3.4179 -1.0702
 7987SOL    HW235424   1.251   3.069   9.236  0.7087 -1.1427 -0.5832
 7988SOL     OW35425   4.533   4.010   5.046  0.5104  0.2276  0.4259
 7988SOL    HW135426   4.476   3.959   5.103 -0.0226  2.0990  1.5956
 7988SOL    HW235427   4.568   3.944   4.987  0.7111  0.5208  0.2142
 7989SOL     OW35428   4.202   4.523   3.388  0.1532  0.2703  0.1965
 7989SOL    HW135429   4.143   4.541   3.462  1.1929 -0.9744  1.3432
 7989SOL    HW235430   4.292   4.535   3.421 -0.0393  0.1327  0.7695
 7990SOL     OW35431   4.476   1.014   1.710 -0.0107  0.7595  0.0818
 7990SOL    HW135432   4.522   0.946   1.660  1.9478  2.4911 -0.4853
 7990SOL    HW235433   4.421   1.063   1.649  2.4251 -0.4817 -3.0960
 7991SOL     OW35434   0.441   4.270   7.091 -0.0042 -0.2780  0.6928
 7991SOL    HW135435   0.440   4.178   7.115  1.9720 -0.1111  1.3980
 7991SOL    HW235436   0.357   4.310   7.117 -1.2908 -1.8298 -1.1013
 7992SOL     OW35437   1.722   1.381   9.035 -0.5644  0.4271 -0.1669
 7992SOL    HW135438   1.702   1.472   9.013 -0.5891  0.1326 -1.3577
 7992SOL    HW235439   1.814   1.366   9.014 -0.8314  0.7653 -1.5546
 7993SOL     OW35440   2.634   3.693   8.472 -0.5979  0.1744  0.2299
 7993SOL    HW135441   2.631   3.598   8.459 -1.0558  0.0025  1.6363
 7993SOL    HW235442   2.545   3.715   8.444 -0.6632 -2.6338 -1.8103
 7994SOL     OW35443   4.277   2.155   9.640 -0.6941 -0.0346  0.0480
 7994SOL    HW135444   4.197   2.136   9.590 -1.6379  0.8271  1.2134
 7994SOL    HW235445   4.301   2.064   9.659 -0.9011 -0.3003 -0.9675
 7995SOL     OW35446   0.684   0.329   2.901 -0.0346  0.2062 -0.5015
 7995SOL    HW135447   0.736   0.405   2.874  0.8715  0.0124  0.6934
 7995SOL    HW235448   0.627   0.318   2.825 -0.0709  1.3706 -0.6389
 7996SOL     OW35449   2.000   1.356   4.676 -0.1684 -0.2078 -0.5205
 7996SOL    HW135450   1.986   1.316   4.590  1.7400 -2.4407  0.2202
 7996SOL    HW235451   1.915   1.333   4.713  1.2151 -3.2921  0.6902
 7997SOL     OW35452   3.696   3.674  12.913 -0.9863  0.2181  0.2852
 7997SOL    HW135453   3.766   3.739  12.906 -1.4517  1.0866  3.4876
 7997SOL    HW235454   3.736   3.627  12.841 -2.7523  0.3458 -0.7749
 7998SOL     OW35455   4.562   1.947   4.775  0.5054 -0.8596 -0.2738
 7998SOL    HW135456   4.641   2.001   4.781 -0.8219  1.5515 -4.2237
 7998SOL    HW235457   4.500   2.000   4.825  0.5065 -0.9035 -0.2258
 7999SOL     OW35458   3.898   3.921   6.597 -0.4379 -0.7535 -1.1566
 7999SOL    HW135459   3.878   3.834   6.563 -2.8203 -1.1985  1.4536
 7999SOL    HW235460   3.991   3.915   6.621 -0.6185  0.1959 -0.2693
 8000SOL     OW35461   0.448   2.510  14.684  0.3589 -0.1286  0.0802
 8000SOL    HW135462   0.386   2.578  14.709 -0.3149  0.4956 -3.2380
 8000SOL    HW235463   0.445   2.455  14.762  0.1849 -0.5794 -0.2450
 8001SOL     OW35464   4.369   2.935   8.962 -0.0120  0.4621 -0.1785
 8001SOL    HW135465   4.399   3.024   8.942 -1.1995  0.5255 -1.6951
 8001SOL    HW235466   4.403   2.898   8.880 -0.7937 -0.4163 -0.1055
 8002SOL     OW35467   0.143   2.284   2.891 -0.2989  0.6169  0.1150
 8002SOL    HW135468   0.211   2.352   2.890  0.3560 -0.0309  0.3670
 8002SOL    HW235469   0.145   2.281   2.987  2.4745  1.5938  0.0965
 8003SOL     OW35470   0.900   1.844   6.323  0.4664 -0.7051  0.2209
 8003SOL    HW135471   0.901   1.817   6.415  1.5639 -0.7186  0.2044
 8003SOL    HW235472   0.920   1.936   6.340  0.4539 -1.2779  3.2851
 8004SOL     OW35473   4.030   0.084   4.620  0.5937  0.3674 -0.0465
 8004SOL    HW135474   3.970   0.146   4.663 -0.1976  0.4587 -1.2846
 8004SOL    HW235475   4.063   0.133   4.546 -1.9235  1.8525 -0.1882
 8005SOL     OW35476   0.700   1.599   3.448  0.6770 -0.9410  0.2141
 8005SOL    HW135477   0.778   1.646   3.479  0.7606 -1.9491  1.5057
 8005SOL    HW235478   0.741   1.526   3.402 -0.9544 -0.7189 -1.5664
 8006SOL     OW35479   3.494   2.214  16.328  0.4551 -0.0099 -0.8165
 8006SOL    HW135480   3.590   2.213  16.329  0.4166  0.3460  1.9089
 8006SOL    HW235481   3.468   2.164  16.250 -0.6580 -1.2861  0.3626
 8007SOL     OW35482   0.900   2.198   5.890  0.5768 -0.0222 -0.5837
 8007SOL    HW135483   0.938   2.242   5.966  1.7588  2.2626 -2.5160
 8007SOL    HW235484   0.824   2.152   5.928  1.4885  0.0034  1.2474
 8008SOL     OW35485   2.230   1.919   4.473 -0.1561  0.0570 -0.0849
 8008SOL    HW135486   2.257   1.970   4.549 -2.9132  0.4224  0.6191
 8008SOL    HW235487   2.314   1.874   4.466 -1.1522 -1.6352 -1.1616
 8009SOL     OW35488   0.813   1.340   4.823  0.0005 -0.3445  0.3496
 8009SOL    HW135489   0.902   1.333   4.788 -0.2618  0.0090 -0.3825
 8009SOL    HW235490   0.775   1.400   4.759  3.9775  1.3735 -0.3690
 8010SOL     OW35491   3.368   1.184  16.749 -0.3276  0.4421 -0.3639
 8010SOL    HW135492   3.447   1.173  16.802 -1.4978  0.4472  1.4018
 8010SOL    HW235493   3.397   1.235  16.674  1.8929 -0.2179  0.0525
 8011SOL     OW35494   2.442   2.762   8.545  0.5559 -0.1443 -0.3679
 8011SOL    HW135495   2.415   2.843   8.590 -2.8405 -2.6295  2.1404
 8011SOL    HW235496   2.535   2.769   8.567  0.6231 -2.0169 -0.0772
 8012SOL     OW35497   2.431   3.568   3.384 -0.0750 -0.0356 -0.0987
 8012SOL    HW135498   2.497   3.512   3.343 -0.9131 -1.2246  0.1922
 8012SOL    HW235499   2.448   3.536   3.472 -1.0074  0.7540  0.3642
 8013SOL     OW35500   0.454   3.559  17.224  0.2221  0.1228  0.5644
 8013SOL    HW135501   0.445   3.549  17.129  0.5124 -1.9262  0.7606
 8013SOL    HW235502   0.365   3.579  17.253  0.4791 -0.0309  1.4719
 8014SOL     OW35503   2.436   2.750   0.138  0.7927  0.7161  0.0214
 8014SOL    HW135504   2.440   2.809   0.063  0.1011 -2.0493 -2.1978
 8014SOL    HW235505   2.346   2.761   0.169  0.4556  1.3780 -1.1824
 8015SOL     OW35506   1.077   0.581  15.254  0.2141  0.3247  0.1232
 8015SOL    HW135507   0.987   0.561  15.230  0.4680 -0.4406 -0.1932
 8015SOL    HW235508   1.058   0.595  15.347 -2.5607 -1.5467 -0.1968
 8016SOL     OW35509   1.519   4.434   5.286 -0.0536  0.2198  0.2622
 8016SOL    HW135510   1.441   4.379   5.293 -0.3718  0.5856 -0.5559
 8016SOL    HW235511   1.500   4.506   5.347 -1.6778  0.7853 -0.9104
 8017SOL     OW35512   4.186   1.138   2.682  0.1275 -0.1133 -0.0044
 8017SOL    HW135513   4.123   1.075   2.647 -0.1777  0.3730 -0.3331
 8017SOL    HW235514   4.262   1.082   2.700  0.0474  0.0181  0.7300
 8018SOL     OW35515   3.047   2.006  14.809  0.0845 -0.1435 -0.1415
 8018SOL    HW135516   2.988   1.946  14.763  0.4632  1.4960 -2.7261
 8018SOL    HW235517   2.990   2.059  14.866  0.6235  0.9601 -0.6410
 8019SOL     OW35518   0.010   3.872   0.971 -0.0436  0.2751 -0.0635
 8019SOL    HW135519   0.074   3.943   0.971  1.9716 -1.5655  1.3845
 8019SOL    HW235520   4.698   3.876   0.882  1.5684 -2.4199 -0.7993
 8020SOL     OW35521   2.980   2.286  12.535  0.9548  0.1224 -0.0682
 8020SOL    HW135522   2.926   2.365  12.528 -0.4841 -0.7641  0.9975
 8020SOL    HW235523   3.067   2.324  12.543  1.6780 -1.0052 -2.8240
 8021SOL     OW35524   1.653   0.580   5.937  0.1825  0.0632  0.0693
 8021SOL    HW135525   1.573   0.569   5.988 -0.9343  0.4225 -1.6179
 8021SOL    HW235526   1.607   0.596   5.855 -1.0224  2.9224  1.2814
 8022SOL     OW35527   2.677   2.674   1.660  0.2232  0.2032  0.5802
 8022SOL    HW135528   2.614   2.611   1.695 -0.2065 -0.1292 -0.7984
 8022SOL    HW235529   2.755   2.633   1.697 -0.0002  0.4898  1.3619
 8023SOL     OW35530   0.852   4.138   6.090  0.0374  0.6624  0.1752
 8023SOL    HW135531   0.819   4.217   6.046 -2.5172  0.6756  2.0964
 8023SOL    HW235532   0.815   4.146   6.178 -0.2883 -0.2587  0.1229
 8024SOL     OW35533   0.741   1.819   7.871 -0.5614 -0.2106 -0.6962
 8024SOL    HW135534   0.755   1.881   7.942  0.3077  0.8732 -1.8149
 8024SOL    HW235535   0.812   1.757   7.881  0.8369  0.9526 -3.2308
 8025SOL     OW35536   0.707   3.780  15.166  0.0668  0.2496 -0.2752
 8025SOL    HW135537   0.746   3.867  15.181  0.0333  0.5384 -1.8466
 8025SOL    HW235538   0.649   3.778  15.242  1.6047  1.3216  0.9410
 8026SOL     OW35539   2.323   3.613   7.597  0.3427  0.3592  0.8367
 8026SOL    HW135540   2.269   3.545   7.637 -1.8065  1.2240 -0.6347
 8026SOL    HW235541   2.261   3.680   7.569  0.9902  0.2995 -0.6852
 8027SOL     OW35542   0.888   3.002   6.554  0.3116 -0.1148 -0.0031
 8027SOL    HW135543   0.841   3.054   6.619 -0.5021 -0.2362 -0.4932
 8027SOL    HW235544   0.963   2.958   6.594 -0.2050  0.3251  1.4511
 8028SOL     OW35545   0.494   1.791   2.450  0.0343  0.8566 -0.4406
 8028SOL    HW135546   0.587   1.777   2.429 -0.2080 -3.7770  1.7639
 8028SOL    HW235547   0.508   1.809   2.543 -0.5879 -0.3396 -0.1281
 8029SOL     OW35548   3.967   1.011  14.401 -0.6858  0.5453  0.2105
 8029SOL    HW135549   3.994   0.989  14.312 -1.5310 -1.5290  0.4588
 8029SOL    HW235550   3.898   1.075  14.382  0.7568  2.0379  0.0280
 8030SOL     OW35551   0.305   3.376   5.361 -0.0568  0.3530 -0.5563
 8030SOL    HW135552   0.287   3.289   5.325 -0.8265 -0.2515  1.2689
 8030SOL    HW235553   0.320   3.368   5.455  0.5157  1.9858 -0.5199
 8031SOL     OW35554   2.531   1.951   1.356 -0.5390  0.1339 -0.4647
 8031SOL    HW135555   2.527   1.991   1.443  2.8822 -1.1628  0.2966
 8031SOL    HW235556   2.542   1.859   1.383  0.8803  0.3500 -0.3306
 8032SOL     OW35557   2.279   4.378  11.226  0.1983 -0.4860  0.4966
 8032SOL    HW135558   2.280   4.437  11.150  0.8020 -1.8543 -0.5671
 8032SOL    HW235559   2.369   4.352  11.244 -0.0795 -0.1211  2.4018
 8033SOL     OW35560   4.285   0.179   3.449  0.5524 -0.0137  0.0514
 8033SOL    HW135561   4.343   0.111   3.482 -0.3022 -0.5247  0.5180
 8033SOL    HW235562   4.259   0.147   3.362 -1.4157 -0.4196  0.7748
 8034SOL     OW35563   4.443   0.945   8.025 -0.3830 -0.0831 -0.1265
 8034SOL    HW135564   4.412   1.031   8.051  0.9898  1.1396 -2.4786
 8034SOL    HW235565   4.371   0.888   8.053 -0.5295  0.9404  1.5578
 8035SOL     OW35566   4.042   0.277   2.671 -0.7078  0.0813 -0.2923
 8035SOL    HW135567   4.005   0.286   2.583  0.6958  1.9439 -0.6868
 8035SOL    HW235568   4.134   0.295   2.655 -0.0582 -1.9472  1.1467
 8036SOL     OW35569   4.589   1.304   5.074 -0.3189  0.2809  0.0232
 8036SOL    HW135570   4.636   1.281   5.154  0.8936  2.0681 -0.1709
 8036SOL    HW235571   4.612   1.226   5.024 -0.5679  0.3760 -0.2398
 8037SOL     OW35572   0.162   2.501  10.410  0.0110  0.5156  0.4831
 8037SOL    HW135573   0.070   2.521  10.390 -0.4561 -2.5215 -0.3108
 8037SOL    HW235574   0.155   2.477  10.502 -2.9312 -1.2996 -0.2087
 8038SOL     OW35575   3.272   0.294   4.520  0.3354 -0.1700 -0.0596
 8038SOL    HW135576   3.348   0.292   4.577  0.3727 -2.1256 -0.1740
 8038SOL    HW235577   3.210   0.301   4.592  0.8788 -0.4228  0.4242
 8039SOL     OW35578   3.416   1.553   6.351  0.0479 -0.5239 -0.7062
 8039SOL    HW135579   3.369   1.604   6.417  2.3505 -0.4341  0.8246
 8039SOL    HW235580   3.455   1.622   6.297 -0.4835  0.2663 -0.0982
 8040SOL     OW35581   2.436   3.031  15.103 -0.3791 -0.1667 -0.0968
 8040SOL    HW135582   2.526   3.000  15.098 -1.0748 -2.4004  1.2422
 8040SOL    HW235583   2.400   2.995  15.022 -1.5835 -0.4788  0.5694
 8041SOL     OW35584   3.333   2.004   4.039 -0.3719 -0.5057  0.3826
 8041SOL    HW135585   3.405   1.941   4.034  0.1791  0.0005  1.8946
 8041SOL    HW235586   3.384   2.085   4.033  0.4580 -1.2573 -3.0049
 8042SOL     OW35587   0.976   4.010   7.103 -0.1444 -0.1190  0.3265
 8042SOL    HW135588   0.919   4.062   7.160 -0.8579  0.3056 -0.7653
 8042SOL    HW235589   1.024   3.963   7.171  0.3398  0.6463  0.5200
 8043SOL     OW35590   4.227   3.861  13.757 -0.4912 -0.5853  0.0250
 8043SOL    HW135591   4.173   3.788  13.728 -0.1362 -0.1629 -1.7527
 8043SOL    HW235592   4.309   3.819  13.782  0.3337 -0.2233 -2.0772
 8044SOL     OW35593   4.474   0.548   8.435 -0.3231  0.0882  0.2092
 8044SOL    HW135594   4.408   0.575   8.371  0.6978  1.7638 -0.1366
 8044SOL    HW235595   4.459   0.453   8.434  0.3386 -0.0063 -0.5218
 8045SOL     OW35596   1.334   0.882   3.899 -0.2020 -0.1846 -0.1004
 8045SOL    HW135597   1.421   0.845   3.885  0.0503 -0.5828  2.6056
 8045SOL    HW235598   1.289   0.861   3.817  1.5725 -1.4237 -0.7553
 8046SOL     OW35599   0.968   2.983  11.045 -0.2568 -0.3371  0.0736
 8046SOL    HW135600   0.919   3.048  11.095  1.2470 -0.4277  1.6681
 8046SOL    HW235601   0.927   2.902  11.076 -0.5696  0.8730  2.8482
 8047SOL     OW35602   0.423   2.832  15.555 -0.0042  0.2906  0.4488
 8047SOL    HW135603   0.443   2.777  15.479 -0.0519  1.1973 -0.2189
 8047SOL    HW235604   0.421   2.763  15.621  0.3022 -0.3616 -0.2242
 8048SOL     OW35605   1.596   3.819  14.413  0.6698 -0.6232  0.4313
 8048SOL    HW135606   1.597   3.908  14.378  2.9929  0.1915  2.5786
 8048SOL    HW235607   1.537   3.781  14.348 -0.9230  2.1644  0.2500
 8049SOL     OW35608   0.156   4.562  11.415 -1.2234 -0.5467 -0.0513
 8049SOL    HW135609   0.214   4.509  11.470 -0.0965  0.3337 -0.3799
 8049SOL    HW235610   0.129   4.492  11.356  1.6553 -0.7030 -1.1980
 8050SOL     OW35611   0.636   4.575  13.320  0.0105  0.8998 -0.0706
 8050SOL    HW135612   0.568   4.565  13.387 -0.2741  1.2186 -0.3078
 8050SOL    HW235613   0.714   4.549  13.368  0.9575  0.2914 -1.9485
 8051SOL     OW35614   2.410   1.432  15.912  0.4164 -0.3994  0.1256
 8051SOL    HW135615   2.496   1.475  15.908 -0.7202  1.6942 -1.5214
 8051SOL    HW235616   2.335   1.491  15.918  0.0063 -0.8702 -0.3470
 8052SOL     OW35617   1.288   3.442  15.192 -0.0853  0.2722 -0.2554
 8052SOL    HW135618   1.311   3.512  15.253 -1.5473  0.7105 -0.2131
 8052SOL    HW235619   1.212   3.480  15.147  0.1829  1.2588  0.1301
 8053SOL     OW35620   1.554   0.962   2.083  0.6910  0.2349  0.2941
 8053SOL    HW135621   1.542   0.935   1.992 -2.0587 -0.2664  0.7863
 8053SOL    HW235622   1.571   0.876   2.123  3.8173 -0.9262 -3.5860
 8054SOL     OW35623   4.145   1.486   4.562  0.3273 -0.0248  0.2390
 8054SOL    HW135624   4.172   1.399   4.531  1.5791  0.7980 -0.9990
 8054SOL    HW235625   4.066   1.469   4.613  0.5920 -0.6318  0.4477
 8055SOL     OW35626   0.055   1.098  14.686 -0.9168  0.3485 -0.1967
 8055SOL    HW135627   0.010   1.173  14.646 -1.3803 -0.5515 -1.3535
 8055SOL    HW235628   0.071   1.126  14.776  2.2504  2.0282 -1.2651
 8056SOL     OW35629   2.156   2.139   9.599  0.3865  0.8834 -0.0513
 8056SOL    HW135630   2.109   2.071   9.646  0.1637  0.6270 -0.6576
 8056SOL    HW235631   2.123   2.221   9.638 -0.0025  1.0568 -0.7482
 8057SOL     OW35632   3.248   1.605  16.442 -0.2267  0.3767 -0.1711
 8057SOL    HW135633   3.296   1.645  16.370  0.7027  1.1669  0.9014
 8057SOL    HW235634   3.169   1.576  16.396 -1.9732  4.4743  0.3150
 8058SOL     OW35635   2.300   0.941   5.586 -0.4884  0.0401 -0.0608
 8058SOL    HW135636   2.284   1.014   5.646  0.4402  1.2330 -1.2440
 8058SOL    HW235637   2.320   0.992   5.507 -0.6133 -0.7016 -0.5647
 8059SOL     OW35638   3.867   2.246   6.122  0.0846  0.2412 -0.3944
 8059SOL    HW135639   3.896   2.337   6.117 -2.3350  0.9724 -1.4285
 8059SOL    HW235640   3.877   2.222   6.214  0.9034  1.1622 -0.2437
 8060SOL     OW35641   3.872   2.955  10.558  0.0426  0.1499  0.2300
 8060SOL    HW135642   3.820   2.989  10.631 -0.1657 -0.0948  0.1963
 8060SOL    HW235643   3.865   2.864  10.587  0.8684 -0.0918 -0.3350
 8061SOL     OW35644   1.668   0.065   0.089 -0.5530  0.1179  0.0407
 8061SOL    HW135645   1.589   0.116   0.104 -0.0312  1.8315 -3.1421
 8061SOL    HW235646   1.649   4.701   0.123 -1.7493  0.6443  0.7298
 8062SOL     OW35647   0.159   2.040   7.352 -0.5558 -0.1495  0.1951
 8062SOL    HW135648   0.227   2.040   7.419  0.4690 -0.7236 -0.8418
 8062SOL    HW235649   0.103   2.112   7.379 -0.8980 -0.1478 -0.5301
 8063SOL     OW35650   2.857   0.661   7.091  0.1284 -0.0636 -0.5449
 8063SOL    HW135651   2.841   0.567   7.081 -3.1182  0.3792  0.7847
 8063SOL    HW235652   2.931   0.658   7.153 -1.0894 -1.9256  0.8253
 8064SOL     OW35653   1.227   2.702   3.296 -0.0651  0.2409 -0.2007
 8064SOL    HW135654   1.207   2.793   3.317  1.8894  0.2260  1.6726
 8064SOL    HW235655   1.161   2.676   3.231 -2.6891  1.3952  1.9978
 8065SOL     OW35656   1.932   3.448  15.141  0.3199  0.6896  0.0511
 8065SOL    HW135657   1.941   3.442  15.046 -0.4654  0.0667  0.0123
 8065SOL    HW235658   1.956   3.359  15.167 -1.6498  0.8461  2.4682
 8066SOL     OW35659   2.902   0.271  15.617 -0.1788  0.4659  0.1771
 8066SOL    HW135660   2.859   0.357  15.625  0.1113  0.4798  1.7015
 8066SOL    HW235661   2.953   0.259  15.697 -1.4955  0.7748  1.0817
 8067SOL     OW35662   2.938   2.234   4.782  0.7129 -0.0415 -0.1060
 8067SOL    HW135663   2.928   2.169   4.712  2.6143  0.3553 -0.7366
 8067SOL    HW235664   2.894   2.311   4.745 -0.2599 -0.6630 -0.2582
 8068SOL     OW35665   0.469   0.672   3.045 -0.2749  0.3383 -0.4488
 8068SOL    HW135666   0.564   0.673   3.058 -0.6273  1.6383  1.9640
 8068SOL    HW235667   0.455   0.664   2.951 -1.9000  0.3871 -0.2238
 8069SOL     OW35668   0.404   3.504   4.779  0.3443  0.3800  0.1778
 8069SOL    HW135669   0.456   3.429   4.752  0.2461  0.5875 -0.5719
 8069SOL    HW235670   0.444   3.535   4.861  2.0776  0.8100 -0.8497
 8070SOL     OW35671   3.980   3.613   5.956  0.3243 -0.1973  0.1151
 8070SOL    HW135672   4.039   3.613   5.881  1.2142 -1.3070  0.8090
 8070SOL    HW235673   3.985   3.522   5.984  0.0854  0.4933  2.3936
 8071SOL     OW35674   2.826   3.274   8.418 -0.9538  0.2551  0.2655
 8071SOL    HW135675   2.797   3.199   8.366  0.5386 -0.7931  0.9453
 8071SOL    HW235676   2.862   3.232   8.496  0.8232 -0.8109 -1.1440
 8072SOL     OW35677   0.339   0.365  13.176 -0.3896  0.2055  0.2401
 8072SOL    HW135678   0.253   0.378  13.137 -0.6004  1.9477  1.2655
 8072SOL    HW235679   0.344   0.426  13.251 -0.7318  1.3280 -0.6503
 8073SOL     OW35680   3.339   0.582   8.029  0.3172  0.0170  0.7871
 8073SOL    HW135681   3.317   0.633   8.107 -1.5967  1.8992 -0.9341
 8073SOL    HW235682   3.331   0.497   8.071  2.3231 -0.9508 -0.7841
 8074SOL     OW35683   2.677   3.868   1.894 -0.8554  0.1709 -0.5335
 8074SOL    HW135684   2.608   3.816   1.853  1.0704 -0.1719 -3.3320
 8074SOL    HW235685   2.652   3.958   1.875  1.0322  0.9466  0.5917
 8075SOL     OW35686   3.657   0.020   8.400  0.3641  0.1045  0.6923
 8075SOL    HW135687   3.704   4.713   8.322  0.0797  2.5081 -0.4403
 8075SOL    HW235688   3.586   4.679   8.397 -0.4150  0.9814  0.1433
 8076SOL     OW35689   2.887   0.325   8.547  0.6791 -0.1022  0.5825
 8076SOL    HW135690   2.851   0.402   8.591  1.8574  0.2404  0.9386
 8076SOL    HW235691   2.831   0.320   8.469 -0.0692  1.5583  1.0095
 8077SOL     OW35692   1.380   2.256  13.759  0.5568 -0.0985  0.3876
 8077SOL    HW135693   1.304   2.215  13.800  0.8897  0.7909  1.9107
 8077SOL    HW235694   1.418   2.293  13.839 -1.1066 -2.1169  2.1015
 8078SOL     OW35695   4.639   0.509  11.117  0.6871  0.7902  0.1092
 8078SOL    HW135696   4.569   0.452  11.148  0.8124  0.6211  0.0798
 8078SOL    HW235697   4.720   0.459  11.124  1.0630  1.4029  0.1219
 8079SOL     OW35698   3.368   1.704  10.919  0.3135  0.5287  0.2455
 8079SOL    HW135699   3.375   1.730  11.011  3.1135  4.3694 -1.0409
 8079SOL    HW235700   3.273   1.699  10.908  0.3421 -0.8773  0.5644
 8080SOL     OW35701   0.585   2.963   8.222 -0.2466  0.4185 -0.2644
 8080SOL    HW135702   0.506   2.980   8.272  0.7922  2.7556  0.5852
 8080SOL    HW235703   0.597   2.868   8.222  0.0420  0.4593  1.2411
 8081SOL     OW35704   0.309   2.314   3.305 -0.2579  0.5110  0.1433
 8081SOL    HW135705   0.347   2.234   3.269 -2.2280  0.2506 -1.3761
 8081SOL    HW235706   0.354   2.393   3.276  0.1649 -0.7969 -2.8606
 8082SOL     OW35707   2.843   3.371  12.149  0.9072 -0.7132 -0.1053
 8082SOL    HW135708   2.749   3.389  12.146  1.1516  0.8865  1.5373
 8082SOL    HW235709   2.846   3.326  12.065  0.8825 -1.6213  0.3782
 8083SOL     OW35710   4.184   3.862  17.218 -0.1338  0.0251 -0.1995
 8083SOL    HW135711   4.109   3.841  17.274 -0.7078  0.2964 -0.8587
 8083SOL    HW235712   4.155   3.803  17.148 -1.7326 -0.4498  0.8539
 8084SOL     OW35713   3.045   2.562   1.982  0.0364 -0.1467 -0.0924
 8084SOL    HW135714   3.027   2.553   2.075  0.3393 -1.7270 -0.1930
 8084SOL    HW235715   3.139   2.580   1.983 -0.0817  0.5021 -1.0378
 8085SOL     OW35716   2.177   4.097  13.122 -0.5066 -0.5131  0.4406
 8085SOL    HW135717   2.144   4.008  13.110 -1.6035 -0.1423  0.7771
 8085SOL    HW235718   2.167   4.135  13.035 -2.9434  0.9822  1.3987
 8086SOL     OW35719   0.796   3.551   5.771  0.2025 -0.3575 -0.3961
 8086SOL    HW135720   0.888   3.571   5.784  0.5303 -1.0597 -1.5736
 8086SOL    HW235721   0.754   3.611   5.832 -2.4133 -1.5482 -1.0189
 8087SOL     OW35722   4.321   0.418  11.551 -0.0567 -0.2514 -0.3921
 8087SOL    HW135723   4.333   0.509  11.578  1.1320 -0.6600  0.4945
 8087SOL    HW235724   4.229   0.411  11.525 -0.0181 -3.2775  0.2094
 8088SOL     OW35725   2.957   3.189  14.276  0.3645  0.0110  0.4931
 8088SOL    HW135726   3.015   3.113  14.273 -0.8128 -0.8717  0.1434
 8088SOL    HW235727   3.011   3.259  14.239  0.4874 -0.2869  0.1081
 8089SOL     OW35728   4.220   3.179   4.961  0.7095  0.4801  0.0706
 8089SOL    HW135729   4.217   3.179   5.056 -0.8755  3.8407  0.0047
 8089SOL    HW235730   4.239   3.269   4.937 -0.9607  1.0211  0.7991
 8090SOL     OW35731   3.832   0.438  11.318 -0.4167  0.2086  0.3970
 8090SOL    HW135732   3.792   0.374  11.376 -1.0292  0.0783 -0.1711
 8090SOL    HW235733   3.901   0.455  11.382  2.1973 -0.2441 -2.2522
 8091SOL     OW35734   4.153   1.961   6.249  0.1149 -0.8126 -0.1667
 8091SOL    HW135735   4.125   2.046   6.283  1.1892 -1.0434  1.2931
 8091SOL    HW235736   4.180   1.987   6.161  1.5317  1.8824  1.0546
 8092SOL     OW35737   3.856   3.849   0.873 -0.2271 -0.1541 -0.2218
 8092SOL    HW135738   3.893   3.936   0.860 -0.9561  0.4520  1.6900
 8092SOL    HW235739   3.882   3.844   0.965 -1.4192 -2.8868 -0.0295
 8093SOL     OW35740   0.723   0.243  16.181  0.3392  0.0988  0.1319
 8093SOL    HW135741   0.795   0.183  16.199 -0.9709 -2.4530 -3.1051
 8093SOL    HW235742   0.664   0.209  16.247  0.5983  0.6284  0.6348
 8094SOL     OW35743   1.317   1.811   4.966 -0.4985  0.5159 -0.0449
 8094SOL    HW135744   1.224   1.810   4.989 -0.1319  2.8611  1.5851
 8094SOL    HW235745   1.311   1.740   4.902 -0.9078 -1.4716  2.1756
 8095SOL     OW35746   0.073   2.102   4.750 -0.3648 -0.4408 -0.5526
 8095SOL    HW135747   0.138   2.159   4.710  1.8442 -2.3413  0.3695
 8095SOL    HW235748   0.117   2.028   4.791 -0.0803 -1.4197 -2.6099
 8096SOL     OW35749   3.629   4.618   4.119  0.2929 -0.1685  0.6592
 8096SOL    HW135750   3.635   4.556   4.047  0.2188  2.3790 -1.5633
 8096SOL    HW235751   3.537   4.620   4.148  0.0333 -1.4603 -0.1251
 8097SOL     OW35752   2.205   4.446   8.803 -0.3204  0.1999  0.8582
 8097SOL    HW135753   2.151   4.367   8.802  0.4352 -0.3083 -0.3544
 8097SOL    HW235754   2.220   4.452   8.897  1.6033 -1.1877  0.6411
 8098SOL     OW35755   1.869   0.609  14.249  0.1724  0.2174  0.1039
 8098SOL    HW135756   1.889   0.657  14.330 -0.1485 -2.0344  1.4936
 8098SOL    HW235757   1.829   0.676  14.194 -2.1665  0.4909  2.1349
 8099SOL     OW35758   3.328   2.616  13.046 -0.2212  0.5152  0.0037
 8099SOL    HW135759   3.314   2.537  12.994  1.1027  0.7451 -0.6984
 8099SOL    HW235760   3.255   2.673  13.023 -0.2123  0.6956  0.4121
 8100SOL     OW35761   1.273   1.266   5.325  0.1199  0.2344 -0.0396
 8100SOL    HW135762   1.354   1.245   5.279  0.6272 -0.5891  1.2385
 8100SOL    HW235763   1.209   1.272   5.254 -1.0715  3.9819  1.3710
 8101SOL     OW35764   0.195   2.610   4.434  0.2194  0.1156  0.6126
 8101SOL    HW135765   0.130   2.590   4.367 -0.5002 -1.6320  1.8180
 8101SOL    HW235766   0.269   2.647   4.387  1.6963 -0.1251  2.7478
 8102SOL     OW35767   3.810   4.248   9.118  0.2313  0.1297  0.2047
 8102SOL    HW135768   3.723   4.211   9.107  0.5749  0.1913 -2.7564
 8102SOL    HW235769   3.793   4.333   9.078 -1.8582 -1.3311 -2.0130
 8103SOL     OW35770   0.241   4.194   0.330  0.1397 -0.7092 -0.0694
 8103SOL    HW135771   0.223   4.182   0.237 -1.3248 -1.6423  0.3211
 8103SOL    HW235772   0.329   4.157   0.333  0.3588 -0.1935 -0.1915
 8104SOL     OW35773   1.216   3.730   7.874  0.2752  0.7662 -0.1157
 8104SOL    HW135774   1.213   3.695   7.963 -1.0123 -0.0481 -0.4790
 8104SOL    HW235775   1.148   3.681   7.829 -1.3647  1.2653  1.8231
 8105SOL     OW35776   1.502   2.897  10.356  0.4860  0.5180 -0.6661
 8105SOL    HW135777   1.432   2.959  10.337  1.2808  1.6434  0.0912
 8105SOL    HW235778   1.463   2.850  10.429  0.0349 -1.6226 -2.2700
 8106SOL     OW35779   3.085   4.173  16.230 -0.1522  0.3289  0.7205
 8106SOL    HW135780   3.138   4.159  16.151  4.0508  1.2559  3.4149
 8106SOL    HW235781   3.001   4.204  16.196  0.6797  1.9184  0.1163
 8107SOL     OW35782   3.154   4.328   1.637  0.0499 -0.1686  0.5049
 8107SOL    HW135783   3.097   4.352   1.710  1.9111  2.3182  1.1515
 8107SOL    HW235784   3.233   4.376   1.662  0.2847  0.7052 -1.8787
 8108SOL     OW35785   0.730   4.029   4.296  0.3383  0.0489  0.1018
 8108SOL    HW135786   0.778   3.971   4.237 -0.2879 -0.2010 -0.1680
 8108SOL    HW235787   0.747   4.114   4.257  0.2944  0.1496  0.3009
 8109SOL     OW35788   3.307   3.332  11.708 -0.0149  0.1889 -0.4117
 8109SOL    HW135789   3.335   3.290  11.626  1.2286  1.5649 -0.6741
 8109SOL    HW235790   3.352   3.276  11.771 -2.0452 -1.2686 -0.2145
 8110SOL     OW35791   4.569   1.309   8.202 -0.4027  0.1565 -0.7113
 8110SOL    HW135792   4.623   1.235   8.230 -0.7495 -0.4253 -1.6089
 8110SOL    HW235793   4.492   1.263   8.169  0.2776 -1.6361  0.1851
 8111SOL     OW35794   3.593   4.164  12.595 -0.0189 -0.0688 -0.1351
 8111SOL    HW135795   3.631   4.122  12.518  0.9107 -2.4270  1.6190
 8111SOL    HW235796   3.677   4.199  12.624  0.4497 -1.1222 -0.2324
 8112SOL     OW35797   0.159   4.091   8.251  0.2180  0.1169 -0.0182
 8112SOL    HW135798   0.234   4.135   8.211  0.7496  0.6285  1.5539
 8112SOL    HW235799   0.164   4.110   8.344 -0.9333 -3.7244  0.8270
 8113SOL     OW35800   1.234   3.718   0.143  0.1457 -0.0880  0.1814
 8113SOL    HW135801   1.161   3.657   0.149  0.2909 -0.1656  1.1167
 8113SOL    HW235802   1.255   3.713   0.236 -0.7026 -0.6123  0.3458
 8114SOL     OW35803   2.244   3.333   6.305  0.4915 -0.8703 -0.0902
 8114SOL    HW135804   2.225   3.368   6.392  0.8984  0.1853 -0.4286
 8114SOL    HW235805   2.214   3.403   6.246 -1.8489 -1.7116  0.0757
 8115SOL     OW35806   0.137   4.350  10.351 -0.4611 -0.1246  0.4145
 8115SOL    HW135807   0.174   4.436  10.373 -0.1208 -0.4602  1.1725
 8115SOL    HW235808   0.116   4.316  10.438 -0.4925 -0.5414  0.2434
 8116SOL     OW35809   3.701   0.830  14.219 -0.3517 -0.3114  0.5183
 8116SOL    HW135810   3.667   0.761  14.277  1.3011 -0.4304  1.3328
 8116SOL    HW235811   3.788   0.795  14.200 -1.2394 -2.6062  0.6287
 8117SOL     OW35812   3.521   3.592   5.389 -0.0976  0.4339 -0.0877
 8117SOL    HW135813   3.443   3.564   5.437  0.5860 -3.2468 -1.0829
 8117SOL    HW235814   3.548   3.506   5.357 -3.6066 -1.3485  1.7233
 8118SOL     OW35815   3.932   2.197  11.866 -0.5539 -0.1074  0.3969
 8118SOL    HW135816   3.881   2.223  11.790  0.3173  3.3630  0.9645
 8118SOL    HW235817   3.869   2.171  11.933 -1.4135  3.1716  0.8783
 8119SOL     OW35818   0.005   3.398  13.783 -0.9508  0.0707 -0.0113
 8119SOL    HW135819   4.671   3.385  13.709  0.4104  1.2301 -1.2841
 8119SOL    HW235820   4.685   3.475  13.819 -1.2142  0.2197 -0.6656
 8120SOL     OW35821   2.357   0.414   4.311  0.4271 -0.3129  0.1791
 8120SOL    HW135822   2.380   0.342   4.253  2.1945 -0.8366  1.5185
 8120SOL    HW235823   2.416   0.414   4.386 -0.4736 -1.8906  0.8898
 8121SOL     OW35824   0.284   3.554   4.538 -0.3895  0.0376 -0.2112
 8121SOL    HW135825   0.280   3.532   4.631  0.3432 -1.6162 -0.5663
 8121SOL    HW235826   0.366   3.603   4.540  0.8805 -2.1432  1.0979
 8122SOL     OW35827   2.803   3.128   9.413 -0.4629 -0.3384  0.0348
 8122SOL    HW135828   2.895   3.154   9.414 -0.0456 -1.9243  1.7249
 8122SOL    HW235829   2.806   3.058   9.478  0.8150  0.6792  1.0794
 8123SOL     OW35830   3.862   0.554  11.058 -0.1770 -0.4891 -0.1111
 8123SOL    HW135831   3.909   0.636  11.074 -1.7971  0.1593  1.3695
 8123SOL    HW235832   3.852   0.515  11.145  1.1753 -0.4795  0.0486
 8124SOL     OW35833   4.239   0.135   1.158  0.0983 -0.1725 -0.0789
 8124SOL    HW135834   4.191   0.160   1.237 -0.4832  1.3673 -0.9262
 8124SOL    HW235835   4.233   0.222   1.120  1.9887  0.3319  0.7798
 8125SOL     OW35836   3.016   0.250   7.933  0.7412  0.2050  1.0097
 8125SOL    HW135837   3.019   0.315   8.003 -0.1652  0.2030  1.0512
 8125SOL    HW235838   3.075   0.288   7.867 -0.4582 -1.8547 -1.2223
 8126SOL     OW35839   2.966   4.186   1.152 -0.2634 -0.5304  0.5208
 8126SOL    HW135840   2.980   4.235   1.233 -0.2266  0.3052  0.0062
 8126SOL    HW235841   2.959   4.264   1.097 -0.4319 -0.9705 -0.0859
 8127SOL     OW35842   0.575   4.243   6.106  0.1332 -0.2559  0.3367
 8127SOL    HW135843   0.626   4.225   6.185 -0.6591 -1.1816  0.6298
 8127SOL    HW235844   0.486   4.241   6.140 -0.9327  2.7848 -2.2500
 8128SOL     OW35845   4.051   0.316   3.981  0.1727  0.1519  0.0306
 8128SOL    HW135846   4.070   0.261   3.905 -1.0174 -0.4996  0.2020
 8128SOL    HW235847   4.129   0.372   3.984 -0.0390  0.4718 -0.3512
 8129SOL     OW35848   1.678   1.715   4.330 -0.3513 -0.1849  0.8468
 8129SOL    HW135849   1.668   1.757   4.415  2.0389 -1.6294  1.8664
 8129SOL    HW235850   1.697   1.626   4.360 -2.5976 -0.4275  1.5363
 8130SOL     OW35851   0.457   1.016   6.475  0.1773 -0.6722  0.2163
 8130SOL    HW135852   0.530   1.048   6.422 -0.7752  0.3588 -0.4630
 8130SOL    HW235853   0.430   0.955   6.407 -1.7948  0.9257 -0.4277
 8131SOL     OW35854   0.100   2.641   4.027  0.0246  0.1927 -0.5538
 8131SOL    HW135855   0.051   2.587   3.966  0.1599  2.1896 -2.4267
 8131SOL    HW235856   0.035   2.711   4.035 -2.3740 -2.1787  0.8020
 8132SOL     OW35857   1.864   1.564   8.207  0.8087 -0.1595 -0.2607
 8132SOL    HW135858   1.787   1.563   8.149  0.1069  0.5064  0.6577
 8132SOL    HW235859   1.839   1.493   8.266 -0.6175 -0.5987 -1.3759
 8133SOL     OW35860   3.904   3.703   3.923 -0.4619 -0.1357  0.0051
 8133SOL    HW135861   3.952   3.730   3.844 -0.8000 -0.0456 -0.1689
 8133SOL    HW235862   3.831   3.656   3.884  0.6566 -1.4342 -0.5372
 8134SOL     OW35863   2.254   3.782   8.006 -0.0360 -0.3334  0.0913
 8134SOL    HW135864   2.215   3.793   8.093  0.1682 -0.3762  0.1877
 8134SOL    HW235865   2.280   3.872   7.986  1.2481 -0.6578  0.3207
 8135SOL     OW35866   3.712   1.865   2.422 -0.9288 -0.1338 -0.0638
 8135SOL    HW135867   3.653   1.810   2.475 -0.3217 -0.5355  0.1957
 8135SOL    HW235868   3.786   1.860   2.483  0.1858  1.0882 -1.3025
 8136SOL     OW35869   4.507   1.359   6.515  0.3263  0.2544  0.2322
 8136SOL    HW135870   4.581   1.404   6.556  0.2004  0.9986 -0.3596
 8136SOL    HW235871   4.478   1.293   6.579 -0.8296 -0.5393 -1.1198
 8137SOL     OW35872   4.297   1.723   4.338  0.8960 -0.2175  0.2318
 8137SOL    HW135873   4.283   1.752   4.428 -1.7123 -3.4741  0.8641
 8137SOL    HW235874   4.358   1.794   4.317 -0.3537  0.4385 -1.2464
 8138SOL     OW35875   0.206   1.567   6.048  0.4011  0.0784 -0.6147
 8138SOL    HW135876   0.160   1.519   6.117  1.6922  1.2017  1.0339
 8138SOL    HW235877   0.175   1.656   6.063  1.5322  0.7122 -2.1132
 8139SOL     OW35878   2.619   2.962  14.131 -0.0340  1.2508 -0.0797
 8139SOL    HW135879   2.524   2.969  14.123  0.1137  2.2625 -0.9240
 8139SOL    HW235880   2.647   2.899  14.065  1.0089 -0.5040  2.0306
 8140SOL     OW35881   1.983   3.442   8.371 -0.3101  0.2825  0.3123
 8140SOL    HW135882   1.939   3.497   8.436  0.0466  1.4416 -0.4421
 8140SOL    HW235883   2.075   3.444   8.395 -0.1292 -0.5400 -0.2856
 8141SOL     OW35884   2.102   0.237   4.719 -0.3713  0.5009 -0.3611
 8141SOL    HW135885   2.011   0.212   4.700 -0.6655  1.6814 -0.5072
 8141SOL    HW235886   2.106   0.232   4.814  0.6140  0.5306 -0.3993
 8142SOL     OW35887   3.224   2.898   3.223 -0.4982 -0.1166  0.1486
 8142SOL    HW135888   3.184   2.877   3.138 -0.0109 -0.2200 -0.0555
 8142SOL    HW235889   3.265   2.981   3.201 -0.9256 -0.9352 -3.6724
 8143SOL     OW35890   4.033   1.939  10.514  0.4369 -0.2913 -0.3383
 8143SOL    HW135891   4.115   1.975  10.545  0.2781  0.7093 -1.0819
 8143SOL    HW235892   4.016   1.872  10.581 -1.9429 -0.3880 -1.0171
 8144SOL     OW35893   1.979   2.937   8.474 -0.0315 -0.0740  0.3576
 8144SOL    HW135894   1.893   2.978   8.466  0.8459  1.2136 -2.3865
 8144SOL    HW235895   2.029   2.995   8.417 -1.9210  0.3326 -0.8578
 8145SOL     OW35896   2.615   1.006   6.781 -0.5080  0.6119 -0.7793
 8145SOL    HW135897   2.586   0.950   6.853  1.3176 -0.7989 -1.1257
 8145SOL    HW235898   2.538   1.044   6.741 -0.2641  1.5253 -0.3703
 8146SOL     OW35899   3.686   0.173   6.254  0.2261  0.2415  0.5172
 8146SOL    HW135900   3.660   0.244   6.195  3.0291  0.7221 -0.1147
 8146SOL    HW235901   3.621   0.107   6.229  0.1728 -0.9617  3.7501
 8147SOL     OW35902   3.570   0.668   1.125  0.7485  0.2168 -0.3379
 8147SOL    HW135903   3.527   0.741   1.080 -0.5414  0.5904  1.4764
 8147SOL    HW235904   3.496   0.609   1.139  1.9342 -0.7867  1.6954
 8148SOL     OW35905   2.922   1.968   7.687  0.0912  0.2894  0.0620
 8148SOL    HW135906   2.953   1.893   7.738  0.9186  0.5235 -0.0942
 8148SOL    HW235907   2.881   2.024   7.753 -1.5286 -0.7713 -0.0296
 8149SOL     OW35908   3.317   3.935   1.900 -0.1726  0.0472 -0.7515
 8149SOL    HW135909   3.246   3.961   1.842 -0.7486 -0.9272 -0.4820
 8149SOL    HW235910   3.358   3.867   1.846  1.1112  0.6939 -0.6025
 8150SOL     OW35911   1.115   2.503   4.248 -0.2349 -0.0747 -0.3234
 8150SOL    HW135912   1.095   2.536   4.336 -0.4035 -1.1559  0.0327
 8150SOL    HW235913   1.049   2.554   4.201  0.3888 -0.0209 -1.1402
 8151SOL     OW35914   4.175   1.898   8.304  0.1709  0.2209 -0.1355
 8151SOL    HW135915   4.162   1.826   8.366  0.0135 -2.1743 -2.9482
 8151SOL    HW235916   4.202   1.970   8.360 -0.2852 -0.0252  0.4058
 8152SOL     OW35917   1.845   3.177  14.697  0.0486  0.3153 -0.0086
 8152SOL    HW135918   1.840   3.246  14.631  3.1362  1.7154  1.2361
 8152SOL    HW235919   1.840   3.226  14.779  0.1359  0.2755  0.0201
 8153SOL     OW35920   0.064   0.117   9.072  0.2469  0.4736 -0.5185
 8153SOL    HW135921   0.079   0.120   8.978  1.5243 -0.2684 -0.3348
 8153SOL    HW235922   4.702   0.076   9.080 -0.2527  1.1964 -2.2220
 8154SOL     OW35923   2.766   3.599  15.048  0.5585 -0.2902 -0.3806
 8154SOL    HW135924   2.760   3.514  15.005  0.9492  0.4550 -1.9283
 8154SOL    HW235925   2.684   3.599  15.098 -0.5839  1.2145 -2.2194
 8155SOL     OW35926   1.831   0.211   1.686 -0.0559  0.3504  0.6111
 8155SOL    HW135927   1.839   0.169   1.600 -0.0277 -0.6230  1.0789
 8155SOL    HW235928   1.917   0.254   1.682  0.0594  0.1860  1.2564
 8156SOL     OW35929   4.698   2.747   2.428 -0.0135 -0.6245  0.3867
 8156SOL    HW135930   0.042   2.813   2.418  0.2533 -0.6003  2.2412
 8156SOL    HW235931   4.659   2.768   2.513 -1.2193 -0.1557 -0.2851
 8157SOL     OW35932   2.320   3.770   7.182  0.1441 -0.7515 -0.2930
 8157SOL    HW135933   2.250   3.741   7.240 -0.8442  3.5605  0.7139
 8157SOL    HW235934   2.292   3.714   7.110 -1.0113  0.3250 -0.6936
 8158SOL     OW35935   3.675   1.072   5.596  0.4292 -0.2912  0.4872
 8158SOL    HW135936   3.695   1.055   5.688  0.5248 -0.7113  0.3875
 8158SOL    HW235937   3.607   1.009   5.575 -0.2070 -0.0883  1.9236
 8159SOL     OW35938   0.288   3.537   8.502 -0.0029 -0.3201 -0.5532
 8159SOL    HW135939   0.303   3.592   8.426  0.5379 -1.5273 -1.3177
 8159SOL    HW235940   0.355   3.472   8.483 -0.1758 -1.5142  2.8413
 8160SOL     OW35941   3.647   1.579   1.875  0.3442  0.5021  0.0485
 8160SOL    HW135942   3.647   1.538   1.961 -0.4778 -1.2071 -0.7720
 8160SOL    HW235943   3.575   1.643   1.884 -0.1211  0.1022 -0.7749
 8161SOL     OW35944   3.632   0.184   8.620 -0.0179  0.3703 -0.2258
 8161SOL    HW135945   3.653   0.126   8.547  0.9530  1.2824 -0.6627
 8161SOL    HW235946   3.536   0.183   8.628 -0.1881  0.0700 -2.3008
 8162SOL     OW35947   3.464   1.322  15.295 -0.5891 -0.7438 -0.1036
 8162SOL    HW135948   3.368   1.320  15.294 -0.6251  1.0311 -0.0898
 8162SOL    HW235949   3.478   1.322  15.200 -1.7458 -2.2420 -0.2856
 8163SOL     OW35950   1.431   1.851   9.987 -0.2465 -0.1176 -0.0809
 8163SOL    HW135951   1.468   1.875   9.902 -0.1545 -0.4399 -0.1285
 8163SOL    HW235952   1.360   1.795   9.957  0.1566 -0.4031 -0.5074
 8164SOL     OW35953   2.578   4.077  14.994  0.2500  0.1467  0.0646
 8164SOL    HW135954   2.656   4.118  14.957  0.9033  2.0780  3.5729
 8164SOL    HW235955   2.574   3.988  14.959  0.0982  1.1897 -2.5483
 8165SOL     OW35956   2.725   1.921   4.809 -0.2328 -0.2874  0.1061
 8165SOL    HW135957   2.754   1.955   4.894 -0.7575  0.8145 -0.1628
 8165SOL    HW235958   2.797   1.942   4.750 -1.6861  1.5767 -0.9994
 8166SOL     OW35959   4.595   1.715   4.611 -0.0959 -0.0445 -0.0438
 8166SOL    HW135960   4.682   1.686   4.583  0.3264  2.2994 -1.1122
 8166SOL    HW235961   4.608   1.797   4.658 -0.2862 -0.4270  0.6775
 8167SOL     OW35962   0.094   4.657   2.818 -0.1694 -0.7024 -0.2578
 8167SOL    HW135963   0.042   4.615   2.751 -1.0972  0.2508 -0.1349
 8167SOL    HW235964   0.109   4.592   2.887 -0.3007 -0.5070 -0.0429
 8168SOL     OW35965   1.710   0.643  10.512  0.1264 -0.1953 -0.9377
 8168SOL    HW135966   1.753   0.651  10.597  1.2736 -1.0525 -1.4358
 8168SOL    HW235967   1.620   0.649  10.544 -0.1572  0.6942 -1.9010
 8169SOL     OW35968   3.235   2.211   2.721 -0.0533  0.0319 -0.2690
 8169SOL    HW135969   3.235   2.133   2.665  0.0768  0.1090 -0.3765
 8169SOL    HW235970   3.211   2.177   2.807  3.5972 -1.9011 -0.0212
 8170SOL     OW35971   2.912   1.580   1.918  0.8488 -0.9609  0.8967
 8170SOL    HW135972   2.909   1.550   2.009  2.0625 -2.5669  0.4022
 8170SOL    HW235973   2.997   1.548   1.886  1.7073  0.9776  1.2151
 8171SOL     OW35974   2.485   3.879   6.585 -0.2794 -0.0315  0.2635
 8171SOL    HW135975   2.419   3.946   6.603 -0.1901  0.4556 -1.2044
 8171SOL    HW235976   2.570   3.907   6.618  0.3968 -0.8180 -0.7936
 8172SOL     OW35977   3.358   3.861  14.084  0.4526  0.9271  0.1276
 8172SOL    HW135978   3.376   3.768  14.094  1.6451  1.1041 -0.4602
 8172SOL    HW235979   3.345   3.874  13.990 -1.6759  1.2671  0.4556
 8173SOL     OW35980   0.815   0.082  16.563 -0.5684  0.1857 -0.1038
 8173SOL    HW135981   0.841   0.093  16.655  0.8174  0.6869 -0.5559
 8173SOL    HW235982   0.868   0.007  16.536 -1.3442 -0.9993  1.6045
 8174SOL     OW35983   2.809   3.010   6.895  0.4387 -0.1210  0.2474
 8174SOL    HW135984   2.732   3.065   6.911 -0.0076 -0.9389  0.9378
 8174SOL    HW235985   2.827   3.029   6.803  0.8187 -1.3096  0.0757
 8175SOL     OW35986   4.677   1.124  12.346  0.6051 -0.2671 -0.3728
 8175SOL    HW135987   4.706   1.097  12.433  1.6574 -0.5860 -0.8237
 8175SOL    HW235988   0.037   1.164  12.327 -0.1786  1.5623  0.0163
 8176SOL     OW35989   1.530   2.143   3.369  0.2779  0.0283 -0.0806
 8176SOL    HW135990   1.505   2.217   3.424 -1.3519 -0.3841 -0.2708
 8176SOL    HW235991   1.455   2.085   3.379 -0.6207  1.7809  3.0842
 8177SOL     OW35992   3.910   1.576   1.221 -0.0465 -0.5227  0.2249
 8177SOL    HW135993   3.843   1.645   1.222  0.1086 -0.3701 -1.6640
 8177SOL    HW235994   3.868   1.510   1.276 -1.3532  0.6159  0.5920
 8178SOL     OW35995   4.457   4.244   9.830  0.2631 -0.4835 -0.0897
 8178SOL    HW135996   4.517   4.250   9.904  1.1123  0.3447 -0.8355
 8178SOL    HW235997   4.389   4.182   9.855 -0.2869  0.8267  1.6496
 8179SOL     OW35998   3.126   1.518   8.866  0.2727 -0.7314 -0.3965
 8179SOL    HW135999   3.123   1.496   8.959 -0.9713 -0.2280 -0.3107
 8179SOL    HW236000   3.033   1.508   8.846  0.5343 -1.3351 -1.3134
 8180SOL     OW36001   1.917   2.069   4.707  0.2993  0.5516  0.2555
 8180SOL    HW136002   1.826   2.058   4.737 -0.1493  1.2171 -0.8818
 8180SOL    HW236003   1.893   2.144   4.653 -1.4400 -0.7317 -0.7603
 8181SOL     OW36004   3.261   1.173   1.757 -0.1434 -0.0354  0.1209
 8181SOL    HW136005   3.209   1.125   1.693 -0.2963  1.7899 -1.1129
 8181SOL    HW236006   3.329   1.109   1.782 -2.7501 -2.5378  0.8597
 8182SOL     OW36007   3.530   3.232   9.197  0.1157  0.1712  0.0706
 8182SOL    HW136008   3.578   3.309   9.165  0.9815 -0.7964 -0.9511
 8182SOL    HW236009   3.559   3.165   9.136  3.0887  2.0658 -0.6427
 8183SOL     OW36010   4.593   3.807   5.608 -0.2144 -0.0666  0.0753
 8183SOL    HW136011   4.519   3.865   5.627  0.1627  0.7116 -0.8445
 8183SOL    HW236012   4.662   3.859   5.650 -0.1004 -0.2788  0.1467
 8184SOL     OW36013   2.912   3.834  12.710  0.1330 -0.0951  0.2073
 8184SOL    HW136014   2.894   3.838  12.804  0.8702  0.9523  0.2964
 8184SOL    HW236015   3.007   3.841  12.710 -0.1191  3.6224  2.1107
 8185SOL     OW36016   0.898   0.344  14.603 -0.2238 -0.2587  0.7081
 8185SOL    HW136017   0.822   0.348  14.661 -1.0939 -3.6420 -0.2184
 8185SOL    HW236018   0.868   0.393  14.526  0.8231  0.2810  0.6376
 8186SOL     OW36019   3.819   2.927   2.866 -0.3851 -0.2115 -0.5408
 8186SOL    HW136020   3.888   2.972   2.818  0.3250 -1.8517 -1.0430
 8186SOL    HW236021   3.856   2.874   2.936 -2.5717  1.7628  2.1367
 8187SOL     OW36022   1.358   2.532   3.442 -0.5811  0.1866  0.5113
 8187SOL    HW136023   1.433   2.524   3.384 -0.3157 -0.0069  0.8770
 8187SOL    HW236024   1.308   2.599   3.396  0.7931 -0.0485 -1.3489
 8188SOL     OW36025   4.134   3.896   6.750 -0.2334 -0.1843 -0.1736
 8188SOL    HW136026   4.179   3.964   6.799 -1.4626  1.1372 -0.8924
 8188SOL    HW236027   4.128   3.832   6.821  2.0907 -0.7253 -0.4639
 8189SOL     OW36028   4.115   0.488   1.384 -0.5983 -0.0638  0.4384
 8189SOL    HW136029   4.204   0.517   1.406  0.4155 -2.5419 -0.4483
 8189SOL    HW236030   4.085   0.569   1.343  0.4820 -0.6767 -1.5839
 8190SOL     OW36031   1.139   3.601   8.813  0.2288 -0.4022  0.0814
 8190SOL    HW136032   1.105   3.540   8.878 -2.2211  0.2190 -0.6259
 8190SOL    HW236033   1.064   3.632   8.763  1.4069 -0.2692 -1.6274
 8191SOL     OW36034   0.345   2.636  11.156 -0.1296 -0.0748  0.2453
 8191SOL    HW136035   0.325   2.637  11.062  2.1172  2.7762 -0.1820
 8191SOL    HW236036   0.318   2.550  11.189  0.1448  1.0232  3.3131
 8192SOL     OW36037   4.212   4.426  11.788  0.9383 -0.2346  0.6290
 8192SOL    HW136038   4.275   4.360  11.757 -0.0575 -1.1331  0.5413
 8192SOL    HW236039   4.217   4.487  11.714  0.7676 -0.2632  0.5942
 8193SOL     OW36040   3.973   2.529   7.188  0.1508  0.3683  0.5137
 8193SOL    HW136041   4.041   2.461   7.187  1.4240  1.5929  2.5151
 8193SOL    HW236042   3.929   2.500   7.267  1.6079  0.4825  1.3779
 8194SOL     OW36043   1.046   1.133   4.520 -0.3052  0.2354  0.7973
 8194SOL    HW136044   1.126   1.107   4.475 -1.2315 -0.5010 -0.4225
 8194SOL    HW236045   1.014   1.205   4.465 -0.4976 -0.5925 -0.1709
 8195SOL     OW36046   0.156   3.636   2.657  0.4157  0.1198  0.0802
 8195SOL    HW136047   0.178   3.545   2.679  2.5625  0.3986 -0.8284
 8195SOL    HW236048   0.218   3.670   2.592 -2.1345  2.6031 -1.0528
 8196SOL     OW36049   0.770   2.485   4.323 -0.2295  0.0051 -0.1594
 8196SOL    HW136050   0.708   2.538   4.274 -0.3819 -1.2626 -1.3232
 8196SOL    HW236051   0.847   2.488   4.266 -0.3177 -1.8780 -0.3512
 8197SOL     OW36052   1.745   0.800   2.981  0.1253 -0.4162  0.1667
 8197SOL    HW136053   1.742   0.705   2.993  2.5339 -0.4998  0.1051
 8197SOL    HW236054   1.839   0.817   2.974 -0.0624  0.2982 -0.4692
 8198SOL     OW36055   1.069   4.651   1.784 -0.5624 -0.3670  0.1353
 8198SOL    HW136056   1.139   4.609   1.834 -0.1931 -0.5791 -0.5706
 8198SOL    HW236057   1.116   4.664   1.702  2.9468 -1.1844  1.9996
 8199SOL     OW36058   3.321   0.468   5.643  0.6514  0.4117  0.4266
 8199SOL    HW136059   3.304   0.396   5.583  0.4184  0.4194  0.4840
 8199SOL    HW236060   3.243   0.464   5.699  1.7306 -1.7790  1.7983
 8200SOL     OW36061   3.213   3.336  16.720 -0.0353 -0.5912 -0.3339
 8200SOL    HW136062   3.291   3.280  16.716  0.0292 -0.5081 -0.2693
 8200SOL    HW236063   3.228   3.415  16.773 -0.9904 -0.1014 -0.8021
 8201SOL     OW36064   0.858   1.771  15.339 -0.3707 -0.4921  0.2635
 8201SOL    HW136065   0.801   1.709  15.293  1.1832 -2.5079  1.0313
 8201SOL    HW236066   0.827   1.855  15.305  0.7805 -0.2547 -0.2102
 8202SOL     OW36067   2.365   4.630   0.153 -0.1872  0.4040  0.3579
 8202SOL    HW136068   2.347   4.550   0.202 -1.7262  1.5702  1.7275
 8202SOL    HW236069   2.284   4.682   0.155  0.2236  1.0254  0.6721
 8203SOL     OW36070   3.330   3.686   8.648 -0.2060  0.1616  0.0413
 8203SOL    HW136071   3.242   3.700   8.612  0.1074  0.0571 -0.7737
 8203SOL    HW236072   3.358   3.598   8.620  0.4074  1.0006 -1.9638
 8204SOL     OW36073   3.862   3.702   2.291 -0.0429 -0.0797  0.2983
 8204SOL    HW136074   3.850   3.699   2.196  1.0558 -1.5927  0.2100
 8204SOL    HW236075   3.783   3.752   2.314 -1.0199 -0.5019 -2.0762
 8205SOL     OW36076   0.645   2.183   9.977  0.4760  0.0530  0.2298
 8205SOL    HW136077   0.641   2.190   9.881  0.5478  0.7529  0.2796
 8205SOL    HW236078   0.589   2.256  10.006  1.3131  0.3547  1.0699
 8206SOL     OW36079   3.832   2.704   4.944 -0.3299 -0.2473  0.2307
 8206SOL    HW136080   3.859   2.649   4.871  1.6171  1.4837 -0.3954
 8206SOL    HW236081   3.739   2.683   4.952 -0.1119 -1.0976  0.4728
 8207SOL     OW36082   3.819   1.077   5.845 -0.3445 -0.3068  0.3848
 8207SOL    HW136083   3.776   1.140   5.903 -0.0809 -0.2622  0.5319
 8207SOL    HW236084   3.906   1.116   5.854  0.3624 -2.0122  1.0946
 8208SOL     OW36085   4.237   4.638   8.001  0.5032 -0.0769 -0.1309
 8208SOL    HW136086   4.157   4.589   7.986 -0.1998  0.7975  0.7532
 8208SOL    HW236087   4.296   4.583   7.950  0.4371 -0.0110 -0.2779
 8209SOL     OW36088   3.090   1.885   8.790  0.1567  0.1213  0.2610
 8209SOL    HW136089   3.173   1.840   8.802 -0.5011 -0.7345  1.6810
 8209SOL    HW236090   3.116   1.973   8.816 -0.4041  0.1305  0.7901
 8210SOL     OW36091   1.347   4.515   2.528 -0.5337  0.0535  0.3852
 8210SOL    HW136092   1.347   4.577   2.600  0.3374  1.0682 -0.4956
 8210SOL    HW236093   1.423   4.465   2.556 -1.5125 -1.5741  0.1862
 8211SOL     OW36094   3.746   3.579  17.644 -0.5648  0.2537  0.2366
 8211SOL    HW136095   3.837   3.562  17.619  0.1750  2.5685  1.4045
 8211SOL    HW236096   3.746   3.626   0.031 -0.1103  0.5213  0.0863
 8212SOL     OW36097   0.722   3.200   8.268  0.0566 -0.3238 -0.4691
 8212SOL    HW136098   0.666   3.125   8.248  0.6413 -0.9955  0.4109
 8212SOL    HW236099   0.746   3.234   8.182 -1.1240  0.0950 -0.6343
 8213SOL     OW36100   1.490   0.987   7.096  0.1200  0.1872 -0.1565
 8213SOL    HW136101   1.581   0.958   7.099 -0.0846 -0.3379  0.7772
 8213SOL    HW236102   1.466   0.987   7.188  2.6090 -1.9939  0.4896
 8214SOL     OW36103   4.322   3.816   3.808  0.5093 -0.1370  0.2242
 8214SOL    HW136104   4.248   3.844   3.863 -1.0398  0.4123 -2.1012
 8214SOL    HW236105   4.389   3.870   3.850 -0.7361  1.6415 -0.0715
 8215SOL     OW36106   3.714   2.495   1.740 -0.3664 -0.7619 -0.5271
 8215SOL    HW136107   3.742   2.586   1.738  0.1010 -0.8983  0.1769
 8215SOL    HW236108   3.801   2.455   1.737  0.6589  1.3699  0.5698
 8216SOL     OW36109   3.735   3.466  14.026  0.0084 -0.3367 -0.3738
 8216SOL    HW136110   3.747   3.556  13.997 -1.3604 -0.0101  0.0728
 8216SOL    HW236111   3.656   3.447  13.976 -2.1447  2.1071  2.1556
 8217SOL     OW36112   1.240   4.108   8.506  0.3228  0.1727 -0.3473
 8217SOL    HW136113   1.153   4.140   8.530  0.1528 -0.4714 -0.0859
 8217SOL    HW236114   1.270   4.065   8.587  1.1657  2.0633  0.3424
 8218SOL     OW36115   0.519   0.968  16.668  0.1220 -0.0212 -0.1456
 8218SOL    HW136116   0.521   0.957  16.573  2.6667  0.8947 -0.1804
 8218SOL    HW236117   0.532   1.062  16.677  1.4534 -0.0389 -1.9621
 8219SOL     OW36118   1.479   2.007  16.868 -0.0193 -0.8852  0.3999
 8219SOL    HW136119   1.399   2.046  16.904  1.1773  1.8502  0.0187
 8219SOL    HW236120   1.527   2.081  16.831 -0.2149  0.0589  2.0480
 8220SOL     OW36121   4.336   3.704   7.147 -0.1034 -0.2784 -0.6864
 8220SOL    HW136122   4.380   3.684   7.065 -2.7685 -1.5990 -1.7701
 8220SOL    HW236123   4.260   3.751   7.115  1.5286  3.0796  0.2794
 8221SOL     OW36124   0.181   3.298  15.684  0.3604 -0.3566  0.2543
 8221SOL    HW136125   0.173   3.231  15.616 -0.1062 -0.5376  0.4858
 8221SOL    HW236126   0.110   3.283  15.746  0.8689  0.1962  0.9827
 8222SOL     OW36127   2.520   3.602   5.608  0.1390 -0.5094  0.0520
 8222SOL    HW136128   2.495   3.670   5.546  1.7546  0.4668  0.4402
 8222SOL    HW236129   2.602   3.576   5.565  0.8290 -0.2487  1.2032
 8223SOL     OW36130   1.553   4.385   2.603 -0.0850  0.3091  0.4528
 8223SOL    HW136131   1.648   4.401   2.604 -0.4470  2.4892 -0.7934
 8223SOL    HW236132   1.536   4.291   2.599  2.4263 -0.1611  0.3549
 8224SOL     OW36133   3.982   0.001   7.330 -0.0908 -0.1152  0.2017
 8224SOL    HW136134   3.904   0.001   7.276 -0.1745  3.1189  0.3501
 8224SOL    HW236135   3.962   4.684   7.414 -0.5397 -0.5399 -0.1176
 8225SOL     OW36136   1.991   0.076   5.187  0.2737 -0.0335 -0.3062
 8225SOL    HW136137   2.000   4.711   5.154  0.8400 -0.0256 -0.1821
 8225SOL    HW236138   1.898   0.079   5.209  0.7996  0.9867  1.7371
 8226SOL     OW36139   3.637   2.305   6.617  0.3338  0.5226  0.4814
 8226SOL    HW136140   3.576   2.336   6.684  0.2785  0.0008  0.6691
 8226SOL    HW236141   3.693   2.248   6.669  2.3959  1.4054 -0.7687
 8227SOL     OW36142   1.668   4.332  13.561  0.6255  0.5868 -0.2025
 8227SOL    HW136143   1.626   4.418  13.565  0.9992  0.7260  0.9073
 8227SOL    HW236144   1.599   4.275  13.594 -0.2628 -0.1601 -3.4377
 8228SOL     OW36145   0.017   4.558   4.578 -0.0847 -0.0474  0.0716
 8228SOL    HW136146   4.686   4.618   4.627 -0.6461 -0.2195 -0.3364
 8228SOL    HW236147   0.056   4.496   4.640 -1.2682  1.5067  2.3379
 8229SOL     OW36148   0.498   1.704   4.825  0.6604  0.3684 -0.1136
 8229SOL    HW136149   0.460   1.622   4.856 -0.3622  1.2950  1.1031
 8229SOL    HW236150   0.525   1.681   4.736  0.5045  2.3262 -0.6592
 8230SOL     OW36151   4.061   3.003   2.386  0.2162  0.0295 -0.1961
 8230SOL    HW136152   4.055   2.948   2.464  1.7204  0.6751  0.3696
 8230SOL    HW236153   4.144   3.045   2.405 -0.6292  2.0035 -0.8737
 8231SOL     OW36154   1.637   0.501   3.692  0.2412 -0.4218  0.7754
 8231SOL    HW136155   1.590   0.583   3.680  1.0314  0.0478  0.9268
 8231SOL    HW236156   1.598   0.447   3.623  3.6615 -1.1585 -0.5998
 8232SOL     OW36157   0.351   2.607   8.820  0.0298 -0.7118 -0.4804
 8232SOL    HW136158   0.430   2.632   8.868  0.8946 -0.2564 -2.1351
 8232SOL    HW236159   0.275   2.628   8.873 -0.2031  0.5056 -1.3134
 8233SOL     OW36160   1.081   0.313   5.200 -0.0862 -0.2350 -0.2969
 8233SOL    HW136161   1.092   0.247   5.132  1.5243 -1.4370  1.1209
 8233SOL    HW236162   1.163   0.362   5.208  0.5069 -1.0403 -1.5007
 8234SOL     OW36163   3.613   1.200   7.632 -0.1981  0.7451 -0.2596
 8234SOL    HW136164   3.664   1.138   7.684 -0.5930 -0.3715 -1.1969
 8234SOL    HW236165   3.559   1.142   7.578 -1.6355  2.5389 -0.7603
 8235SOL     OW36166   1.994   3.791   7.893 -0.3752 -0.4284  0.3279
 8235SOL    HW136167   2.048   3.870   7.899 -1.7263  0.5041  0.2669
 8235SOL    HW236168   2.011   3.757   7.980 -0.1731  0.5030  0.6555
 8236SOL     OW36169   4.588   4.639   2.126 -0.8520 -0.2907 -0.3211
 8236SOL    HW136170   4.525   4.628   2.197 -0.3128  1.9302  0.4832
 8236SOL    HW236171   4.544   4.611   2.045  0.2999 -0.5279 -0.8657
 8237SOL     OW36172   0.201   4.435  14.299  0.6288  0.6759  0.1860
 8237SOL    HW136173   0.176   4.348  14.330  0.8443  1.0070  1.2830
 8237SOL    HW236174   0.150   4.433  14.218 -1.3614 -2.2802  1.4707
 8238SOL     OW36175   2.052   0.912  15.652  0.1974  0.8442 -0.4039
 8238SOL    HW136176   2.068   0.853  15.577 -0.6333 -0.3034  0.3214
 8238SOL    HW236177   1.958   0.927  15.652 -0.0770 -0.7827 -0.5589
 8239SOL     OW36178   1.896   0.512  16.621  0.2305  0.5177 -0.0332
 8239SOL    HW136179   1.860   0.423  16.623  0.5661  0.4245  2.4357
 8239SOL    HW236180   1.982   0.503  16.581 -0.5590  0.6205 -1.7444
 8240SOL     OW36181   3.669   1.528   6.064  0.5306  0.1310 -0.6315
 8240SOL    HW136182   3.742   1.540   6.003 -0.3188  0.5130 -1.5779
 8240SOL    HW236183   3.633   1.616   6.056 -1.4496 -0.5580  0.5013
 8241SOL     OW36184   0.155   4.385   7.629 -0.6321 -0.3516 -0.5167
 8241SOL    HW136185   0.129   4.444   7.699 -1.9225 -0.7257 -0.6868
 8241SOL    HW236186   0.251   4.390   7.628 -0.6076 -0.5880  0.8985
 8242SOL     OW36187   3.841   2.582   1.353  0.0124 -0.3877  0.6898
 8242SOL    HW136188   3.880   2.496   1.367  2.5517  0.9052  1.6282
 8242SOL    HW236189   3.746   2.569   1.345 -0.1318  0.9738  0.1799
 8243SOL     OW36190   3.010   2.734   8.744 -0.5062 -0.6430 -0.0767
 8243SOL    HW136191   2.960   2.747   8.825 -0.5504  1.7180 -0.4984
 8243SOL    HW236192   3.069   2.663   8.770 -0.0726  0.5423  2.2236
 8244SOL     OW36193   0.514   1.266  15.643  0.2067  0.0742  0.2607
 8244SOL    HW136194   0.594   1.291  15.597  0.2222  3.2303  1.9793
 8244SOL    HW236195   0.532   1.180  15.680 -0.4114 -0.0230  0.3438
 8245SOL     OW36196   2.830   2.808   7.905 -0.2932  0.7982  0.5539
 8245SOL    HW136197   2.906   2.750   7.916  0.0502  1.2471  0.5366
 8245SOL    HW236198   2.865   2.885   7.861 -0.0588 -0.1083 -0.8279
 8246SOL     OW36199   0.005   2.441   3.842 -0.0648 -0.0044 -0.2159
 8246SOL    HW136200   0.074   2.375   3.850 -1.2688 -1.2823 -0.3221
 8246SOL    HW236201   0.021   2.478   3.756 -1.6429 -0.2055 -0.5964
 8247SOL     OW36202   1.300   0.700   6.983  0.1068 -0.6126  0.0688
 8247SOL    HW136203   1.377   0.650   7.008  1.2170  0.5469 -0.9704
 8247SOL    HW236204   1.318   0.794   6.994 -1.1911 -0.5951  2.0262
 8248SOL     OW36205   4.720   3.048   6.248  0.2319 -0.4108  0.7049
 8248SOL    HW136206   0.023   2.971   6.299 -0.3795 -1.0151  0.1151
 8248SOL    HW236207   0.055   3.047   6.173  0.5524 -2.6140  0.9881
 8249SOL     OW36208   0.845   0.417   6.998 -0.2426  0.1105  0.1653
 8249SOL    HW136209   0.799   0.426   6.915 -0.5184 -0.0357  0.3006
 8249SOL    HW236210   0.908   0.488   6.987  0.6873 -0.4141  2.0403
 8250SOL     OW36211   1.466   0.408   5.033 -0.6499 -0.0823 -0.6431
 8250SOL    HW136212   1.549   0.446   5.060  0.9646 -2.2208 -2.6884
 8250SOL    HW236213   1.416   0.437   5.110  0.4265 -0.8532  0.3347
 8251SOL     OW36214   3.143   2.100  11.534 -0.5700  0.7141 -0.0068
 8251SOL    HW136215   3.078   2.135  11.473 -0.2331 -0.2197 -0.8821
 8251SOL    HW236216   3.125   2.007  11.522 -2.3258  1.0615 -0.0956
 8252SOL     OW36217   2.755   0.383   1.503  0.1804 -0.7885 -0.2057
 8252SOL    HW136218   2.735   0.473   1.529  1.2366 -0.4656 -0.5211
 8252SOL    HW236219   2.780   0.353   1.590 -0.8654  0.2570  0.4516
 8253SOL     OW36220   3.025   2.335   2.635  0.2398 -0.3327 -0.8044
 8253SOL    HW136221   3.100   2.281   2.662  0.4146  1.6061  2.5789
 8253SOL    HW236222   3.037   2.322   2.541  3.3490  2.5205 -0.8293
 8254SOL     OW36223   0.846   2.109   6.340 -0.4516  0.3592 -0.1549
 8254SOL    HW136224   0.761   2.077   6.370 -0.6316  1.0411  0.0504
 8254SOL    HW236225   0.813   2.185   6.292 -1.4197  0.3944  0.5570
 8255SOL     OW36226   1.695   3.565   8.282  0.0532 -0.0792  0.6503
 8255SOL    HW136227   1.655   3.542   8.365  0.4412 -1.5530  0.4209
 8255SOL    HW236228   1.733   3.481   8.257 -1.8772 -0.7943  0.1682
 8256SOL     OW36229   1.912   3.387  16.712  0.3245 -0.0768  0.4435
 8256SOL    HW136230   1.866   3.315  16.668 -2.7970  1.9077  0.4375
 8256SOL    HW236231   1.846   3.450  16.739  1.1599  0.5799  0.9187
 8257SOL     OW36232   4.317   0.515   5.881 -0.9638 -0.1756  0.0629
 8257SOL    HW136233   4.318   0.598   5.928 -1.0399  0.3632 -0.8814
 8257SOL    HW236234   4.339   0.554   5.796 -1.0836 -2.1414 -0.8767
 8258SOL     OW36235   3.746   3.871   5.850  0.3185  0.2885 -0.6077
 8258SOL    HW136236   3.776   3.821   5.774  4.1924  0.0549  1.1084
 8258SOL    HW236237   3.683   3.926   5.803  0.0728 -2.1005 -3.1347
 8259SOL     OW36238   2.139   2.661  16.734  0.0576 -0.0700 -0.0097
 8259SOL    HW136239   2.218   2.701  16.770 -1.8444  2.0001  2.0091
 8259SOL    HW236240   2.105   2.631  16.819 -2.2339 -2.7587 -1.8958
 8260SOL     OW36241   2.354   0.879  15.023  0.3061  0.0747 -0.0373
 8260SOL    HW136242   2.297   0.942  15.067 -0.3418  0.2998 -1.2214
 8260SOL    HW236243   2.315   0.857  14.939 -0.2540  1.7813 -0.2071
 8261SOL     OW36244   3.499   2.405  16.042  0.3122 -0.0875 -0.2929
 8261SOL    HW136245   3.542   2.419  15.958 -0.6213  0.5364 -0.6674
 8261SOL    HW236246   3.563   2.443  16.103  0.2880  0.6923 -0.7528
 8262SOL     OW36247   3.067   0.289   7.529 -0.3788 -0.0212  0.0257
 8262SOL    HW136248   3.128   0.290   7.455 -0.9184 -0.8207 -0.4286
 8262SOL    HW236249   3.044   0.198   7.544 -1.9294  0.3987  0.1927
 8263SOL     OW36250   4.428   3.732  13.256 -0.3817  0.2511 -0.2578
 8263SOL    HW136251   4.426   3.810  13.200  1.4926  0.2452 -0.3162
 8263SOL    HW236252   4.516   3.732  13.293  0.3792  0.5094 -2.0635
 8264SOL     OW36253   0.229   0.956  11.034  0.4918  0.0096  1.1687
 8264SOL    HW136254   0.202   0.974  10.944  1.2138 -3.3789  0.2790
 8264SOL    HW236255   0.261   0.866  11.026 -1.3302 -0.3883 -1.5733
 8265SOL     OW36256   1.842   3.704   6.304  0.2772 -0.1622  0.0113
 8265SOL    HW136257   1.903   3.744   6.366 -0.2307  1.1336 -0.3111
 8265SOL    HW236258   1.832   3.775   6.240 -3.2119 -1.6278 -1.0494
 8266SOL     OW36259   0.965   2.758   3.148 -0.3235  0.2296 -0.8467
 8266SOL    HW136260   1.011   2.841   3.138  0.7006 -0.2404 -0.0988
 8266SOL    HW236261   0.877   2.782   3.119 -0.6685  2.0270  1.6830
 8267SOL     OW36262   0.347   0.468   4.285 -0.2444  0.0471 -0.5209
 8267SOL    HW136263   0.432   0.458   4.243  0.5725  1.1247  0.8715
 8267SOL    HW236264   0.292   0.448   4.209 -0.8510 -2.1196  0.5144
 8268SOL     OW36265   2.981   3.441   1.834 -0.1375 -0.5278 -0.3623
 8268SOL    HW136266   2.940   3.484   1.909  0.0301 -0.2976 -0.4035
 8268SOL    HW236267   2.974   3.350   1.864  0.5918 -0.7956 -1.0187
 8269SOL     OW36268   1.121   0.539   4.706  0.1372  0.1353  0.7528
 8269SOL    HW136269   1.072   0.470   4.751 -0.8812  1.3751  1.5481
 8269SOL    HW236270   1.143   0.587   4.786  0.3723 -0.8323  1.2726
 8270SOL     OW36271   0.079   2.912   7.338 -0.5147  0.8066  0.5707
 8270SOL    HW136272   0.133   2.974   7.288  0.7482  1.1745  2.3716
 8270SOL    HW236273   4.720   2.957   7.351 -1.4415 -0.4013 -1.2126
 8271SOL     OW36274   1.440   1.093   4.605  0.0646 -0.2499 -0.5607
 8271SOL    HW136275   1.420   1.038   4.680  0.6931 -0.6359 -0.6743
 8271SOL    HW236276   1.396   1.047   4.533  1.8483 -2.7875 -0.0282
 8272SOL     OW36277   3.967   4.089   1.255 -0.6692 -0.3026  0.3517
 8272SOL    HW136278   3.969   3.994   1.264 -3.6239 -0.4967 -0.9617
 8272SOL    HW236279   3.928   4.114   1.339 -2.5414 -2.4473  0.1207
 8273SOL     OW36280   1.165   1.319   7.992 -0.1238  0.2936 -0.2558
 8273SOL    HW136281   1.240   1.322   7.933 -1.5541  0.4711 -2.0511
 8273SOL    HW236282   1.092   1.340   7.934 -0.5779 -1.6595 -0.4009
 8274SOL     OW36283   2.853   2.332   9.806  0.4757 -0.2777 -0.1116
 8274SOL    HW136284   2.900   2.250   9.826 -0.1233 -0.2443  1.4255
 8274SOL    HW236285   2.905   2.349   9.727 -0.9562 -1.4200 -1.3199
 8275SOL     OW36286   0.675   0.820   1.297  0.3591  0.9804 -0.5163
 8275SOL    HW136287   0.604   0.794   1.355  1.4842 -1.5667 -0.2908
 8275SOL    HW236288   0.637   0.796   1.212  1.1435 -0.3283 -0.4966
 8276SOL     OW36289   0.276   2.581   2.661 -0.1710  0.0326 -0.4245
 8276SOL    HW136290   0.200   2.537   2.624 -0.1171 -0.5997  0.2117
 8276SOL    HW236291   0.334   2.569   2.586  0.1224 -0.3727 -0.1390
 8277SOL     OW36292   2.205   0.715   3.971  0.0905  0.5722  0.1807
 8277SOL    HW136293   2.282   0.683   4.018 -0.1804  1.3477  1.1465
 8277SOL    HW236294   2.138   0.696   4.037 -0.4552 -4.0019 -1.6810
 8278SOL     OW36295   0.606   1.973   7.352 -0.3552 -0.0346 -0.0972
 8278SOL    HW136296   0.678   2.013   7.401  0.5102 -1.4713 -0.1672
 8278SOL    HW236297   0.541   1.985   7.421 -1.2846 -0.8730 -0.8216
 8279SOL     OW36298   3.395   2.076   6.258 -0.2756 -0.0949  0.3512
 8279SOL    HW136299   3.467   2.136   6.236 -0.2616 -0.8742 -1.7767
 8279SOL    HW236300   3.320   2.102   6.205 -1.2806 -2.2645  0.7186
 8280SOL     OW36301   3.521   1.113   1.844 -0.0066  0.0468  0.0558
 8280SOL    HW136302   3.574   1.039   1.872 -0.0388  0.5049  1.2994
 8280SOL    HW236303   3.591   1.172   1.817  0.9668 -0.1846  2.0614
 8281SOL     OW36304   3.586   0.289   1.166  0.5047 -0.1900 -0.4700
 8281SOL    HW136305   3.550   0.287   1.077 -1.3343 -1.8597  0.3010
 8281SOL    HW236306   3.524   0.350   1.206  0.7989 -1.5301  2.0405
 8282SOL     OW36307   4.339   1.065   4.122  0.0014 -0.2160 -0.0436
 8282SOL    HW136308   4.434   1.065   4.135 -0.1527 -1.4892  1.1608
 8282SOL    HW236309   4.304   0.982   4.156 -0.3824 -0.1567 -0.2992
 8283SOL     OW36310   1.196   2.797  12.663  0.3086  0.1817 -0.1206
 8283SOL    HW136311   1.239   2.872  12.621  0.3221 -0.4616 -1.2326
 8283SOL    HW236312   1.246   2.720  12.637  2.8269  1.5267  0.6411
 8284SOL     OW36313   4.179   3.769  13.427 -0.0507 -0.5401  0.0447
 8284SOL    HW136314   4.178   3.713  13.350  1.4619 -1.6526  0.8569
 8284SOL    HW236315   4.250   3.829  13.406 -0.3735 -0.0154  0.4383
 8285SOL     OW36316   4.512   0.616   7.241 -0.2328  0.5134 -0.1056
 8285SOL    HW136317   4.594   0.631   7.288  0.1892 -0.2712 -0.6052
 8285SOL    HW236318   4.447   0.633   7.309 -0.9542 -2.6071 -0.0057
 8286SOL     OW36319   2.627   1.256   5.705 -0.5752  0.1195  0.0436
 8286SOL    HW136320   2.543   1.267   5.750 -0.4196 -0.5700  0.5152
 8286SOL    HW236321   2.604   1.273   5.614 -0.1283  0.8752  0.0730
 8287SOL     OW36322   2.552   0.735   3.455 -0.8179 -0.9020  0.3588
 8287SOL    HW136323   2.516   0.822   3.438  2.9892  0.8520  1.2104
 8287SOL    HW236324   2.605   0.719   3.377  0.5584 -1.0662  1.3131
 8288SOL     OW36325   1.110   0.940   5.186 -0.0412  0.2703 -0.1878
 8288SOL    HW136326   1.030   0.894   5.165 -0.4867  0.1091  1.8985
 8288SOL    HW236327   1.114   0.937   5.281 -2.5597 -0.8551 -0.1274
 8289SOL     OW36328   3.783   1.971  17.631 -0.3458 -0.3586  0.5952
 8289SOL    HW136329   3.777   2.060  17.596 -1.4356 -1.3538 -1.7730
 8289SOL    HW236330   3.789   1.940  17.541 -1.2847  0.0772  0.3842
 8290SOL     OW36331   2.266   4.079   5.549 -0.2424  0.7677  0.5024
 8290SOL    HW136332   2.321   4.116   5.618  1.9204 -0.7364 -0.4267
 8290SOL    HW236333   2.227   4.003   5.592  1.2094  1.3928  2.9425
 8291SOL     OW36334   4.021   4.202   5.072  0.1433 -0.8219 -0.3556
 8291SOL    HW136335   4.038   4.175   4.982 -1.5683  0.9013 -1.1881
 8291SOL    HW236336   3.926   4.219   5.071  0.8033  2.8395  1.6162
 8292SOL     OW36337   0.767   4.120  17.413 -0.0432  0.2421 -0.2008
 8292SOL    HW136338   0.820   4.169  17.350  0.2667  0.2032  0.0302
 8292SOL    HW236339   0.679   4.137  17.381 -0.4546 -1.5678 -0.0081
 8293SOL     OW36340   1.462   0.988   5.986  0.0158  0.0095 -0.2764
 8293SOL    HW136341   1.397   1.047   6.023 -0.0459 -0.8878  1.0536
 8293SOL    HW236342   1.413   0.922   5.937  0.5748 -1.7079  1.5050
 8294SOL     OW36343   0.176   3.018   6.050  0.2941 -0.0438  0.4769
 8294SOL    HW136344   0.208   3.038   5.962 -0.8181  0.4725  0.1941
 8294SOL    HW236345   0.258   2.981   6.084  0.0307 -1.5382 -0.5253
 8295SOL     OW36346   0.151   4.112  17.214  0.0404 -0.0665  0.7774
 8295SOL    HW136347   0.178   4.181  17.153  1.1939 -2.7683 -1.7832
 8295SOL    HW236348   0.215   4.048  17.183 -3.0088 -3.2354  1.0660
 8296SOL     OW36349   4.422   1.916   8.182  0.3910  0.3212  0.3876
 8296SOL    HW136350   4.404   1.967   8.103 -0.1140 -0.0248  0.2788
 8296SOL    HW236351   4.331   1.898   8.206 -0.3602  0.7570 -2.2101
 8297SOL     OW36352   4.288   1.127  14.952  0.3641  0.6784 -0.1400
 8297SOL    HW136353   4.368   1.103  14.907 -1.7492 -0.8079 -3.1418
 8297SOL    HW236354   4.240   1.044  14.950  2.6382 -0.5827 -2.7109
 8298SOL     OW36355   2.740   3.253   1.325  0.6892  0.8193  0.4292
 8298SOL    HW136356   2.653   3.280   1.354  0.7536  2.4733 -0.9721
 8298SOL    HW236357   2.723   3.210   1.242  0.4992  0.7445  0.5059
 8299SOL     OW36358   0.800   4.095   2.734  0.2460 -0.5762  0.2690
 8299SOL    HW136359   0.720   4.044   2.747  0.7057 -1.2433  0.4641
 8299SOL    HW236360   0.860   4.049   2.794  0.4095 -0.7613 -0.0395
 8300SOL     OW36361   3.416   0.436   2.450  0.2868 -1.0092 -0.2506
 8300SOL    HW136362   3.465   0.496   2.395 -2.6438  0.6895 -1.0309
 8300SOL    HW236363   3.459   0.351   2.441 -1.7197 -1.8942 -1.6135
 8301SOL     OW36364   0.851   2.582  14.562 -0.0460 -0.1599  0.6260
 8301SOL    HW136365   0.888   2.592  14.474  1.2046  1.9020  1.3750
 8301SOL    HW236366   0.919   2.621  14.616  0.4468  0.3973 -0.3849
 8302SOL     OW36367   0.611   4.108   4.569  0.7220 -0.1811  0.1511
 8302SOL    HW136368   0.557   4.043   4.613  1.4937 -0.1158  1.1941
 8302SOL    HW236369   0.618   4.069   4.482  0.7860 -0.3854  0.2492
 8303SOL     OW36370   2.223   2.284   3.060  0.6291 -0.3223 -0.2287
 8303SOL    HW136371   2.174   2.230   2.997 -1.4981  2.1167 -0.6408
 8303SOL    HW236372   2.301   2.308   3.011  0.3897  1.2857  0.1733
 8304SOL     OW36373   2.256   0.596  14.494  0.3748  0.5433 -0.2143
 8304SOL    HW136374   2.202   0.674  14.484  1.4820  1.3070 -0.2009
 8304SOL    HW236375   2.183   0.538  14.473  0.0272  0.2521  1.7910
 8305SOL     OW36376   1.965   2.630   5.939 -0.0487 -0.1015 -0.5965
 8305SOL    HW136377   2.056   2.655   5.924 -0.5994  1.9050 -0.4891
 8305SOL    HW236378   1.955   2.552   5.884 -0.1521 -0.5053 -0.0048
 8306SOL     OW36379   3.035   0.547   6.221 -0.1474  0.5263 -0.8492
 8306SOL    HW136380   3.091   0.511   6.153  1.0096  1.3885 -0.3493
 8306SOL    HW236381   3.094   0.599   6.275  2.6592 -2.3757 -1.1715
 8307SOL     OW36382   0.427   2.758   6.881 -0.2224  0.2064 -0.2543
 8307SOL    HW136383   0.389   2.772   6.968 -0.0572 -0.0554 -0.1385
 8307SOL    HW236384   0.471   2.674   6.896 -0.2442  0.4408  1.2168
 8308SOL     OW36385   4.259   2.441   2.536  0.1244 -0.3537 -0.7875
 8308SOL    HW136386   4.256   2.517   2.594  3.9563  0.5902 -1.7949
 8308SOL    HW236387   4.352   2.428   2.517  0.7393  1.1467  1.1819
 8309SOL     OW36388   1.046   4.399   1.125  0.1154  0.5218 -0.1229
 8309SOL    HW136389   1.018   4.395   1.033 -2.2689 -1.3829  0.6586
 8309SOL    HW236390   1.079   4.310   1.138 -1.6536 -0.0842  0.3061
 8310SOL     OW36391   1.753   1.988   7.263 -0.0599  0.0630  0.2338
 8310SOL    HW136392   1.794   1.959   7.182  0.6907  1.0273  0.2629
 8310SOL    HW236393   1.824   2.048   7.290  0.5199 -0.2047 -0.7148
 8311SOL     OW36394   2.394   3.193   4.843 -0.2066  0.3602  0.1512
 8311SOL    HW136395   2.364   3.154   4.761  0.3239  0.1115  0.0755
 8311SOL    HW236396   2.406   3.112   4.893  1.2467  0.4762 -0.0092
 8312SOL     OW36397   3.011   4.311   1.417 -0.1469 -0.0394  0.2362
 8312SOL    HW136398   3.079   4.337   1.479  0.9255 -1.1770 -0.4540
 8312SOL    HW236399   2.934   4.335   1.468  0.1978 -1.1866  1.3177
 8313SOL     OW36400   4.184   2.047  11.640 -0.5351 -0.5152 -0.4571
 8313SOL    HW136401   4.168   2.008  11.554 -4.2824  0.8884 -0.3952
 8313SOL    HW236402   4.277   2.027  11.653 -0.7566 -2.7736 -2.3884
 8314SOL     OW36403   4.200   1.983   6.597 -0.4562 -0.5909  0.0657
 8314SOL    HW136404   4.177   1.975   6.690 -2.4622 -0.7364 -0.4350
 8314SOL    HW236405   4.130   1.931   6.558 -1.0843  2.8659 -3.4051
 8315SOL     OW36406   1.991   1.289  12.690  0.6245 -0.3596 -0.3143
 8315SOL    HW136407   2.080   1.323  12.697 -0.0954  0.8190  2.9980
 8315SOL    HW236408   1.970   1.264  12.780 -0.2668 -2.5255 -1.1221
 8316SOL     OW36409   3.283   1.595  13.973 -0.6803  0.3509 -0.0465
 8316SOL    HW136410   3.303   1.505  13.997  2.2119  0.9200 -0.3626
 8316SOL    HW236411   3.370   1.635  13.969 -1.1837  1.5323  0.7760
 8317SOL     OW36412   3.268   3.173   5.909  0.1136  0.0214 -0.5416
 8317SOL    HW136413   3.324   3.157   5.833  1.9620  1.4355  0.4998
 8317SOL    HW236414   3.319   3.241   5.953  0.7984 -1.3085  0.7161
 8318SOL     OW36415   1.102   3.574  13.281  0.2839 -0.8040 -0.0866
 8318SOL    HW136416   1.036   3.582  13.350  0.1558  2.3377 -0.6018
 8318SOL    HW236417   1.112   3.479  13.274 -0.0876 -0.8421 -0.0643
 8319SOL     OW36418   3.118   3.469  10.132  0.2599 -0.1287  0.9925
 8319SOL    HW136419   3.192   3.503  10.082 -0.5967  0.3922  0.0797
 8319SOL    HW236420   3.138   3.377  10.117  3.6768  0.3882  2.3256
 8320SOL     OW36421   0.571   3.235  17.129  0.7169 -0.9590 -0.3925
 8320SOL    HW136422   0.559   3.296  17.202  0.1508  1.9170 -2.8981
 8320SOL    HW236423   0.621   3.293  17.072  0.1968  0.2795  0.4014
 8321SOL     OW36424   3.966   1.285   4.998 -0.2840 -0.2907 -0.2811
 8321SOL    HW136425   4.045   1.247   4.959 -1.6145 -0.0960 -3.1380
 8321SOL    HW236426   3.919   1.206   5.023 -1.2946  0.3763 -0.0656
 8322SOL     OW36427   0.261   1.080   1.668 -0.0807  0.1126 -0.1157
 8322SOL    HW136428   0.186   1.111   1.719  0.6642  1.2317  0.2990
 8322SOL    HW236429   0.309   1.157   1.639 -0.1422 -0.0709 -0.7142
 8323SOL     OW36430   2.281   2.274   3.992  0.0763 -0.4987  0.2197
 8323SOL    HW136431   2.322   2.193   3.964 -2.8216 -2.3694  1.3303
 8323SOL    HW236432   2.226   2.246   4.066 -0.5791 -1.2225 -0.5417
 8324SOL     OW36433   0.875   0.451  15.103  0.2524  0.4557  0.3464
 8324SOL    HW136434   0.872   0.371  15.050  1.3837  1.2839 -0.9634
 8324SOL    HW236435   0.799   0.504  15.079 -0.0686 -1.0632 -1.9739
 8325SOL     OW36436   1.105   3.645   4.491  0.1296  0.1448 -0.8657
 8325SOL    HW136437   1.041   3.587   4.450 -2.0469 -0.2246  3.0954
 8325SOL    HW236438   1.084   3.643   4.585  0.4009  2.0243 -0.7683
 8326SOL     OW36439   0.237   3.139   2.236  0.0895  0.5149  0.1818
 8326SOL    HW136440   0.331   3.155   2.233  0.3034 -0.8896 -0.7129
 8326SOL    HW236441   0.212   3.221   2.280 -1.7039 -0.3818  0.8463
 8327SOL     OW36442   2.962   1.822   3.290 -0.2517 -0.1815 -0.2305
 8327SOL    HW136443   2.962   1.781   3.377  0.1541 -1.3372 -0.7795
 8327SOL    HW236444   3.056   1.844   3.288 -0.5547  0.9855 -1.1840
 8328SOL     OW36445   1.387   0.538   0.430  0.2777  0.4625 -0.1554
 8328SOL    HW136446   1.476   0.516   0.457 -0.6531 -2.1679  0.7740
 8328SOL    HW236447   1.345   0.560   0.513 -1.3762 -0.6242 -0.7036
 8329SOL     OW36448   3.867   1.905   3.169  0.6226  0.2018 -0.4903
 8329SOL    HW136449   3.899   1.879   3.083  0.0071  0.0520 -0.6739
 8329SOL    HW236450   3.933   1.872   3.230 -1.5919 -2.7229  0.3262
 8330SOL     OW36451   4.575   4.309   5.131  0.3938  0.3914 -0.2215
 8330SOL    HW136452   4.604   4.219   5.115 -0.4518  0.3206 -1.3515
 8330SOL    HW236453   4.643   4.362   5.090  1.1334  1.0056  1.7966
 8331SOL     OW36454   1.398   4.584  11.514 -0.4695  0.1537  0.9927
 8331SOL    HW136455   1.344   4.610  11.588 -0.4657 -0.3382  1.1648
 8331SOL    HW236456   1.448   4.528  11.573  1.9403  1.0560 -0.2188
 8332SOL     OW36457   3.349   1.640   2.692 -0.4594 -0.6539 -0.4010
 8332SOL    HW136458   3.282   1.698   2.657  2.3619  2.2722 -0.9101
 8332SOL    HW236459   3.363   1.691   2.772  2.7544  1.6006 -2.3860
 8333SOL     OW36460   3.581   3.413  10.299 -0.3201 -0.2579  0.1498
 8333SOL    HW136461   3.627   3.410  10.383 -2.1222 -0.5731  1.1219
 8333SOL    HW236462   3.648   3.369  10.246  2.6008  2.0441  1.9082
 8334SOL     OW36463   4.221   0.748  14.905  0.2475  0.3127  0.1213
 8334SOL    HW136464   4.129   0.769  14.916  0.5932  2.1094 -0.4695
 8334SOL    HW236465   4.207   0.655  14.885  0.0194  0.4139 -0.1825
 8335SOL     OW36466   0.964   1.878   3.817  0.1641  0.6277  0.4376
 8335SOL    HW136467   0.953   1.886   3.912 -0.7060 -1.4180  0.4985
 8335SOL    HW236468   0.943   1.965   3.781 -0.1965 -0.2320 -1.3895
 8336SOL     OW36469   1.432   2.447  17.032 -0.4989  0.1257 -0.6864
 8336SOL    HW136470   1.517   2.489  17.048  0.0172 -1.4162  0.5625
 8336SOL    HW236471   1.370   2.512  17.063 -1.6257 -1.8338  1.1416
 8337SOL     OW36472   4.649   3.588  13.980 -0.0818 -0.3710  0.3653
 8337SOL    HW136473   4.674   3.532  14.054  0.7029 -1.4795 -0.7503
 8337SOL    HW236474   0.004   3.628  13.944 -1.4096  0.6713 -1.3559
 8338SOL     OW36475   1.560   3.727   1.671  0.2924 -0.1581  0.1077
 8338SOL    HW136476   1.618   3.718   1.596  0.6710  1.9615  0.1557
 8338SOL    HW236477   1.517   3.811   1.652 -1.5441 -1.2709 -0.7210
 8339SOL     OW36478   2.885   1.623   8.420 -0.1762  0.8745  0.7827
 8339SOL    HW136479   2.952   1.642   8.355 -0.4651  0.4641  0.3652
 8339SOL    HW236480   2.900   1.529   8.416  1.9128  1.2209  0.6960
 8340SOL     OW36481   1.677   0.664   6.392 -0.0100 -0.4489 -0.0529
 8340SOL    HW136482   1.757   0.664   6.339  1.7834  0.0092  2.6615
 8340SOL    HW236483   1.645   0.752   6.371  1.0118 -0.1873 -0.5323
 8341SOL     OW36484   1.394   2.259  10.661 -0.6341 -0.0155  0.2414
 8341SOL    HW136485   1.392   2.336  10.717 -0.1584  0.0487  0.1689
 8341SOL    HW236486   1.328   2.284  10.596 -0.5919 -0.0648  0.1781
 8342SOL     OW36487   2.973   2.739   4.239 -0.5487  0.8939  0.5435
 8342SOL    HW136488   2.888   2.699   4.221  0.1600  0.9826 -2.9481
 8342SOL    HW236489   3.031   2.709   4.169 -1.9555  0.9523 -0.6389
 8343SOL     OW36490   3.349   1.116   3.753 -0.1318  0.3564 -0.1077
 8343SOL    HW136491   3.364   1.192   3.697 -3.0172 -0.5969 -2.1515
 8343SOL    HW236492   3.370   1.049   3.688  0.1743  1.5716 -1.2677
 8344SOL     OW36493   0.544   2.447  10.435  0.2417  0.1999  0.1652
 8344SOL    HW136494   0.550   2.385  10.362 -1.7920  2.2156 -1.7155
 8344SOL    HW236495   0.628   2.492  10.433  1.2838 -1.7516  0.1082
 8345SOL     OW36496   2.602   2.480   2.912  0.1666  0.0109 -0.2271
 8345SOL    HW136497   2.682   2.440   2.878  0.3545  1.8427 -2.0002
 8345SOL    HW236498   2.632   2.571   2.909  0.8547 -0.2164 -0.2885
 8346SOL     OW36499   2.564   3.032  17.627  0.6019 -0.2047 -0.5007
 8346SOL    HW136500   2.519   2.955  17.591  1.0719 -1.1400  0.9322
 8346SOL    HW236501   2.486   3.085  17.646 -0.1491 -0.8023 -1.8470
 8347SOL     OW36502   4.686   3.666   3.918 -0.0206 -0.3171  0.1675
 8347SOL    HW136503   4.620   3.706   3.975  2.6730  3.8262  0.4349
 8347SOL    HW236504   4.658   3.706   3.836 -1.2740  0.8892  1.1572
 8348SOL     OW36505   1.112   4.090   5.760  0.1971 -0.2196  0.2246
 8348SOL    HW136506   1.202   4.067   5.785 -0.4129 -1.9766  0.8637
 8348SOL    HW236507   1.118   4.185   5.767  1.8846 -0.1999 -1.5316
 8349SOL     OW36508   4.409   1.227   2.420 -0.0488 -0.6788 -0.7053
 8349SOL    HW136509   4.359   1.146   2.409 -0.6648 -0.4527  0.4569
 8349SOL    HW236510   4.399   1.246   2.513  1.1262 -0.4652 -0.6247
 8350SOL     OW36511   0.571   1.558   2.917  0.6526 -0.3044 -0.2775
 8350SOL    HW136512   0.610   1.639   2.884 -0.0355  0.0086 -0.3100
 8350SOL    HW236513   0.560   1.573   3.011 -0.3515  0.4780 -0.5274
 8351SOL     OW36514   2.646   4.151   6.728  0.1982  0.7435  0.7290
 8351SOL    HW136515   2.559   4.172   6.695  0.3172  1.8213  1.1122
 8351SOL    HW236516   2.667   4.226   6.783  1.6943  1.2685 -0.5436
 8352SOL     OW36517   2.242   4.723   5.058  0.3668  0.2409  0.2522
 8352SOL    HW136518   2.179   4.651   5.055  0.0981  0.5118 -0.6800
 8352SOL    HW236519   2.273   4.718   5.148  0.8495 -0.6481  0.0329
 8353SOL     OW36520   4.092   0.741   1.244  0.0352  0.3150 -0.2907
 8353SOL    HW136521   4.140   0.816   1.277  0.0734  0.6644 -1.1441
 8353SOL    HW236522   4.015   0.796   1.227 -0.4137  0.1360  1.1281
 8354SOL     OW36523   3.768   0.673   1.303  0.7369 -0.4509 -0.1757
 8354SOL    HW136524   3.691   0.647   1.252  0.6749  1.8880 -1.2688
 8354SOL    HW236525   3.811   0.733   1.241 -0.0416  2.0946  1.7334
 8355SOL     OW36526   0.500   1.501   9.699  0.1083 -0.5996 -1.0301
 8355SOL    HW136527   0.521   1.459   9.783  1.2578  0.4687 -0.7804
 8355SOL    HW236528   0.556   1.575   9.722 -1.4119  0.4758 -0.7711
 8356SOL     OW36529   0.314   2.746  16.449 -0.4447  0.0672  0.5793
 8356SOL    HW136530   0.242   2.684  16.449 -1.6106  1.4383 -0.1281
 8356SOL    HW236531   0.274   2.831  16.429  0.5493  0.1927 -0.8663
 8357SOL     OW36532   0.686   0.831  15.892 -0.5386  0.6449 -0.0807
 8357SOL    HW136533   0.656   0.779  15.966 -0.9562 -1.1700 -1.5421
 8357SOL    HW236534   0.652   0.783  15.816  0.6273  0.1153 -0.2613
 8358SOL     OW36535   0.152   1.194   6.836  0.4830  0.0364 -0.0079
 8358SOL    HW136536   0.077   1.135   6.840  0.8581 -0.4227  0.2186
 8358SOL    HW236537   0.201   1.148   6.768  2.3006  1.6519  0.2356
 8359SOL     OW36538   2.647   2.138   2.765 -0.0558 -0.2045 -0.1149
 8359SOL    HW136539   2.569   2.144   2.821  1.7026  2.4326  2.0639
 8359SOL    HW236540   2.685   2.223   2.786  0.9842 -1.0173  1.2311
 8360SOL     OW36541   2.031   4.086  14.190 -0.2212 -0.7659  0.2394
 8360SOL    HW136542   1.978   4.064  14.114 -0.5119 -1.1654  0.5597
 8360SOL    HW236543   2.115   4.101  14.147 -0.1592 -0.4809  0.4587
 8361SOL     OW36544   3.281   2.863   9.353  0.4762 -0.3110 -0.1568
 8361SOL    HW136545   3.284   2.882   9.259 -0.0857  2.9938  0.4902
 8361SOL    HW236546   3.297   2.770   9.341  0.4746  0.0587 -3.0866
 8362SOL     OW36547   4.664   4.267   7.019  0.4508 -0.3134  0.6394
 8362SOL    HW136548   4.597   4.274   7.088  0.7039 -0.4583  0.8989
 8362SOL    HW236549   4.680   4.173   7.005 -1.1382 -0.3888 -0.7030
 8363SOL     OW36550   4.061   3.707   8.401 -0.2645 -1.1526 -0.3333
 8363SOL    HW136551   4.022   3.771   8.460 -0.0984 -0.8131 -0.5912
 8363SOL    HW236552   4.137   3.752   8.364 -0.1344 -0.0005  1.3485
 8364SOL     OW36553   2.799   2.867  13.252  0.3166  0.2976 -0.0035
 8364SOL    HW136554   2.768   2.942  13.201 -2.0748  0.2278  1.3339
 8364SOL    HW236555   2.849   2.906  13.324  0.1613 -0.4081  0.4930
 8365SOL     OW36556   3.181   2.328   4.853  0.4151  0.3649  0.1241
 8365SOL    HW136557   3.095   2.291   4.831  1.0225 -1.6456  1.1217
 8365SOL    HW236558   3.238   2.264   4.810 -0.4334 -0.1315 -0.2696
 8366SOL     OW36559   3.276   1.891   3.361  0.4143  0.3534 -0.5495
 8366SOL    HW136560   3.298   1.824   3.426 -0.5221 -1.3066 -1.9406
 8366SOL    HW236561   3.361   1.901   3.317  0.0400  1.9514 -0.8946
 8367SOL     OW36562   0.116   0.253   8.149  0.0663  0.9171  0.5688
 8367SOL    HW136563   0.175   0.319   8.113 -0.2292  1.1650  0.5369
 8367SOL    HW236564   0.186   0.197   8.184  1.7626  2.1428 -0.8326
 8368SOL     OW36565   0.625   3.033  14.667  0.0427  0.3391  0.8289
 8368SOL    HW136566   0.689   3.022  14.738 -1.8357 -1.0639  2.3084
 8368SOL    HW236567   0.668   3.106  14.622 -0.9632  1.9081  2.3771
 8369SOL     OW36568   2.936   1.949   5.944  0.6291 -0.0830 -0.3482
 8369SOL    HW136569   2.944   1.861   5.908 -0.9557 -0.5987  0.5569
 8369SOL    HW236570   3.015   1.993   5.913  0.9912 -1.1516 -0.9259
 8370SOL     OW36571   1.562   1.931   6.136 -0.4172 -0.1044  0.1007
 8370SOL    HW136572   1.529   2.020   6.143  0.3629  0.1717  0.3290
 8370SOL    HW236573   1.626   1.937   6.207 -0.2175 -0.0002 -0.0869
 8371SOL     OW36574   0.116   0.887   4.641  0.6718 -0.1250 -0.0370
 8371SOL    HW136575   0.155   0.893   4.554 -1.5707 -1.4956 -1.1402
 8371SOL    HW236576   0.094   0.980   4.644 -1.1492 -0.5086 -1.0439
 8372SOL     OW36577   3.874   0.798   7.621  0.1028  0.1680  0.0845
 8372SOL    HW136578   3.809   0.733   7.648 -0.8880  1.3791  0.6018
 8372SOL    HW236579   3.859   0.867   7.685  2.1555  1.0343 -0.3487
 8373SOL     OW36580   4.003   3.353   4.860  0.0155  0.1409 -0.0168
 8373SOL    HW136581   4.019   3.387   4.772  3.1368 -3.0683 -0.7070
 8373SOL    HW236582   4.068   3.289   4.888  1.3844  1.5773  0.0599
 8374SOL     OW36583   0.593   1.906  17.514  0.0813 -0.1118  0.0837
 8374SOL    HW136584   0.588   1.819  17.474  1.6290  0.9837 -2.4499
 8374SOL    HW236585   0.564   1.885  17.603 -2.4080  1.4809 -0.3357
 8375SOL     OW36586   4.163   3.640   3.050  0.6745 -0.4700 -0.2758
 8375SOL    HW136587   4.201   3.640   2.962 -0.6877  0.2793 -0.8540
 8375SOL    HW236588   4.171   3.733   3.070 -0.5474 -0.4598  0.1349
 8376SOL     OW36589   1.808   4.501  10.543 -0.3043 -0.2263  0.3429
 8376SOL    HW136590   1.810   4.475  10.635 -1.2525  1.1013  0.7475
 8376SOL    HW236591   1.755   4.432  10.503  0.4510  0.1618 -1.3381
 8377SOL     OW36592   1.855   4.537   3.415 -0.4118  0.1816  0.5871
 8377SOL    HW136593   1.888   4.449   3.403 -2.0446 -0.3262 -0.2373
 8377SOL    HW236594   1.854   4.571   3.326  0.4059 -0.1495  0.4567
 8378SOL     OW36595   4.620   2.459   3.192 -0.3178 -0.1569 -0.4943
 8378SOL    HW136596   4.533   2.434   3.161 -0.8867  0.3827  0.6759
 8378SOL    HW236597   4.666   2.378   3.211 -0.7823  0.3003  2.5060
 8379SOL     OW36598   4.277   0.632   1.073  0.4331 -0.6779  0.0029
 8379SOL    HW136599   4.224   0.662   1.147 -1.7097 -0.9066 -1.4701
 8379SOL    HW236600   4.366   0.647   1.105  0.5357  0.4895 -0.8151
 8380SOL     OW36601   3.290   3.911   2.174 -0.1794  0.7940 -0.2678
 8380SOL    HW136602   3.376   3.949   2.191  1.2600 -1.9030 -1.5907
 8380SOL    HW236603   3.296   3.899   2.079 -2.9379 -1.6033 -0.1472
 8381SOL     OW36604   3.461   0.087   6.977  0.5046 -0.4877 -0.2742
 8381SOL    HW136605   3.385   0.040   6.942  0.4330 -1.6110  1.3889
 8381SOL    HW236606   3.531   0.054   6.921  3.4710  2.3005  1.8045
 8382SOL     OW36607   0.668   4.451  11.565  0.0762 -0.6456  0.1397
 8382SOL    HW136608   0.680   4.505  11.487 -2.9785  1.4958  1.1281
 8382SOL    HW236609   0.629   4.514  11.626  0.3355 -2.0170  1.7188
 8383SOL     OW36610   2.058   0.345   2.719 -0.5324 -0.0647  0.1592
 8383SOL    HW136611   2.078   0.261   2.760 -0.4812 -0.1910 -0.1227
 8383SOL    HW236612   2.022   0.390   2.795 -1.5998 -0.7351  0.0441
 8384SOL     OW36613   2.848   4.329   7.299 -0.1408 -0.4543 -0.0852
 8384SOL    HW136614   2.761   4.321   7.261  0.0241  0.4846 -0.6669
 8384SOL    HW236615   2.906   4.322   7.223  0.5842  2.1141  0.2495
 8385SOL     OW36616   1.415   1.327   3.673  0.1854  0.0253  0.3200
 8385SOL    HW136617   1.470   1.392   3.629 -0.2508  0.7889  0.9055
 8385SOL    HW236618   1.438   1.341   3.765  0.0830  1.4790  0.1261
 8386SOL     OW36619   3.114   0.129   2.586  0.3839  0.1831 -0.0155
 8386SOL    HW136620   3.163   0.148   2.666  1.1737 -0.1442 -0.4249
 8386SOL    HW236621   3.146   0.204   2.536 -2.9024  0.1937 -2.1106
 8387SOL     OW36622   3.866   4.293  12.639  0.3959 -0.7643 -0.1931
 8387SOL    HW136623   3.925   4.303  12.565  0.5385  1.3683  0.2207
 8387SOL    HW236624   3.928   4.269  12.708  0.3275  0.8886  0.4455
 8388SOL     OW36625   0.226   1.516   7.471 -0.1841 -0.1886  0.0454
 8388SOL    HW136626   0.161   1.575   7.434  0.2135  0.6901  0.7498
 8388SOL    HW236627   0.304   1.571   7.463  0.9432 -1.5507  1.5206
 8389SOL     OW36628   3.399   4.707  13.285 -0.5630 -0.5981  0.0969
 8389SOL    HW136629   3.361   4.657  13.213 -0.7781 -1.1813  0.6228
 8389SOL    HW236630   3.370   4.649  13.356  0.3843 -1.6329 -0.3514
 8390SOL     OW36631   2.322   4.715   8.075  0.2021 -0.1577 -0.4046
 8390SOL    HW136632   2.285   0.032   8.153 -0.1161 -3.7666  1.3160
 8390SOL    HW236633   2.312   0.066   8.016  1.3762  0.3537  0.0416
 8391SOL     OW36634   0.545   3.724   7.732 -0.0572 -0.6519  0.1596
 8391SOL    HW136635   0.537   3.633   7.703  1.3316 -0.7511  0.0797
 8391SOL    HW236636   0.635   3.742   7.705 -0.1029  1.2142  1.2734
 8392SOL     OW36637   4.194   2.331   1.660  0.3563  0.0492 -0.2532
 8392SOL    HW136638   4.284   2.337   1.630 -0.0713  2.9341 -0.9521
 8392SOL    HW236639   4.197   2.252   1.715  1.3926 -0.2460 -0.7505
 8393SOL     OW36640   0.946   0.188   5.530  0.1669  0.0744 -0.0223
 8393SOL    HW136641   0.999   0.111   5.512  0.2773  0.3671 -0.9484
 8393SOL    HW236642   0.948   0.193   5.626 -1.3727  0.7034 -0.0154
 8394SOL     OW36643   1.594   0.957   5.064 -0.1436 -0.0519 -0.2265
 8394SOL    HW136644   1.652   0.955   4.988 -2.6967 -1.4407 -2.1553
 8394SOL    HW236645   1.511   0.917   5.036 -0.5271  1.0454 -0.6752
 8395SOL     OW36646   4.058   2.621   5.427 -0.4413  0.2088 -0.4100
 8395SOL    HW136647   4.087   2.543   5.379  0.7589  0.5916 -0.3238
 8395SOL    HW236648   4.010   2.658   5.353 -0.3831 -0.4446 -0.7725
 8396SOL     OW36649   1.611   1.632   9.271  0.4368  0.3345  0.3379
 8396SOL    HW136650   1.613   1.682   9.352 -0.3915  1.7110 -0.4966
 8396SOL    HW236651   1.537   1.571   9.280  0.3657  0.4384  0.4506
 8397SOL     OW36652   4.602   0.666   6.310 -0.0923 -0.5132 -0.2102
 8397SOL    HW136653   4.518   0.621   6.301 -0.4649  0.6429 -2.6672
 8397SOL    HW236654   4.607   0.708   6.224  1.8138  2.7347  1.4959
 8398SOL     OW36655   2.035   3.920   3.453 -0.3009  0.4229  1.2720
 8398SOL    HW136656   2.123   3.958   3.450 -0.9237  1.3984 -3.4079
 8398SOL    HW236657   2.047   3.832   3.417 -0.9298  0.7842  0.1760
 8399SOL     OW36658   2.290   2.860  15.329  0.3304 -0.4861 -0.0494
 8399SOL    HW136659   2.342   2.903  15.397 -0.6997 -2.4162  1.9738
 8399SOL    HW236660   2.349   2.863  15.254  0.1930 -2.7847 -0.2726
 8400SOL     OW36661   2.303   2.427  11.805 -0.0366 -0.2656  0.5370
 8400SOL    HW136662   2.242   2.435  11.731 -1.2566 -2.2032  1.3240
 8400SOL    HW236663   2.244   2.383  11.866 -0.1812 -0.9674 -0.1151
 8401SOL     OW36664   1.996   2.335   0.567 -0.0675  0.3125  0.0099
 8401SOL    HW136665   1.958   2.281   0.637  0.2273 -1.7516 -1.4083
 8401SOL    HW236666   2.089   2.348   0.584  0.0893 -0.4569 -0.2385
 8402SOL     OW36667   0.166   1.638  12.150 -0.1270  0.1741 -0.1177
 8402SOL    HW136668   0.236   1.684  12.105 -1.3466  3.6775  1.5948
 8402SOL    HW236669   0.148   1.683  12.232  0.8239 -0.0284  0.1944
 8403SOL     OW36670   0.209   3.532  11.725  0.2159 -0.4904 -0.2064
 8403SOL    HW136671   0.232   3.624  11.710 -3.0685  0.5819  1.1832
 8403SOL    HW236672   0.255   3.492  11.652 -1.2514 -1.8357 -0.3906
 8404SOL     OW36673   2.964   3.840   1.171 -0.7811 -0.3720 -0.0329
 8404SOL    HW136674   2.932   3.930   1.176 -2.1337 -0.6562 -3.7169
 8404SOL    HW236675   3.002   3.825   1.257  0.4562 -2.5645 -0.9673
 8405SOL     OW36676   0.721   3.696   5.992  0.7382  0.3881 -0.3232
 8405SOL    HW136677   0.639   3.738   6.015  0.8647 -0.7380  2.2324
 8405SOL    HW236678   0.770   3.774   5.966  0.5302 -0.3840 -3.0478
 8406SOL     OW36679   2.914   2.543   5.006 -0.3191 -0.0128  0.7018
 8406SOL    HW136680   2.976   2.552   4.934 -0.6699  0.2267  0.4353
 8406SOL    HW236681   2.974   2.531   5.080  0.9562  0.9816 -0.1765
 8407SOL     OW36682   0.679   1.041  10.864 -0.3163 -0.4459 -0.2108
 8407SOL    HW136683   0.734   0.962  10.865  0.6843  0.2610  0.3971
 8407SOL    HW236684   0.681   1.071  10.774  0.0232 -1.2746 -0.4865
 8408SOL     OW36685   4.694   3.897   0.334  0.1570  0.3508  0.2162
 8408SOL    HW136686   4.622   3.925   0.389 -0.4917  0.4160 -0.6623
 8408SOL    HW236687   4.695   3.972   0.274 -4.1081 -1.8668 -2.6132
 8409SOL     OW36688   3.966   0.223  11.568  0.9173 -0.3964  0.0581
 8409SOL    HW136689   3.878   0.225  11.531  0.8633  1.0404  0.2672
 8409SOL    HW236690   4.001   0.279  11.499  0.3642 -1.0832 -0.7667
 8410SOL     OW36691   2.114   0.232  12.498  0.2364 -0.0622  0.0720
 8410SOL    HW136692   2.098   0.292  12.424 -1.6548 -1.4401 -0.6332
 8410SOL    HW236693   2.206   0.214  12.477  0.2118  0.8027 -0.7794
 8411SOL     OW36694   0.387   3.192   1.612 -0.4077 -0.3966 -0.2198
 8411SOL    HW136695   0.386   3.107   1.655 -1.2610 -0.8071 -1.0504
 8411SOL    HW236696   0.342   3.179   1.529  0.9779 -0.6147 -0.9391
 8412SOL     OW36697   0.117   2.501   7.548 -0.2083  0.6469 -0.2028
 8412SOL    HW136698   0.141   2.592   7.535  0.8010  0.5785  1.2234
 8412SOL    HW236699   0.073   2.513   7.632  0.3141  1.0468  0.0068
 8413SOL     OW36700   1.460   3.278   6.132  0.0941 -0.0876 -0.0730
 8413SOL    HW136701   1.386   3.218   6.143  0.0777 -0.4668 -2.1455
 8413SOL    HW236702   1.422   3.365   6.120  0.6952  0.1784 -0.0581
 8414SOL     OW36703   4.072   3.417   8.471 -0.0164  0.3742 -0.0302
 8414SOL    HW136704   3.990   3.391   8.429 -0.2955  0.4093  0.4909
 8414SOL    HW236705   4.070   3.511   8.454 -0.7703  0.2180 -0.8085
 8415SOL     OW36706   1.901   4.205   7.164 -0.0132 -0.0277 -0.4517
 8415SOL    HW136707   1.926   4.290   7.200  2.3456 -0.5596 -0.8527
 8415SOL    HW236708   1.920   4.154   7.243 -1.3183 -0.0231 -0.1472
 8416SOL     OW36709   0.882   1.321  14.537 -0.0844 -0.4764 -0.3648
 8416SOL    HW136710   0.815   1.308  14.470  0.4942  0.2000 -1.0732
 8416SOL    HW236711   0.900   1.240  14.585 -1.5967  0.1712  1.3010
 8417SOL     OW36712   4.234   0.122   1.960  0.1802  0.7417  0.6438
 8417SOL    HW136713   4.173   0.189   1.928  0.2079  0.5870  0.2659
 8417SOL    HW236714   4.269   0.165   2.038 -0.3876  2.2938  0.0408
 8418SOL     OW36715   4.635   0.083  13.879 -0.2885  0.2185 -0.2454
 8418SOL    HW136716   4.674   0.015  13.933 -2.1829  0.2980  1.2104
 8418SOL    HW236717   4.705   0.103  13.817  1.0485 -1.1152  0.8552
 8419SOL     OW36718   2.543   0.625  17.072  0.3943  0.1123  0.1132
 8419SOL    HW136719   2.602   0.651  17.143  0.3764  1.4050 -0.3333
 8419SOL    HW236720   2.515   0.539  17.104 -1.0494  0.5226 -0.0740
 8420SOL     OW36721   0.296   0.402   9.038 -0.6358 -0.2534  0.3298
 8420SOL    HW136722   0.301   0.474   9.100 -1.7341  0.2531 -0.1752
 8420SOL    HW236723   0.389   0.387   9.021 -1.1362 -0.3621 -2.3128
 8421SOL     OW36724   2.691   3.222  16.982 -0.0075 -0.1106 -0.2847
 8421SOL    HW136725   2.725   3.267  16.904  1.4683 -1.6835 -0.5406
 8421SOL    HW236726   2.718   3.289  17.046  2.2152  0.2685 -1.6179
 8422SOL     OW36727   2.934   0.462   5.214  0.2647  0.0222  0.1924
 8422SOL    HW136728   2.876   0.485   5.286  2.1303  0.9532  1.3880
 8422SOL    HW236729   3.019   0.452   5.256  0.4429 -0.5462 -0.2943
 8423SOL     OW36730   4.068   1.291   4.181 -0.1186 -0.1821 -0.1607
 8423SOL    HW136731   4.138   1.274   4.243 -1.1977  1.9138  1.6508
 8423SOL    HW236732   4.070   1.387   4.187 -0.2103 -0.2268  0.5596
 8424SOL     OW36733   1.061   0.081   1.515  0.1374  0.0020 -0.0837
 8424SOL    HW136734   1.084   4.716   1.488  2.5083  0.5890 -0.0487
 8424SOL    HW236735   1.144   0.128   1.522 -0.8101  1.7311 -0.4124
 8425SOL     OW36736   1.187   2.783   6.422  0.9637  0.1198 -0.2703
 8425SOL    HW136737   1.253   2.810   6.358  1.6770  0.6208  0.6762
 8425SOL    HW236738   1.173   2.866   6.467  2.0522 -0.7816  1.7416
 8426SOL     OW36739   3.964   0.596   4.634  0.4138  0.3521 -0.6198
 8426SOL    HW136740   3.925   0.623   4.716 -2.9951  0.7105 -2.3563
 8426SOL    HW236741   3.893   0.549   4.590 -1.5090  0.4049  2.5002
 8427SOL     OW36742   2.256   2.443   6.019 -0.5577 -0.5274 -0.0920
 8427SOL    HW136743   2.252   2.535   6.046 -0.7070 -0.7790  0.7495
 8427SOL    HW236744   2.256   2.457   5.925  0.2716 -0.2309 -0.0473
 8428SOL     OW36745   1.247   2.338  10.414  0.1582  0.5574 -0.3933
 8428SOL    HW136746   1.321   2.280  10.397  1.0358  1.3546  0.7049
 8428SOL    HW236747   1.242   2.383  10.330 -0.0946  0.1320 -0.6062
 8429SOL     OW36748   3.674   3.094   1.089  0.3375  0.3441 -0.0577
 8429SOL    HW136749   3.662   3.013   1.138 -0.2617  1.4872  1.6813
 8429SOL    HW236750   3.592   3.143   1.096 -1.2547 -1.7351 -3.9775
 8430SOL     OW36751   3.018   3.589  13.569  0.2565 -0.6151  0.1514
 8430SOL    HW136752   3.074   3.635  13.632  1.4495 -1.5074 -0.2537
 8430SOL    HW236753   2.945   3.651  13.563  1.2734  0.7336  1.5368
 8431SOL     OW36754   1.787   1.933   8.365 -0.1071 -0.4438  0.1400
 8431SOL    HW136755   1.808   1.998   8.432  0.6010  0.4545 -0.9500
 8431SOL    HW236756   1.855   1.868   8.384  0.3091  0.4982  1.7901
 8432SOL     OW36757   1.425   4.064   5.859  0.0553 -0.1590  0.1823
 8432SOL    HW136758   1.396   4.036   5.773 -2.2943  0.0138  0.9191
 8432SOL    HW236759   1.428   3.977   5.898 -0.0143 -0.7628 -1.1742
 8433SOL     OW36760   4.355   4.236   2.872 -0.7737 -0.6186 -0.0249
 8433SOL    HW136761   4.277   4.271   2.829  0.9158 -0.4393 -2.9639
 8433SOL    HW236762   4.436   4.280   2.846 -1.2295  0.1290 -0.1758
 8434SOL     OW36763   3.503   2.125   2.730 -0.0380  0.7096 -0.1165
 8434SOL    HW136764   3.505   2.079   2.646 -0.1925 -3.0833  1.9380
 8434SOL    HW236765   3.439   2.193   2.707 -0.5995 -0.0512 -0.7967
 8435SOL     OW36766   3.737   4.300   9.637 -0.6542 -0.0768  0.3898
 8435SOL    HW136767   3.659   4.245   9.642  0.6750 -1.8785  1.2155
 8435SOL    HW236768   3.707   4.360   9.705 -0.8020  0.0300  0.2305
 8436SOL     OW36769   3.300   1.929   9.915  0.9407  0.1278 -0.2457
 8436SOL    HW136770   3.337   2.008   9.877  4.4348 -1.6569 -0.5614
 8436SOL    HW236771   3.351   1.865   9.866 -0.4944  0.6849 -2.4552
 8437SOL     OW36772   0.639   3.646   4.451 -0.0085 -0.0379  0.1955
 8437SOL    HW136773   0.628   3.552   4.437 -2.1527  0.2507 -0.0334
 8437SOL    HW236774   0.696   3.638   4.527  0.4424 -1.4609 -0.2862
 8438SOL     OW36775   4.129   4.624   6.524 -0.2974  0.7689  0.1708
 8438SOL    HW136776   4.150   4.601   6.615  0.5241  1.6847  0.2205
 8438SOL    HW236777   4.105   4.717   6.530 -3.0700  0.2926 -3.7031
 8439SOL     OW36778   4.709   0.266   1.985  0.4024  0.3113  0.1355
 8439SOL    HW136779   4.640   0.201   1.975  1.6980 -0.8903 -1.0868
 8439SOL    HW236780   4.672   0.324   1.919  0.4070 -0.3107 -0.4105
 8440SOL     OW36781   4.155   0.849  13.899  0.0784 -0.1612  0.0552
 8440SOL    HW136782   4.071   0.891  13.919 -0.4745 -0.7724 -1.0402
 8440SOL    HW236783   4.163   0.779  13.964 -1.5519  0.1679  0.6152
 8441SOL     OW36784   1.701   4.588  11.249  0.2535  0.7501  0.0103
 8441SOL    HW136785   1.741   4.661  11.201 -1.0199  0.2017 -1.8794
 8441SOL    HW236786   1.632   4.633  11.298 -1.5429 -1.2514 -0.7014
 8442SOL     OW36787   3.143   4.045  17.468 -0.1850 -0.0402 -0.1715
 8442SOL    HW136788   3.213   4.045  17.533 -1.4051 -0.2390  1.1380
 8442SOL    HW236789   3.151   4.136  17.442  0.4167  0.7142  2.7238
 8443SOL     OW36790   0.541   0.875  15.415 -0.5263  0.2930 -0.2740
 8443SOL    HW136791   0.535   0.953  15.360  0.5031  1.3092  1.0656
 8443SOL    HW236792   0.470   0.818  15.386  0.0771 -1.7379  2.3128
 8444SOL     OW36793   1.557   1.570   9.587  0.5381 -0.0948 -0.9066
 8444SOL    HW136794   1.462   1.572   9.599  0.2134 -0.5114 -3.3682
 8444SOL    HW236795   1.584   1.644   9.642 -1.7229  0.0938 -0.0494
 8445SOL     OW36796   4.608   1.926   9.819  0.5558  0.1416 -0.3070
 8445SOL    HW136797   4.661   2.005   9.809  0.1510  0.4856  0.3291
 8445SOL    HW236798   4.533   1.942   9.762  0.1971  1.4673  0.5336
 8446SOL     OW36799   3.258   2.210   4.383  0.4111  0.1861 -0.0924
 8446SOL    HW136800   3.234   2.223   4.475 -1.2734  1.1014 -0.6505
 8446SOL    HW236801   3.216   2.291   4.354  1.0673  0.2408 -0.8739
 8447SOL     OW36802   3.482   4.509   9.680 -0.4481 -0.2546 -0.7778
 8447SOL    HW136803   3.394   4.543   9.667 -0.4086 -0.3290 -1.2389
 8447SOL    HW236804   3.483   4.455   9.601 -0.8590  1.2904 -1.8289
 8448SOL     OW36805   1.109   3.118   8.640 -0.7179  0.9030  0.2694
 8448SOL    HW136806   1.086   3.033   8.604 -2.5621  0.4349  2.5077
 8448SOL    HW236807   1.060   3.175   8.581  0.3582  0.4403 -1.0542
 8449SOL     OW36808   3.248   2.913   4.107 -0.2576 -0.7469 -0.2629
 8449SOL    HW136809   3.289   2.850   4.047 -0.7554  1.6980 -3.1966
 8449SOL    HW236810   3.274   2.995   4.063  1.7449 -0.8023  0.8032
 8450SOL     OW36811   1.415   1.111  12.628 -0.2652  0.2078 -0.0194
 8450SOL    HW136812   1.505   1.081  12.616  0.1172  1.5797 -0.6203
 8450SOL    HW236813   1.368   1.087  12.548  0.4905 -0.0046 -0.3994
 8451SOL     OW36814   3.889   1.069   4.686  0.1258  0.0715 -0.1964
 8451SOL    HW136815   3.954   1.042   4.751  1.8367  1.2052 -1.4286
 8451SOL    HW236816   3.809   1.066   4.739 -0.1827  0.7864 -0.6248
 8452SOL     OW36817   4.419   2.444  14.029  0.2899 -0.2051  0.0590
 8452SOL    HW136818   4.378   2.498  14.097 -2.0325 -4.0639  1.7077
 8452SOL    HW236819   4.505   2.432  14.068  0.6396  1.8831 -0.0671
 8453SOL     OW36820   2.394   2.511   3.768 -0.1085  0.5257  0.0881
 8453SOL    HW136821   2.456   2.457   3.717  2.4471  4.0766 -0.5508
 8453SOL    HW236822   2.387   2.447   3.839 -0.7140 -1.9856 -2.2117
 8454SOL     OW36823   3.768   0.565  12.843 -0.3597 -0.3719  0.0348
 8454SOL    HW136824   3.788   0.531  12.756 -2.1351  0.7291 -0.8243
 8454SOL    HW236825   3.733   0.490  12.891 -1.2484 -0.1623 -0.2858
 8455SOL     OW36826   2.345   0.228   6.982 -0.2765 -0.2251  0.2746
 8455SOL    HW136827   2.281   0.178   7.033 -1.9105  0.3162 -1.2252
 8455SOL    HW236828   2.300   0.236   6.898 -0.7303  2.4000  0.7630
 8456SOL     OW36829   0.160   3.661  13.884 -0.0214 -0.1979  0.0485
 8456SOL    HW136830   0.164   3.649  13.789 -1.9945  0.0580 -0.0671
 8456SOL    HW236831   0.254   3.674  13.900 -0.1044  0.7445 -0.2131
 8457SOL     OW36832   4.717   3.709   2.383 -0.4940  0.0960 -0.0125
 8457SOL    HW136833   0.085   3.731   2.367 -0.5062 -0.7688 -1.3164
 8457SOL    HW236834   0.001   3.672   2.471 -0.8920  0.7556  0.2991
 8458SOL     OW36835   2.688   2.540  14.184  0.4119  0.4707  0.3839
 8458SOL    HW136836   2.647   2.462  14.220 -2.0186  1.6302  0.0945
 8458SOL    HW236837   2.638   2.532  14.103  1.0238 -1.1066  0.1549
 8459SOL     OW36838   0.532   2.135   3.456 -0.7959 -0.1744 -0.0669
 8459SOL    HW136839   0.480   2.087   3.392 -0.6976  1.4771 -1.3963
 8459SOL    HW236840   0.621   2.102   3.443 -1.1790 -1.9358  1.8993
 8460SOL     OW36841   0.721   0.383   8.190 -0.1597  0.1925  0.1096
 8460SOL    HW136842   0.799   0.393   8.244  0.9208 -0.3374 -1.3353
 8460SOL    HW236843   0.754   0.349   8.107 -1.8654 -1.3262  0.0604
 8461SOL     OW36844   1.428   4.247   2.862 -0.0803 -0.1649  0.2922
 8461SOL    HW136845   1.384   4.229   2.779 -0.7545  2.1628  0.1447
 8461SOL    HW236846   1.513   4.203   2.855 -0.5639 -1.2885  1.3585
 8462SOL     OW36847   3.233   1.653   5.749  0.5494  0.6968  0.3607
 8462SOL    HW136848   3.277   1.737   5.731  1.0102  0.4347  0.2760
 8462SOL    HW236849   3.308   1.596   5.766 -0.1883 -0.8238 -1.5270
 8463SOL     OW36850   2.000   4.532  17.086 -0.2449 -0.0971 -0.8017
 8463SOL    HW136851   1.979   4.500  17.174  3.3504 -0.4287 -0.0827
 8463SOL    HW236852   2.036   4.618  17.107 -0.7896  0.2500 -1.2791
 8464SOL     OW36853   3.171   0.935  15.240 -0.3640 -0.9684 -0.2127
 8464SOL    HW136854   3.158   1.013  15.187  0.2449  0.4526  1.7337
 8464SOL    HW236855   3.253   0.959  15.283 -1.5475  2.7548 -0.0384
 8465SOL     OW36856   0.376   3.519   4.062  0.1849  0.4720  0.1048
 8465SOL    HW136857   0.463   3.487   4.039 -0.9993 -2.4877 -0.2556
 8465SOL    HW236858   0.359   3.467   4.140 -1.2277  2.0078  0.8328
 8466SOL     OW36859   1.141   2.410   9.459  0.1090  0.1039  0.0475
 8466SOL    HW136860   1.215   2.381   9.405 -0.4486  1.1923 -1.3132
 8466SOL    HW236861   1.102   2.472   9.398 -1.4144 -0.3407  0.5807
 8467SOL     OW36862   0.828   1.042   2.969  0.5682  0.1194 -0.2868
 8467SOL    HW136863   0.827   1.077   2.880 -0.7171  1.2563  0.1818
 8467SOL    HW236864   0.741   1.062   3.003  0.5891  1.4874 -1.0483
 8468SOL     OW36865   3.745   3.988   9.504  0.7318 -0.5784  0.2536
 8468SOL    HW136866   3.721   3.919   9.441 -2.1403 -1.0236  1.8622
 8468SOL    HW236867   3.661   4.004   9.546  0.7235 -0.1554  0.0719
 8469SOL     OW36868   2.193   2.721   5.591 -0.4597  0.2222 -0.4668
 8469SOL    HW136869   2.107   2.686   5.569  0.2461 -2.2895  0.7805
 8469SOL    HW236870   2.170   2.801   5.639  0.1877  0.6109 -0.8030
 8470SOL     OW36871   2.115   0.501  14.199 -0.4324 -0.4743 -0.2062
 8470SOL    HW136872   2.024   0.527  14.214 -0.6753 -2.2952  1.4752
 8470SOL    HW236873   2.096   0.415  14.162 -0.4635  0.4218 -2.2751
 8471SOL     OW36874   1.479   0.654   2.652 -0.1371  0.2479  0.6816
 8471SOL    HW136875   1.435   0.586   2.600  0.4496 -0.2889  0.8776
 8471SOL    HW236876   1.401   0.675   2.703 -1.6308 -1.1234 -1.0471
 8472SOL     OW36877   0.394   4.617   3.539  0.1122 -0.1407 -0.6700
 8472SOL    HW136878   0.379   4.527   3.567 -0.2374  1.0746  3.0254
 8472SOL    HW236879   0.390   4.614   3.443 -1.0568 -0.1787 -0.6226
 8473SOL     OW36880   2.665   1.976  10.434 -0.6544  0.1505 -0.0895
 8473SOL    HW136881   2.595   2.036  10.458 -0.3939  0.4318 -0.0313
 8473SOL    HW236882   2.699   2.017  10.354 -0.6806 -1.4709 -0.9217
 8474SOL     OW36883   2.922   2.022   2.902  0.7557 -0.1265 -0.6341
 8474SOL    HW136884   3.001   2.067   2.932  0.9814 -0.3642 -0.8537
 8474SOL    HW236885   2.945   1.997   2.812 -0.5935 -2.6981 -0.2704
 8475SOL     OW36886   3.590   1.140   3.518  0.0770  0.0651 -0.1578
 8475SOL    HW136887   3.659   1.086   3.556  1.1180  1.0414 -0.6709
 8475SOL    HW236888   3.609   1.213   3.578 -0.2300 -0.9557  1.1889
 8476SOL     OW36889   4.581   3.942  12.571  0.5363  0.7794  0.0009
 8476SOL    HW136890   4.640   4.015  12.591  1.4141 -0.4667  1.9493
 8476SOL    HW236891   4.645   3.875  12.547  2.1494  1.7867  1.4756
 8477SOL     OW36892   3.285   1.560   1.864  0.1362  0.6006  0.5172
 8477SOL    HW136893   3.322   1.549   1.776  0.3584  3.2063  0.2782
 8477SOL    HW236894   3.335   1.636   1.894  0.8325  0.7902 -1.0574
 8478SOL     OW36895   1.542   1.506   8.244  0.1103  0.8274  0.1214
 8478SOL    HW136896   1.455   1.533   8.216  0.2803  2.0154  0.7414
 8478SOL    HW236897   1.579   1.578   8.295  2.8601  0.3702 -1.2163
 8479SOL     OW36898   4.246   0.427   8.981  0.9124  0.9288 -0.1497
 8479SOL    HW136899   4.249   0.334   8.960  0.0419  0.8772 -0.0390
 8479SOL    HW236900   4.180   0.437   9.050  1.1483 -1.7708  0.4360
 8480SOL     OW36901   3.822   0.495   5.997 -0.0319 -0.0838 -0.2265
 8480SOL    HW136902   3.850   0.404   6.012  1.0629  0.2343 -0.3835
 8480SOL    HW236903   3.864   0.534   6.074  1.7806 -0.5230 -1.0091
 8481SOL     OW36904   1.647   2.187   2.535 -0.4541 -0.3663  0.2831
 8481SOL    HW136905   1.668   2.266   2.486  0.5017  1.3463  3.4546
 8481SOL    HW236906   1.695   2.209   2.615 -0.4875 -0.3394  0.2956
 8482SOL     OW36907   4.527   0.095   1.855 -0.5056 -0.6881  0.6087
 8482SOL    HW136908   4.446   0.140   1.879 -1.3597 -1.3831 -0.9359
 8482SOL    HW236909   4.493   0.031   1.792 -2.0137 -0.6997  1.4332
 8483SOL     OW36910   0.029   2.335   1.113  0.0531  0.1421 -0.2214
 8483SOL    HW136911   4.715   2.283   1.042 -1.6436  1.4712 -0.3063
 8483SOL    HW236912   0.121   2.340   1.088  0.4680  0.4840  1.3615
 8484SOL     OW36913   0.618   2.130   5.063  0.0577 -0.3151  0.2728
 8484SOL    HW136914   0.661   2.057   5.108  1.0044 -1.8487 -3.1243
 8484SOL    HW236915   0.687   2.171   5.011 -1.1420  1.4892  0.1013
 8485SOL     OW36916   3.875   3.169  16.624  0.1245  0.0566  0.4041
 8485SOL    HW136917   3.883   3.182  16.529 -0.0137  1.1103  0.5411
 8485SOL    HW236918   3.807   3.229  16.655 -1.3762 -1.4791  0.1249
 8486SOL     OW36919   4.379   3.455  15.501  0.2346 -0.8045 -0.8413
 8486SOL    HW136920   4.324   3.529  15.526  1.1607 -0.4794  0.2628
 8486SOL    HW236921   4.326   3.378  15.522  0.5847 -0.9128 -0.3582
 8487SOL     OW36922   0.832   4.521   1.791 -0.0399 -0.5128 -0.7230
 8487SOL    HW136923   0.912   4.571   1.777 -1.1465  2.0234  2.0766
 8487SOL    HW236924   0.816   4.468   1.713  1.9763  0.0095 -1.4953
 8488SOL     OW36925   1.402   3.723   8.144  0.7687 -0.0812 -0.1487
 8488SOL    HW136926   1.346   3.645   8.144  0.6705 -0.0108  2.0839
 8488SOL    HW236927   1.343   3.777   8.197  2.0168 -0.4331  1.5961
 8489SOL     OW36928   0.050   2.036  13.113  0.3748 -0.4046 -0.4194
 8489SOL    HW136929   0.037   2.075  13.027  0.6651 -0.1178 -0.3338
 8489SOL    HW236930   4.684   2.031  13.144  0.2442  2.9256 -0.2417
 8490SOL     OW36931   2.243   1.653  13.041  0.1799 -0.0186 -0.1423
 8490SOL    HW136932   2.322   1.600  13.057  0.1294 -0.0416  0.0272
 8490SOL    HW236933   2.247   1.710  13.118  0.2083 -0.9359  0.5348
 8491SOL     OW36934   2.072   0.135  16.614  0.3775  0.1817  0.4558
 8491SOL    HW136935   2.004   0.148  16.680 -1.1690 -1.7510 -0.7430
 8491SOL    HW236936   2.041   0.056  16.570  1.0373  0.2208 -0.0812
 8492SOL     OW36937   2.387   3.704   0.749  0.6704  0.5253  0.3554
 8492SOL    HW136938   2.453   3.712   0.680 -0.6755 -0.9466 -1.1220
 8492SOL    HW236939   2.305   3.715   0.700  1.0874  0.6759 -0.3173
 8493SOL     OW36940   2.871   1.005   6.910 -0.3197  0.2423  0.5009
 8493SOL    HW136941   2.891   0.917   6.945 -2.3655 -1.1218 -1.7980
 8493SOL    HW236942   2.816   0.973   6.839 -1.0846 -1.7537  1.9908
 8494SOL     OW36943   4.362   1.638   2.577 -0.0721 -0.8344 -0.3176
 8494SOL    HW136944   4.290   1.683   2.533  1.2369  0.2610 -1.3606
 8494SOL    HW236945   4.427   1.637   2.506 -0.8281  0.5127 -1.0357
 8495SOL     OW36946   1.040   4.610   4.444 -0.0647 -1.0063  0.9787
 8495SOL    HW136947   1.128   4.591   4.474  0.1517  1.0328  1.6333
 8495SOL    HW236948   1.048   4.705   4.447 -3.1973 -0.7583  1.9891
 8496SOL     OW36949   0.314   4.666   0.720 -0.0236  0.3151  0.2575
 8496SOL    HW136950   0.292   4.666   0.627  0.8198  0.8358  0.0570
 8496SOL    HW236951   0.230   4.635   0.753 -0.9078  1.3624 -0.9755
 8497SOL     OW36952   4.401   4.284   0.505 -0.4879 -1.0182 -0.0401
 8497SOL    HW136953   4.424   4.200   0.544  1.7284 -0.2154  0.3696
 8497SOL    HW236954   4.433   4.352   0.564 -1.1681  1.1737 -2.1741
 8498SOL     OW36955   4.012   4.355  11.427  0.1145  0.2838  0.2746
 8498SOL    HW136956   3.984   4.292  11.493 -0.9757  1.7444  1.2118
 8498SOL    HW236957   3.931   4.385  11.387 -0.3993 -1.5463 -0.0483
 8499SOL     OW36958   4.360   1.158   8.754 -0.2203  0.5974  0.1414
 8499SOL    HW136959   4.346   1.231   8.694  1.3148  1.2939  0.6173
 8499SOL    HW236960   4.291   1.103   8.717 -0.7460  0.6909  0.9780
 8500SOL     OW36961   0.742   0.515  10.251  0.2159  0.0621 -0.3099
 8500SOL    HW136962   0.770   0.558  10.170  0.1121 -0.4509 -0.6159
 8500SOL    HW236963   0.682   0.456  10.206  0.5286 -0.4075 -0.1102
 8501SOL     OW36964   3.004   2.550   6.914 -0.3720  0.1337 -0.1686
 8501SOL    HW136965   2.913   2.581   6.911 -0.8556 -1.2277  0.6963
 8501SOL    HW236966   3.044   2.634   6.891  1.7006 -0.5233  1.0712
 8502SOL     OW36967   4.597   4.249  12.210  0.0807  0.0719  0.0011
 8502SOL    HW136968   4.620   4.218  12.122  0.3759  1.7070 -0.4934
 8502SOL    HW236969   4.671   4.220  12.263  0.0045 -0.9291 -0.4404
 8503SOL     OW36970   0.664   0.958   3.294  0.1763 -0.2164  0.4289
 8503SOL    HW136971   0.664   0.983   3.386  0.1597 -2.2074  0.9797
 8503SOL    HW236972   0.657   0.863   3.306  0.6539 -0.2653  0.3419
 8504SOL     OW36973   3.420   3.406  10.614 -0.2144 -0.3456 -0.1084
 8504SOL    HW136974   3.512   3.377  10.609  0.1548  0.8661 -0.3839
 8504SOL    HW236975   3.438   3.489  10.658  0.4524  1.0981 -3.0654
 8505SOL     OW36976   0.958   4.045  15.434 -0.5078  0.6473 -0.3188
 8505SOL    HW136977   1.033   4.001  15.393  0.8971  1.0539  1.8213
 8505SOL    HW236978   0.988   4.124  15.478  2.3784 -1.1727  0.9541
 8506SOL     OW36979   1.288   3.664   2.795  0.1597 -0.1005 -0.0620
 8506SOL    HW136980   1.360   3.705   2.842 -1.4872  1.7732  0.8440
 8506SOL    HW236981   1.338   3.628   2.722  1.8468  1.1041  0.4971
 8507SOL     OW36982   2.079   2.584  15.070 -0.4115 -0.2894 -0.2892
 8507SOL    HW136983   2.069   2.544  15.156  1.1336 -0.3570 -0.1370
 8507SOL    HW236984   2.046   2.508  15.023  1.1902 -2.4506  2.0722
 8508SOL     OW36985   3.457   2.031   5.273 -0.0597  0.8165 -0.4211
 8508SOL    HW136986   3.546   2.057   5.300  0.5177 -2.8771  1.1483
 8508SOL    HW236987   3.445   1.954   5.329  1.5060  0.1069 -1.0706
 8509SOL     OW36988   2.263   3.043   5.227 -0.1711  0.0052  0.3010
 8509SOL    HW136989   2.190   3.096   5.196  1.4966  1.8477 -0.4668
 8509SOL    HW236990   2.320   3.118   5.243  2.6835 -2.7986  3.3445
 8510SOL     OW36991   2.271   4.125  11.149  0.3946 -0.0034 -0.1865
 8510SOL    HW136992   2.360   4.131  11.113  1.0616  0.3429  1.5239
 8510SOL    HW236993   2.263   4.218  11.172  3.7082  0.0297  0.8320
 8511SOL     OW36994   2.142   3.849   6.161  0.8152 -0.2539 -0.6521
 8511SOL    HW136995   2.173   3.803   6.239 -0.3998 -0.6372 -0.3987
 8511SOL    HW236996   2.155   3.938   6.193 -2.9709 -0.5654  1.6461
 8512SOL     OW36997   3.859   3.920   7.392 -0.4723  0.5017  0.0524
 8512SOL    HW136998   3.804   3.946   7.465  0.4997  0.9286  0.6337
 8512SOL    HW236999   3.809   3.944   7.314 -2.3328 -0.1909  1.0398
 8513SOL     OW37000   1.452   2.506   1.420 -0.8369 -0.2975 -0.3584
 8513SOL    HW137001   1.545   2.510   1.401 -1.2539 -0.5657 -2.4059
 8513SOL    HW237002   1.439   2.431   1.361 -1.4718  0.8172 -1.6202
 8514SOL     OW37003   0.768   1.568   8.116 -0.1602  0.1650 -0.4103
 8514SOL    HW137004   0.726   1.591   8.199 -2.7631 -2.8072 -0.9070
 8514SOL    HW237005   0.815   1.487   8.137 -0.8793  0.0528  0.7578
 8515SOL     OW37006   2.587   2.468  13.917  0.7516 -0.1576 -0.1471
 8515SOL    HW137007   2.646   2.430  13.852  2.6339  0.6648  1.0868
 8515SOL    HW237008   2.506   2.417  13.911  0.0180  0.9067  0.6642
 8516SOL     OW37009   0.462   3.233   4.700  0.4109  0.4743 -0.1638
 8516SOL    HW137010   0.499   3.188   4.776  1.0704 -0.3361 -0.9625
 8516SOL    HW237011   0.540   3.227   4.646 -0.1558  2.1041 -1.1604
 8517SOL     OW37012   4.018   2.560   2.386  0.1362 -0.2718 -0.2577
 8517SOL    HW137013   4.108   2.563   2.355 -0.8127  2.2575 -2.7061
 8517SOL    HW237014   3.977   2.623   2.327  0.6455 -0.4829 -0.8321
 8518SOL     OW37015   2.504   2.784   4.056 -0.2625 -0.2534 -0.2082
 8518SOL    HW137016   2.421   2.758   4.096 -0.4844 -0.2118 -0.6484
 8518SOL    HW237017   2.557   2.807   4.132  0.7024 -1.9669 -0.3699
 8519SOL     OW37018   3.381   4.538   4.152 -0.3760  0.5068 -0.0141
 8519SOL    HW137019   3.343   4.573   4.072 -0.6343  0.7994  0.2322
 8519SOL    HW237020   3.308   4.544   4.214  0.8208  0.4674  1.4201
 8520SOL     OW37021   4.293   3.668   6.104 -0.5512 -0.4404  0.0363
 8520SOL    HW137022   4.211   3.712   6.084 -0.8241  0.1117  2.3830
 8520SOL    HW237023   4.347   3.730   6.153 -1.0437 -0.6184  0.8048
 8521SOL     OW37024   2.709   4.065   8.095 -1.0115  0.0144 -0.0153
 8521SOL    HW137025   2.793   4.095   8.130  0.5368 -0.5772 -3.0986
 8521SOL    HW237026   2.668   4.055   8.180  0.8276  1.4458  1.0503
 8522SOL     OW37027   1.339   1.774  13.794  0.2824 -0.7559  0.2153
 8522SOL    HW137028   1.385   1.749  13.874 -1.3997  2.0404  2.0308
 8522SOL    HW237029   1.278   1.701  13.785 -0.5800 -0.1166  0.9456
 8523SOL     OW37030   0.909   2.141   5.421  0.1884 -0.9645  0.1941
 8523SOL    HW137031   0.979   2.165   5.482  2.0667  1.8402 -3.0216
 8523SOL    HW237032   0.864   2.226   5.422  0.0453 -1.0479  1.9788
 8524SOL     OW37033   2.303   2.112   8.514 -0.3734 -0.8398  0.5403
 8524SOL    HW137034   2.241   2.050   8.476  0.7347 -0.0345 -2.5036
 8524SOL    HW237035   2.246   2.181   8.549  0.5436  0.8636 -1.3596
 8525SOL     OW37036   0.069   3.959   5.749 -0.1319 -0.4565 -0.0477
 8525SOL    HW137037   0.150   3.965   5.698 -0.8967  1.7324 -1.0057
 8525SOL    HW237038   0.047   4.051   5.764  0.9731  0.0335 -1.3742
 8526SOL     OW37039   2.452   3.776   5.381 -0.2370  0.2157 -0.1796
 8526SOL    HW137040   2.375   3.809   5.427  0.5691  1.1945  0.4876
 8526SOL    HW237041   2.450   3.824   5.298 -1.9918  0.7502  0.1689
 8527SOL     OW37042   2.088   2.517   6.892  0.0897  0.2525 -0.2827
 8527SOL    HW137043   2.078   2.482   6.803  2.3261 -1.6601  0.1968
 8527SOL    HW237044   2.102   2.446   6.955  1.2805  1.1345  0.4478
 8528SOL     OW37045   3.582   2.928   6.434 -0.4292 -0.0926  0.1608
 8528SOL    HW137046   3.609   3.003   6.487 -0.5210 -0.7664  1.1618
 8528SOL    HW237047   3.553   2.872   6.506  1.1680 -1.3907 -0.1998
 8529SOL     OW37048   4.440   4.441   7.877 -0.5468  0.8038  0.0979
 8529SOL    HW137049   4.422   4.424   7.785  0.2860  0.5064 -0.0094
 8529SOL    HW237050   4.464   4.534   7.870  3.3037 -0.2677 -1.0126
 8530SOL     OW37051   4.209   3.877   9.153  0.1250 -0.1728  0.1309
 8530SOL    HW137052   4.262   3.957   9.148 -1.3378  0.9602  2.7846
 8530SOL    HW237053   4.238   3.847   9.239  0.1255  0.2678  0.2835
 8531SOL     OW37054   2.609   3.125   7.265 -0.0589 -0.1428 -0.8426
 8531SOL    HW137055   2.551   3.201   7.266 -0.2134 -0.2877  1.4656
 8531SOL    HW237056   2.555   3.052   7.296  1.3495 -1.7297 -2.1290
 8532SOL     OW37057   4.721   3.800   5.177 -0.0591  0.1620  0.5156
 8532SOL    HW137058   0.058   3.872   5.195  0.3433 -0.2867  0.9276
 8532SOL    HW237059   0.057   3.730   5.152 -0.3362  0.0099  0.2824
 8533SOL     OW37060   4.279   2.280   5.550 -0.5602 -0.4688  0.5971
 8533SOL    HW137061   4.353   2.326   5.590  0.5704 -0.9215 -0.9839
 8533SOL    HW237062   4.262   2.326   5.468  2.2277  2.2772  1.5785
 8534SOL     OW37063   1.291   3.896   3.750 -0.4467  0.1555 -0.4678
 8534SOL    HW137064   1.337   3.812   3.757  2.8865  2.0795  0.6884
 8534SOL    HW237065   1.312   3.930   3.662  1.2770 -1.3182 -0.6378
 8535SOL     OW37066   4.086   2.072  13.737  0.3273  0.3872  0.2213
 8535SOL    HW137067   4.145   2.120  13.678 -0.3285 -0.5236 -1.1578
 8535SOL    HW237068   4.079   2.125  13.816 -2.4038 -0.1080  0.3171
 8536SOL     OW37069   3.230   2.870  17.040  0.3094  0.3459 -0.5108
 8536SOL    HW137070   3.200   2.957  17.013  1.0176  0.2021 -1.7971
 8536SOL    HW237071   3.225   2.885  17.134 -0.1159 -1.1521 -0.3058
 8537SOL     OW37072   1.830   1.894   8.950 -0.1181  0.2252  0.1472
 8537SOL    HW137073   1.893   1.823   8.937 -0.3596 -0.1807  1.1642
 8537SOL    HW237074   1.890   1.934   9.013 -0.7418  0.3633  0.6524
 8538SOL     OW37075   3.992   4.520   6.287 -0.5107  0.5633 -0.3063
 8538SOL    HW137076   3.917   4.464   6.307 -0.6670  0.8505 -0.0716
 8538SOL    HW237077   4.023   4.542   6.375  0.4468 -0.3415 -0.4242
 8539SOL     OW37078   1.729   0.193   8.164 -0.9164  0.4698 -0.3689
 8539SOL    HW137079   1.774   0.118   8.202 -2.5288  0.7114  1.9639
 8539SOL    HW237080   1.665   0.213   8.232  0.4328 -1.7471  1.5065
 8540SOL     OW37081   4.441   0.785   3.893 -0.7091 -0.8700 -0.0206
 8540SOL    HW137082   4.519   0.840   3.889 -0.8601 -0.7219 -0.9946
 8540SOL    HW237083   4.463   0.700   3.855 -1.2863 -1.2190  0.4237
 8541SOL     OW37084   1.361   0.149   7.260 -0.2964  0.3129  0.0965
 8541SOL    HW137085   1.400   0.230   7.292 -1.0296  1.0308 -0.8263
 8541SOL    HW237086   1.270   0.178   7.267 -0.0595  0.7052  1.6268
 8542SOL     OW37087   3.822   2.072  12.363  0.2149 -0.9835  0.1035
 8542SOL    HW137088   3.875   2.082  12.284 -0.2259  0.2820 -0.0250
 8542SOL    HW237089   3.889   2.052  12.429 -0.3266  2.0557  1.5501
 8543SOL     OW37090   4.248   0.439   7.969 -1.1625  0.4569  0.0931
 8543SOL    HW137091   4.160   0.464   7.999 -2.2699 -1.8517 -1.2701
 8543SOL    HW237092   4.250   0.345   7.986  2.0010  0.4045 -0.6122
 8544SOL     OW37093   2.074   2.637   9.120 -0.0128  0.2067 -0.2951
 8544SOL    HW137094   2.160   2.655   9.157 -0.3113 -0.5941  0.7821
 8544SOL    HW237095   2.024   2.713   9.149 -2.1898 -1.3021 -0.0638
 8545SOL     OW37096   0.476   1.379   4.252 -0.0657  0.3412 -0.4430
 8545SOL    HW137097   0.435   1.357   4.169  0.1568  0.3408 -0.5512
 8545SOL    HW237098   0.512   1.467   4.238  2.3077 -0.6175 -0.3725
 8546SOL     OW37099   1.899   3.552   2.965 -0.0001 -0.1916 -0.3289
 8546SOL    HW137100   1.947   3.490   3.019 -0.3603  0.2631  0.5286
 8546SOL    HW237101   1.808   3.530   2.988  0.2502 -0.4538  0.3931
 8547SOL     OW37102   2.165   2.133   6.848  0.1494 -0.1047 -0.3490
 8547SOL    HW137103   2.162   2.186   6.927  0.5099  0.0404 -0.4320
 8547SOL    HW237104   2.225   2.192   6.801 -0.4560  1.0745  0.3638
 8548SOL     OW37105   3.474   0.792   7.032 -0.1706  0.0704 -0.0976
 8548SOL    HW137106   3.385   0.823   7.011 -1.1422 -1.5113  1.7431
 8548SOL    HW237107   3.496   0.859   7.097 -1.0565  1.9554 -1.6999
 8549SOL     OW37108   2.813   4.636  15.654 -0.0611  0.1299  0.0351
 8549SOL    HW137109   2.789   4.572  15.721 -2.7541  1.2437  0.1402
 8549SOL    HW237110   2.846   4.570  15.593  0.3300  0.3845 -0.0259
 8550SOL     OW37111   2.356   0.624   7.092 -0.1669 -0.3134 -0.0472
 8550SOL    HW137112   2.390   0.556   7.150  0.8938 -0.4597 -0.8469
 8550SOL    HW237113   2.262   0.609   7.081  0.0879 -0.4261 -2.0364
 8551SOL     OW37114   0.527   4.380  17.261  0.8499  0.0852  0.5122
 8551SOL    HW137115   0.497   4.396  17.172 -0.3864  2.3446  1.3305
 8551SOL    HW237116   0.483   4.448  17.314  1.3446  0.4222  0.4878
 8552SOL     OW37117   0.457   2.965   4.480  0.0239 -0.1783  0.0106
 8552SOL    HW137118   0.393   3.022   4.437  0.8758 -0.2886 -1.3797
 8552SOL    HW237119   0.394   2.915   4.533 -0.2367  0.7874  0.6298
 8553SOL     OW37120   3.713   0.968   4.856 -0.0940 -0.9904 -0.8188
 8553SOL    HW137121   3.665   0.934   4.781 -0.2205  1.8557 -2.0004
 8553SOL    HW237122   3.632   0.968   4.908 -0.1978  1.7605 -1.0117
 8554SOL     OW37123   1.180   2.848   7.807  1.0458 -0.5160 -0.2098
 8554SOL    HW137124   1.197   2.797   7.886  2.7877  0.9052  0.3431
 8554SOL    HW237125   1.162   2.935   7.843 -0.0133 -0.2481 -1.3764
 8555SOL     OW37126   0.811   1.993  11.749  0.0432  0.6385  0.2901
 8555SOL    HW137127   0.835   1.994  11.842 -1.3910  3.0682  0.6565
 8555SOL    HW237128   0.795   1.900  11.736  3.5433  0.0159  0.5779
 8556SOL     OW37129   1.631   0.707   3.933  0.6307  0.4596  0.3259
 8556SOL    HW137130   1.664   0.617   3.927  0.7106  0.5604 -0.7398
 8556SOL    HW237131   1.563   0.700   3.999  0.7425 -0.1897  0.3758
 8557SOL     OW37132   3.433   1.479   3.118  0.3263  0.4324  0.8848
 8557SOL    HW137133   3.349   1.512   3.150 -0.4023 -1.4975  1.0004
 8557SOL    HW237134   3.446   1.416   3.189 -0.9166 -1.4911 -0.5987
 8558SOL     OW37135   1.451   0.126   0.627 -0.1403 -1.1677 -0.1066
 8558SOL    HW137136   1.410   0.041   0.643 -5.1120  1.2641 -0.1803
 8558SOL    HW237137   1.492   0.101   0.544  2.5558 -2.2383  1.5350
 8559SOL     OW37138   3.656   1.001   0.915 -0.2589 -0.4426 -0.4318
 8559SOL    HW137139   3.634   1.081   0.961  1.7820  0.4903 -1.0770
 8559SOL    HW237140   3.733   1.018   0.861 -0.0311 -0.0397  0.0272
 8560SOL     OW37141   1.056   0.590   3.517 -0.0716 -0.3276  0.3065
 8560SOL    HW137142   1.060   0.526   3.588 -0.0683 -1.8468 -1.0781
 8560SOL    HW237143   1.009   0.532   3.457 -0.4620 -1.1509  1.4059
 8561SOL     OW37144   3.850   1.362   3.073 -0.1927 -0.0090  0.2562
 8561SOL    HW137145   3.862   1.358   3.168  0.2033  2.7312  0.3297
 8561SOL    HW237146   3.881   1.279   3.037 -0.0246 -1.2995  3.4368
 8562SOL     OW37147   2.933   3.955   4.888  0.4004  0.2647 -0.2461
 8562SOL    HW137148   2.930   3.977   4.981  2.9023  2.8828 -0.7647
 8562SOL    HW237149   2.980   4.026   4.844  1.7813  0.3257  1.3519
 8563SOL     OW37150   3.854   3.150   1.612  0.2204  1.0704  0.0153
 8563SOL    HW137151   3.796   3.223   1.633 -0.1634  1.1279 -1.2109
 8563SOL    HW237152   3.816   3.078   1.664  0.1804  0.9327 -0.2033
 8564SOL     OW37153   2.493   4.232   4.429  0.1734 -0.1316 -0.6989
 8564SOL    HW137154   2.589   4.225   4.426  0.3048  1.4817 -0.3906
 8564SOL    HW237155   2.480   4.232   4.524  0.0911  2.6447 -0.7022
 8565SOL     OW37156   3.999   2.857   8.327 -0.0903  0.4869  0.2553
 8565SOL    HW137157   3.935   2.913   8.284 -0.5583 -0.6204 -0.4999
 8565SOL    HW237158   4.002   2.898   8.414  0.8664 -0.0499  0.4775
 8566SOL     OW37159   1.443   3.316   3.611  0.2641 -0.2378 -0.4160
 8566SOL    HW137160   1.487   3.333   3.527 -0.5000 -0.5092 -0.8671
 8566SOL    HW237161   1.500   3.367   3.669 -0.7983  0.6849 -0.1835
 8567SOL     OW37162   3.172   4.026   1.680 -0.3442 -0.6328 -0.3595
 8567SOL    HW137163   3.212   4.112   1.687  2.8650 -2.1649 -0.1584
 8567SOL    HW237164   3.130   4.034   1.594  2.4919  0.8476 -1.5973
 8568SOL     OW37165   0.721   1.541   5.833  0.3609 -0.0718  0.3772
 8568SOL    HW137166   0.740   1.634   5.843  0.4038 -0.2019  1.5275
 8568SOL    HW237167   0.645   1.535   5.892 -0.7333 -0.2011 -1.0301
 8569SOL     OW37168   3.631   3.453   4.032  0.2907  0.4572 -0.0839
 8569SOL    HW137169   3.625   3.538   4.075 -2.2516  0.3868 -0.2951
 8569SOL    HW237170   3.686   3.466   3.955  0.7733 -0.1521  0.1583
 8570SOL     OW37171   3.005   2.895   9.989  0.6163  0.2238  0.0532
 8570SOL    HW137172   2.923   2.867  10.030 -0.2837  0.5697 -1.5382
 8570SOL    HW237173   3.047   2.810   9.975 -2.2182 -1.0563 -0.8031
 8571SOL     OW37174   0.607   1.833  10.702 -0.0075  0.2590  0.0812
 8571SOL    HW137175   0.612   1.913  10.649  0.1109  0.1602 -0.0567
 8571SOL    HW237176   0.663   1.858  10.775  0.3904  0.3288 -0.2480
 8572SOL     OW37177   2.147   0.488   4.481  0.5654 -0.0269  0.5353
 8572SOL    HW137178   2.227   0.476   4.430 -0.7414 -1.2378 -1.2416
 8572SOL    HW237179   2.114   0.573   4.453 -0.5582 -1.4933 -2.6527
 8573SOL     OW37180   4.506   1.970   0.567  0.3612  0.1660  0.1298
 8573SOL    HW137181   4.578   1.998   0.510 -0.8671  2.9018 -0.0763
 8573SOL    HW237182   4.518   1.875   0.579  3.3676  0.6000  0.3790
 8574SOL     OW37183   1.489   0.469  13.260  0.4497 -0.6878 -0.3131
 8574SOL    HW137184   1.417   0.528  13.237 -1.0468 -2.4200 -0.0757
 8574SOL    HW237185   1.555   0.538  13.254 -0.3738  0.2937  1.9910
 8575SOL     OW37186   0.456   1.683   1.361 -0.1104 -0.5090 -0.6860
 8575SOL    HW137187   0.374   1.716   1.324 -0.9111  0.5013  1.9646
 8575SOL    HW237188   0.481   1.749   1.426 -1.0333 -0.4553 -0.3776
 8576SOL     OW37189   1.332   0.471   8.651 -0.4685 -0.1149 -0.3527
 8576SOL    HW137190   1.278   0.490   8.728 -1.1207  0.5616 -0.9822
 8576SOL    HW237191   1.263   0.421   8.607 -0.6216 -0.4268  0.2384
 8577SOL     OW37192   4.091   3.868   4.649 -0.4544  0.2700 -0.1619
 8577SOL    HW137193   4.118   3.813   4.576  3.2511  1.7715  0.0424
 8577SOL    HW237194   4.100   3.953   4.607 -0.0415  1.5410  2.4928
 8578SOL     OW37195   4.347   3.857   5.284 -0.2314  0.2710  0.3775
 8578SOL    HW137196   4.297   3.811   5.352 -1.1954 -0.1658 -0.6342
 8578SOL    HW237197   4.285   3.921   5.248  1.2058  0.6319 -1.4152
 8579SOL     OW37198   3.720   3.516   8.659  0.0054  0.3765 -0.8063
 8579SOL    HW137199   3.766   3.433   8.667 -1.4202 -0.4135 -0.7929
 8579SOL    HW237200   3.788   3.580   8.679  1.8727 -1.5751 -0.8956
 8580SOL     OW37201   0.313   4.407   5.037 -0.0070 -0.2614 -0.1214
 8580SOL    HW137202   0.308   4.457   4.956  1.7227 -1.2226 -0.8304
 8580SOL    HW237203   0.392   4.450   5.070 -0.9436 -0.6561  2.6048
 8581SOL     OW37204   2.705   2.866   5.228  0.4873 -0.2605 -0.0659
 8581SOL    HW137205   2.623   2.819   5.215  0.1086  0.2975  0.3090
 8581SOL    HW237206   2.709   2.930   5.158 -1.0073 -1.0114 -0.8172
 8582SOL     OW37207   3.337   1.698   4.536 -0.1915  0.0894  0.3342
 8582SOL    HW137208   3.325   1.606   4.514  1.6335 -0.0739  0.0338
 8582SOL    HW237209   3.308   1.738   4.454 -2.0167 -0.4419  0.7126
 8583SOL     OW37210   4.189   2.867   5.907  0.1213 -0.2014  0.0689
 8583SOL    HW137211   4.124   2.906   5.965  0.3213  0.7396 -0.3504
 8583SOL    HW237212   4.148   2.882   5.822 -2.1225 -0.6165  1.0865
 8584SOL     OW37213   1.411   0.297  14.878 -0.0776 -0.4453 -0.3605
 8584SOL    HW137214   1.389   0.364  14.943 -1.3243 -2.3718  1.1569
 8584SOL    HW237215   1.330   0.273  14.834 -0.1864 -1.9873  0.6962
 8585SOL     OW37216   0.875   3.951   1.190  0.4411  0.2830  0.0647
 8585SOL    HW137217   0.866   4.028   1.134 -0.1482 -0.0844 -0.3496
 8585SOL    HW237218   0.909   3.884   1.129 -1.4632 -0.2949 -0.3517
 8586SOL     OW37219   1.481   4.512  10.608  0.6970 -0.4687 -0.0845
 8586SOL    HW137220   1.517   4.429  10.577 -1.3627 -1.6253  0.6055
 8586SOL    HW237221   1.387   4.493  10.608  0.3385  1.2685 -2.4125
 8587SOL     OW37222   1.636   2.972   5.396 -0.0618 -0.2647  0.2415
 8587SOL    HW137223   1.609   2.887   5.361  0.6247 -0.3024 -0.1910
 8587SOL    HW237224   1.625   2.955   5.490  2.3253 -3.6210 -0.0687
 8588SOL     OW37225   1.754   0.533  11.446 -0.3040  0.1124  0.0033
 8588SOL    HW137226   1.799   0.494  11.521  0.1714 -1.1083 -0.9169
 8588SOL    HW237227   1.695   0.592  11.492  0.4110 -0.1490  1.2364
 8589SOL     OW37228   2.634   0.433   8.111  0.4987  0.3383 -0.2032
 8589SOL    HW137229   2.604   0.455   8.199 -0.3637 -1.3968 -0.0571
 8589SOL    HW237230   2.618   0.518   8.070 -0.7893  0.3874  0.3947
 8590SOL     OW37231   2.687   0.860   7.166 -0.5846  0.4070 -0.0889
 8590SOL    HW137232   2.720   0.886   7.252 -3.6776 -0.0978  1.2362
 8590SOL    HW237233   2.757   0.799   7.145 -0.2024  0.0161  2.3436
 8591SOL     OW37234   2.583   2.940   1.703 -0.2635 -0.2519  0.1252
 8591SOL    HW137235   2.618   2.961   1.789 -0.4049 -1.1350  0.3915
 8591SOL    HW237236   2.609   2.849   1.712 -0.8018 -0.7018 -2.6684
 8592SOL     OW37237   3.250   1.031   1.057 -0.1357  0.2907  0.2719
 8592SOL    HW137238   3.268   0.941   1.029 -0.2514 -0.3516  2.2338
 8592SOL    HW237239   3.232   1.071   0.972 -1.6181  0.6518  0.7472
 8593SOL     OW37240   3.299   0.546   7.080 -0.0129  0.5965  0.1873
 8593SOL    HW137241   3.356   0.622   7.065  2.6641 -1.7110 -1.4844
 8593SOL    HW237242   3.338   0.477   7.027 -0.5649  0.7137 -0.3637
 8594SOL     OW37243   0.119   0.733   8.569 -0.8600  0.0143 -0.4334
 8594SOL    HW137244   0.108   0.639   8.583  3.5824 -0.6138 -1.2015
 8594SOL    HW237245   0.213   0.746   8.556 -0.7449 -0.6835 -0.3031
 8595SOL     OW37246   0.401   4.104   6.704 -0.3790 -0.2870  0.1027
 8595SOL    HW137247   0.349   4.144   6.634  0.1886  0.8397  0.3288
 8595SOL    HW237248   0.342   4.091   6.778  1.9147  0.4130  2.0459
 8596SOL     OW37249   0.633   1.501   8.794 -0.2565 -0.3831 -0.2445
 8596SOL    HW137250   0.701   1.535   8.736 -2.5534  0.8473 -2.1923
 8596SOL    HW237251   0.679   1.503   8.878 -0.1441  0.2868 -0.3218
 8597SOL     OW37252   2.150   1.569   1.758 -0.2109  0.2663  0.2787
 8597SOL    HW137253   2.072   1.515   1.744  1.4169 -1.6477 -1.2124
 8597SOL    HW237254   2.117   1.636   1.818 -0.2150  1.4443 -1.0204
 8598SOL     OW37255   3.097   3.470   2.969 -0.0090  0.4124 -0.2371
 8598SOL    HW137256   3.127   3.560   2.982  0.9944  0.0474 -0.0642
 8598SOL    HW237257   3.024   3.489   2.910  1.1096  0.1941 -1.6840
 8599SOL     OW37258   1.008   4.490  10.218  0.5063  0.6083  0.1449
 8599SOL    HW137259   0.987   4.412  10.166 -1.8504  1.5923 -0.3176
 8599SOL    HW237260   1.027   4.544  10.142  1.1708 -0.8087 -0.7074
 8600SOL     OW37261   2.106   2.139   0.929 -0.5128 -0.3743 -0.2501
 8600SOL    HW137262   2.168   2.078   0.968 -1.0737 -0.2547  0.8443
 8600SOL    HW237263   2.113   2.123   0.835 -2.0964 -1.6662 -0.1369
 8601SOL     OW37264   1.286   2.528   9.130 -0.4689  0.4244  0.0936
 8601SOL    HW137265   1.374   2.567   9.126 -0.7660  1.1907  0.8497
 8601SOL    HW237266   1.293   2.462   9.198  0.1369 -0.3965 -0.7594
 8602SOL     OW37267   1.706   1.153  12.304 -0.0268  0.3850  0.2445
 8602SOL    HW137268   1.621   1.161  12.261  0.0666 -0.4309 -0.0767
 8602SOL    HW237269   1.756   1.113  12.233  0.3684  0.8835  0.2382
 8603SOL     OW37270   0.052   3.910   9.303  0.5315  0.2663  0.5866
 8603SOL    HW137271   0.023   3.990   9.346 -0.1917 -0.4971  1.5304
 8603SOL    HW237272   0.026   3.833   9.353 -0.5025  2.3159  3.1988
 8604SOL     OW37273   3.260   0.977  16.555 -0.0239  0.1683  0.1408
 8604SOL    HW137274   3.250   1.028  16.636 -2.6242  0.8681 -0.6365
 8604SOL    HW237275   3.283   1.035  16.482 -0.4587 -1.8957 -1.6183
 8605SOL     OW37276   4.134   0.399   4.966 -0.1091  0.3530 -0.1642
 8605SOL    HW137277   4.093   0.475   5.008  3.0279  2.6749 -1.3061
 8605SOL    HW237278   4.138   0.435   4.877 -1.6853  1.2911  0.1406
 8606SOL     OW37279   1.573   4.131   8.509  0.6139 -0.9113  0.2017
 8606SOL    HW137280   1.543   4.205   8.562  0.8570  0.0019 -0.9380
 8606SOL    HW237281   1.531   4.152   8.425  1.0238 -0.3587  0.1341
 8607SOL     OW37282   0.533   3.582   8.871  0.5241  0.1066 -0.5460
 8607SOL    HW137283   0.463   3.531   8.911 -1.3405  1.7814 -1.7019
 8607SOL    HW237284   0.608   3.527   8.894  0.9980  0.5074 -1.1361
 8608SOL     OW37285   0.856   2.677   6.890 -0.1892  0.3175  0.0280
 8608SOL    HW137286   0.791   2.722   6.836  1.4419  1.4932 -0.9561
 8608SOL    HW237287   0.821   2.589   6.904  1.9566 -0.4511  0.4454
 8609SOL     OW37288   0.465   1.684   3.536 -0.0100 -0.0975  0.0917
 8609SOL    HW137289   0.551   1.669   3.497 -0.8950 -2.4802 -0.9562
 8609SOL    HW237290   0.416   1.644   3.464 -0.5909 -1.2585  1.1262
 8610SOL     OW37291   1.050   2.090   9.408  0.4625  0.0761 -0.1040
 8610SOL    HW137292   1.143   2.114   9.406  0.5064 -0.2865 -2.2662
 8610SOL    HW237293   1.043   2.041   9.489 -1.5115  2.3256  1.0868
 8611SOL     OW37294   4.215   2.462   4.096 -0.3457  0.0989  0.0543
 8611SOL    HW137295   4.273   2.387   4.084  0.0887  0.2932  0.9602
 8611SOL    HW237296   4.249   2.512   4.170  1.8393 -0.8699 -0.3169
 8612SOL     OW37297   1.364   0.078   6.345 -0.0056  0.1609 -0.0454
 8612SOL    HW137298   1.367   0.010   6.412 -1.9545 -2.6777 -2.8387
 8612SOL    HW237299   1.332   0.152   6.397 -1.9478  0.2609 -1.3910
 8613SOL     OW37300   2.665   2.700   1.375 -0.5228  0.2549 -0.7014
 8613SOL    HW137301   2.685   2.687   1.468 -0.7310  1.0192 -0.5477
 8613SOL    HW237302   2.709   2.623   1.340  2.0912  1.4730 -0.1078
 8614SOL     OW37303   0.109   2.345   2.650 -0.1006 -0.7272 -0.4570
 8614SOL    HW137304   0.114   2.326   2.744  0.5798  0.0634 -0.3371
 8614SOL    HW237305   0.021   2.311   2.635 -1.1289  1.3885  0.8058
 8615SOL     OW37306   3.370   1.374   1.627 -0.2306 -0.3903  0.4205
 8615SOL    HW137307   3.461   1.361   1.653 -1.0437 -2.3534  2.2491
 8615SOL    HW237308   3.325   1.303   1.672  0.7693 -1.6613 -0.5921
 8616SOL     OW37309   2.648   1.254  10.828 -0.2926  0.1478 -0.1321
 8616SOL    HW137310   2.631   1.345  10.855 -0.3634  0.4270 -1.0997
 8616SOL    HW237311   2.655   1.211  10.913 -1.7025 -0.2608 -0.2110
 8617SOL     OW37312   2.806   3.388  17.395 -0.5093 -0.6333  0.0323
 8617SOL    HW137313   2.871   3.321  17.418  1.3248  0.9221 -0.5384
 8617SOL    HW237314   2.757   3.415  17.473 -0.2972  0.7782 -0.3157
 8618SOL     OW37315   0.791   4.151   5.361 -0.4356  0.2677 -0.1909
 8618SOL    HW137316   0.806   4.246   5.364 -0.5473  0.2195  1.8892
 8618SOL    HW237317   0.873   4.122   5.320 -1.5842 -1.4412 -1.2539
 8619SOL     OW37318   3.259   2.571   8.733 -0.0338  0.3944 -0.3933
 8619SOL    HW137319   3.351   2.582   8.711  0.1717 -2.5090 -1.0690
 8619SOL    HW237320   3.258   2.480   8.765  1.9406  0.6474  0.3789
 8620SOL     OW37321   2.836   3.076   2.744 -0.1255  0.3566  0.0014
 8620SOL    HW137322   2.889   3.041   2.672  0.3489  0.7531  0.1538
 8620SOL    HW237323   2.885   3.157   2.760  1.5907 -0.3731 -1.5740
 8621SOL     OW37324   2.134   1.378   5.455 -0.1523  0.9842  0.1828
 8621SOL    HW137325   2.080   1.346   5.527  3.8141  0.5378  3.0150
 8621SOL    HW237326   2.212   1.414   5.498  0.2601 -1.6779  1.6802
 8622SOL     OW37327   0.025   0.713   0.933 -0.4315 -0.7091 -0.0776
 8622SOL    HW137328   0.046   0.795   0.887  0.7837 -0.9432  0.0579
 8622SOL    HW237329   0.094   0.714   0.999 -0.7239  1.4170  0.2142
 8623SOL     OW37330   4.376   1.493  12.848  0.4938 -0.3565 -0.2105
 8623SOL    HW137331   4.450   1.460  12.899 -0.2833 -3.7920 -1.2967
 8623SOL    HW237332   4.430   1.511  12.772 -0.2575  0.8164 -0.4642
 8624SOL     OW37333   4.361   0.129   7.671  0.1694 -0.2015  0.4927
 8624SOL    HW137334   4.425   0.066   7.705 -0.0015 -0.3287  0.5765
 8624SOL    HW237335   4.306   0.070   7.619  0.3485 -1.7153  2.0128
 8625SOL     OW37336   1.412   3.537   6.698  0.3651 -0.7117 -0.2225
 8625SOL    HW137337   1.337   3.594   6.682  0.6203 -0.2577  0.2037
 8625SOL    HW237338   1.393   3.464   6.639 -0.3399 -0.1053 -0.7416
 8626SOL     OW37339   3.274   4.518   5.835  0.4437  0.2210  0.1808
 8626SOL    HW137340   3.326   4.559   5.766 -1.7974  1.3979 -0.7825
 8626SOL    HW237341   3.348   4.476   5.881  1.5582 -0.2270 -2.0380
 8627SOL     OW37342   1.902   4.292   3.349 -0.0651 -0.0719  0.4362
 8627SOL    HW137343   1.949   4.247   3.420 -0.1902 -0.2381  0.4140
 8627SOL    HW237344   1.936   4.236   3.280 -1.8106 -1.2010  0.4929
 8628SOL     OW37345   4.087   1.025   4.490 -0.4639  0.0794 -0.3588
 8628SOL    HW137346   4.095   0.931   4.471  1.2528  0.0021  0.7726
 8628SOL    HW237347   4.007   1.031   4.543  0.0946  2.7391  0.1628
 8629SOL     OW37348   3.666   0.448   4.178  0.0759 -0.4862  0.6158
 8629SOL    HW137349   3.647   0.356   4.159 -1.3877 -0.1666  0.5141
 8629SOL    HW237350   3.591   0.460   4.235 -0.5824 -0.4830 -0.2539
 8630SOL     OW37351   4.055   2.695  11.284 -0.1364 -0.1721 -0.1121
 8630SOL    HW137352   4.139   2.728  11.316 -1.0455  2.3282 -0.2730
 8630SOL    HW237353   4.028   2.616  11.332  0.1267 -0.7157 -0.8615
 8631SOL     OW37354   0.629   3.421   6.938  0.1594  0.4660  0.6237
 8631SOL    HW137355   0.686   3.351   6.968  0.8317  0.9189  0.3979
 8631SOL    HW237356   0.602   3.445   7.027 -0.4679 -1.8748  1.0627
 8632SOL     OW37357   2.085   2.716   3.089  0.1382  0.1915 -0.0706
 8632SOL    HW137358   2.103   2.646   3.152 -1.7426 -0.9942 -0.8723
 8632SOL    HW237359   2.144   2.787   3.114  0.2716 -0.3523  1.1654
 8633SOL     OW37360   1.142   4.707   8.796 -0.4871  0.1659 -0.0335
 8633SOL    HW137361   1.218   0.041   8.798 -0.1480 -0.1609 -2.6092
 8633SOL    HW237362   1.088   0.027   8.862 -0.7638  0.0329 -0.1691
 8634SOL     OW37363   1.467   3.533   6.001  0.1292  0.0479 -0.1810
 8634SOL    HW137364   1.529   3.595   6.039  1.5819 -2.2960  1.3051
 8634SOL    HW237365   1.428   3.588   5.934  0.1573 -1.0386 -1.0780
 8635SOL     OW37366   3.852   4.372   4.650  0.1357  0.4508 -0.0703
 8635SOL    HW137367   3.901   4.423   4.584  0.0796  1.0015  0.3136
 8635SOL    HW237368   3.812   4.307   4.592  0.3094  1.3779 -1.2354
 8636SOL     OW37369   2.641   2.097   3.990  0.6543  0.0932  0.2261
 8636SOL    HW137370   2.547   2.077   3.984  0.9511 -0.2750 -3.6704
 8636SOL    HW237371   2.670   2.008   4.006  1.8074  0.3113 -0.6231
 8637SOL     OW37372   3.571   3.540   3.304  0.0664 -0.0357  0.0661
 8637SOL    HW137373   3.563   3.469   3.367  0.0496  0.4662  0.6306
 8637SOL    HW237374   3.479   3.559   3.284  1.2599  1.8131 -3.7106
 8638SOL     OW37375   2.281   2.873   1.527 -0.7558 -0.6002 -0.4877
 8638SOL    HW137376   2.334   2.930   1.470  0.1998 -1.1393 -0.1338
 8638SOL    HW237377   2.192   2.908   1.528 -0.1216  1.0531 -0.8429
 8639SOL     OW37378   0.692   2.014  15.241 -0.4415 -0.1302  0.4133
 8639SOL    HW137379   0.630   2.080  15.211  1.3091  0.1584 -2.6789
 8639SOL    HW237380   0.771   2.041  15.193  0.4069  0.1231  1.9548
 8640SOL     OW37381   2.965   2.739   9.080 -0.4397  0.1215 -0.0870
 8640SOL    HW137382   3.005   2.657   9.109  0.8413  0.8244  0.1259
 8640SOL    HW237383   2.938   2.774   9.165 -0.1541 -1.1812  0.5466
 8641SOL     OW37384   2.913   3.838   5.341 -0.0783 -0.3483  0.4058
 8641SOL    HW137385   2.904   3.762   5.283  1.2012 -1.1542  1.2513
 8641SOL    HW237386   2.969   3.788   5.400  0.3360  2.3018  2.2336
 8642SOL     OW37387   4.656   0.190  16.605 -0.1049  0.3605 -0.2943
 8642SOL    HW137388   4.624   0.112  16.650 -0.8831 -0.1507 -1.7598
 8642SOL    HW237389   4.697   0.235  16.679  0.8855 -0.5511 -0.2875
 8643SOL     OW37390   1.965   1.426   8.474  0.1884  0.0593  0.2115
 8643SOL    HW137391   1.907   1.356   8.444  0.7397  0.7258 -2.3791
 8643SOL    HW237392   2.040   1.409   8.417 -1.7164 -1.7594 -1.7557
 8644SOL     OW37393   2.038   2.188   2.877 -0.0081 -1.0334  0.3128
 8644SOL    HW137394   2.022   2.114   2.936 -2.1405 -0.4982  0.3921
 8644SOL    HW237395   2.042   2.134   2.798  0.0457  1.9512 -1.7283
 8645SOL     OW37396   3.060   2.378   9.645 -0.0514 -0.4203  0.1232
 8645SOL    HW137397   3.139   2.361   9.698 -1.4348 -1.3225  1.8998
 8645SOL    HW237398   3.082   2.466   9.615 -0.1299 -0.2318  0.6095
 8646SOL     OW37399   2.353   4.544   7.051  0.0517  0.8499  0.1873
 8646SOL    HW137400   2.373   4.456   7.082  4.0434  1.7525  0.1932
 8646SOL    HW237401   2.437   4.576   7.019  0.2438 -1.3094 -1.4187
 8647SOL     OW37402   1.317   3.899  17.652 -0.0609  0.0123 -0.2842
 8647SOL    HW137403   1.273   3.831   0.006  0.0858  1.9281  2.3954
 8647SOL    HW237404   1.237   3.949  17.636  0.9226  1.1037 -1.8749
 8648SOL     OW37405   1.080   4.191   3.097 -0.0438 -0.3004 -0.1923
 8648SOL    HW137406   0.998   4.232   3.071  0.1261 -0.1288 -0.4689
 8648SOL    HW237407   1.139   4.260   3.064  2.4892 -2.7942 -0.9120
 8649SOL     OW37408   1.977   1.814   4.602 -0.0259 -0.2914 -0.3280
 8649SOL    HW137409   2.058   1.858   4.575 -0.2022  0.8993  1.0731
 8649SOL    HW237410   1.935   1.873   4.664  0.3710 -0.7192  0.3565
 8650SOL     OW37411   4.322   4.449  14.034  0.0343 -0.5000 -0.0857
 8650SOL    HW137412   4.312   4.373  14.091  0.4926 -1.9035 -1.8503
 8650SOL    HW237413   4.395   4.490  14.080  0.7310 -2.1104  0.2595
 8651SOL     OW37414   3.802   0.779   5.989  0.1253  0.0308  0.1485
 8651SOL    HW137415   3.830   0.811   6.075  2.2630 -1.1443 -0.0868
 8651SOL    HW237416   3.792   0.864   5.947  0.7397 -0.0990 -0.2680
 8652SOL     OW37417   3.425   1.752  12.475  0.5156 -0.4873  0.2732
 8652SOL    HW137418   3.487   1.824  12.464  0.0853 -0.0494  0.6948
 8652SOL    HW237419   3.481   1.685  12.514  0.6552 -1.1903 -1.1246
 8653SOL     OW37420   3.512   4.027  17.314  1.1305 -0.0237 -0.1637
 8653SOL    HW137421   3.593   4.010  17.265  0.3198 -1.2430 -1.1055
 8653SOL    HW237422   3.533   4.045  17.406  2.6962 -1.2642 -0.2705
 8654SOL     OW37423   0.493   3.846   3.925 -0.0865 -0.7524  0.2329
 8654SOL    HW137424   0.458   3.907   3.990 -2.3445 -3.8862  1.9839
 8654SOL    HW237425   0.413   3.793   3.924 -0.2791 -0.4106 -2.1103
 8655SOL     OW37426   0.329   2.830  13.299  0.1808  0.2727 -0.3124
 8655SOL    HW137427   0.276   2.810  13.376 -1.1401 -1.4534 -1.6741
 8655SOL    HW237428   0.257   2.818  13.237 -1.5106  0.9322  1.5172
 8656SOL     OW37429   4.437   0.041   8.659  0.1407  0.3885  0.2021
 8656SOL    HW137430   4.400   4.677   8.648  2.1766 -0.1181 -2.6258
 8656SOL    HW237431   4.500   0.027   8.730  0.0694  0.1773  0.2240
 8657SOL     OW37432   0.348   4.394   1.934 -0.0047  0.4222 -0.1905
 8657SOL    HW137433   0.325   4.422   2.022 -1.3317 -0.5910 -0.2171
 8657SOL    HW237434   0.418   4.458   1.920 -0.4580  0.8325 -0.5456
 8658SOL     OW37435   4.470   3.362   0.671 -0.5802 -0.1329  0.2452
 8658SOL    HW137436   4.519   3.310   0.735  1.6582 -1.4003 -2.5270
 8658SOL    HW237437   4.385   3.378   0.712 -1.3736  1.4977 -2.0510
 8659SOL     OW37438   2.735   0.208   5.013 -0.3483 -0.0490 -0.1607
 8659SOL    HW137439   2.665   0.210   4.948 -0.0673  1.5383 -0.3989
 8659SOL    HW237440   2.698   0.233   5.098  0.1869 -3.3808  1.0770
 8660SOL     OW37441   3.187   1.207   4.241  0.5121  0.6943 -0.0284
 8660SOL    HW137442   3.123   1.244   4.180  0.5710  1.7147  0.5319
 8660SOL    HW237443   3.252   1.172   4.180  0.1061 -0.9192  0.4612
 8661SOL     OW37444   1.004   3.487  15.457 -0.0580  0.0905  0.0146
 8661SOL    HW137445   0.953   3.420  15.411 -1.3536 -0.6635  2.5204
 8661SOL    HW237446   1.003   3.556  15.390 -1.4786 -0.0346 -0.1110
 8662SOL     OW37447   1.074   0.358  10.220 -0.4870 -0.0120  0.0497
 8662SOL    HW137448   1.145   0.422  10.213 -0.1831 -0.4383 -0.8439
 8662SOL    HW237449   1.103   0.288  10.161 -1.9456 -0.8399  0.3131
 8663SOL     OW37450   2.521   0.214   4.802  0.3287  0.7641 -0.1188
 8663SOL    HW137451   2.430   0.243   4.796  0.1078 -0.4908 -2.5911
 8663SOL    HW237452   2.508   0.125   4.836  0.7215  0.9971  0.6563
 8664SOL     OW37453   1.145   3.603   4.817 -0.3991 -0.1854 -0.3244
 8664SOL    HW137454   1.146   3.692   4.853 -1.0084  0.1041 -1.0176
 8664SOL    HW237455   1.238   3.580   4.825 -0.0830  1.4038  0.6415
 8665SOL     OW37456   2.063   3.107   8.267 -0.4121 -0.2983 -0.3201
 8665SOL    HW137457   2.136   3.078   8.211 -0.7493  0.1513 -0.9846
 8665SOL    HW237458   1.992   3.104   8.203  0.0081 -0.6415 -0.7715
 8666SOL     OW37459   3.212   2.741  10.327  0.4235 -0.0716 -0.2640
 8666SOL    HW137460   3.118   2.722  10.324  0.4048 -0.1260  0.8488
 8666SOL    HW237461   3.209   2.830  10.364 -0.1060 -0.4939  0.6952
 8667SOL     OW37462   1.048   0.301   3.563  0.3102 -0.4346 -0.5541
 8667SOL    HW137463   1.040   0.254   3.646  4.1857  0.1215  0.1357
 8667SOL    HW237464   0.965   0.279   3.520  0.1613 -0.0267 -0.4837
 8668SOL     OW37465   1.927   1.817   7.688 -0.1481 -0.0615 -0.5154
 8668SOL    HW137466   1.937   1.809   7.783 -0.3629 -0.4427 -0.5229
 8668SOL    HW237467   1.880   1.735   7.669 -0.2147 -0.6073  2.0518
 8669SOL     OW37468   3.317   3.992  17.133 -0.2401  0.7974 -0.7901
 8669SOL    HW137469   3.334   4.070  17.080  1.4426  1.8250  1.2828
 8669SOL    HW237470   3.385   3.992  17.200 -0.0459 -2.6012 -1.0210
 8670SOL     OW37471   1.583   3.050   4.399  0.0885 -0.3218 -0.4781
 8670SOL    HW137472   1.565   3.140   4.426  1.8467  0.5381 -2.1119
 8670SOL    HW237473   1.606   3.069   4.308  0.5153  0.8519 -0.1197
 8671SOL     OW37474   2.098   3.698  12.962  0.1551 -0.2818  0.4459
 8671SOL    HW137475   2.132   3.763  12.901  2.7049 -1.2934  0.7719
 8671SOL    HW237476   2.086   3.736  13.049  0.6082 -0.0689  0.4179
 8672SOL     OW37477   2.722   0.860   3.173  0.1430  0.1987  0.3076
 8672SOL    HW137478   2.720   0.927   3.240 -0.3597  0.8586 -0.3676
 8672SOL    HW237479   2.815   0.842   3.162 -0.1290 -0.5565 -0.8134
 8673SOL     OW37480   2.811   1.083  17.620 -0.1493  0.1023 -0.2302
 8673SOL    HW137481   2.742   1.075  17.555  0.0038  1.3358 -0.5502
 8673SOL    HW237482   2.836   1.174  17.603  2.2654 -0.2489  1.4616
 8674SOL     OW37483   2.085   4.488  11.384 -0.1062  0.1654  0.2864
 8674SOL    HW137484   2.156   4.444  11.338  0.9642  1.2753  0.8836
 8674SOL    HW237485   2.099   4.575  11.348 -0.0873  1.8990  4.4137
 8675SOL     OW37486   0.329   1.797  16.913  0.1356  0.5700  0.4114
 8675SOL    HW137487   0.349   1.856  16.840  0.9633 -0.7384 -0.4182
 8675SOL    HW237488   0.399   1.735  16.895 -0.3111  0.2072 -0.0997
 8676SOL     OW37489   2.027   4.139  10.952 -0.0446  0.2539 -0.0697
 8676SOL    HW137490   2.070   4.054  10.950  0.1079  0.3774 -2.2323
 8676SOL    HW237491   2.097   4.200  10.928 -1.2280  1.0522 -1.4659
 8677SOL     OW37492   4.279   1.823   4.594  0.0774 -0.4503 -0.0030
 8677SOL    HW137493   4.341   1.795   4.662 -0.4226 -0.1648  0.5627
 8677SOL    HW237494   4.288   1.918   4.584 -1.2564 -0.1941  1.2062
 8678SOL     OW37495   1.567   1.476   5.967  0.3896 -0.3787 -0.3186
 8678SOL    HW137496   1.499   1.414   5.942 -0.6483  0.5974  0.0797
 8678SOL    HW237497   1.646   1.424   5.977 -1.2064 -2.1519  2.8071
 8679SOL     OW37498   3.556   2.719   6.897 -0.0392  0.1688 -0.0384
 8679SOL    HW137499   3.619   2.657   6.932  2.8496  2.9850 -0.2183
 8679SOL    HW237500   3.623   2.778   6.862 -0.6533 -1.0903 -3.3355
 8680SOL     OW37501   4.216   3.655   1.539  0.0595 -0.3527  0.1521
 8680SOL    HW137502   4.295   3.709   1.548 -0.1516  0.4939 -3.0630
 8680SOL    HW237503   4.207   3.618   1.627  0.5649  0.5789  0.5962
 8681SOL     OW37504   3.014   4.362   7.070 -0.8035 -0.0948 -0.3050
 8681SOL    HW137505   3.054   4.294   7.015 -1.5764  0.3127 -1.3835
 8681SOL    HW237506   3.087   4.421   7.089 -0.4191 -0.8011  0.3973
 8682SOL     OW37507   3.761   2.129   4.681 -0.2215 -0.1111 -0.1509
 8682SOL    HW137508   3.807   2.050   4.711  0.7431  1.0443  1.3913
 8682SOL    HW237509   3.792   2.123   4.591  0.7293 -0.5716  0.2058
 8683SOL     OW37510   4.548   2.856   4.283 -0.2629 -0.5558 -0.0018
 8683SOL    HW137511   4.546   2.880   4.190 -1.1688 -0.1799  0.1163
 8683SOL    HW237512   4.454   2.862   4.302  0.0020  0.9208  0.8453
 8684SOL     OW37513   3.294   1.967  17.069  0.3530 -0.6657 -0.2692
 8684SOL    HW137514   3.289   1.877  17.101 -1.4081 -1.0569 -1.6245
 8684SOL    HW237515   3.322   2.011  17.148 -2.8104 -0.7207  0.8759
 8685SOL     OW37516   4.714   2.330  17.617 -0.1553 -0.7569 -0.3408
 8685SOL    HW137517   4.667   2.406  17.583  0.2295  0.3940  1.7203
 8685SOL    HW237518   0.082   2.351  17.596 -0.8404  0.2576 -2.4188
 8686SOL     OW37519   2.009   1.063   7.543 -0.5027  0.3220  0.1035
 8686SOL    HW137520   2.078   1.112   7.499 -0.8870 -0.8360 -1.7861
 8686SOL    HW237521   1.942   1.054   7.475  0.1383  1.8760 -0.7142
 8687SOL     OW37522   0.616   2.899   9.154  0.2269 -0.0233 -0.0799
 8687SOL    HW137523   0.662   2.912   9.071  2.0238 -1.8523  0.6359
 8687SOL    HW237524   0.554   2.833   9.127 -0.2771  0.4595 -0.1058
 8688SOL     OW37525   1.508   4.156   7.987 -0.4132  0.3349  0.0180
 8688SOL    HW137526   1.453   4.080   7.968  1.9530 -1.0922 -1.1241
 8688SOL    HW237527   1.470   4.227   7.935 -0.7357  1.9669  2.4859
 8689SOL     OW37528   1.849   0.728   8.071 -0.0170 -0.5632  0.4804
 8689SOL    HW137529   1.821   0.638   8.051  2.9820 -1.9230  2.3132
 8689SOL    HW237530   1.929   0.715   8.123 -1.0646  0.6993  2.3958
 8690SOL     OW37531   0.695   0.710   3.996  0.6006 -0.2600  0.0568
 8690SOL    HW137532   0.769   0.702   3.936 -0.3850 -0.8771 -1.0695
 8690SOL    HW237533   0.737   0.702   4.082  0.8327  0.5432  0.0159
 8691SOL     OW37534   0.605   3.126   5.819 -0.4804 -0.4902 -0.0571
 8691SOL    HW137535   0.654   3.188   5.764 -0.4616 -1.1270 -0.7539
 8691SOL    HW237536   0.577   3.068   5.749 -0.6192 -0.8108  0.2612
 8692SOL     OW37537   1.313   4.557   1.933 -0.6070 -0.3093  0.1100
 8692SOL    HW137538   1.265   4.473   1.934  1.8261 -1.7346 -2.2560
 8692SOL    HW237539   1.327   4.561   1.838  2.1147 -0.4402  0.5246
 8693SOL     OW37540   0.359   3.959   5.706 -0.0351  0.2161  0.4719
 8693SOL    HW137541   0.430   4.005   5.751  2.4844 -2.9539 -0.2869
 8693SOL    HW237542   0.406   3.876   5.707  0.3416  0.4374  1.1273
 8694SOL     OW37543   2.935   3.876   6.724  0.3020 -0.2693  0.3602
 8694SOL    HW137544   2.878   3.832   6.661  1.3556 -0.2590 -0.6059
 8694SOL    HW237545   2.947   3.962   6.683 -3.0873  0.6465  1.2803
 8695SOL     OW37546   1.779   4.278   0.995 -0.3720  0.7274 -0.1459
 8695SOL    HW137547   1.872   4.258   1.004 -0.6720 -0.7107 -0.2215
 8695SOL    HW237548   1.772   4.308   0.904  3.3435 -0.3507 -0.7663
 8696SOL     OW37549   1.870   2.278   7.909 -0.5759  0.0540 -0.0970
 8696SOL    HW137550   1.806   2.272   7.837  1.9788  1.6858 -2.4872
 8696SOL    HW237551   1.935   2.212   7.886  0.0608  0.9582 -0.8695
 8697SOL     OW37552   0.015   0.302   1.318  0.2187  0.2040  0.5440
 8697SOL    HW137553   0.007   0.319   1.412 -0.2235  1.8455  0.2059
 8697SOL    HW237554   4.651   0.329   1.288  1.2358  0.9591 -1.7419
 8698SOL     OW37555   1.470   0.012   3.008  0.0087  0.3406  0.0144
 8698SOL    HW137556   1.403   4.690   3.060  0.1324 -1.1183 -1.1139
 8698SOL    HW237557   1.500   0.084   3.062 -0.5509  0.5243  0.0859
 8699SOL     OW37558   4.674   0.307   3.855  0.3125 -1.0163 -0.2432
 8699SOL    HW137559   0.044   0.307   3.874  0.0192  0.5036  1.1745
 8699SOL    HW237560   4.667   0.234   3.793  0.8230  0.5344 -2.1521
 8700SOL     OW37561   0.000   2.570   6.388 -0.5115  0.1312 -0.0469
 8700SOL    HW137562   0.060   2.499   6.363 -1.2129 -0.3586 -0.3372
 8700SOL    HW237563   0.058   2.646   6.387 -0.8008  0.3608  0.6195
 8701SOL     OW37564   1.234   0.533   2.704 -0.2685 -0.2903  0.4565
 8701SOL    HW137565   1.143   0.507   2.711 -0.4253  0.2629  0.5113
 8701SOL    HW237566   1.265   0.496   2.622 -0.6342  0.1282  0.1350
 8702SOL     OW37567   3.884   2.108   1.242 -0.4626  0.0062  0.2609
 8702SOL    HW137568   3.858   2.148   1.159 -3.6145 -1.9845  0.2637
 8702SOL    HW237569   3.903   2.183   1.299 -2.5529 -0.4986  1.6388
 8703SOL     OW37570   4.207   0.130  17.275  0.7441 -0.0157  0.6401
 8703SOL    HW137571   4.141   0.147  17.208 -1.5156 -0.0463  2.8490
 8703SOL    HW237572   4.157   0.135  17.356  0.3488 -0.5667  0.4323
 8704SOL     OW37573   0.874   0.998  17.240  0.2376 -0.1066  0.1187
 8704SOL    HW137574   0.869   0.934  17.311  1.4754  0.2311  0.5042
 8704SOL    HW237575   0.909   0.944  17.170 -0.0681  2.1713 -1.8143
 8705SOL     OW37576   2.345   4.221   3.677 -0.2551  0.1031 -0.2142
 8705SOL    HW137577   2.368   4.128   3.664  0.9249  0.3693 -0.0139
 8705SOL    HW237578   2.299   4.220   3.760 -0.9671 -2.2529 -0.6180
 8706SOL     OW37579   1.264   4.121   3.985 -0.1070  0.0487  0.1010
 8706SOL    HW137580   1.185   4.166   3.955 -0.1097 -0.0298 -0.0085
 8706SOL    HW237581   1.294   4.078   3.905  0.3360  1.1268 -0.3252
 8707SOL     OW37582   0.964   4.588   3.991  0.2833 -0.2066 -0.1176
 8707SOL    HW137583   0.883   4.590   3.941 -1.2192  2.5261  2.4271
 8707SOL    HW237584   0.931   4.560   4.076 -1.8615  0.7781 -0.6367
 8708SOL     OW37585   2.675   1.975  14.030 -0.5386 -0.4033 -0.0132
 8708SOL    HW137586   2.706   2.013  13.948 -1.6522  0.0879 -0.2038
 8708SOL    HW237587   2.611   2.041  14.058 -0.5130  0.0619 -1.0324
 8709SOL     OW37588   1.488   2.111   5.440  0.2961 -0.0316  0.3700
 8709SOL    HW137589   1.566   2.064   5.411  0.1254  0.3400 -0.6859
 8709SOL    HW237590   1.429   2.107   5.365 -0.7033  0.0803  1.1465
 8710SOL     OW37591   2.501   4.315  13.119 -0.5089 -0.2931  0.0104
 8710SOL    HW137592   2.472   4.396  13.077  2.0966  0.6761  0.1107
 8710SOL    HW237593   2.471   4.250  13.056 -2.5567 -0.6761  1.3875
 8711SOL     OW37594   2.844   4.602   5.704  0.7669  0.1860 -0.2794
 8711SOL    HW137595   2.876   4.607   5.614 -0.5284 -0.0488 -0.7562
 8711SOL    HW237596   2.908   4.659   5.747  1.8791 -1.5045  0.3083
 8712SOL     OW37597   0.664   0.596   2.422 -0.1301 -0.5990 -0.6409
 8712SOL    HW137598   0.571   0.573   2.425 -0.4700  0.5446 -2.7245
 8712SOL    HW237599   0.701   0.509   2.435 -1.6411 -1.1759 -0.1040
 8713SOL     OW37600   1.829   0.679   1.329  0.5846  0.5614  0.1499
 8713SOL    HW137601   1.755   0.621   1.314  1.8702 -0.7006 -1.3272
 8713SOL    HW237602   1.827   0.740   1.254 -0.6906  0.1544 -0.1433
 8714SOL     OW37603   0.265   2.780   2.816  0.1698 -0.5079  0.1620
 8714SOL    HW137604   0.256   2.696   2.770  1.0334 -0.5069 -0.0041
 8714SOL    HW237605   0.276   2.753   2.907  2.1815  1.3063  0.4555
 8715SOL     OW37606   1.843   0.119  17.183 -0.2463  0.1180  0.0405
 8715SOL    HW137607   1.791   0.065  17.123  0.8479  0.7737 -1.4951
 8715SOL    HW237608   1.911   0.154  17.126  2.0284 -1.3038  1.8825
 8716SOL     OW37609   3.609   2.730   7.629 -0.2461  0.6308  0.4214
 8716SOL    HW137610   3.627   2.778   7.710 -0.2733  0.8398  0.3020
 8716SOL    HW237611   3.518   2.758   7.627 -0.2695  0.8448  3.8863
 8717SOL     OW37612   2.825   2.713   6.573 -0.0047 -0.2623 -0.4138
 8717SOL    HW137613   2.788   2.659   6.503 -1.6107 -0.3759  0.5189
 8717SOL    HW237614   2.902   2.669   6.609 -0.2460  0.9323  1.5879
 8718SOL     OW37615   1.795   1.166   5.030 -0.2482 -0.9344 -0.4623
 8718SOL    HW137616   1.733   1.170   4.958 -1.0746  0.5635  0.3395
 8718SOL    HW237617   1.869   1.201   4.980 -1.4357  3.6691  0.9775
 8719SOL     OW37618   1.849   3.166   7.778  0.4155 -0.1696 -0.8007
 8719SOL    HW137619   1.812   3.246   7.741  1.1217  1.0181  1.0530
 8719SOL    HW237620   1.815   3.172   7.867  0.3049  0.4385 -0.8850
 8720SOL     OW37621   2.792   2.967   5.475 -0.3000 -0.1957  0.3213
 8720SOL    HW137622   2.760   2.939   5.389 -0.0512  2.5673 -0.6655
 8720SOL    HW237623   2.818   2.886   5.518  0.7835 -0.4211 -0.7534
 8721SOL     OW37624   0.596   0.916   4.139 -0.0965 -0.0723  0.0719
 8721SOL    HW137625   0.596   0.854   4.212  0.9496 -0.4113 -0.2087
 8721SOL    HW237626   0.602   0.848   4.071 -0.0896 -0.3969  0.3935
 8722SOL     OW37627   2.724   4.336   3.398 -0.1446 -0.8950 -0.0511
 8722SOL    HW137628   2.760   4.394   3.466 -0.2519  1.2205 -1.8119
 8722SOL    HW237629   2.629   4.348   3.392 -0.1314 -1.0451 -0.5447
 8723SOL     OW37630   0.804   1.046   4.709  0.3954 -0.6789 -0.0955
 8723SOL    HW137631   0.887   1.089   4.688  1.0904 -0.7475  2.4383
 8723SOL    HW237632   0.741   1.118   4.710 -0.2700 -1.2458 -1.8714
 8724SOL     OW37633   4.517   1.315   8.967 -0.2511  0.3992 -0.1878
 8724SOL    HW137634   4.485   1.358   8.888  1.3877  0.4664 -0.8124
 8724SOL    HW237635   4.449   1.337   9.030 -0.6423  1.5511 -0.9976
 8725SOL     OW37636   4.401   0.072   5.058 -0.1500  1.3515  0.1271
 8725SOL    HW137637   4.431   0.006   4.995 -0.2586  1.5568 -0.1395
 8725SOL    HW237638   4.326   0.024   5.091 -1.0592  2.4832 -0.3090
 8726SOL     OW37639   3.944   0.582   2.174 -0.0173  0.1289 -0.6163
 8726SOL    HW137640   3.904   0.631   2.246 -0.3239 -0.9009 -0.0806
 8726SOL    HW237641   3.873   0.524   2.148  0.1771  0.3997 -1.7215
 8727SOL     OW37642   4.578   0.239   7.417  0.5873 -0.2159  0.3522
 8727SOL    HW137643   4.585   0.143   7.410  0.9723  0.0467 -3.1126
 8727SOL    HW237644   4.494   0.257   7.375  1.1211  1.3430 -0.0570
 8728SOL     OW37645   3.709   3.708  15.514  0.0923 -0.1830 -0.1506
 8728SOL    HW137646   3.699   3.732  15.422 -3.1845 -0.1610  0.2061
 8728SOL    HW237647   3.636   3.646  15.524  0.3751 -0.2636  1.3652
 8729SOL     OW37648   0.739   3.393   8.065  0.4229  0.1366  0.2735
 8729SOL    HW137649   0.658   3.441   8.051 -0.3150 -1.1773  0.0301
 8729SOL    HW237650   0.803   3.463   8.048 -0.9850  0.7121 -2.6917
 8730SOL     OW37651   1.732   2.642  14.022  0.6010 -0.0724  0.5410
 8730SOL    HW137652   1.775   2.727  14.021  1.2419 -0.3889  1.2251
 8730SOL    HW237653   1.647   2.666  14.059  0.1871 -1.3344  0.4138
 8731SOL     OW37654   2.685   0.118   9.880  0.2297  0.5197 -0.0485
 8731SOL    HW137655   2.663   0.188   9.818  0.1132  2.5835  2.3087
 8731SOL    HW237656   2.780   0.109   9.875 -0.0191 -0.9283 -1.8442
 8732SOL     OW37657   0.158   1.782  11.867  0.3232 -0.5823 -0.7431
 8732SOL    HW137658   0.234   1.739  11.906  0.4978 -0.7120 -1.2141
 8732SOL    HW237659   0.142   1.733  11.786  0.9508  0.4101 -1.4705
 8733SOL     OW37660   3.727   0.212  17.260 -0.7066  0.4316 -0.5524
 8733SOL    HW137661   3.671   0.281  17.223  0.2160  0.9817 -0.9433
 8733SOL    HW237662   3.654   0.153  17.276  0.2391  0.3602  3.3020
 8734SOL     OW37663   2.203   1.992  13.783 -0.1753 -0.2023  0.2246
 8734SOL    HW137664   2.205   1.897  13.788  0.1913 -0.2829 -1.2371
 8734SOL    HW237665   2.126   2.009  13.838  1.0247  0.4863  1.6777
 8735SOL     OW37666   2.334   0.479   6.410  0.1858  0.2820  0.7373
 8735SOL    HW137667   2.268   0.530   6.362 -0.7909 -0.8538  0.8923
 8735SOL    HW237668   2.320   0.387   6.390 -2.8582  0.5844  1.4879
 8736SOL     OW37669   1.688   0.441   3.963 -0.5399  0.3025 -0.4051
 8736SOL    HW137670   1.671   0.429   4.056 -0.5009 -2.4020 -0.7673
 8736SOL    HW237671   1.638   0.367   3.929  0.4531  0.1067 -1.4352
 8737SOL     OW37672   2.066   4.172  12.841 -0.3869 -0.3021 -0.6749
 8737SOL    HW137673   1.987   4.163  12.895 -1.5560  1.4503 -2.0950
 8737SOL    HW237674   2.044   4.242  12.780  2.0110  0.2815 -0.8540
 8738SOL     OW37675   4.660   3.417   1.137  0.0009 -0.3656  0.8342
 8738SOL    HW137676   4.671   3.330   1.099  1.0118  0.0656  0.1643
 8738SOL    HW237677   4.583   3.408   1.194 -1.5917 -1.6028 -1.4840
 8739SOL     OW37678   1.294   2.884   8.410  0.4817 -0.3012  0.5057
 8739SOL    HW137679   1.380   2.868   8.449 -0.0482 -3.8181  0.2155
 8739SOL    HW237680   1.323   2.918   8.324  1.8945 -0.8968  0.7408
 8740SOL     OW37681   0.878   0.260   9.986 -0.8639 -0.1077  0.2076
 8740SOL    HW137682   0.911   0.177  10.021 -1.5488 -0.5921 -0.3010
 8740SOL    HW237683   0.952   0.320   9.997 -0.8741 -0.1245  0.3660
 8741SOL     OW37684   4.232   2.639   6.499 -0.3804  0.1371  0.1114
 8741SOL    HW137685   4.319   2.604   6.481 -0.5412 -0.0989 -0.2150
 8741SOL    HW237686   4.179   2.560   6.514 -0.7962  0.4966  0.5266
 8742SOL     OW37687   4.506   3.377   7.592  0.9003 -0.7370  0.3146
 8742SOL    HW137688   4.556   3.426   7.657  0.0622 -1.0371  1.1698
 8742SOL    HW237689   4.494   3.444   7.525 -0.5250 -0.8615  0.4427
 8743SOL     OW37690   0.911   1.149   7.538  0.3061  0.0737 -0.7399
 8743SOL    HW137691   0.907   1.053   7.540 -1.3095  0.1348 -1.1981
 8743SOL    HW237692   0.873   1.173   7.623 -0.1870 -0.8515 -0.6963
 8744SOL     OW37693   3.132   0.376   2.497  0.1986  0.4748 -0.2468
 8744SOL    HW137694   3.213   0.426   2.484 -0.1444  1.1523  0.2136
 8744SOL    HW237695   3.061   0.438   2.490  0.2760  0.4573 -1.0815
 8745SOL     OW37696   2.196   4.598   5.934 -0.2270 -0.1118 -0.1774
 8745SOL    HW137697   2.178   4.517   5.886  0.3063 -1.3018  1.6290
 8745SOL    HW237698   2.202   4.572   6.026 -2.5538  2.3126  0.6479
 8746SOL     OW37699   4.498   1.031   0.251 -0.4425 -0.1210 -0.3007
 8746SOL    HW137700   4.552   0.957   0.224 -0.4095 -1.2272  2.8425
 8746SOL    HW237701   4.422   1.031   0.193 -1.4474  1.3381  1.0119
 8747SOL     OW37702   0.219   1.517   4.002  0.1276 -0.0868  0.0367
 8747SOL    HW137703   0.257   1.600   3.973 -3.3842  0.8739 -1.7424
 8747SOL    HW237704   0.291   1.459   3.976 -0.8364 -1.3215  0.0725
 8748SOL     OW37705   2.483   2.707   6.879  0.0400 -0.3430 -0.2642
 8748SOL    HW137706   2.455   2.790   6.840 -0.5227 -0.5759 -0.3549
 8748SOL    HW237707   2.457   2.701   6.971 -0.6118  0.1340 -0.4250
 8749SOL     OW37708   1.573   1.713   7.886  0.3829  0.2375  0.3230
 8749SOL    HW137709   1.606   1.652   7.951  0.8447 -0.6128 -0.7213
 8749SOL    HW237710   1.635   1.785   7.900  2.3536 -0.8452 -2.9120
 8750SOL     OW37711   3.883   4.062  10.274 -0.3707  0.0292  0.0291
 8750SOL    HW137712   3.793   4.050  10.303 -1.0440 -1.9427 -2.8992
 8750SOL    HW237713   3.920   4.117  10.344 -0.1885 -2.4929  1.9117
 8751SOL     OW37714   0.491   1.200   7.479  0.5508 -0.7084 -0.1752
 8751SOL    HW137715   0.408   1.215   7.525  0.3221  2.0309 -1.5282
 8751SOL    HW237716   0.533   1.152   7.551 -0.9099 -1.0727  0.4464
 8752SOL     OW37717   1.699   1.845   0.574 -0.5038 -0.1093  0.1732
 8752SOL    HW137718   1.776   1.859   0.519  0.7029 -0.1728  1.8756
 8752SOL    HW237719   1.688   1.926   0.625  0.6266  1.1130 -1.5355
 8753SOL     OW37720   2.501   0.635  11.791 -0.0000  0.5008  0.7157
 8753SOL    HW137721   2.587   0.633  11.834  0.7784 -2.1734 -0.9435
 8753SOL    HW237722   2.442   0.640  11.866 -0.7561  0.4421  0.1224
 8754SOL     OW37723   2.352   2.243  12.481 -0.3859 -0.0400  0.5649
 8754SOL    HW137724   2.315   2.265  12.396 -2.6298  2.5434  2.1927
 8754SOL    HW237725   2.270   2.222  12.528 -1.1434  0.6317 -0.4568
 8755SOL     OW37726   2.544   3.903   7.940  0.6313 -0.2160  0.3378
 8755SOL    HW137727   2.562   3.817   7.977  1.1556 -0.0276  0.5201
 8755SOL    HW237728   2.582   3.964   8.002 -1.5719 -1.1106  2.5844
 8756SOL     OW37729   2.221   3.852  14.171 -0.0518 -0.2680 -0.0850
 8756SOL    HW137730   2.247   3.871  14.261 -0.8965  0.8642 -0.0880
 8756SOL    HW237731   2.236   3.936  14.127 -1.1149 -1.4199 -2.6741
 8757SOL     OW37732   4.260   2.617  13.362  0.2719 -0.0939 -0.7473
 8757SOL    HW137733   4.172   2.626  13.327  0.1704  1.4329 -0.0828
 8757SOL    HW237734   4.241   2.581  13.449  1.1542 -3.2326 -1.8357
 8758SOL     OW37735   4.066   0.656   0.912  0.3020  0.0888 -0.0987
 8758SOL    HW137736   4.026   0.591   0.969  0.2212  0.0761 -0.1701
 8758SOL    HW237737   4.155   0.644   0.946 -0.6940 -1.0810  2.1458
 8759SOL     OW37738   4.084   4.548   2.423 -0.3553 -0.0980 -0.1926
 8759SOL    HW137739   4.110   4.604   2.496 -0.0879 -1.2307  0.5955
 8759SOL    HW237740   4.143   4.572   2.351 -0.6614 -0.5300 -0.5864
 8760SOL     OW37741   4.555   3.589   2.084 -0.2477  0.6231  0.3406
 8760SOL    HW137742   4.569   3.583   2.179 -0.7901  1.5362  0.4838
 8760SOL    HW237743   4.477   3.536   2.065 -0.9354  0.9680  2.1917
 8761SOL     OW37744   1.868   1.980   7.018  0.0864  0.2085 -0.2765
 8761SOL    HW137745   1.829   2.043   6.957  1.0686  2.9449  1.9640
 8761SOL    HW237746   1.949   2.023   7.044 -1.1749  1.7745  1.0650
 8762SOL     OW37747   1.904   2.683   3.482  0.2443 -0.2565  0.0029
 8762SOL    HW137748   1.894   2.605   3.426 -1.4251 -1.0665  1.4500
 8762SOL    HW237749   1.812   2.708   3.491 -0.0866 -0.2659 -3.1880
 8763SOL     OW37750   3.670   4.396   3.633 -0.4235 -0.0103 -0.2595
 8763SOL    HW137751   3.752   4.427   3.596 -0.1886 -1.1461 -0.6601
 8763SOL    HW237752   3.642   4.331   3.569  1.2501 -2.4398  1.4671
 8764SOL     OW37753   1.133   4.546   3.222 -0.4852  0.0112  1.1680
 8764SOL    HW137754   1.144   4.470   3.165  2.0456  0.6584  0.8040
 8764SOL    HW237755   1.101   4.605   3.153 -1.8258 -0.5863  1.2637
 8765SOL     OW37756   3.049   2.049   9.455  0.1856  0.7931  0.3298
 8765SOL    HW137757   3.046   1.993   9.532  0.5106 -1.3887 -1.2445
 8765SOL    HW237758   2.974   2.014   9.406  0.6213  2.1680 -1.3327
 8766SOL     OW37759   0.648   3.710   3.042  0.0751  0.2611  0.2385
 8766SOL    HW137760   0.580   3.765   3.080  0.7430  1.1260  0.1661
 8766SOL    HW237761   0.713   3.767   3.001  0.4427  0.0226  0.4964
 8767SOL     OW37762   4.359   4.548   8.239 -0.0603  0.1398  0.0167
 8767SOL    HW137763   4.429   4.612   8.252 -0.0557 -0.2105  1.8593
 8767SOL    HW237764   4.319   4.601   8.171  0.3098  0.7323  0.2620
 8768SOL     OW37765   3.902   0.003   2.841  0.0403 -0.2277 -0.1587
 8768SOL    HW137766   3.992   0.023   2.814  0.5858  0.3909  2.0817
 8768SOL    HW237767   3.920   4.634   2.852 -1.5289 -0.3717  1.1859
 8769SOL     OW37768   0.106   0.201   7.557 -0.3186 -0.1051 -0.8185
 8769SOL    HW137769   0.139   0.113   7.540  0.7717 -0.1794  1.7587
 8769SOL    HW237770   0.012   0.194   7.543 -0.1946 -0.1534 -1.6285
 8770SOL     OW37771   2.507   0.157   2.448 -0.5624 -0.4127 -0.2178
 8770SOL    HW137772   2.536   0.233   2.498  0.8036 -0.4126 -0.9887
 8770SOL    HW237773   2.569   0.089   2.476 -1.6408 -1.7861 -1.1767
 8771SOL     OW37774   0.052   1.133   2.454  0.0270 -0.2318 -0.1038
 8771SOL    HW137775   0.108   1.178   2.390 -2.5115  0.7515 -1.6510
 8771SOL    HW237776   0.015   1.205   2.505  2.6149 -0.3071  1.8812
 8772SOL     OW37777   0.482   1.265   2.223  0.2667 -0.1734  0.1264
 8772SOL    HW137778   0.420   1.194   2.208 -1.7870  1.3712  1.1878
 8772SOL    HW237779   0.481   1.265   2.319  0.5086 -0.3521  0.1289
 8773SOL     OW37780   4.061   3.350   4.045  0.1577  0.2905  0.5596
 8773SOL    HW137781   4.137   3.336   4.102  0.1649 -0.7685  0.2962
 8773SOL    HW237782   4.039   3.442   4.060  0.8847  0.5607  0.0046
 8774SOL     OW37783   3.526   3.412  17.686 -0.4917  0.0904  0.0480
 8774SOL    HW137784   3.596   3.474   0.007  0.7133 -0.1920 -3.7121
 8774SOL    HW237785   3.443   3.455  17.666 -1.4077 -2.4479 -1.7510
 8775SOL     OW37786   0.196   1.212   5.904  0.1988 -0.1771 -0.0872
 8775SOL    HW137787   0.252   1.272   5.855 -0.4984  1.4058  1.0277
 8775SOL    HW237788   0.160   1.163   5.831  0.4497  3.3907 -2.6088
 8776SOL     OW37789   2.513   3.931   5.164  0.0336  0.6031  0.6131
 8776SOL    HW137790   2.563   3.913   5.085  0.0497  0.6924  0.6036
 8776SOL    HW237791   2.440   3.985   5.136 -0.6052 -0.7534 -0.3758
 8777SOL     OW37792   1.578   4.275   6.996  0.3337  0.0681  0.3038
 8777SOL    HW137793   1.540   4.259   7.083 -2.2397  1.4031 -0.5843
 8777SOL    HW237794   1.593   4.183   6.975  2.4936  0.6458 -0.6907
 8778SOL     OW37795   0.086   1.327  11.809  0.3118 -0.1558  0.5421
 8778SOL    HW137796   0.109   1.234  11.807  2.8129  0.4386  0.9193
 8778SOL    HW237797   0.012   1.329  11.869 -0.4202  0.3225 -0.3876
 8779SOL     OW37798   0.689   1.545   5.339 -0.2273  0.2252  0.3116
 8779SOL    HW137799   0.613   1.598   5.316  0.7500  0.2290 -2.8592
 8779SOL    HW237800   0.699   1.502   5.254 -0.2727  1.1502 -0.1629
 8780SOL     OW37801   3.821   0.461   3.901  0.4386 -0.3490 -0.2294
 8780SOL    HW137802   3.750   0.483   3.962  0.7806 -0.0392  0.0533
 8780SOL    HW237803   3.896   0.438   3.957  0.8331  0.4867 -0.4149
 8781SOL     OW37804   4.039   0.507  17.176  0.4013  0.2459 -0.1546
 8781SOL    HW137805   4.082   0.513  17.262  0.7618  0.4454 -0.3449
 8781SOL    HW237806   4.047   0.594  17.136 -1.5739  0.5310  0.0910
 8782SOL     OW37807   3.040   2.302   9.366 -0.4612 -0.3997  0.1830
 8782SOL    HW137808   3.069   2.340   9.449  1.8528 -0.7796 -0.4640
 8782SOL    HW237809   3.058   2.210   9.386  0.8219  0.1529  1.5747
 8783SOL     OW37810   3.544   3.781  13.777 -0.4711  0.1216  0.1491
 8783SOL    HW137811   3.539   3.776  13.682  0.6049 -0.3897  0.1146
 8783SOL    HW237812   3.461   3.819  13.804 -1.3002 -2.1516  0.8316
 8784SOL     OW37813   2.992   2.406   5.285 -0.6079 -0.4497  0.2224
 8784SOL    HW137814   3.071   2.408   5.232 -1.1239 -0.1910 -0.5272
 8784SOL    HW237815   3.020   2.472   5.349 -0.9210  2.9129 -3.0885
 8785SOL     OW37816   1.408   1.724   5.966 -0.1236 -0.1268  0.0197
 8785SOL    HW137817   1.464   1.646   5.974  0.8662  0.2170 -3.3986
 8785SOL    HW237818   1.460   1.791   6.010  1.5775 -0.3357 -1.6653
 8786SOL     OW37819   1.797   1.565   5.027 -0.2118 -0.2707 -0.4146
 8786SOL    HW137820   1.882   1.609   5.031 -0.5272  0.3081 -0.0926
 8786SOL    HW237821   1.798   1.506   5.103  2.1021  1.0136  0.5354
 8787SOL     OW37822   2.442   1.757   2.157  0.0395  0.3741  0.0505
 8787SOL    HW137823   2.448   1.849   2.132 -2.4559  0.4359 -0.2665
 8787SOL    HW237824   2.505   1.715   2.099 -0.4429 -1.3055  0.7204
 8788SOL     OW37825   0.252   1.893  13.217  0.1140  0.1599 -0.0259
 8788SOL    HW137826   0.321   1.951  13.185  0.6207 -0.8020 -0.6441
 8788SOL    HW237827   0.183   1.943  13.173 -0.8420 -0.0208  1.2372
 8789SOL     OW37828   4.207   3.031   1.635 -0.2025  0.5280  0.2726
 8789SOL    HW137829   4.237   2.949   1.675  0.6056  0.5695 -0.2630
 8789SOL    HW237830   4.285   3.086   1.632 -0.1829  0.5414  1.0077
 8790SOL     OW37831   3.648   2.749   4.130  0.1291 -0.3988  0.0102
 8790SOL    HW137832   3.676   2.688   4.198  0.1481 -0.1776  0.1976
 8790SOL    HW237833   3.710   2.732   4.059 -0.1939  0.7484 -0.5560
 8791SOL     OW37834   0.385   2.477   8.098 -0.4318  0.0217  0.0382
 8791SOL    HW137835   0.303   2.441   8.131 -0.6068 -1.7094 -2.2400
 8791SOL    HW237836   0.406   2.548   8.159 -2.2915  0.6329 -0.0346
 8792SOL     OW37837   0.449   3.118   7.961  0.0789  0.1812 -0.6414
 8792SOL    HW137838   0.359   3.095   7.942 -0.0380  0.8635 -0.9219
 8792SOL    HW237839   0.466   3.064   8.038 -0.2865  1.2608  0.1978
 8793SOL     OW37840   0.473   4.315   5.661 -0.4701 -0.3135 -0.0308
 8793SOL    HW137841   0.380   4.308   5.639 -0.2192 -1.3713 -0.7417
 8793SOL    HW237842   0.464   4.330   5.755 -2.1835 -0.2299 -0.2053
 8794SOL     OW37843   4.627   1.244   0.345 -0.0789 -0.5870 -0.5654
 8794SOL    HW137844   4.589   1.158   0.329  1.4838 -1.4432  0.3565
 8794SOL    HW237845   4.640   1.276   0.255 -3.3689 -3.8308 -2.1785
 8795SOL     OW37846   3.642   4.079   0.675  0.1803  0.3028  0.3497
 8795SOL    HW137847   3.587   4.130   0.736 -0.6706 -1.3538  0.9655
 8795SOL    HW237848   3.706   4.140   0.639  0.5632  0.5162  1.3937
 8796SOL     OW37849   2.674   1.875   5.952 -0.0524 -0.0737  0.0997
 8796SOL    HW137850   2.687   1.781   5.959  2.3319  0.1917 -0.6233
 8796SOL    HW237851   2.769   1.892   5.949  0.1212 -1.4037 -1.4824
 8797SOL     OW37852   0.167   1.862  11.354  0.2833 -0.3541  0.3040
 8797SOL    HW137853   0.260   1.845  11.369  0.2344 -0.8260  0.0736
 8797SOL    HW237854   0.145   1.805  11.280  0.1737 -2.5712  2.0509
 8798SOL     OW37855   3.722   0.546   2.956  0.6572  0.0610  0.2473
 8798SOL    HW137856   3.779   0.619   2.980 -0.3825  0.7915  0.5358
 8798SOL    HW237857   3.700   0.505   3.040 -1.1058  1.8663  0.6744
 8799SOL     OW37858   3.163   1.038   6.173 -0.1168 -0.1424  0.3829
 8799SOL    HW137859   3.160   0.954   6.128 -0.1231 -0.2710  0.6241
 8799SOL    HW237860   3.085   1.075   6.132  1.3274 -0.6650 -2.8144
 8800SOL     OW37861   2.756   0.358   4.159 -0.2622  0.1650 -0.7964
 8800SOL    HW137862   2.841   0.366   4.116 -0.0413  4.6171  0.4432
 8800SOL    HW237863   2.736   0.449   4.181  1.6278  0.9939 -2.5102
 8801SOL     OW37864   1.541   0.059  11.365 -0.4588  0.1543  0.2256
 8801SOL    HW137865   1.504   0.141  11.333  0.8757  0.4852 -0.4800
 8801SOL    HW237866   1.465   0.004  11.384  0.4042 -1.6121 -1.3446
 8802SOL     OW37867   4.089   3.578   5.712 -0.1114  0.5357 -0.4047
 8802SOL    HW137868   4.148   3.504   5.705  0.9943  1.2346  1.6526
 8802SOL    HW237869   4.006   3.531   5.714  0.3021 -0.1071  1.2787
 8803SOL     OW37870   2.878   0.854  17.408  0.0131 -0.3378 -0.1692
 8803SOL    HW137871   2.947   0.812  17.459  2.0589  3.7059  0.4499
 8803SOL    HW237872   2.913   0.939  17.381 -1.2475 -0.1296 -1.1308
 8804SOL     OW37873   0.389   4.698   7.213  0.1610 -1.0482  0.2821
 8804SOL    HW137874   0.378   0.069   7.215 -2.7765 -1.4623  3.7429
 8804SOL    HW237875   0.468   4.698   7.160 -0.3025 -0.1510 -0.4140
 8805SOL     OW37876   4.530   0.110   3.139  0.1818 -0.0169  0.2535
 8805SOL    HW137877   4.471   0.041   3.171  0.2919 -0.4314 -0.4473
 8805SOL    HW237878   4.497   0.125   3.050 -0.0905 -0.3224  0.3044
 8806SOL     OW37879   0.643   0.717   2.745  0.3438  0.0021 -0.3094
 8806SOL    HW137880   0.589   0.638   2.741  1.4064 -0.7755  0.7733
 8806SOL    HW237881   0.580   0.788   2.728  1.6510  0.9434 -1.2615
 8807SOL     OW37882   1.656   2.366   6.594  0.0839  0.3402  0.5559
 8807SOL    HW137883   1.662   2.443   6.650 -0.5904  2.2392 -1.9845
 8807SOL    HW237884   1.691   2.409   6.516 -0.8616 -0.9763 -0.6134
 8808SOL     OW37885   0.366   0.135   8.163 -0.7852 -0.3728  0.3023
 8808SOL    HW137886   0.419   0.150   8.085  0.3245 -1.8458  0.7519
 8808SOL    HW237887   0.375   0.041   8.180  0.3181 -0.0038  1.7652
 8809SOL     OW37888   1.655   3.124  15.034  0.2258 -0.3819 -0.0363
 8809SOL    HW137889   1.649   3.074  15.115  1.2331  0.7832  0.7586
 8809SOL    HW237890   1.574   3.175  15.039 -0.1067 -1.0072  0.9769
 8810SOL     OW37891   0.706   1.337   7.023 -0.5912 -0.7184  0.1389
 8810SOL    HW137892   0.648   1.288   7.081 -2.0924 -0.3564 -1.0528
 8810SOL    HW237893   0.641   1.403   6.999  0.9669  0.7704  0.0271
 8811SOL     OW37894   1.771   3.285   8.297  0.3741 -0.2601 -0.3352
 8811SOL    HW137895   1.859   3.316   8.318  0.8216 -1.0571 -1.0299
 8811SOL    HW237896   1.781   3.208   8.352 -1.1997 -0.1799  0.0430
 8812SOL     OW37897   1.979   3.310  12.970 -0.3594 -0.3322  0.0731
 8812SOL    HW137898   1.980   3.290  13.064 -3.1398 -0.8385 -0.0187
 8812SOL    HW237899   2.018   3.236  12.923 -0.0711  1.8185 -3.0822
 8813SOL     OW37900   4.570   0.339   2.327  0.0854  0.1682 -0.5562
 8813SOL    HW137901   4.537   0.404   2.388  1.6727 -1.4396  1.9930
 8813SOL    HW237902   4.663   0.357   2.316  0.1314  0.5022  0.3777
 8814SOL     OW37903   0.030   2.289   7.417  0.4464  0.2430 -0.4441
 8814SOL    HW137904   0.062   2.366   7.463 -0.3588  0.2706  0.0555
 8814SOL    HW237905   0.021   2.332   7.332  2.7794 -0.9966 -1.3289
 8815SOL     OW37906   3.829   3.626  13.241  0.1524 -1.0012  0.1175
 8815SOL    HW137907   3.893   3.658  13.177  1.0003 -1.1642  0.8813
 8815SOL    HW237908   3.876   3.544  13.258  0.1567 -1.5586 -2.6873
 8816SOL     OW37909   0.684   3.243   2.010 -0.0897  0.2777 -0.1236
 8816SOL    HW137910   0.658   3.279   1.926 -2.2838 -0.1127  0.4033
 8816SOL    HW237911   0.688   3.149   1.992  0.6130  0.4868 -1.0533
 8817SOL     OW37912   1.678   2.715   3.089  0.3269 -0.3834 -0.0311
 8817SOL    HW137913   1.760   2.722   3.139  1.5739 -1.6547 -1.9011
 8817SOL    HW237914   1.695   2.783   3.024 -1.1232  1.0006  1.0470
 8818SOL     OW37915   4.657   1.164   8.675 -0.2374  0.1978  0.5433
 8818SOL    HW137916   4.627   1.225   8.608  0.1317  0.0088  0.2044
 8818SOL    HW237917   4.692   1.088   8.629 -1.5959 -0.2053  0.1887
 8819SOL     OW37918   2.320   0.880   4.805  0.4542  0.2623  0.2814
 8819SOL    HW137919   2.251   0.820   4.835 -0.8968  2.3140  1.2692
 8819SOL    HW237920   2.371   0.811   4.764  2.8586  0.5244  2.8146
 8820SOL     OW37921   3.441   2.074   7.395 -0.1176 -0.8061 -0.1789
 8820SOL    HW137922   3.420   2.025   7.316 -0.2466 -0.1488 -0.5517
 8820SOL    HW237923   3.359   2.122   7.409 -0.9151 -1.6465 -2.0443
 8821SOL     OW37924   1.011   1.413   4.387  0.3029  0.6421  0.4343
 8821SOL    HW137925   0.922   1.424   4.352  0.8662 -1.0702 -1.5360
 8821SOL    HW237926   1.049   1.357   4.319 -1.5130  1.4100 -1.2207
 8822SOL     OW37927   3.499   1.379   6.834 -0.0968 -0.6753  0.5086
 8822SOL    HW137928   3.575   1.379   6.892 -0.3084  0.0291  0.7885
 8822SOL    HW237929   3.489   1.473   6.821  2.3836 -0.5048 -0.0887
 8823SOL     OW37930   4.684   3.655   1.449  0.1281 -0.0367  0.2642
 8823SOL    HW137931   4.717   3.566   1.460 -0.9516 -0.2344  1.9113
 8823SOL    HW237932   0.009   3.679   1.370 -1.6386 -0.3801 -0.9411
 8824SOL     OW37933   0.355   3.681   2.464 -0.7984  0.2061 -0.5306
 8824SOL    HW137934   0.423   3.630   2.418  0.0928  0.8653  0.0646
 8824SOL    HW237935   0.316   3.731   2.392 -1.1960 -0.5338 -0.8272
 8825SOL     OW37936   2.361   2.707  16.356  0.0457  0.0556 -0.0035
 8825SOL    HW137937   2.388   2.797  16.377  0.6766  0.1881 -1.3381
 8825SOL    HW237938   2.341   2.667  16.441  0.3968  0.1535  0.1282
 8826SOL     OW37939   1.115   3.248   5.119  0.1721 -0.3009  0.0902
 8826SOL    HW137940   1.077   3.285   5.039  0.2204 -0.4265  0.0089
 8826SOL    HW237941   1.178   3.195   5.070 -0.3238 -2.5416  1.8956
 8827SOL     OW37942   3.126   2.075   3.594 -0.0704  0.5643 -0.4682
 8827SOL    HW137943   3.057   2.072   3.660 -1.7123  1.0513 -2.1688
 8827SOL    HW237944   3.079   2.088   3.512  0.4059  1.2634 -0.6265
 8828SOL     OW37945   0.812   1.144  16.147 -0.0309  0.1366 -0.8712
 8828SOL    HW137946   0.781   1.191  16.225  0.8531  0.0428 -0.4637
 8828SOL    HW237947   0.776   1.195  16.075  0.0595  0.4422 -0.7012
 8829SOL     OW37948   1.685   2.715   5.935 -0.1851  0.0717  0.2811
 8829SOL    HW137949   1.770   2.671   5.927 -1.3077 -1.7911 -1.2355
 8829SOL    HW237950   1.636   2.660   5.997 -1.9753  2.8184  1.2959
 8830SOL     OW37951   4.230   1.486   5.829 -0.5749 -0.2186 -0.4824
 8830SOL    HW137952   4.293   1.415   5.838 -1.8200 -1.1697  0.8058
 8830SOL    HW237953   4.289   1.548   5.787 -0.2399  0.7258  1.3405
 8831SOL     OW37954   2.540   2.132   6.375 -0.3035  0.7321 -0.2571
 8831SOL    HW137955   2.478   2.202   6.356 -0.1773  0.2656 -2.4833
 8831SOL    HW237956   2.534   2.087   6.290 -1.3381 -1.5007  0.9911
 8832SOL     OW37957   0.656   4.600  11.322 -0.0980  0.0761  0.3847
 8832SOL    HW137958   0.665   4.556  11.237 -0.8336  0.7486 -0.0467
 8832SOL    HW237959   0.728   4.661  11.303 -0.2046  0.2153  0.4275
 8833SOL     OW37960   1.642   4.487   8.153 -0.1206 -0.0881 -0.3860
 8833SOL    HW137961   1.626   4.499   8.059 -1.8166 -0.3966 -0.1357
 8833SOL    HW237962   1.704   4.559   8.164 -0.8334  0.5231 -0.3543
 8834SOL     OW37963   2.647   4.627   5.403  1.0379  0.0445  0.3054
 8834SOL    HW137964   2.580   4.675   5.354  1.4407 -0.4662 -0.7479
 8834SOL    HW237965   2.610   4.602   5.488 -1.6194  1.4685 -0.4288
 8835SOL     OW37966   1.412   2.277   5.130 -0.3152  0.2279 -0.2980
 8835SOL    HW137967   1.436   2.194   5.089  2.3863  0.3398  1.0619
 8835SOL    HW237968   1.317   2.271   5.141 -0.3254  0.3467 -0.3274
 8836SOL     OW37969   1.397   1.031   7.848 -0.2221  0.1354  0.2616
 8836SOL    HW137970   1.480   0.998   7.814 -0.4720  1.0553 -1.2356
 8836SOL    HW237971   1.386   1.114   7.802  0.9574  1.1412  1.7896
 8837SOL     OW37972   1.290   3.937  16.757  0.3562 -0.0488  0.1461
 8837SOL    HW137973   1.254   3.967  16.673 -2.7099 -0.0059  1.4752
 8837SOL    HW237974   1.384   3.950  16.744  0.2111  0.6333 -0.2292
 8838SOL     OW37975   3.246   2.032  12.565  0.0473 -0.3040 -0.2095
 8838SOL    HW137976   3.241   1.937  12.563  1.0521 -0.2976 -2.3421
 8838SOL    HW237977   3.274   2.040  12.474 -2.1877 -0.8906 -0.9411
 8839SOL     OW37978   0.078   3.343  10.608 -0.6643  0.7161  0.1717
 8839SOL    HW137979   0.043   3.344  10.519  0.9885 -1.1121 -0.4872
 8839SOL    HW237980   0.064   3.251  10.633 -1.1468  0.3017 -1.6038
 8840SOL     OW37981   4.578   1.714   0.582 -0.0102 -0.3471 -0.2794
 8840SOL    HW137982   4.660   1.717   0.631 -1.1836  1.6819  1.5585
 8840SOL    HW237983   4.576   1.619   0.596 -1.9766 -0.0891  1.2754
 8841SOL     OW37984   3.481   0.821   9.008  0.0462  0.6729  0.1396
 8841SOL    HW137985   3.424   0.746   9.022 -1.5504  1.7929 -0.3379
 8841SOL    HW237986   3.541   0.806   9.081 -0.3128  1.6230  0.6308
 8842SOL     OW37987   0.732   4.369   5.933 -0.0335  0.1910 -0.7147
 8842SOL    HW137988   0.756   4.445   5.987  1.3096  0.2562 -1.3975
 8842SOL    HW237989   0.649   4.350   5.977  0.0449  1.7442  0.1007
 8843SOL     OW37990   1.658   3.114  15.716 -0.2812 -0.3060 -0.2126
 8843SOL    HW137991   1.562   3.110  15.711 -0.3093  1.0871 -0.8683
 8843SOL    HW237992   1.685   3.111  15.624 -0.9889  0.5633 -0.4437
 8844SOL     OW37993   2.320   1.625   4.969 -0.1769 -0.0079  0.0610
 8844SOL    HW137994   2.263   1.592   5.039  0.1948 -0.4346  0.1593
 8844SOL    HW237995   2.294   1.568   4.897 -1.5740 -0.0623  0.5997
 8845SOL     OW37996   0.056   1.322   9.045  0.4920  0.2514  0.3732
 8845SOL    HW137997   4.685   1.311   9.044  0.4790  0.3580  0.3888
 8845SOL    HW237998   0.081   1.230   9.059  1.1865  0.7482  2.4476
 8846SOL     OW37999   2.760   0.021   8.433  0.1135  0.2238 -0.0107
 8846SOL    HW138000   2.801   0.088   8.378  1.9315 -0.2566  0.7249
 8846SOL    HW238001   2.691   4.709   8.378  1.8623 -0.7884 -1.5340
 8847SOL     OW38002   0.724   2.242   4.738 -0.0964  0.2477  0.4498
 8847SOL    HW138003   0.696   2.332   4.718  0.6475  0.2318 -0.6562
 8847SOL    HW238004   0.649   2.185   4.724  1.5850 -1.3657 -2.0074
 8848SOL     OW38005   3.477   0.552   1.735  0.0289 -0.3850 -0.0850
 8848SOL    HW138006   3.510   0.526   1.650 -1.5903 -0.9411 -0.5512
 8848SOL    HW238007   3.557   0.563   1.787 -1.2078  0.8396  1.5635
 8849SOL     OW38008   4.483   3.326  16.356  0.0011  0.2116 -0.3956
 8849SOL    HW138009   4.423   3.264  16.397  0.7816 -0.7270 -0.6790
 8849SOL    HW238010   4.461   3.409  16.399  0.2718 -0.2093  0.5487
 8850SOL     OW38011   1.158   0.597   4.084  0.0524 -0.6531 -0.4776
 8850SOL    HW138012   1.098   0.523   4.078 -0.4140 -0.3936  1.0973
 8850SOL    HW238013   1.141   0.624   4.174 -0.4080 -0.6921 -0.5549
 8851SOL     OW38014   1.021   2.395   6.356  0.1286  0.6297 -0.5806
 8851SOL    HW138015   0.937   2.394   6.401  0.2026 -1.0169 -0.4676
 8851SOL    HW238016   1.032   2.484   6.325  1.1822  1.1424  1.2095
 8852SOL     OW38017   0.428   3.985   1.724 -0.5060  0.2998 -0.0751
 8852SOL    HW138018   0.340   4.021   1.715 -1.8749 -2.5877  1.5636
 8852SOL    HW238019   0.471   4.062   1.761 -3.5293  1.3409  1.2504
 8853SOL     OW38020   3.968   2.145   5.460  0.2464 -0.3930 -0.7496
 8853SOL    HW138021   4.062   2.138   5.479 -0.0202  0.8839  1.0000
 8853SOL    HW238022   3.951   2.229   5.502  1.3563 -0.8354  0.5933
 8854SOL     OW38023   3.099   0.596   7.246  0.3679  0.1934  0.3766
 8854SOL    HW138024   3.162   0.576   7.176 -0.5556 -2.4644  0.2852
 8854SOL    HW238025   3.166   0.570   7.310 -1.2034 -0.3873  1.7715
 8855SOL     OW38026   3.841   0.811   5.183  0.2786  0.1942  0.4384
 8855SOL    HW138027   3.755   0.770   5.192  0.4369 -0.3112 -0.3575
 8855SOL    HW238028   3.856   0.825   5.277  0.2434  2.0731  0.1719
 8856SOL     OW38029   4.288   4.581   0.452 -0.3913  0.0321 -0.1931
 8856SOL    HW138030   4.224   4.625   0.509  1.7293  2.9583 -0.0858
 8856SOL    HW238031   4.307   4.504   0.506  1.8020 -0.3228 -1.4748
 8857SOL     OW38032   3.396   4.310   3.259 -0.1639 -0.2298 -0.7237
 8857SOL    HW138033   3.322   4.359   3.223  2.0251  3.1990 -0.5266
 8857SOL    HW238034   3.457   4.326   3.187  1.8163  1.5654  1.3527
 8858SOL     OW38035   2.520   2.525   8.224  0.5455 -0.5235  0.4656
 8858SOL    HW138036   2.571   2.538   8.144 -0.0926  0.9846  0.3087
 8858SOL    HW238037   2.587   2.524   8.292 -0.3925 -0.8118  1.3922
 8859SOL     OW38038   0.662   4.536  15.091  0.0542  0.1634  0.0313
 8859SOL    HW138039   0.669   4.512  15.184  0.3222 -0.4659 -0.1506
 8859SOL    HW238040   0.654   4.447  15.056 -2.9680  0.8273 -0.9898
 8860SOL     OW38041   2.713   1.205  12.097 -0.6984  0.1397 -0.4969
 8860SOL    HW138042   2.666   1.136  12.050 -1.8312  0.6374 -0.0837
 8860SOL    HW238043   2.741   1.262  12.026  2.2684 -0.6163  0.0378
 8861SOL     OW38044   0.934   2.620   4.107 -0.1899  0.3712  0.1648
 8861SOL    HW138045   0.912   2.580   4.022 -1.2740  1.1232  0.0996
 8861SOL    HW238046   0.888   2.703   4.091  1.4834  1.6117  1.7925
 8862SOL     OW38047   2.956   1.548   4.762  0.0186  0.3280 -0.5508
 8862SOL    HW138048   2.912   1.494   4.828  4.2318  0.8001  2.6406
 8862SOL    HW238049   3.049   1.544   4.783 -0.1757  3.1011  0.7389
 8863SOL     OW38050   4.372   0.508   6.275 -0.1030  0.5802 -0.6736
 8863SOL    HW138051   4.336   0.419   6.268 -0.3198  0.7041 -1.1475
 8863SOL    HW238052   4.296   0.566   6.275 -0.6389 -0.1223 -0.8973
 8864SOL     OW38053   3.546   2.663   4.955  0.5313 -0.3735 -0.0721
 8864SOL    HW138054   3.497   2.736   4.917  1.5450 -0.0383 -0.7156
 8864SOL    HW238055   3.503   2.648   5.039 -2.3729 -2.4350 -1.8819
 8865SOL     OW38056   1.691   4.358   9.129  0.4510 -0.2078  0.2377
 8865SOL    HW138057   1.684   4.451   9.108  2.2434 -0.6608 -2.3854
 8865SOL    HW238058   1.749   4.356   9.204 -1.5314 -4.0426  1.6478
 8866SOL     OW38059   0.216   4.220   6.510  0.0537  0.3041 -0.3337
 8866SOL    HW138060   0.266   4.299   6.492 -0.4917  0.7229 -0.0227
 8866SOL    HW238061   0.135   4.253   6.549  2.2608  1.7123  3.0313
 8867SOL     OW38062   0.755   2.915   7.946 -0.3583 -0.4998 -0.8348
 8867SOL    HW138063   0.807   2.846   7.987  0.0589  0.5204  0.3509
 8867SOL    HW238064   0.728   2.974   8.016  1.3558 -0.0723 -0.5173
 8868SOL     OW38065   4.234   2.650   6.078  0.1158  1.0210 -0.1948
 8868SOL    HW138066   4.213   2.727   6.025 -0.5922  1.8204  1.2411
 8868SOL    HW238067   4.265   2.591   6.010 -0.4132  0.3609  0.1435
 8869SOL     OW38068   0.064   1.449   7.101 -0.6061  0.0465  0.1603
 8869SOL    HW138069   0.142   1.499   7.077  1.7099 -2.3140  2.8282
 8869SOL    HW238070   0.098   1.361   7.114  0.7479  0.8346  1.9642
 8870SOL     OW38071   4.236   4.533  17.040  0.3289 -0.4765 -0.5567
 8870SOL    HW138072   4.233   4.448  17.085  0.1500  1.5164  3.2451
 8870SOL    HW238073   4.275   4.511  16.956  2.6725 -0.3733  0.5071
 8871SOL     OW38074   2.879   1.659  17.623  0.1545 -0.0677  0.0349
 8871SOL    HW138075   2.793   1.686  17.656 -0.4105  0.4132 -1.8150
 8871SOL    HW238076   2.866   1.566  17.637 -0.9644 -0.6932 -5.0843
 8872SOL     OW38077   3.161   3.544  15.291 -0.0417 -0.7586 -0.2817
 8872SOL    HW138078   3.118   3.585  15.365  0.6378 -0.6506  0.0464
 8872SOL    HW238079   3.153   3.452  15.316  0.0016 -0.5827  0.3696
 8873SOL     OW38080   4.233   3.931  10.583  0.5932 -0.6005 -0.4385
 8873SOL    HW138081   4.308   3.973  10.543  1.2388  0.0658  1.4600
 8873SOL    HW238082   4.258   3.908  10.673 -0.4945  0.3366  0.1102
 8874SOL     OW38083   2.765   0.209   1.751  0.1293  0.1406 -0.1857
 8874SOL    HW138084   2.800   0.121   1.739  1.8334  0.7656  0.1974
 8874SOL    HW238085   2.672   0.197   1.773  0.0261 -1.5124 -1.5054
 8875SOL     OW38086   0.823   4.443   3.613 -0.3673  0.8568 -0.0059
 8875SOL    HW138087   0.918   4.434   3.600 -0.5538  0.1811 -0.8961
 8875SOL    HW238088   0.795   4.369   3.560  1.4040 -0.3060  0.6713
 8876SOL     OW38089   1.004   1.912   5.052 -0.3294 -0.3260  0.0751
 8876SOL    HW138090   1.046   1.883   5.133  0.3254  1.0485  0.2341
 8876SOL    HW238091   0.912   1.913   5.078 -0.9715  0.5886 -2.2025
 8877SOL     OW38092   4.532   1.769   7.111 -0.0416  0.6573  0.0934
 8877SOL    HW138093   4.609   1.824   7.124 -1.2288  2.6173 -1.1657
 8877SOL    HW238094   4.556   1.725   7.030  2.1403 -3.2439  2.8656
 8878SOL     OW38095   1.185   0.198   2.672  0.1503 -0.6198 -0.2857
 8878SOL    HW138096   1.182   0.255   2.595 -0.6928 -0.8450 -0.4171
 8878SOL    HW238097   1.118   0.235   2.730  0.4548  1.2719 -1.1245
 8879SOL     OW38098   2.553   3.662   6.995  0.4360  0.1568 -0.4285
 8879SOL    HW138099   2.590   3.582   6.956 -0.5771 -0.8748  0.7503
 8879SOL    HW238100   2.559   3.723   6.921  0.3215  2.7769  1.7263
 8880SOL     OW38101   3.851   4.208   4.844 -0.7621  0.6481  0.4414
 8880SOL    HW138102   3.856   4.273   4.774 -0.3560  0.7917  0.6044
 8880SOL    HW238103   3.941   4.176   4.844 -0.3384  1.8454 -0.4218
 8881SOL     OW38104   1.143   2.526   1.887  0.0467 -0.0023  0.5829
 8881SOL    HW138105   1.201   2.573   1.946 -0.6915 -0.1239  1.4000
 8881SOL    HW238106   1.167   2.568   1.804  0.1492 -1.8727 -0.3172
 8882SOL     OW38107   4.311   2.830   4.567 -0.0972  0.5090  0.0963
 8882SOL    HW138108   4.232   2.812   4.617 -0.6104  1.0054 -0.5222
 8882SOL    HW238109   4.380   2.829   4.633 -0.3450 -1.2991  0.3087
 8883SOL     OW38110   4.357   2.200   8.056  0.6962 -0.6882 -0.6045
 8883SOL    HW138111   4.335   2.188   7.964  3.7404 -0.0967 -1.4164
 8883SOL    HW238112   4.438   2.250   8.042  0.9392 -0.7469  0.5563
 8884SOL     OW38113   4.316   4.015   1.519  0.4323 -0.6248 -0.1878
 8884SOL    HW138114   4.260   4.012   1.441  0.7169  0.5851 -0.4282
 8884SOL    HW238115   4.355   3.928   1.521  1.5197 -0.1095  0.6763
 8885SOL     OW38116   1.842   2.905   8.114  0.0407 -0.0172 -0.1859
 8885SOL    HW138117   1.792   2.885   8.035 -0.1378  0.5358 -0.2134
 8885SOL    HW238118   1.767   2.914   8.172  0.5319  1.2546  0.2434
 8886SOL     OW38119   1.084   3.196   4.088  0.0632  0.0813  0.2225
 8886SOL    HW138120   1.066   3.251   4.164  1.4173 -0.1347  0.6973
 8886SOL    HW238121   1.178   3.180   4.100  0.2019  0.9104  0.2347
 8887SOL     OW38122   3.681   2.245   5.027 -0.1928  0.8964 -0.5637
 8887SOL    HW138123   3.682   2.307   4.955  2.0037  1.8062  0.2624
 8887SOL    HW238124   3.650   2.163   4.988  0.8108 -0.0369  0.6235
 8888SOL     OW38125   2.423   3.081   5.959  0.6397 -0.0722  0.2859
 8888SOL    HW138126   2.442   2.989   5.981  3.0030  1.0239  2.8290
 8888SOL    HW238127   2.447   3.124   6.041 -1.4545  1.8260 -0.1035
 8889SOL     OW38128   2.046   3.669   7.323  0.0680 -0.3574  0.5850
 8889SOL    HW138129   1.972   3.646   7.379  1.1686 -2.6025  1.1096
 8889SOL    HW238130   2.099   3.718   7.386  0.1476  0.3844 -0.0547
 8890SOL     OW38131   0.917   1.156  16.880  0.4145  0.0010  0.5969
 8890SOL    HW138132   0.993   1.188  16.929 -1.6874  2.9246  1.9190
 8890SOL    HW238133   0.886   1.242  16.853  0.5266 -0.1043  0.1298
 8891SOL     OW38134   2.962   0.043   7.682  0.4324 -0.1753  0.1081
 8891SOL    HW138135   2.929   4.712   7.753  0.2129 -1.2883 -0.8510
 8891SOL    HW238136   3.012   0.109   7.728  2.0137 -0.3306 -1.3908
 8892SOL     OW38137   3.670   2.395   9.248  0.1802 -0.1698  0.0951
 8892SOL    HW138138   3.656   2.489   9.233  1.2382  0.1366  1.0376
 8892SOL    HW238139   3.654   2.349   9.166 -0.9554 -1.1898  0.8864
 8893SOL     OW38140   0.841   0.615  17.629  0.3191  0.2108  0.5100
 8893SOL    HW138141   0.917   0.600  17.685  0.7426  0.9222  0.1344
 8893SOL    HW238142   0.812   0.534  17.588  0.2970 -0.4026  1.7260
 8894SOL     OW38143   3.430   3.670  10.206 -0.6288 -0.1075 -0.5758
 8894SOL    HW138144   3.410   3.629  10.122 -2.5770 -0.1016 -0.0948
 8894SOL    HW238145   3.499   3.611  10.237  0.0910  0.4005 -1.1893
 8895SOL     OW38146   3.797   4.287   7.721  0.0455  0.2442  0.1248
 8895SOL    HW138147   3.749   4.291   7.804  0.4164  1.1245  0.2976
 8895SOL    HW238148   3.886   4.264   7.747  0.0021 -0.3340 -0.2322
 8896SOL     OW38149   1.013   0.580   9.317  0.1887  0.4508  0.2782
 8896SOL    HW138150   0.975   0.666   9.331 -0.2756  0.2546  0.2066
 8896SOL    HW238151   1.000   0.527   9.396 -1.8042  3.1539  1.7567
 8897SOL     OW38152   2.430   3.312  10.924 -0.0071 -0.0209 -0.2617
 8897SOL    HW138153   2.353   3.314  10.867 -0.8618  0.5436  0.9012
 8897SOL    HW238154   2.446   3.404  10.942  3.2117 -0.5389 -0.4930
 8898SOL     OW38155   4.523   0.496   2.819  0.6620  0.5068 -0.0230
 8898SOL    HW138156   4.550   0.409   2.850 -0.4618  0.1787  0.0275
 8898SOL    HW238157   4.494   0.473   2.731 -1.8803  0.1241  0.9125
 8899SOL     OW38158   4.140   1.428   8.689  0.3475  0.1015  0.3231
 8899SOL    HW138159   4.072   1.380   8.641 -2.2495  1.5003  2.6046
 8899SOL    HW238160   4.131   1.385   8.774  1.3270  0.9454  0.8439
 8900SOL     OW38161   4.647   1.387   8.455 -0.7433  0.2113  0.2736
 8900SOL    HW138162   4.593   1.364   8.380 -1.2273 -1.5913  1.1872
 8900SOL    HW238163   0.008   1.396   8.410  0.0909  0.0487  1.8002
 8901SOL     OW38164   3.256   3.198   9.192 -0.0269  0.5873  0.1175
 8901SOL    HW138165   3.268   3.121   9.138 -0.9416 -0.4486  1.3915
 8901SOL    HW238166   3.347   3.217   9.214 -0.8433  1.7112  2.5784
 8902SOL     OW38167   3.222   1.176   8.907 -0.3527  0.0204  0.4161
 8902SOL    HW138168   3.292   1.154   8.969 -0.2699  0.1464  0.3672
 8902SOL    HW238169   3.150   1.124   8.944 -1.5293  2.8851  2.1503
 8903SOL     OW38170   3.657   2.005   2.191 -0.0221 -0.8594  1.1260
 8903SOL    HW138171   3.660   1.949   2.268  1.5271  0.1886  1.8301
 8903SOL    HW238172   3.751   2.023   2.186  0.3299 -2.2829  2.7427
 8904SOL     OW38173   3.755   0.263  17.552  0.1863 -0.1483  0.1442
 8904SOL    HW138174   3.848   0.276  17.571 -0.0084  1.2796  0.1609
 8904SOL    HW238175   3.719   0.247  17.639 -0.8689 -0.9903 -0.4501
 8905SOL     OW38176   1.870   3.398   3.509 -0.5093  0.0132 -0.6478
 8905SOL    HW138177   1.955   3.357   3.524 -0.2440  0.8611  0.1343
 8905SOL    HW238178   1.898   3.487   3.527  1.0006  0.0401 -3.2235
 8906SOL     OW38179   3.217   4.401   5.573 -0.8112 -0.0303  0.3782
 8906SOL    HW138180   3.236   4.423   5.665 -0.6013 -1.9458  0.7846
 8906SOL    HW238181   3.122   4.411   5.571 -0.9190 -1.2489 -0.4170
 8907SOL     OW38182   3.406   1.628   0.645 -0.6023  0.3923  0.2723
 8907SOL    HW138183   3.330   1.683   0.665 -0.5777  0.7228 -0.5435
 8907SOL    HW238184   3.473   1.662   0.704 -0.5201 -2.0845  1.6340
 8908SOL     OW38185   1.916   3.637   4.539 -0.9261  0.4497 -0.0421
 8908SOL    HW138186   1.881   3.588   4.613  1.0411  0.7353  1.0928
 8908SOL    HW238187   2.010   3.636   4.557 -1.0825  1.0720  0.7858
 8909SOL     OW38188   4.060   0.761   7.425  0.2338  0.8123 -0.2666
 8909SOL    HW138189   3.988   0.726   7.372  0.1861  0.3023  0.1303
 8909SOL    HW238190   4.006   0.793   7.498 -0.3275  2.4013 -1.3815
 8910SOL     OW38191   2.708   1.032   5.815 -0.0437  0.5393 -0.1854
 8910SOL    HW138192   2.691   1.118   5.776 -2.7885 -0.1185 -0.4487
 8910SOL    HW238193   2.624   1.017   5.859 -0.2405  0.1502 -0.7016
 8911SOL     OW38194   3.212   3.239   4.881  0.5015 -0.7581 -0.2856
 8911SOL    HW138195   3.273   3.250   4.954 -0.0488 -2.1317  0.3859
 8911SOL    HW238196   3.263   3.200   4.810  0.5822 -0.6185 -0.3045
 8912SOL     OW38197   2.114   3.693   6.974 -0.0736 -0.1898 -0.4736
 8912SOL    HW138198   2.019   3.682   6.979 -0.1922  0.1350 -2.1026
 8912SOL    HW238199   2.120   3.782   6.940  0.6448 -1.0235 -2.5236
 8913SOL     OW38200   1.614   4.316  14.872 -0.3058  0.3060  0.5036
 8913SOL    HW138201   1.533   4.353  14.837  1.3866 -0.0885 -3.7825
 8913SOL    HW238202   1.664   4.397  14.879  1.1005 -0.4636 -0.5043
 8914SOL     OW38203   2.923   1.011   8.761  0.3886  0.4677 -0.3922
 8914SOL    HW138204   2.874   1.060   8.695 -2.4844 -2.6609 -0.5846
 8914SOL    HW238205   2.848   1.018   8.821 -1.1186 -1.3945 -2.0520
 8915SOL     OW38206   1.074   1.390   9.994  0.3388  0.4004  0.1973
 8915SOL    HW138207   1.112   1.410  10.080 -0.8811  0.1703  0.7878
 8915SOL    HW238208   0.995   1.341  10.015 -0.1124  0.8534 -0.4397
 8916SOL     OW38209   2.671   1.415   9.231  0.0397  0.8946 -0.0765
 8916SOL    HW138210   2.660   1.320   9.230  1.7047  0.7163 -0.7016
 8916SOL    HW238211   2.585   1.455   9.218 -0.2372  0.4963  0.4825
 8917SOL     OW38212   1.486   3.343  14.987 -0.1260  0.2120  0.2035
 8917SOL    HW138213   1.534   3.424  14.970  0.9137 -0.1712  1.2928
 8917SOL    HW238214   1.410   3.380  15.031 -1.1550 -2.9956  1.1314
 8918SOL     OW38215   1.363   0.154   5.654 -0.4932 -0.4626 -0.3133
 8918SOL    HW138216   1.402   0.168   5.740  0.0947 -0.3616 -0.6013
 8918SOL    HW238217   1.446   0.132   5.611  0.8841 -1.7010  3.0230
 8919SOL     OW38218   1.457   2.602   1.982 -0.4590  0.4986  0.5764
 8919SOL    HW138219   1.464   2.589   1.888 -1.4466 -0.8196  0.6881
 8919SOL    HW238220   1.510   2.534   2.024  0.9363  0.6401 -0.9524
 8920SOL     OW38221   2.852   2.912   3.431 -0.2324  0.1921  0.2855
 8920SOL    HW138222   2.769   2.937   3.472 -0.3724  0.2411 -0.0332
 8920SOL    HW238223   2.884   2.988   3.382  2.9610 -1.8231 -0.7209
 8921SOL     OW38224   0.020   4.203   8.890  0.0184  0.4589 -0.0728
 8921SOL    HW138225   0.046   4.295   8.886  0.6470  0.4121  2.6374
 8921SOL    HW238226   0.038   4.189   8.983 -0.1105 -1.8762 -0.3884
 8922SOL     OW38227   2.119   0.908   8.196  0.3045 -0.3982  0.0164
 8922SOL    HW138228   2.112   0.816   8.220  2.0626 -0.5941 -0.2071
 8922SOL    HW238229   2.196   0.934   8.247  1.5863 -0.0368 -2.0765
 8923SOL     OW38230   1.830   4.230   8.398 -0.2654  0.7666 -0.2653
 8923SOL    HW138231   1.744   4.261   8.369 -2.1360 -2.9312  1.3952
 8923SOL    HW238232   1.892   4.294   8.363  0.8749 -0.6734 -0.8513
 8924SOL     OW38233   4.667   0.329   4.872 -0.2161  0.0738  0.3632
 8924SOL    HW138234   4.573   0.338   4.888 -0.1685  1.0780  0.0948
 8924SOL    HW238235   4.689   0.384   4.797 -0.8404 -0.1976 -0.0176
 8925SOL     OW38236   1.962   0.069  16.340 -0.1127 -0.1703  0.3611
 8925SOL    HW138237   1.954   4.702  16.371 -0.6681 -0.0867  0.4721
 8925SOL    HW238238   1.870   0.093  16.349 -0.3779 -0.5277 -1.3969
 8926SOL     OW38239   4.318   0.485   5.179 -0.1038  0.1735  0.0160
 8926SOL    HW138240   4.331   0.476   5.084 -2.9394  1.6439 -0.5011
 8926SOL    HW238241   4.409   0.465   5.203 -0.6080 -3.3011 -1.0236
 8927SOL     OW38242   2.121   2.527   2.624 -0.3288 -0.0040 -0.3944
 8927SOL    HW138243   2.061   2.549   2.696  1.0002 -1.5053  1.1760
 8927SOL    HW238244   2.160   2.450   2.665 -0.5952  0.3517  0.5377
 8928SOL     OW38245   1.704   1.865   9.410 -0.0333  0.3082 -0.2126
 8928SOL    HW138246   1.745   1.836   9.491 -0.8434  0.7235  0.3441
 8928SOL    HW238247   1.779   1.843   9.355  2.2248 -0.5739  3.2320
 8929SOL     OW38248   4.026   0.999  16.878 -0.1791  0.0813 -0.1148
 8929SOL    HW138249   4.120   0.988  16.867 -0.6061 -0.5129 -3.2703
 8929SOL    HW238250   4.002   0.915  16.838  0.1618  0.8479 -1.9298
 8930SOL     OW38251   1.242   3.716   6.112 -0.8764 -0.2377  0.2159
 8930SOL    HW138252   1.210   3.803   6.137 -0.3397 -0.7538  2.7562
 8930SOL    HW238253   1.336   3.725   6.101 -0.8440  0.7878  1.2985
 8931SOL     OW38254   2.178   2.234  12.266  0.1906 -0.6484 -0.3092
 8931SOL    HW138255   2.103   2.284  12.231 -0.0479  1.4579  3.2279
 8931SOL    HW238256   2.141   2.156  12.308  0.0799  1.1295  2.9213
 8932SOL     OW38257   0.088   2.665  17.364  0.0585 -0.5656  0.0372
 8932SOL    HW138258   0.167   2.651  17.312 -0.1060 -1.8481  0.1427
 8932SOL    HW238259   0.047   2.743  17.326  2.3114  1.5491  1.9340
 8933SOL     OW38260   2.651   1.089   5.153  0.0051 -0.0966  0.1412
 8933SOL    HW138261   2.669   0.999   5.181  0.5394  1.0496  3.4802
 8933SOL    HW238262   2.703   1.087   5.073  2.3102  0.0808  1.6179
 8934SOL     OW38263   3.771   4.157   6.225 -0.1933  0.2635  0.1326
 8934SOL    HW138264   3.785   4.129   6.315 -1.1126  0.7008  0.4093
 8934SOL    HW238265   3.859   4.174   6.190  0.5839 -2.0558  0.9656
 8935SOL     OW38266   2.513   1.200   8.142 -0.3683 -0.8913 -0.6193
 8935SOL    HW138267   2.501   1.126   8.082 -1.6963 -1.3866  0.2371
 8935SOL    HW238268   2.602   1.224   8.115 -0.0955 -1.3741 -0.1441
 8936SOL     OW38269   0.267   4.020   1.078  0.5694  0.8455  0.2489
 8936SOL    HW138270   0.292   4.096   1.025 -0.9897  1.2155  0.0527
 8936SOL    HW238271   0.209   4.058   1.143 -0.0123 -0.2560  0.3642
 8937SOL     OW38272   0.850   0.560   2.813 -0.1262 -0.0243  0.3367
 8937SOL    HW138273   0.777   0.617   2.788 -1.9260 -3.7985 -2.8572
 8937SOL    HW238274   0.908   0.625   2.853  0.1872 -2.3816  3.7308
 8938SOL     OW38275   1.371   0.797  16.478 -0.1851 -0.0029  0.8628
 8938SOL    HW138276   1.410   0.795  16.566  0.0300 -1.4594  0.7298
 8938SOL    HW238277   1.323   0.879  16.491  0.2783  0.4194 -0.0374
 8939SOL     OW38278   0.914   3.419   0.818  0.1510  0.3703 -0.1257
 8939SOL    HW138279   0.894   3.421   0.912  2.5982  1.5844  0.3851
 8939SOL    HW238280   1.009   3.408   0.822  0.0673 -0.6019 -1.0250
 8940SOL     OW38281   1.816   4.254   8.096  0.0375  0.3591 -0.5181
 8940SOL    HW138282   1.801   4.234   8.004  0.2151 -0.2552 -0.4134
 8940SOL    HW238283   1.771   4.339   8.102  0.5088  0.4544  2.1393
 8941SOL     OW38284   2.748   2.206   3.542 -0.2691  0.9423 -0.3581
 8941SOL    HW138285   2.838   2.229   3.566 -0.3188  0.4006  0.3542
 8941SOL    HW238286   2.758   2.122   3.498 -2.0298  2.0501 -2.8315
 8942SOL     OW38287   3.015   0.430   6.970  0.5175 -0.0417  0.3256
 8942SOL    HW138288   3.019   0.512   7.020  0.7807  1.0626 -1.5046
 8942SOL    HW238289   3.043   0.464   6.885 -1.0603 -2.3754 -1.1156
 8943SOL     OW38290   3.869   2.225   3.148  0.3212 -0.0981 -0.4722
 8943SOL    HW138291   3.874   2.131   3.168  0.8588 -0.0868 -0.5492
 8943SOL    HW238292   3.900   2.255   3.233 -0.7803  0.7798 -0.3959
 8944SOL     OW38293   0.178   3.332  17.015  0.0794 -0.2564 -0.6376
 8944SOL    HW138294   0.129   3.342  17.097 -0.8531 -2.3232 -0.9358
 8944SOL    HW238295   0.210   3.245  17.038 -4.1511 -1.0439  2.4559
 8945SOL     OW38296   2.613   0.138   4.084 -0.0977  0.0009  0.2665
 8945SOL    HW138297   2.523   0.166   4.069 -0.7160 -2.6309 -0.8657
 8945SOL    HW238298   2.658   0.213   4.123 -1.0301  0.2426  0.8851
 8946SOL     OW38299   3.287   1.320  13.745 -0.1899  0.0190  0.0964
 8946SOL    HW138300   3.348   1.363  13.686  0.7291  1.8276  2.3405
 8946SOL    HW238301   3.242   1.257  13.689 -0.2145  1.1164 -1.1085
 8947SOL     OW38302   0.063   0.569   8.020  0.3469 -0.2696 -0.4224
 8947SOL    HW138303   4.700   0.531   8.007 -0.1146  1.0620 -1.2583
 8947SOL    HW238304   0.068   0.583   8.115  0.4230 -3.6660  0.0750
 8948SOL     OW38305   3.295   2.177   0.587 -0.5332  0.3803  0.3874
 8948SOL    HW138306   3.372   2.230   0.570 -1.0733  1.2724  0.7292
 8948SOL    HW238307   3.335   2.131   0.661 -1.4974  0.5859  1.0365
 8949SOL     OW38308   0.251   0.021   5.427  0.9975  0.0274 -0.1439
 8949SOL    HW138309   0.282   4.662   5.466  0.8473  2.1039  4.4114
 8949SOL    HW238310   0.323   0.076   5.458  0.2032  1.1860 -0.3696
 8950SOL     OW38311   4.133   3.344  14.215  0.4455 -0.1764  0.0835
 8950SOL    HW138312   4.043   3.313  14.213  1.8487 -4.0701 -1.1665
 8950SOL    HW238313   4.118   3.438  14.225 -1.8335 -0.2888 -2.5072
 8951SOL     OW38314   0.175   0.001   3.670 -0.5081 -0.5040  0.8766
 8951SOL    HW138315   0.256   4.699   3.626 -0.4755  0.7808  0.1848
 8951SOL    HW238316   0.206   0.023   3.758  0.2106  0.1750  0.4539
 8952SOL     OW38317   3.422   4.477  12.303 -0.7723 -0.0766 -0.0409
 8952SOL    HW138318   3.422   4.523  12.387  1.3488  0.7495 -0.5044
 8952SOL    HW238319   3.516   4.463  12.293 -0.6758 -1.2923  2.4335
 8953SOL     OW38320   0.479   1.644   0.348 -0.6795 -0.4638 -0.6074
 8953SOL    HW138321   0.435   1.713   0.398  0.0411 -0.7768  0.4465
 8953SOL    HW238322   0.431   1.564   0.367  2.0336 -1.2067  3.2095
 8954SOL     OW38323   1.387   3.086  15.625 -0.2170  0.4651 -0.2764
 8954SOL    HW138324   1.347   3.142  15.559  1.0150  1.8076  0.1233
 8954SOL    HW238325   1.382   3.002  15.579 -1.6288 -1.0982  2.7482
 8955SOL     OW38326   3.651   1.049   3.200 -0.0234 -0.6194 -0.1593
 8955SOL    HW138327   3.645   0.966   3.246 -0.6831 -0.6921 -0.3755
 8955SOL    HW238328   3.740   1.046   3.165 -0.8806  0.4316 -2.4377
 8956SOL     OW38329   3.897   1.167  17.063 -0.0394 -0.0149 -0.4357
 8956SOL    HW138330   3.947   1.109  17.006  0.0318 -1.4112  1.0332
 8956SOL    HW238331   3.876   1.101  17.129 -0.3573  0.8856  0.3854
 8957SOL     OW38332   0.914   4.075   4.909 -0.4186  0.1492  0.1034
 8957SOL    HW138333   0.843   4.130   4.942  0.8961  1.6878  0.3625
 8957SOL    HW238334   0.902   4.079   4.814  0.1121  2.3276  0.1400
 8958SOL     OW38335   2.357   0.497  12.265 -0.4153  0.8308 -0.0130
 8958SOL    HW138336   2.410   0.427  12.304 -0.5172  0.2805 -0.8474
 8958SOL    HW238337   2.319   0.532  12.345 -0.2497  0.7879  0.0835
 8959SOL     OW38338   0.459   4.592   2.854 -0.6444 -0.9715 -0.0446
 8959SOL    HW138339   0.547   4.566   2.881 -0.3442  0.0333 -0.0793
 8959SOL    HW238340   0.480   4.617   2.764  0.1315  0.3834  0.5111
 8960SOL     OW38341   3.509   2.591   8.913 -0.3318  0.3861  0.1136
 8960SOL    HW138342   3.546   2.503   8.921 -2.0820 -0.1942  1.8245
 8960SOL    HW238343   3.569   2.635   8.854 -0.1657  1.0004  0.7323
 8961SOL     OW38344   0.905   2.685  12.930 -0.0764 -0.0997 -0.3892
 8961SOL    HW138345   0.955   2.743  12.873 -1.0356 -0.0251 -1.1544
 8961SOL    HW238346   0.906   2.735  13.012  1.8975 -0.6303 -0.0983
 8962SOL     OW38347   0.105   0.967   0.882  0.1234 -0.3634 -0.1114
 8962SOL    HW138348   0.198   0.950   0.872 -0.2560 -2.8550  0.7060
 8962SOL    HW238349   0.099   1.053   0.924  1.3343 -0.5557  0.4595
 8963SOL     OW38350   4.654   3.689  16.410  0.2934  0.1935  0.7600
 8963SOL    HW138351   4.704   3.646  16.479  0.2324  1.3339  1.5226
 8963SOL    HW238352   0.004   3.717  16.356 -0.2059 -0.6124 -0.3588
 8964SOL     OW38353   0.564   0.737   5.574 -0.0963  0.3464 -0.2809
 8964SOL    HW138354   0.601   0.761   5.658  1.1126  0.5654 -0.8670
 8964SOL    HW238355   0.649   0.743   5.530 -0.9288 -0.3288 -2.0018
 8965SOL     OW38356   4.611   0.022   4.735 -0.1168 -0.1783  0.1794
 8965SOL    HW138357   4.557   0.083   4.684  0.0107 -0.8361 -0.7466
 8965SOL    HW238358   4.675   0.084   4.770  1.9783 -1.8218 -0.7352
 8966SOL     OW38359   0.466   3.194   8.834 -0.1448  0.3727  0.7649
 8966SOL    HW138360   0.422   3.126   8.886 -3.2755  1.3513 -0.5905
 8966SOL    HW238361   0.430   3.279   8.859 -1.3320  0.1763 -0.2514
 8967SOL     OW38362   4.171   4.625   6.094 -0.6723 -0.2546 -0.1696
 8967SOL    HW138363   4.106   4.615   6.024 -2.3028  0.8377  1.1682
 8967SOL    HW238364   4.151   4.562   6.163  1.6238 -0.6480  0.1239
 8968SOL     OW38365   4.227   0.277  15.054  0.2977 -0.5078 -0.5121
 8968SOL    HW138366   4.266   0.191  15.038 -0.2218 -0.8340 -0.0049
 8968SOL    HW238367   4.143   0.261  15.096  0.8507  1.0910  1.2525
 8969SOL     OW38368   0.823   2.059   8.629 -0.2546  0.4700  0.1918
 8969SOL    HW138369   0.885   2.046   8.701  0.9452  0.8208 -0.7800
 8969SOL    HW238370   0.828   1.968   8.598 -0.7849  0.4048  0.2925
 8970SOL     OW38371   2.919   0.775   2.742  0.0154  0.1839  0.4044
 8970SOL    HW138372   2.940   0.865   2.716 -1.3136  0.2525 -0.4277
 8970SOL    HW238373   2.994   0.735   2.698 -0.7735 -0.4829 -0.3228
 8971SOL     OW38374   4.418   0.292  17.134  0.0178  0.2960 -0.4221
 8971SOL    HW138375   4.383   0.208  17.164  0.4613  1.2210  2.7801
 8971SOL    HW238376   4.483   0.251  17.077 -1.6300 -1.2315 -1.1989
 8972SOL     OW38377   2.847   1.053   4.354  0.2329 -0.4468 -0.1305
 8972SOL    HW138378   2.753   1.058   4.371  0.3747  0.9552  0.2328
 8972SOL    HW238379   2.877   1.132   4.400 -1.3708 -0.2102  0.4897
 8973SOL     OW38380   2.920   1.664   7.481 -0.6823  0.1031 -0.3671
 8973SOL    HW138381   2.994   1.722   7.497  0.1207 -0.6842 -1.2219
 8973SOL    HW238382   2.886   1.708   7.402 -0.6756  0.3101 -0.2544
 8974SOL     OW38383   2.576   3.919   0.473 -0.0199  0.2019 -0.3105
 8974SOL    HW138384   2.647   3.973   0.439 -0.2191  1.2144  0.8750
 8974SOL    HW238385   2.531   3.980   0.532 -0.1095 -1.1692  1.0330
 8975SOL     OW38386   0.221   4.709  12.018  0.4842  0.2894  0.8978
 8975SOL    HW138387   0.194   4.629  12.063  1.9199 -0.6969  0.0425
 8975SOL    HW238388   0.308   4.719  12.057  1.5534 -0.2155 -1.3122
 8976SOL     OW38389   1.597   3.946   6.468  0.3828 -0.5546 -0.3757
 8976SOL    HW138390   1.507   3.912   6.467  0.5724 -1.0828  0.4183
 8976SOL    HW238391   1.620   3.941   6.561 -0.4369 -0.5403 -0.1661
 8977SOL     OW38392   2.558   4.531  16.256 -0.2206  0.4009  0.4867
 8977SOL    HW138393   2.646   4.568  16.263  0.5072 -1.2887  0.3727
 8977SOL    HW238394   2.541   4.531  16.162 -0.0557 -0.6451  0.4571
 8978SOL     OW38395   3.040   3.339   2.247  0.5600  0.4143 -0.0188
 8978SOL    HW138396   3.067   3.409   2.188  0.1081 -0.1003 -0.8302
 8978SOL    HW238397   3.056   3.386   2.329 -0.1101  1.0507 -0.2479
 8979SOL     OW38398   3.548   2.541   2.126 -0.2639  0.1677  0.0271
 8979SOL    HW138399   3.558   2.548   2.220 -0.4396 -1.4002  0.1738
 8979SOL    HW238400   3.587   2.454   2.113 -1.6995 -0.7146  1.6889
 8980SOL     OW38401   1.442   2.157   6.199 -0.0284 -0.8236  0.2335
 8980SOL    HW138402   1.487   2.131   6.279  1.1877  0.3332 -0.0680
 8980SOL    HW238403   1.350   2.163   6.224 -0.4059 -1.6062 -0.9775
 8981SOL     OW38404   3.088   0.945   3.488 -0.4384 -0.2279 -0.0937
 8981SOL    HW138405   3.070   0.912   3.399  0.6740 -0.3720 -0.2650
 8981SOL    HW238406   3.167   0.898   3.512 -1.0072 -0.3442  1.5536
 8982SOL     OW38407   0.222   3.893   2.772 -0.5423  0.3742 -0.2265
 8982SOL    HW138408   0.205   3.834   2.698  1.8126 -0.3399 -0.1957
 8982SOL    HW238409   0.310   3.932   2.774 -0.3538 -0.1314  1.5317
 8983SOL     OW38410   0.828   1.950   5.590  0.2950  0.7098  0.4130
 8983SOL    HW138411   0.834   2.037   5.550 -1.1067 -1.0715 -3.7186
 8983SOL    HW238412   0.734   1.934   5.579  0.1856  1.3098  0.4521
 8984SOL     OW38413   0.113   4.474   3.806 -0.4048 -0.3049  0.0896
 8984SOL    HW138414   0.113   4.567   3.783 -0.0452 -0.0918  0.9714
 8984SOL    HW238415   0.055   4.447   3.735  0.3365 -0.3172 -0.5066
 8985SOL     OW38416   0.534   0.517   1.717  1.3070 -0.0049 -0.0326
 8985SOL    HW138417   0.620   0.481   1.735  1.4399  0.9202  1.1540
 8985SOL    HW238418   0.479   0.440   1.703 -0.8072  1.3447  0.7279
 8986SOL     OW38419   0.233   0.364   4.009 -0.0389 -0.0553  0.0509
 8986SOL    HW138420   0.207   0.301   4.075 -1.5600 -1.2197 -1.6538
 8986SOL    HW238421   0.314   0.319   3.985 -0.1308 -0.4548  0.4859
 8987SOL     OW38422   2.680   0.433   7.346  0.7391  0.7092 -0.6705
 8987SOL    HW138423   2.748   0.468   7.404  0.1579  2.2055 -0.8961
 8987SOL    HW238424   2.739   0.393   7.282  2.7542  1.8222  0.4873
 8988SOL     OW38425   2.123   3.683   3.374  0.4121 -0.3006  0.6103
 8988SOL    HW138426   2.126   3.633   3.455  0.6650  0.0720  0.8324
 8988SOL    HW238427   2.216   3.707   3.375 -0.0854  1.7579 -0.9621
 8989SOL     OW38428   0.287   0.339   5.682 -0.9392  0.3948  0.0250
 8989SOL    HW138429   0.360   0.400   5.677  0.1449 -0.8473  0.7496
 8989SOL    HW238430   0.315   0.272   5.620 -1.6252  2.5987 -2.6380
 8990SOL     OW38431   2.959   1.274   6.111  0.8171  0.2596  0.5200
 8990SOL    HW138432   2.869   1.243   6.122  0.0686  1.6836 -1.5448
 8990SOL    HW238433   2.965   1.354   6.162  2.0257  0.2259  0.4163
 8991SOL     OW38434   1.891   2.081   5.033 -0.3723 -0.0670  0.3330
 8991SOL    HW138435   1.819   2.105   4.975 -0.1279 -1.1435 -0.4144
 8991SOL    HW238436   1.974   2.096   4.987 -0.2560  0.9666  0.8670
 8992SOL     OW38437   3.295   2.335   5.943 -0.3662  0.0567  0.0301
 8992SOL    HW138438   3.298   2.428   5.920  0.6021  0.0526  0.1410
 8992SOL    HW238439   3.375   2.325   5.995  0.1794  0.5259 -0.7203
 8993SOL     OW38440   4.316   2.068   8.492 -0.0571  0.3757 -0.0421
 8993SOL    HW138441   4.310   1.996   8.555 -0.1786  0.9781  0.6410
 8993SOL    HW238442   4.406   2.046   8.468  0.4523  0.4884  1.7525
 8994SOL     OW38443   1.870   1.747   6.423 -0.2533 -0.1099 -0.3733
 8994SOL    HW138444   1.815   1.683   6.468 -1.0519  1.8945  1.5123
 8994SOL    HW238445   1.923   1.781   6.496 -0.0316 -0.0428 -0.5657
 8995SOL     OW38446   2.349   0.633  15.812  0.3996  0.1197 -0.1113
 8995SOL    HW138447   2.256   0.640  15.837 -0.2372  0.4574 -2.5808
 8995SOL    HW238448   2.354   0.540  15.788  0.2201 -0.3388  1.5812
 8996SOL     OW38449   3.191   0.753   6.356  0.0142  0.4640 -0.6838
 8996SOL    HW138450   3.173   0.827   6.298  0.6074  1.6196  0.6099
 8996SOL    HW238451   3.282   0.766   6.384  0.4926 -0.3584 -1.8627
 8997SOL     OW38452   4.268   3.894   3.080 -0.6627 -0.5673  0.0117
 8997SOL    HW138453   4.333   3.909   3.011  0.5616 -0.4473  1.1989
 8997SOL    HW238454   4.323   3.867   3.153 -1.4750  0.5985  1.0498
 8998SOL     OW38455   1.206   1.288   3.226 -0.1024 -0.0413  0.0471
 8998SOL    HW138456   1.261   1.228   3.176 -0.5375 -0.2984 -0.1259
 8998SOL    HW238457   1.267   1.314   3.295 -0.3002  3.6009 -1.1428
 8999SOL     OW38458   4.306   2.135   7.016 -0.6660 -0.2797  0.0535
 8999SOL    HW138459   4.311   2.045   7.046 -0.9935  0.8595  3.5074
 8999SOL    HW238460   4.349   2.187   7.084 -0.9790 -0.4196  0.3586
 9000SOL     OW38461   3.949   0.347   7.269  0.5956  0.1661  0.1294
 9000SOL    HW138462   3.882   0.278   7.263  0.2770  0.5921 -1.0690
 9000SOL    HW238463   3.989   0.339   7.356 -1.5172  0.9337  1.1668
 9001SOL     OW38464   2.299   0.526   7.699  0.2583 -0.4724  0.0888
 9001SOL    HW138465   2.389   0.556   7.716  1.2509 -3.3767 -0.1524
 9001SOL    HW238466   2.299   0.542   7.605  2.1626  0.1041  0.1810
 9002SOL     OW38467   3.344   3.549  13.642  0.0332  0.0902  0.0693
 9002SOL    HW138468   3.277   3.594  13.693  0.8870  2.4748 -0.9239
 9002SOL    HW238469   3.397   3.502  13.706  2.0399  1.8246 -0.3171
 9003SOL     OW38470   4.520   4.131   9.584  0.4376  1.0751 -0.0148
 9003SOL    HW138471   4.434   4.089   9.574  1.3352 -1.0766  1.1335
 9003SOL    HW238472   4.515   4.153   9.677 -1.1127 -4.1015  1.1403
 9004SOL     OW38473   2.597   3.185   7.918  0.7173 -0.4575 -0.2438
 9004SOL    HW138474   2.504   3.192   7.897  0.6814  2.3616  0.7521
 9004SOL    HW238475   2.646   3.218   7.843  2.4718 -2.9533 -0.2050
 9005SOL     OW38476   4.265   3.274   4.216 -0.3410 -0.6720 -0.2626
 9005SOL    HW138477   4.290   3.347   4.273  0.0977 -0.4525 -0.7404
 9005SOL    HW238478   4.350   3.270   4.174  0.0033  0.0785  0.3584
 9006SOL     OW38479   2.963   0.312   4.920  0.9939 -0.3451 -0.2614
 9006SOL    HW138480   2.873   0.286   4.941  1.0688 -0.6637 -0.3339
 9006SOL    HW238481   2.955   0.406   4.936  0.9592 -0.1875 -1.2377
 9007SOL     OW38482   4.267   2.987   7.843 -0.0501 -0.1663  0.1552
 9007SOL    HW138483   4.265   2.913   7.783  0.9551  0.2275 -0.3669
 9007SOL    HW238484   4.349   3.031   7.819 -1.5934  2.6005 -0.0758
 9008SOL     OW38485   3.950   4.470  12.294  0.1841  0.1603  0.3119
 9008SOL    HW138486   3.983   4.413  12.364 -0.7101  1.7258  2.0151
 9008SOL    HW238487   3.972   4.558  12.324  1.3031  0.9233 -2.7557
 9009SOL     OW38488   3.604   2.571   4.362 -0.1273  0.4163  0.2393
 9009SOL    HW138489   3.547   2.639   4.399 -2.0488 -0.6516 -0.7485
 9009SOL    HW238490   3.536   2.518   4.321  0.5553 -0.7739  0.6380
 9010SOL     OW38491   1.913   4.292  11.162  0.3055  0.0409 -0.0057
 9010SOL    HW138492   1.993   4.270  11.210  1.8943  2.1915 -1.7010
 9010SOL    HW238493   1.918   4.227  11.092  0.8511 -0.3644  0.4022
 9011SOL     OW38494   1.059   0.874  16.488 -0.1502  0.0577  0.0569
 9011SOL    HW138495   1.054   0.870  16.393  1.5569  1.9270 -0.1080
 9011SOL    HW238496   0.971   0.896  16.519 -0.4207 -2.1835  0.9166
 9012SOL     OW38497   0.386   2.696   7.188 -0.0967 -0.3978  0.2402
 9012SOL    HW138498   0.460   2.742   7.228  0.7605 -2.2795  0.8390
 9012SOL    HW238499   0.405   2.607   7.216  0.1575  0.1572  1.8212
 9013SOL     OW38500   2.492   3.519   5.243  0.2925 -0.1149  0.7556
 9013SOL    HW138501   2.548   3.577   5.295  1.5001 -0.2739 -0.3757
 9013SOL    HW238502   2.490   3.567   5.161  0.0802  2.0234  2.0332
 9014SOL     OW38503   0.334   1.905   7.014 -0.0373  0.1688  0.2037
 9014SOL    HW138504   0.297   1.977   6.964 -0.9295 -0.0046  0.6112
 9014SOL    HW238505   0.421   1.935   7.040  0.1964 -0.0062 -0.3871
 9015SOL     OW38506   4.323   2.766  16.441 -0.2402 -0.4557 -0.4078
 9015SOL    HW138507   4.276   2.771  16.524 -1.5136 -2.0468 -1.0346
 9015SOL    HW238508   4.293   2.839  16.386 -2.4956 -1.4443 -0.5093
 9016SOL     OW38509   1.422   1.317   3.939  0.1234  0.5210 -0.6643
 9016SOL    HW138510   1.397   1.339   4.028  0.3134 -1.5695 -0.0927
 9016SOL    HW238511   1.456   1.228   3.941 -0.4353  0.2835 -1.7302
 9017SOL     OW38512   1.365   3.894   3.058 -0.0536 -0.4077  0.3866
 9017SOL    HW138513   1.347   3.804   3.083 -0.1592 -0.4398  0.1894
 9017SOL    HW238514   1.407   3.883   2.973 -1.2630  1.3624 -0.4406
 9018SOL     OW38515   3.104   2.318   7.656  0.5065 -0.2330 -0.1546
 9018SOL    HW138516   3.159   2.396   7.654  2.0489 -1.2577  2.4971
 9018SOL    HW238517   3.015   2.352   7.649  1.0825  1.3065  0.0738
 9019SOL     OW38518   2.439   2.223   4.738  0.3099  0.3927  0.3079
 9019SOL    HW138519   2.371   2.156   4.727 -0.8285  1.5819  0.1086
 9019SOL    HW238520   2.496   2.202   4.812  0.2960  1.2967  0.5720
 9020SOL     OW38521   0.912   1.877   0.321 -0.0319  0.1905  0.5600
 9020SOL    HW138522   0.969   1.877   0.244  0.8624  0.1042  1.2323
 9020SOL    HW238523   0.830   1.862   0.274 -0.1398  2.5620 -0.0172
 9021SOL     OW38524   2.676   2.468   3.459  0.0027  0.3048  0.0343
 9021SOL    HW138525   2.670   2.373   3.467 -2.3151  0.3822 -0.6496
 9021SOL    HW238526   2.594   2.496   3.501 -0.5185 -1.9685  0.5349
 9022SOL     OW38527   3.369   3.524  16.832 -0.4597 -0.9004  0.1888
 9022SOL    HW138528   3.340   3.612  16.855 -0.5435 -0.9105  0.1219
 9022SOL    HW238529   3.436   3.552  16.770 -2.0493 -0.7874 -1.4590
 9023SOL     OW38530   0.448   2.950   5.672 -0.0929  0.0067  0.2412
 9023SOL    HW138531   0.470   2.859   5.687  0.0445 -0.0182 -0.0974
 9023SOL    HW238532   0.435   2.946   5.577 -0.2158 -0.7709  0.2932
 9024SOL     OW38533   0.825   1.524  17.091  0.0532  0.0729  0.2610
 9024SOL    HW138534   0.817   1.443  17.142  1.3458  1.1701  2.1790
 9024SOL    HW238535   0.851   1.493  17.004 -0.4578 -1.8543  0.7944
 9025SOL     OW38536   4.583   4.407   5.995 -0.0027  0.2502 -0.1156
 9025SOL    HW138537   4.535   4.332   6.031 -0.3503 -0.8302 -2.8303
 9025SOL    HW238538   4.570   4.389   5.902 -3.4869 -2.3450  0.8808
 9026SOL     OW38539   4.346   0.762   2.079  0.2728  0.0501  0.2555
 9026SOL    HW138540   4.255   0.791   2.087  0.1105 -0.2747 -0.4584
 9026SOL    HW238541   4.391   0.837   2.120  0.9730  0.1902 -0.7709
 9027SOL     OW38542   2.867   4.407  15.497 -0.3345 -0.2606 -0.0872
 9027SOL    HW138543   2.804   4.387  15.428 -0.0073 -0.2645 -0.3842
 9027SOL    HW238544   2.923   4.331  15.480  1.3878  1.0995 -0.6152
 9028SOL     OW38545   2.152   4.029   1.628  0.1996 -0.4842  0.6802
 9028SOL    HW138546   2.139   4.119   1.659  1.4803 -0.6448  1.6546
 9028SOL    HW238547   2.133   4.046   1.536 -0.4303  2.1618  1.3051
 9029SOL     OW38548   2.223   1.459   8.326 -0.2393  0.3762 -0.3458
 9029SOL    HW138549   2.285   1.527   8.302  0.4624 -0.0960  0.1274
 9029SOL    HW238550   2.234   1.396   8.255 -3.0444  0.5098 -0.9043
 9030SOL     OW38551   1.823   2.639   4.980  0.4007 -1.0289  0.1474
 9030SOL    HW138552   1.800   2.559   4.932 -0.4941 -0.5588 -0.2098
 9030SOL    HW238553   1.918   2.639   4.972  0.4017  0.2231  0.2866
 9031SOL     OW38554   0.905   1.778   3.546  0.3150  0.3464 -0.1059
 9031SOL    HW138555   0.917   1.801   3.638 -1.9452 -3.7028  1.2227
 9031SOL    HW238556   0.999   1.762   3.531 -0.0886 -2.1577 -0.0720
 9032SOL     OW38557   3.792   1.331   0.539 -0.3338 -0.2068 -0.7055
 9032SOL    HW138558   3.862   1.344   0.603  1.0647  0.9554 -2.4703
 9032SOL    HW238559   3.841   1.311   0.459 -1.5248  2.2189 -2.0347
 9033SOL     OW38560   2.182   1.858   6.496  0.4660  0.5785 -0.2603
 9033SOL    HW138561   2.122   1.904   6.556  1.4529  0.5937  0.7212
 9033SOL    HW238562   2.267   1.901   6.508  0.9314 -0.5783  0.6365
 9034SOL     OW38563   4.671   2.849   1.696 -0.4158 -0.2615  0.6743
 9034SOL    HW138564   0.027   2.876   1.742 -0.2152  0.2954  0.0005
 9034SOL    HW238565   4.623   2.802   1.764 -1.6673  1.5757  1.0559
 9035SOL     OW38566   0.922   2.328  16.257  0.0044  0.1743 -0.0226
 9035SOL    HW138567   0.845   2.384  16.265 -1.2432 -1.6024  0.3765
 9035SOL    HW238568   0.933   2.330  16.162  1.0249 -2.4754  0.0485
 9036SOL     OW38569   4.477   0.831   9.219 -0.2706 -0.0825  0.4687
 9036SOL    HW138570   4.430   0.794   9.144 -0.4839 -1.2996  1.2054
 9036SOL    HW238571   4.460   0.769   9.290  0.8213  1.0094  1.6841
 9037SOL     OW38572   0.845   2.764   4.506 -0.3491 -0.2796  0.3031
 9037SOL    HW138573   0.905   2.691   4.491 -0.1642 -0.2345  0.8305
 9037SOL    HW238574   0.893   2.831   4.554  0.0069  2.0845 -3.2958
 9038SOL     OW38575   0.989   0.207   2.210  0.4685  0.0870  0.0550
 9038SOL    HW138576   0.949   0.171   2.131 -1.2844  0.9514  0.5401
 9038SOL    HW238577   0.926   0.271   2.242 -1.3561 -1.7040  0.0973
 9039SOL     OW38578   2.488   1.080   6.276 -0.5121  0.5582  0.1822
 9039SOL    HW138579   2.432   1.155   6.296 -0.1047  0.9716 -0.2219
 9039SOL    HW238580   2.478   1.031   6.357  2.7413 -0.8517 -0.2794
 9040SOL     OW38581   3.587   4.356  10.032 -0.4741 -0.1223 -0.0049
 9040SOL    HW138582   3.627   4.415   9.968 -0.5424  1.8218  1.7598
 9040SOL    HW238583   3.599   4.268   9.996  0.8446 -0.3079  0.9173
 9041SOL     OW38584   0.052   2.343   7.989 -0.1593  0.5043  0.1597
 9041SOL    HW138585   0.121   2.318   8.051 -1.4698 -1.8227  0.7052
 9041SOL    HW238586   4.694   2.347   8.039 -1.0155 -1.7943 -1.0090
 9042SOL     OW38587   2.921   0.963   2.492  0.5240  0.0032 -0.1928
 9042SOL    HW138588   2.879   0.962   2.406 -0.8379 -1.5293  0.4640
 9042SOL    HW238589   3.002   0.914   2.479 -0.1000 -0.9675 -0.4432
 9043SOL     OW38590   4.154   0.025   2.592 -0.2004 -0.3245  0.1341
 9043SOL    HW138591   4.168   0.119   2.604 -1.2972 -0.1306 -0.0789
 9043SOL    HW238592   4.212   4.715   2.660 -1.9054  1.1175  2.3086
 9044SOL     OW38593   3.075   3.241  10.359 -0.9631  0.1083  0.8136
 9044SOL    HW138594   3.067   3.232  10.264  2.2492 -1.7390  0.7173
 9044SOL    HW238595   3.141   3.311  10.359 -1.0819  0.2243  0.2348
 9045SOL     OW38596   1.631   2.839   7.924  0.6846  0.3904 -0.0236
 9045SOL    HW138597   1.696   2.829   7.855 -0.2520 -0.6667 -0.7464
 9045SOL    HW238598   1.585   2.919   7.897  1.7340  0.4966 -1.5257
 9046SOL     OW38599   1.253   1.522   8.191 -0.2392 -0.0871 -0.2264
 9046SOL    HW138600   1.235   1.479   8.108  0.6527  2.5991 -1.8293
 9046SOL    HW238601   1.227   1.614   8.179 -3.0657 -0.6767  1.3654
 9047SOL     OW38602   1.763   2.566  14.428  0.6028  0.4479  0.0300
 9047SOL    HW138603   1.746   2.579  14.522  1.8370 -1.5218  0.5317
 9047SOL    HW238604   1.746   2.655  14.397  0.2361  0.0971 -0.7802
 9048SOL     OW38605   2.073   4.562   2.812  0.2791 -0.6053  0.2005
 9048SOL    HW138606   2.056   4.505   2.887 -2.3454  3.0211  2.3326
 9048SOL    HW238607   1.996   4.535   2.763 -0.6080  0.9453  0.7433
 9049SOL     OW38608   1.765   1.531   2.544 -0.9251 -0.3493 -0.1506
 9049SOL    HW138609   1.843   1.493   2.505  1.8531  1.7036  3.3893
 9049SOL    HW238610   1.710   1.533   2.466  0.2035 -0.8198 -0.9467
 9050SOL     OW38611   0.432   3.158  11.787  0.5866 -0.1919  0.0584
 9050SOL    HW138612   0.388   3.164  11.702  0.1279  1.8112  0.4316
 9050SOL    HW238613   0.521   3.144  11.756  0.0794  2.1902 -2.4419
 9051SOL     OW38614   4.328   0.703   2.859 -0.4774  0.0031 -0.6495
 9051SOL    HW138615   4.364   0.620   2.828  0.7664  0.2557  0.1288
 9051SOL    HW238616   4.369   0.773   2.808 -0.2595 -0.2072 -0.7577
 9052SOL     OW38617   3.477   0.284   3.793 -0.6694 -0.5136  0.5783
 9052SOL    HW138618   3.411   0.241   3.848 -1.6179 -1.2438 -1.1405
 9052SOL    HW238619   3.500   0.366   3.838  1.0657 -0.3694 -0.5681
 9053SOL     OW38620   3.736   3.984   8.817  0.2208 -0.0990 -0.1125
 9053SOL    HW138621   3.672   3.948   8.879 -0.0353 -0.5700 -0.6490
 9053SOL    HW238622   3.703   3.952   8.733  0.8172  3.4195 -1.6932
 9054SOL     OW38623   3.475   1.491   8.205  0.8272  0.0683  0.5393
 9054SOL    HW138624   3.517   1.576   8.200 -0.6638  0.7179 -0.9678
 9054SOL    HW238625   3.470   1.488   8.300 -0.5258 -0.6087  0.4383
 9055SOL     OW38626   0.155   1.494   9.696 -0.6161 -0.0347 -0.1421
 9055SOL    HW138627   0.098   1.441   9.752  0.9787 -1.4736  0.0989
 9055SOL    HW238628   0.185   1.550   9.768 -4.5252  0.1595  1.3829
 9056SOL     OW38629   2.312   2.126  12.033 -0.5118 -0.1833 -0.2859
 9056SOL    HW138630   2.324   2.136  12.128  0.0154  1.5046 -0.5350
 9056SOL    HW238631   2.218   2.146  12.029 -0.7935 -1.5595 -0.5967
 9057SOL     OW38632   2.539   3.593   7.765 -0.1783  0.1739 -0.3030
 9057SOL    HW138633   2.470   3.636   7.714 -0.5417 -2.4259 -1.9725
 9057SOL    HW238634   2.552   3.662   7.831 -0.3610 -0.0844  0.0064
 9058SOL     OW38635   4.388   4.221   5.533 -0.2677 -0.1063  0.4443
 9058SOL    HW138636   4.386   4.128   5.552  2.2789 -0.2196  0.1829
 9058SOL    HW238637   4.293   4.230   5.534 -0.2686  0.1782 -1.5650
 9059SOL     OW38638   3.277   2.492   1.651 -0.0050 -0.3601  0.2413
 9059SOL    HW138639   3.200   2.436   1.637  1.0300 -1.3121 -1.5480
 9059SOL    HW238640   3.246   2.579   1.623 -0.5406  0.5737  3.6492
 9060SOL     OW38641   3.600   1.533  10.990 -0.6444  0.7297  0.3635
 9060SOL    HW138642   3.533   1.600  11.001 -1.6677 -0.0966 -0.9183
 9060SOL    HW238643   3.598   1.527  10.894  1.0065 -2.0573  0.4816
 9061SOL     OW38644   2.068   2.756   8.177 -0.3557 -0.3180 -0.2866
 9061SOL    HW138645   2.006   2.829   8.175 -3.3284 -2.8744 -0.4252
 9061SOL    HW238646   2.010   2.684   8.155 -0.6501 -0.6574  1.5748
 9062SOL     OW38647   2.780   1.212   3.712 -0.4977  0.2821  0.4146
 9062SOL    HW138648   2.809   1.124   3.688 -0.3453  1.0486 -2.2073
 9062SOL    HW238649   2.720   1.236   3.641 -0.5948 -0.1738  0.3454
 9063SOL     OW38650   0.480   1.253   1.355  0.0191 -0.4137  0.0255
 9063SOL    HW138651   0.521   1.250   1.441  0.7006  2.6656 -0.1770
 9063SOL    HW238652   0.526   1.326   1.312 -1.1708  0.7165  0.6597
 9064SOL     OW38653   2.837   2.353  13.834 -0.1668  0.2739  0.1776
 9064SOL    HW138654   2.782   2.275  13.839 -0.5460  0.5113 -0.2791
 9064SOL    HW238655   2.909   2.322  13.888  1.1640  0.5980 -1.4265
 9065SOL     OW38656   3.629   0.271   2.967 -0.0751  0.0540 -0.1831
 9065SOL    HW138657   3.652   0.324   3.043 -1.9563  1.5382 -0.6519
 9065SOL    HW238658   3.685   0.314   2.903  0.3023 -2.9972 -1.9481
 9066SOL     OW38659   1.015   1.278   8.356 -0.2834 -0.3220  0.3950
 9066SOL    HW138660   1.036   1.303   8.446  2.2557  2.9230 -1.1219
 9066SOL    HW238661   1.092   1.242   8.311  0.2063 -0.6515  1.5017
 9067SOL     OW38662   1.691   2.428   6.321  0.0014  0.4247 -0.0383
 9067SOL    HW138663   1.757   2.488   6.285 -0.2108  1.9849  2.1812
 9067SOL    HW238664   1.731   2.345   6.295 -1.9775 -1.7400  3.8633
 9068SOL     OW38665   4.555   4.607   4.141 -0.2661 -0.5327 -0.3515
 9068SOL    HW138666   4.538   4.698   4.164  2.0963 -0.4101  0.8878
 9068SOL    HW238667   4.594   4.565   4.218 -0.4527  0.2770  0.1851
 9069SOL     OW38668   0.049   2.662   6.768 -0.2747  0.9356  0.0982
 9069SOL    HW138669   4.712   2.588   6.766  2.3453 -1.2425  1.2366
 9069SOL    HW238670   0.014   2.733   6.822 -0.0400  1.2299 -0.1376
 9070SOL     OW38671   3.381   0.058   5.052  0.2079 -0.1147 -0.0601
 9070SOL    HW138672   3.299   0.109   5.053 -0.2228 -0.8360  1.6399
 9070SOL    HW238673   3.353   4.699   5.091 -0.1198  0.2245  0.4231
 9071SOL     OW38674   3.369   0.797   4.518 -0.5079  0.5009 -0.4387
 9071SOL    HW138675   3.285   0.830   4.487 -1.2403 -0.7233  0.2177
 9071SOL    HW238676   3.415   0.787   4.435  1.7091  1.7094  0.6502
 9072SOL     OW38677   0.799   3.741   5.479 -0.2611 -0.0913  0.0125
 9072SOL    HW138678   0.772   3.681   5.548  2.7400 -2.6682 -1.0228
 9072SOL    HW238679   0.793   3.826   5.521 -1.6121  0.3628 -1.1006
 9073SOL     OW38680   0.761   3.032   3.404 -0.4118 -0.0061 -0.1283
 9073SOL    HW138681   0.749   3.092   3.478  0.3832 -0.2759  0.2189
 9073SOL    HW238682   0.769   2.947   3.448 -1.1347 -0.2870 -0.5397
 9074SOL     OW38683   3.677   0.847  16.815  0.0965 -0.1966 -0.4287
 9074SOL    HW138684   3.610   0.821  16.752  2.9699  0.1953 -3.6393
 9074SOL    HW238685   3.693   0.939  16.791 -1.0891 -0.0764 -0.7301
 9075SOL     OW38686   1.616   0.510   0.569 -0.4602  0.0332 -0.5450
 9075SOL    HW138687   1.601   0.455   0.646  2.1013  0.4564  0.2694
 9075SOL    HW238688   1.681   0.569   0.608  1.9059 -2.7825 -0.1875
 9076SOL     OW38689   0.975   2.398   8.693 -0.1011  0.9068 -0.0793
 9076SOL    HW138690   1.014   2.470   8.643 -2.7777  1.7682 -0.9386
 9076SOL    HW238691   1.039   2.328   8.685 -0.1986  0.7988  0.0784
 9077SOL     OW38692   2.514   4.244  11.298 -0.1443  0.1563  0.2375
 9077SOL    HW138693   2.518   4.158  11.338 -0.5195  1.4178  2.9870
 9077SOL    HW238694   2.606   4.267  11.284  0.2587 -1.3123  0.5303
 9078SOL     OW38695   3.838   3.927   3.497 -0.2705 -0.1846 -0.6885
 9078SOL    HW138696   3.847   3.835   3.524  0.0184  0.1350  0.2906
 9078SOL    HW238697   3.881   3.923   3.412  0.3682 -2.5514 -0.2566
 9079SOL     OW38698   2.304   4.438   5.442  0.1515  0.5192  0.1382
 9079SOL    HW138699   2.394   4.448   5.411 -0.5565 -0.7323 -2.2603
 9079SOL    HW238700   2.301   4.343   5.431  0.7242  0.5293 -0.1371
 9080SOL     OW38701   1.799   0.451   8.130  0.0358 -0.2588  0.5042
 9080SOL    HW138702   1.710   0.482   8.110 -0.1136 -2.1490 -1.7849
 9080SOL    HW238703   1.768   0.362   8.147 -0.1052 -0.1184  1.0055
 9081SOL     OW38704   4.117   1.555  15.206 -0.0321  0.3711  0.7425
 9081SOL    HW138705   4.195   1.538  15.153  0.1985 -0.0170  1.1953
 9081SOL    HW238706   4.155   1.548  15.294 -1.8333 -2.0120  1.3370
 9082SOL     OW38707   2.220   2.118   3.332  0.0489  0.1575  0.0896
 9082SOL    HW138708   2.167   2.163   3.265 -2.2991 -0.0762  1.7972
 9082SOL    HW238709   2.310   2.131   3.300  0.9464 -3.3162  1.2031
 9083SOL     OW38710   0.932   0.840   9.377 -0.1364  0.0426 -0.6694
 9083SOL    HW138711   0.846   0.874   9.404  0.1555 -0.2503  0.6138
 9083SOL    HW238712   0.939   0.885   9.293  2.4252 -1.2468 -1.1409
 9084SOL     OW38713   1.426   0.286  11.306  0.1954 -0.1610  0.1002
 9084SOL    HW138714   1.373   0.311  11.382  1.0134 -4.9283  2.2986
 9084SOL    HW238715   1.367   0.318  11.239  1.7110  0.6692 -0.8267
 9085SOL     OW38716   1.882   4.690   4.833  1.1986 -0.1244 -0.5441
 9085SOL    HW138717   1.875   0.052   4.789  2.2062 -0.0880 -0.6313
 9085SOL    HW238718   1.974   4.677   4.810  2.1378  1.2065  2.4828
 9086SOL     OW38719   3.530   3.512  13.855 -0.1064  0.1678 -0.0812
 9086SOL    HW138720   3.559   3.592  13.811 -0.2356 -0.3618 -1.1287
 9086SOL    HW238721   3.483   3.543  13.932 -1.4855 -0.3613 -0.7052
 9087SOL     OW38722   1.742   3.772   8.793 -0.0469 -0.1637  0.0503
 9087SOL    HW138723   1.685   3.715   8.845  0.1873 -0.0696  0.4116
 9087SOL    HW238724   1.753   3.728   8.708  4.4157 -0.1362  0.6244
 9088SOL     OW38725   0.868   4.155   8.216  0.2311 -0.9374  0.5359
 9088SOL    HW138726   0.897   4.243   8.194 -0.7731 -1.2145 -1.8354
 9088SOL    HW238727   0.861   4.168   8.311  3.9098  0.0830  0.6362
 9089SOL     OW38728   3.190   3.157   2.061 -0.7495 -0.0457  0.2315
 9089SOL    HW138729   3.105   3.145   2.020 -2.1652  1.1613  2.7808
 9089SOL    HW238730   3.170   3.224   2.127 -2.5873  0.1091 -0.4981
 9090SOL     OW38731   0.628   2.158   8.988 -0.1142  0.5934  0.2239
 9090SOL    HW138732   0.680   2.227   8.948 -1.4786  0.7819 -1.2087
 9090SOL    HW238733   0.548   2.205   8.965 -0.6641 -1.4826 -2.1801
 9091SOL     OW38734   2.744   1.538   6.251 -0.3663 -0.0180  0.2047
 9091SOL    HW138735   2.732   1.513   6.343  0.0436  1.4977  0.6794
 9091SOL    HW238736   2.829   1.583   6.247  0.4393 -1.7571 -2.0099
 9092SOL     OW38737   1.240   1.032   6.917  0.3556  0.1606 -0.2871
 9092SOL    HW138738   1.164   1.088   6.902  0.3058  0.1984  0.0910
 9092SOL    HW238739   1.224   0.957   6.860 -1.4146  2.5377 -2.9245
 9093SOL     OW38740   2.219   4.322  10.868  0.2831 -0.0257 -0.4410
 9093SOL    HW138741   2.249   4.400  10.914  0.4885 -1.6582  2.2348
 9093SOL    HW238742   2.294   4.263  10.880  0.6242  0.4910 -0.0537
 9094SOL     OW38743   3.284   0.010   5.381 -0.6808 -0.1333 -0.0484
 9094SOL    HW138744   3.247   4.646   5.378  0.2231 -0.6090  2.5740
 9094SOL    HW238745   3.216   0.061   5.337 -0.3847  0.7608  0.5158
 9095SOL     OW38746   4.470   3.923   2.623  0.1054 -0.0949  0.5089
 9095SOL    HW138747   4.464   3.889   2.534  0.1252  0.2192  0.3889
 9095SOL    HW238748   4.489   3.846   2.677 -0.6847  0.3846  1.4762
 9096SOL     OW38749   0.544   3.468   7.630  0.0718  0.4469 -0.1925
 9096SOL    HW138750   0.502   3.440   7.711 -0.9471 -2.3836 -1.6876
 9096SOL    HW238751   0.511   3.409   7.562 -0.3490 -0.6352  0.9417
 9097SOL     OW38752   2.783   2.176  12.740 -0.1712 -0.4193 -0.4966
 9097SOL    HW138753   2.824   2.228  12.670  0.0025  0.4389  0.2444
 9097SOL    HW238754   2.813   2.227  12.815 -0.5655 -1.0150  0.0552
 9098SOL     OW38755   0.673   4.031   8.946 -0.9606 -0.2643 -0.2677
 9098SOL    HW138756   0.583   4.052   8.972 -1.0020  1.3238 -1.7193
 9098SOL    HW238757   0.664   3.952   8.892 -2.3525  0.7308 -1.4752
 9099SOL     OW38758   3.749   1.457   1.445 -0.4485 -0.1293 -0.1215
 9099SOL    HW138759   3.656   1.477   1.439 -0.7409 -0.9679  1.8442
 9099SOL    HW238760   3.765   1.498   1.530  0.8555 -1.0403  0.0696
 9100SOL     OW38761   3.246   2.627  14.938  0.0274 -0.1269  0.1840
 9100SOL    HW138762   3.238   2.722  14.934  0.7871  0.0345  2.5590
 9100SOL    HW238763   3.220   2.622  14.846  1.9779 -1.2318 -0.2982
 9101SOL     OW38764   3.526   4.277   0.800  0.1318  0.0958  0.2641
 9101SOL    HW138765   3.473   4.348   0.764  0.3032  1.0282  1.8224
 9101SOL    HW238766   3.466   4.241   0.865  0.8526 -1.6152 -0.0224
 9102SOL     OW38767   3.831   2.702   2.197  0.0314  0.5611  0.2483
 9102SOL    HW138768   3.797   2.788   2.171  0.2990  0.2160 -1.2774
 9102SOL    HW238769   3.880   2.680   2.118 -0.1679  1.0756 -0.0226
 9103SOL     OW38770   2.441   2.260   9.206  0.2875  0.1465 -0.6515
 9103SOL    HW138771   2.404   2.222   9.285  0.2742  2.0025  0.2387
 9103SOL    HW238772   2.375   2.327   9.186  0.6226  0.3963 -0.9341
 9104SOL     OW38773   0.089   4.448   3.017  0.0826  0.4461 -0.0980
 9104SOL    HW138774   0.111   4.504   3.091  0.8306 -0.5575  0.4408
 9104SOL    HW238775   0.167   4.396   2.997 -0.4749 -0.8776  1.1976
 9105SOL     OW38776   3.640   0.828   4.617 -0.3452  0.1393  0.2828
 9105SOL    HW138777   3.667   0.839   4.526  1.5041 -1.6822  0.6332
 9105SOL    HW238778   3.554   0.789   4.599  0.8786 -0.9352 -3.1450
 9106SOL     OW38779   0.638   2.032   1.615 -0.8966  0.5582 -0.1968
 9106SOL    HW138780   0.709   2.023   1.679 -1.3329 -0.6612  0.1029
 9106SOL    HW238781   0.680   2.080   1.544  0.9405  2.2803  2.0533
 9107SOL     OW38782   4.180   3.327   5.721 -0.1963  0.1032 -0.6146
 9107SOL    HW138783   4.222   3.277   5.790  1.5548  1.5852 -0.6025
 9107SOL    HW238784   4.123   3.261   5.682  0.7009 -1.3836  0.6147
 9108SOL     OW38785   1.510   1.227   9.235 -0.0019 -0.3992  0.1409
 9108SOL    HW138786   1.568   1.236   9.310 -1.7303 -2.5886  1.7447
 9108SOL    HW238787   1.563   1.173   9.178 -0.4845 -1.3456  0.5883
 9109SOL     OW38788   4.610   2.320   5.326 -0.2663  0.4249  0.0027
 9109SOL    HW138789   4.609   2.226   5.311  2.9881  0.4190 -0.1623
 9109SOL    HW238790   4.698   2.324   5.287  1.0046  0.4538  2.8821
 9110SOL     OW38791   0.021   1.964   3.000 -0.0872 -0.1355  0.4586
 9110SOL    HW138792   0.038   2.058   2.999 -0.8298 -0.0126 -1.2051
 9110SOL    HW238793   0.020   1.945   3.094 -0.1313  0.1414  0.5148
 9111SOL     OW38794   3.755   3.173   1.945  0.1095 -0.1884  0.3007
 9111SOL    HW138795   3.661   3.161   1.959 -0.1946  1.7383 -0.0801
 9111SOL    HW238796   3.759   3.267   1.926 -0.8188 -0.3160 -0.5228
 9112SOL     OW38797   1.480   1.698  16.666  0.0534 -0.0611  0.1844
 9112SOL    HW138798   1.498   1.612  16.628  0.2783 -1.1660  2.8069
 9112SOL    HW238799   1.501   1.676  16.756  1.7802 -1.4980 -0.5609
 9113SOL     OW38800   4.209   3.687   5.456  0.3197 -0.0501 -0.0318
 9113SOL    HW138801   4.136   3.646   5.410  0.7079 -2.6498  1.6799
 9113SOL    HW238802   4.197   3.656   5.545 -0.7273 -0.4419 -0.3157
 9114SOL     OW38803   1.439   4.653   6.124  0.5969 -0.3558 -0.0757
 9114SOL    HW138804   1.463   4.715   6.055 -0.6822 -0.7956 -0.9089
 9114SOL    HW238805   1.415   4.711   6.196 -0.1854 -1.0225  0.1988
 9115SOL     OW38806   4.010   2.162   6.852 -0.0274  0.5063 -0.0713
 9115SOL    HW138807   4.058   2.079   6.854 -0.8144  0.0595  0.3382
 9115SOL    HW238808   4.064   2.212   6.792  1.1730  1.0357  1.4440
 9116SOL     OW38809   0.088   2.668   7.235 -0.1917  0.2761  0.4516
 9116SOL    HW138810   0.178   2.663   7.202 -0.6504  1.9390 -1.0680
 9116SOL    HW238811   0.092   2.759   7.265 -0.2980  1.0688 -1.9661
 9117SOL     OW38812   2.112   4.149   8.177  0.6035  0.1648 -0.5991
 9117SOL    HW138813   2.068   4.223   8.134  1.3890  1.4489  0.8269
 9117SOL    HW238814   2.040   4.102   8.219  1.2904 -0.6514 -0.3361
 9118SOL     OW38815   3.065   3.571   5.409  0.3769  0.6976 -0.1164
 9118SOL    HW138816   3.100   3.497   5.360  0.1863  1.1998 -1.0040
 9118SOL    HW238817   3.108   3.564   5.494 -1.9773 -1.4117  0.9087
 9119SOL     OW38818   0.365   0.947   5.979 -0.4654 -0.0420  0.0464
 9119SOL    HW138819   0.336   0.989   5.898 -0.7634  0.8035  0.5829
 9119SOL    HW238820   0.443   1.000   5.992 -0.3033 -0.0345 -0.9785
 9120SOL     OW38821   1.243   2.709  11.933  0.4008 -0.0031  0.3241
 9120SOL    HW138822   1.293   2.668  12.004 -0.7720 -2.6357 -0.3546
 9120SOL    HW238823   1.237   2.795  11.974  0.3223  0.4435 -0.6291
 9121SOL     OW38824   1.023   3.388   4.915  0.0020 -0.0698 -0.2980
 9121SOL    HW138825   0.943   3.440   4.921 -0.2285 -0.5712  1.0361
 9121SOL    HW238826   1.086   3.460   4.924  0.4142 -0.4695  0.0055
 9122SOL     OW38827   4.065   2.811   3.828  0.4827  0.3823 -0.3617
 9122SOL    HW138828   4.151   2.842   3.801  0.5686 -0.5694 -1.2075
 9122SOL    HW238829   4.076   2.806   3.923  0.0841 -1.8932 -0.4400
 9123SOL     OW38830   2.954   2.641   2.844  0.1561  0.2535  0.0624
 9123SOL    HW138831   3.046   2.617   2.851 -0.2398 -1.8738 -1.7577
 9123SOL    HW238832   2.951   2.724   2.891 -2.9681  0.1833  0.0074
 9124SOL     OW38833   2.098   0.466   3.434  0.0416  0.7035  0.1586
 9124SOL    HW138834   2.078   0.556   3.462 -1.9577 -0.2418  1.7344
 9124SOL    HW238835   2.193   0.458   3.425 -0.0990  1.3563 -2.0120
 9125SOL     OW38836   0.995   0.451   9.548 -0.1691 -0.0975  0.0306
 9125SOL    HW138837   0.990   0.382   9.615 -2.0976  0.6614  0.6643
 9125SOL    HW238838   0.916   0.496   9.578 -0.8986 -0.3916 -1.4493
 9126SOL     OW38839   2.440   4.129  12.933 -0.1771 -0.3221 -0.3678
 9126SOL    HW138840   2.474   4.091  12.853 -1.4750 -1.5773 -0.3203
 9126SOL    HW238841   2.432   4.047  12.981  0.5773 -0.4416 -0.4497
 9127SOL     OW38842   1.900   0.975   7.770 -0.3112 -0.1797 -0.1276
 9127SOL    HW138843   1.937   1.005   7.687 -1.7205  0.4641 -0.5201
 9127SOL    HW238844   1.931   0.884   7.769  1.4833  0.4306  0.7159
 9128SOL     OW38845   0.530   3.568   3.516  0.2071  0.2669 -0.1905
 9128SOL    HW138846   0.570   3.608   3.594 -0.3802 -1.1677  0.8521
 9128SOL    HW238847   0.587   3.591   3.443 -0.4320  0.1477 -0.7194
 9129SOL     OW38848   2.961   3.576  10.432  0.3491 -0.1837 -0.6739
 9129SOL    HW138849   3.053   3.548  10.424  0.0563 -1.1524 -0.6568
 9129SOL    HW238850   2.903   3.518  10.382  3.2973 -3.5798 -0.2332
 9130SOL     OW38851   2.939   2.696  10.369 -0.2745 -0.0293  0.0486
 9130SOL    HW138852   2.939   2.724  10.461 -0.0317  1.0085 -0.2770
 9130SOL    HW238853   2.897   2.767  10.322  0.7146  0.0957 -0.6365
 9131SOL     OW38854   4.600   1.086  11.818  0.0179  0.0854  0.2959
 9131SOL    HW138855   4.524   1.038  11.787  0.2149 -0.0260 -0.0177
 9131SOL    HW238856   4.575   1.101  11.909 -1.3771  3.4861 -0.6475
 9132SOL     OW38857   3.632   3.514   2.725 -0.0196 -0.2824  0.2973
 9132SOL    HW138858   3.672   3.586   2.677 -0.3122 -0.7015 -0.5726
 9132SOL    HW238859   3.618   3.543   2.815  0.6576  1.5944 -0.2133
 9133SOL     OW38860   0.108   4.163  13.730 -0.1218 -1.3314  0.1728
 9133SOL    HW138861   0.198   4.143  13.755  0.7805  0.1324 -1.8366
 9133SOL    HW238862   0.091   4.252  13.760  1.7341 -0.8465 -0.1770
 9134SOL     OW38863   4.403   1.883   9.658  0.2296  0.7363 -0.8179
 9134SOL    HW138864   4.472   1.845   9.604  2.6156  1.7564  1.5013
 9134SOL    HW238865   4.336   1.814   9.658 -1.5616  2.4832 -0.8741
 9135SOL     OW38866   2.784   1.717   1.555 -0.4693 -0.5534  0.0572
 9135SOL    HW138867   2.865   1.767   1.565 -2.3400  2.0307  2.2073
 9135SOL    HW238868   2.716   1.770   1.595 -2.2615 -1.8679 -1.2718
 9136SOL     OW38869   3.240   1.976   6.483 -0.3676  0.9141 -0.0749
 9136SOL    HW138870   3.164   2.019   6.444  0.2713  1.7094 -0.4557
 9136SOL    HW238871   3.310   1.989   6.418  1.3118 -1.5100  1.2676
 9137SOL     OW38872   0.796   2.399   3.996 -0.2078  0.1836  0.1999
 9137SOL    HW138873   0.747   2.468   3.952  2.5828  1.7908 -0.4255
 9137SOL    HW238874   0.729   2.334   4.015 -0.8698  0.6420 -0.5470
 9138SOL     OW38875   1.901   2.887   8.918  0.0872  0.3330 -0.1916
 9138SOL    HW138876   1.957   2.926   8.986  1.8627 -1.9683 -0.3342
 9138SOL    HW238877   1.966   2.898   8.849 -1.9891 -0.6530 -2.2674
 9139SOL     OW38878   1.298   0.075   7.566 -0.0600  0.8510  0.0186
 9139SOL    HW138879   1.253   0.004   7.521  0.5762 -1.4985  3.0486
 9139SOL    HW238880   1.386   0.069   7.529 -0.0120 -0.1654  0.2723
 9140SOL     OW38881   0.314   0.985   1.136 -0.2053  0.3248 -0.3755
 9140SOL    HW138882   0.351   0.987   1.047  2.2105  1.1930  0.6664
 9140SOL    HW238883   0.375   1.047   1.175  1.3210 -0.5597 -1.3960
 9141SOL     OW38884   1.029   2.664  13.518 -0.0814  0.8530 -0.5697
 9141SOL    HW138885   0.946   2.659  13.566 -0.3469  1.9913 -0.9220
 9141SOL    HW238886   1.002   2.647  13.428 -0.7357  0.2025 -0.2517
 9142SOL     OW38887   2.205   3.215  17.363  0.1137 -0.3558 -0.3001
 9142SOL    HW138888   2.269   3.236  17.295 -1.9269 -0.0540 -2.1209
 9142SOL    HW238889   2.196   3.307  17.384 -0.6130 -0.7582  1.1155
 9143SOL     OW38890   0.029   1.401   6.681 -0.3492 -0.8378 -0.3570
 9143SOL    HW138891   0.040   1.374   6.772 -0.9694  3.3864  0.9777
 9143SOL    HW238892   0.084   1.335   6.639  0.0944 -0.7349  0.0810
 9144SOL     OW38893   3.639   1.965   7.676 -0.2323 -0.6288 -0.0158
 9144SOL    HW138894   3.646   1.988   7.769 -0.2982  1.3622 -0.5130
 9144SOL    HW238895   3.629   2.052   7.638  0.6706 -1.2784 -1.7069
 9145SOL     OW38896   0.012   4.381   3.562  0.2384 -0.3409 -0.3561
 9145SOL    HW138897   4.653   4.333   3.564  1.1449 -1.7769  1.8912
 9145SOL    HW238898   0.060   4.302   3.538  1.9354  0.2312  1.1897
 9146SOL     OW38899   4.597   3.454   8.128 -0.0072 -0.2344 -0.0566
 9146SOL    HW138900   4.654   3.531   8.119 -1.3695  0.7443 -0.4594
 9146SOL    HW238901   4.630   3.399   8.198  0.5418  1.7309  1.2212
 9147SOL     OW38902   0.335   4.210   2.727 -0.0229  0.5090 -0.0174
 9147SOL    HW138903   0.413   4.232   2.678  0.5490 -1.0075  0.2072
 9147SOL    HW238904   0.360   4.251   2.809  0.3709  0.1693  0.0309
 9148SOL     OW38905   3.316   3.580  12.594  0.0469 -0.4738 -0.0748
 9148SOL    HW138906   3.390   3.547  12.542 -0.1585 -1.8176  0.4933
 9148SOL    HW238907   3.246   3.601  12.532 -0.1735 -2.1250 -0.3760
 9149SOL     OW38908   1.796   1.154  13.944 -0.0401  0.5044  0.3877
 9149SOL    HW138909   1.824   1.233  13.898  0.3636 -0.2694 -0.6982
 9149SOL    HW238910   1.722   1.120  13.894 -0.6899 -0.5553  2.0789
 9150SOL     OW38911   0.934   3.390  14.940  0.8013  0.1448  0.4908
 9150SOL    HW138912   0.955   3.377  15.033 -1.1697  0.0040  0.9173
 9150SOL    HW238913   1.020   3.417  14.907  1.0476  0.3384  1.2778
 9151SOL     OW38914   0.879   3.641  11.101  0.5270  0.7330  0.1136
 9151SOL    HW138915   0.850   3.731  11.116  1.2873  0.8080  1.1289
 9151SOL    HW238916   0.853   3.632  11.009  0.1188 -2.2208  0.5117
 9152SOL     OW38917   0.439   0.664  17.305 -0.6322 -0.1785  0.8654
 9152SOL    HW138918   0.509   0.730  17.305 -0.9637  0.1866 -1.4437
 9152SOL    HW238919   0.407   0.673  17.215  0.1349 -0.2908  0.5760
 9153SOL     OW38920   0.252   3.797   3.655  0.4104 -0.1208 -0.7602
 9153SOL    HW138921   0.239   3.889   3.678  1.1327 -0.3078  0.4060
 9153SOL    HW238922   0.278   3.765   3.741 -2.8899 -2.7548 -0.7428
 9154SOL     OW38923   3.153   1.063  13.683  0.5014 -0.0559 -0.0046
 9154SOL    HW138924   3.195   1.059  13.769  0.0956 -0.1877  0.1894
 9154SOL    HW238925   3.067   1.020  13.692  1.4869 -1.5907  2.2122
 9155SOL     OW38926   1.536   0.559  15.848  0.3376  0.6533 -0.0540
 9155SOL    HW138927   1.450   0.581  15.812  0.5192  3.4123  1.1722
 9155SOL    HW238928   1.589   0.629  15.810  1.6173  0.6783  1.7886
 9156SOL     OW38929   2.278   1.901   0.965 -0.0825  0.0929  0.0908
 9156SOL    HW138930   2.317   1.830   1.016  0.0041  0.4062  0.4606
 9156SOL    HW238931   2.346   1.937   0.909  0.5487 -0.0067  0.7923
 9157SOL     OW38932   4.650   1.743   7.488 -0.9181 -0.6262 -0.0931
 9157SOL    HW138933   4.649   1.758   7.582 -2.0842 -1.8198  0.0830
 9157SOL    HW238934   4.563   1.775   7.461 -0.9991 -0.4038  0.4425
 9158SOL     OW38935   1.530   1.302   2.660  0.5252 -0.2761  0.3497
 9158SOL    HW138936   1.611   1.340   2.627 -0.4514  1.0388 -0.5227
 9158SOL    HW238937   1.511   1.381   2.710 -0.9380 -1.2654  1.3562
 9159SOL     OW38938   2.670   0.811   2.916 -0.2203  0.1775 -0.2135
 9159SOL    HW138939   2.746   0.840   2.865  0.0035 -0.1056 -0.0452
 9159SOL    HW238940   2.716   0.838   2.996 -0.1751  1.5180 -0.6857
 9160SOL     OW38941   2.048   3.167  11.660 -0.2746 -0.3115 -0.2453
 9160SOL    HW138942   1.981   3.212  11.608  1.8276  1.4367 -1.4248
 9160SOL    HW238943   2.128   3.171  11.608 -0.7604  0.5588 -0.9256
 9161SOL     OW38944   3.911   0.286   6.999 -0.0516 -0.4805  0.1052
 9161SOL    HW138945   3.918   0.345   7.074 -1.6154 -2.6840  1.9728
 9161SOL    HW238946   3.852   0.335   6.942  1.4476  0.5358 -0.5685
 9162SOL     OW38947   1.665   3.142   0.071 -0.2253 -0.0375 -0.4130
 9162SOL    HW138948   1.588   3.194   0.094  0.7642  0.3300  2.0894
 9162SOL    HW238949   1.719   3.171   0.145 -0.3981  1.8888 -1.0419
 9163SOL     OW38950   2.000   4.354  10.684 -0.0864  0.5844 -0.1694
 9163SOL    HW138951   2.076   4.334  10.740 -0.1204  0.3976 -0.1877
 9163SOL    HW238952   1.936   4.290  10.715 -0.0309  0.5675 -0.0899
 9164SOL     OW38953   1.642   2.888   8.281  0.2032 -0.0454 -0.2203
 9164SOL    HW138954   1.600   2.881   8.367  1.9363 -0.5629  0.5968
 9164SOL    HW238955   1.672   2.797   8.291 -1.5700 -0.7419 -1.2112
 9165SOL     OW38956   1.357   1.639   3.369 -0.3495 -0.4656  0.1332
 9165SOL    HW138957   1.435   1.584   3.376 -1.7350 -2.2104  2.2566
 9165SOL    HW238958   1.365   1.663   3.277 -0.1194 -0.7055  0.0906
 9166SOL     OW38959   3.907   0.734   3.049  0.2861 -0.9282  0.3521
 9166SOL    HW138960   3.990   0.771   3.019  0.8716 -1.8616  0.8281
 9166SOL    HW238961   3.884   0.787   3.125  2.6085 -1.8774  1.7129
 9167SOL     OW38962   0.574   2.434  17.382 -0.1266 -0.2164  0.2863
 9167SOL    HW138963   0.551   2.470  17.468 -1.1898 -0.8628  0.2753
 9167SOL    HW238964   0.656   2.478  17.361  0.5783 -0.2967  2.8365
 9168SOL     OW38965   2.450   1.243   2.185 -0.1048  0.5324  0.1427
 9168SOL    HW138966   2.392   1.169   2.203  2.8727 -1.3839  1.8403
 9168SOL    HW238967   2.395   1.285   2.119  0.5427  1.9674  0.5226
 9169SOL     OW38968   0.309   3.627   6.581 -0.7063 -0.3808  0.1730
 9169SOL    HW138969   0.343   3.631   6.491  0.9642  0.9765  0.8713
 9169SOL    HW238970   0.363   3.555   6.614 -0.8560 -0.0210  1.1754
 9170SOL     OW38971   1.276   2.308   3.643 -0.0918 -0.6891 -0.2379
 9170SOL    HW138972   1.248   2.373   3.707  0.5692 -1.5184  0.8995
 9170SOL    HW238973   1.362   2.344   3.617 -0.0622  0.2803  1.2395
 9171SOL     OW38974   0.483   0.196   5.545  0.3614 -0.2846  0.4157
 9171SOL    HW138975   0.542   0.131   5.506 -0.1167  0.7810 -2.0960
 9171SOL    HW238976   0.542   0.271   5.535  0.6469 -0.2462  2.4677
 9172SOL     OW38977   0.933   4.096  10.528  0.3775 -0.3493  0.3794
 9172SOL    HW138978   0.969   4.184  10.537  0.6328 -0.3843 -0.2790
 9172SOL    HW238979   1.001   4.047  10.482  1.1228  1.6732 -0.6812
 9173SOL     OW38980   2.911   1.396   4.993 -0.0183 -0.0644  0.3522
 9173SOL    HW138981   2.961   1.445   5.058 -0.7405 -0.9102  1.5407
 9173SOL    HW238982   2.956   1.313   5.010  1.7824  1.0244  0.8171
 9174SOL     OW38983   3.254   4.296   8.130 -0.1107 -0.0161 -0.2873
 9174SOL    HW138984   3.230   4.204   8.120 -0.9735  0.3006 -1.1883
 9174SOL    HW238985   3.301   4.307   8.047  3.1642 -0.9862  1.4787
 9175SOL     OW38986   4.284   4.572   6.788  0.3964 -0.2940 -0.3253
 9175SOL    HW138987   4.341   4.496   6.774  0.6314  0.3613 -2.9756
 9175SOL    HW238988   4.341   4.648   6.774 -1.8469  1.3472 -0.5621
 9176SOL     OW38989   2.218   0.571   0.970  0.3828 -0.1578  0.1627
 9176SOL    HW138990   2.216   0.662   0.940  1.3222 -1.0994 -2.7999
 9176SOL    HW238991   2.312   0.553   0.979  1.2334  3.8787 -0.9011
 9177SOL     OW38992   3.893   1.194  10.177  0.5094  0.0017 -0.1500
 9177SOL    HW138993   3.837   1.116  10.170  1.0766 -0.4860  0.7422
 9177SOL    HW238994   3.891   1.197  10.273  1.6695 -3.7171 -0.0406
 9178SOL     OW38995   4.431   0.478   2.499 -0.1162  0.1605 -0.1761
 9178SOL    HW138996   4.359   0.481   2.436 -1.5920  1.2709  1.5706
 9178SOL    HW238997   4.479   0.559   2.481  2.3013 -0.6846  2.4534
 9179SOL     OW38998   1.075   0.231  15.864 -0.4647  0.1656  0.2369
 9179SOL    HW138999   1.171   0.233  15.874 -0.3200 -1.9344 -0.7344
 9179SOL    HW239000   1.067   0.257  15.772  1.4915  0.9384  0.2643
 9180SOL     OW39001   0.200   1.240   1.345  0.1455 -0.1154  0.2426
 9180SOL    HW139002   0.291   1.257   1.370  0.5470  0.8744 -1.9099
 9180SOL    HW239003   0.181   1.330   1.321 -1.6323 -0.9933 -1.6396
 9181SOL     OW39004   0.120   1.228   6.483  0.0615  0.2399  0.1206
 9181SOL    HW139005   0.150   1.203   6.396 -0.8832  0.9849 -0.4211
 9181SOL    HW239006   0.174   1.168   6.534  1.1776  0.5860 -0.6460
 9182SOL     OW39007   3.199   3.376  16.459 -0.4481  0.2668 -0.3482
 9182SOL    HW139008   3.275   3.321  16.441  0.8167  0.8998  2.9936
 9182SOL    HW239009   3.185   3.389  16.553  1.4283 -0.1368 -0.0053
 9183SOL     OW39010   0.674   3.216   8.645  0.0188  0.4722  0.0278
 9183SOL    HW139011   0.602   3.192   8.704 -0.5822  0.6730 -0.6170
 9183SOL    HW239012   0.739   3.152   8.674 -1.2689 -0.8762 -0.0373
 9184SOL     OW39013   0.662   4.365   6.858 -0.1820 -0.3830  0.3209
 9184SOL    HW139014   0.582   4.380   6.808 -0.1150  3.3914  1.3562
 9184SOL    HW239015   0.637   4.318   6.938 -0.4762  0.8949  0.9839
 9185SOL     OW39016   4.122   4.014  11.713 -0.8655  0.1575 -0.3407
 9185SOL    HW139017   4.091   4.020  11.803 -1.3087 -0.6686 -0.4398
 9185SOL    HW239018   4.062   4.073  11.669 -0.8347  1.4893  1.4316
 9186SOL     OW39019   4.491   3.868  17.335  0.4736 -0.4275  0.1602
 9186SOL    HW139020   4.502   3.908  17.422 -0.1501  0.0966 -0.0029
 9186SOL    HW239021   4.407   3.901  17.303  1.1019  2.0175  0.9651
 9187SOL     OW39022   3.375   1.898   8.830  0.0001 -0.0168 -0.5767
 9187SOL    HW139023   3.394   1.941   8.913 -0.5095  1.1575 -1.0728
 9187SOL    HW239024   3.418   1.966   8.777 -2.5202  1.4976 -0.7005
 9188SOL     OW39025   0.000   4.444   8.066 -0.0717  0.2349 -0.1944
 9188SOL    HW139026   0.057   4.376   8.032 -2.0891 -0.9503 -1.2014
 9188SOL    HW239027   4.637   4.416   8.037  0.7337 -1.3215 -1.0995
 9189SOL     OW39028   4.472   4.410  16.510 -0.4735 -0.0851  0.0172
 9189SOL    HW139029   4.501   4.333  16.461  1.8232  1.7836 -1.5502
 9189SOL    HW239030   4.497   4.487  16.459 -0.0488 -0.0873  0.2235
 9190SOL     OW39031   0.696   0.122  15.232 -0.5512  0.6728 -0.7145
 9190SOL    HW139032   0.661   0.164  15.153  0.2911 -0.7415 -1.8471
 9190SOL    HW239033   0.778   0.086  15.197 -0.7778  0.8983 -1.4861
 9191SOL     OW39034   3.189   3.218   5.514 -0.2402  0.0546 -0.4439
 9191SOL    HW139035   3.192   3.173   5.430 -1.5702  0.2831 -0.6254
 9191SOL    HW239036   3.134   3.165   5.572 -0.4828  0.9458  0.1492
 9192SOL     OW39037   1.803   2.554  15.444  0.4624 -0.2600  0.3090
 9192SOL    HW139038   1.768   2.466  15.431  0.9180 -0.5204  0.8565
 9192SOL    HW239039   1.803   2.555  15.540  0.5252  2.9513  0.2751
 9193SOL     OW39040   4.461   1.895   6.732  0.1122  0.2223 -0.1677
 9193SOL    HW139041   4.402   1.821   6.747 -1.6193  1.0785 -2.6351
 9193SOL    HW239042   4.407   1.972   6.715  0.1075  0.7558  2.2733
 9194SOL     OW39043   4.609   3.533   7.827  0.2743  0.7446  0.1401
 9194SOL    HW139044   4.631   3.597   7.894 -0.3382  2.3268 -1.1576
 9194SOL    HW239045   4.662   3.458   7.852 -0.0676  0.6442  0.5657
 9195SOL     OW39046   4.365   3.924   7.340  0.1678  0.0050  0.2093
 9195SOL    HW139047   4.302   3.963   7.279  1.0990  1.1363 -0.0392
 9195SOL    HW239048   4.407   3.855   7.289  0.3392 -0.1578  0.5698
 9196SOL     OW39049   0.691   0.837   7.332  0.0285  0.3468  0.2820
 9196SOL    HW139050   0.599   0.844   7.357 -0.5760 -1.0725 -1.5275
 9196SOL    HW239051   0.692   0.791   7.248  3.0807  1.7966 -0.4668
 9197SOL     OW39052   2.672   4.485  14.827 -0.4016  0.1813 -0.0566
 9197SOL    HW139053   2.739   4.552  14.811  0.5789 -0.6797  0.4023
 9197SOL    HW239054   2.632   4.539  14.894 -1.3321  0.0975 -0.5509
 9198SOL     OW39055   4.491   3.541  16.737  0.3412  0.0359 -0.6373
 9198SOL    HW139056   4.583   3.548  16.765 -0.5445  0.9775  2.0538
 9198SOL    HW239057   4.446   3.549  16.821  0.2057 -2.1770 -0.5046
 9199SOL     OW39058   2.808   3.439   1.605 -0.0400 -0.6980 -0.3680
 9199SOL    HW139059   2.797   3.344   1.607  1.3747 -0.8768 -1.0439
 9199SOL    HW239060   2.873   3.451   1.674  1.1866 -0.6660 -1.5211
 9200SOL     OW39061   1.800   4.660   8.260  0.3336  0.0513 -0.1934
 9200SOL    HW139062   1.873   4.601   8.280  0.2931  0.2170  0.4485
 9200SOL    HW239063   1.786   4.685   8.352 -0.3840 -0.2019 -0.2299
 9201SOL     OW39064   2.339   2.388   1.848 -0.5692 -0.0060 -0.1768
 9201SOL    HW139065   2.388   2.346   1.918 -1.1999  0.2046  0.3869
 9201SOL    HW239066   2.267   2.432   1.894 -0.2135  0.4405 -0.0513
 9202SOL     OW39067   2.613   0.203  10.722  0.2384  0.3566 -0.3370
 9202SOL    HW139068   2.544   0.262  10.754  1.1590 -0.0939  2.4785
 9202SOL    HW239069   2.599   0.127  10.778  0.4181 -0.6624 -1.6903
 9203SOL     OW39070   1.032   2.798   6.689  0.2117 -0.1898 -0.4157
 9203SOL    HW139071   0.985   2.735   6.744  0.0155  0.6714  0.3957
 9203SOL    HW239072   1.078   2.739   6.629  4.0508  0.1955  2.1577
 9204SOL     OW39073   2.836   4.472   4.339 -0.1478  0.2835 -0.5733
 9204SOL    HW139074   2.838   4.420   4.259 -0.3530 -1.5081  0.5879
 9204SOL    HW239075   2.797   4.557   4.319 -0.7805 -0.3574 -2.0568
 9205SOL     OW39076   0.894   4.307   3.906  0.3521  0.3244  0.0823
 9205SOL    HW139077   0.939   4.260   3.836  1.7409  2.4732 -0.4618
 9205SOL    HW239078   0.920   4.398   3.893  0.0943  0.3452 -0.3017
 9206SOL     OW39079   0.978   3.392   6.101 -0.3573  0.4363 -0.2473
 9206SOL    HW139080   0.900   3.418   6.150  0.5302  1.1934  0.7760
 9206SOL    HW239081   0.946   3.320   6.047  0.9148  0.2130 -0.7013
 9207SOL     OW39082   2.234   3.158   3.948  0.1913 -0.5794  0.4866
 9207SOL    HW139083   2.155   3.134   3.900 -1.8584  2.3592  2.4120
 9207SOL    HW239084   2.245   3.078   4.000  0.3026 -1.6457 -1.1734
 9208SOL     OW39085   4.568   0.541  13.169  0.2926 -0.3727 -0.0824
 9208SOL    HW139086   4.475   0.522  13.165  0.3290 -0.1596 -2.2250
 9208SOL    HW239087   4.570   0.578  13.257 -0.3478  0.1299 -0.2829
 9209SOL     OW39088   0.143   0.482  13.525 -0.2652 -0.1381 -0.6013
 9209SOL    HW139089   0.145   0.459  13.618 -0.0747  3.2489  0.2514
 9209SOL    HW239090   0.164   0.402  13.477  2.0180  0.1385 -0.0662
 9210SOL     OW39091   0.333   0.870   2.391  0.2019 -0.5165 -1.3019
 9210SOL    HW139092   0.322   0.925   2.313  0.5182 -1.7106 -2.1841
 9210SOL    HW239093   0.328   0.784   2.350 -1.3286 -0.5853 -0.9536
 9211SOL     OW39094   4.277   1.134   1.565  0.6644  0.2493  0.1888
 9211SOL    HW139095   4.265   1.191   1.489  0.7442 -0.4826 -0.3761
 9211SOL    HW239096   4.224   1.188   1.623 -2.0541 -0.9061 -1.2366
 9212SOL     OW39097   2.530   1.341   6.144 -0.0670 -0.0339 -0.3746
 9212SOL    HW139098   2.447   1.348   6.190 -0.8874 -1.6238 -1.6283
 9212SOL    HW239099   2.584   1.413   6.177 -2.9478  1.2989  1.3813
 9213SOL     OW39100   4.112   1.395  11.472 -0.5831 -0.2729  0.4037
 9213SOL    HW139101   4.167   1.342  11.415 -1.5382  0.1723 -0.9413
 9213SOL    HW239102   4.032   1.412  11.422 -0.8603  0.4186  1.0833
 9214SOL     OW39103   0.807   2.374  10.130 -0.0396  0.4323 -0.1205
 9214SOL    HW139104   0.730   2.318  10.123 -0.0749  0.2327  1.8444
 9214SOL    HW239105   0.852   2.351  10.049 -1.4365  1.4215 -1.1886
 9215SOL     OW39106   3.356   2.944  12.328  0.2273  0.5034 -0.1262
 9215SOL    HW139107   3.391   3.014  12.383 -0.7038  0.1830  0.8848
 9215SOL    HW239108   3.403   2.952  12.245 -0.8541 -1.4445 -0.9231
 9216SOL     OW39109   3.245   4.631   8.684  0.2390 -0.3234 -0.1209
 9216SOL    HW139110   3.158   4.611   8.648  1.0642 -1.0329 -1.7167
 9216SOL    HW239111   3.251   4.560   8.748  0.3429 -1.1103 -1.0023
 9217SOL     OW39112   3.220   3.541  13.218  0.1498 -0.7998  0.6419
 9217SOL    HW139113   3.313   3.541  13.241  0.4379  1.9619 -0.4213
 9217SOL    HW239114   3.177   3.490  13.287 -2.6525 -0.6855 -1.0129
 9218SOL     OW39115   3.927   0.943   7.240 -0.4931  0.3450  0.0387
 9218SOL    HW139116   4.001   0.937   7.300 -0.2014  1.2849 -0.2352
 9218SOL    HW239117   3.887   0.862   7.271 -1.6157  1.5833  1.8492
 9219SOL     OW39118   3.711   3.771   4.547  0.4464 -0.1239  0.2171
 9219SOL    HW139119   3.787   3.811   4.506 -0.2249  0.0146 -0.8924
 9219SOL    HW239120   3.738   3.769   4.639 -0.9159  0.7955  0.6434
 9220SOL     OW39121   0.188   3.783  13.621  0.5653  0.3044  0.5790
 9220SOL    HW139122   0.282   3.800  13.632  0.3749  1.3195  0.6059
 9220SOL    HW239123   0.192   3.703  13.569  1.0192  0.2288  0.7297
 9221SOL     OW39124   4.452   0.392   7.662 -0.2714 -0.6693  0.0704
 9221SOL    HW139125   4.454   0.422   7.571  0.6106 -1.7919 -0.2786
 9221SOL    HW239126   4.417   0.305   7.645  1.2055 -1.3682  0.5481
 9222SOL     OW39127   1.761   0.566   7.532 -0.3916 -0.0980 -0.1382
 9222SOL    HW139128   1.743   0.590   7.623 -0.4843 -3.8219  0.8682
 9222SOL    HW239129   1.734   0.649   7.494 -1.8691 -1.6007 -2.3997
 9223SOL     OW39130   2.097   0.216   5.971  0.0993 -0.1513  0.0981
 9223SOL    HW139131   2.046   0.137   5.990  1.4461 -0.6300  1.6554
 9223SOL    HW239132   2.134   0.184   5.889  0.3536  1.4604 -0.4152
 9224SOL     OW39133   3.085   1.992   3.923  0.7067  0.2591 -0.6729
 9224SOL    HW139134   3.179   2.002   3.937  0.7107 -0.3897 -0.2618
 9224SOL    HW239135   3.054   1.970   4.011 -0.9696 -4.1297 -2.3656
 9225SOL     OW39136   2.965   3.229   9.720 -0.5155 -0.2066 -0.2436
 9225SOL    HW139137   2.882   3.199   9.756 -0.8542  1.2866  0.2016
 9225SOL    HW239138   2.941   3.316   9.689  1.0383  0.3568  0.1530
 9226SOL     OW39139   4.030   2.724   4.355 -0.1870  0.1359 -0.0975
 9226SOL    HW139140   4.012   2.785   4.427  1.5536  1.0207 -0.4312
 9226SOL    HW239141   3.975   2.652   4.386 -1.5238  1.9260  1.6931
 9227SOL     OW39142   1.755   0.556   7.005 -0.1469 -0.2360 -0.0149
 9227SOL    HW139143   1.685   0.492   6.991 -1.5536  1.8479 -2.5305
 9227SOL    HW239144   1.834   0.501   6.998 -1.7603 -2.4691 -0.5372
 9228SOL     OW39145   1.172   0.721  17.063  0.6554 -0.0742 -0.0574
 9228SOL    HW139146   1.089   0.734  17.109  0.3268 -0.0012 -0.6566
 9228SOL    HW239147   1.147   0.652  17.000 -2.3764  0.7150  0.2932
 9229SOL     OW39148   4.134   3.192  13.301  0.0292  0.6417  0.1200
 9229SOL    HW139149   4.162   3.241  13.378  0.3476  2.4632 -1.1701
 9229SOL    HW239150   4.120   3.106  13.342  0.0724 -0.7852 -2.8812
 9230SOL     OW39151   1.486   0.898  13.178  0.7701  0.2391  0.1258
 9230SOL    HW139152   1.500   0.804  13.189  4.7468  0.6767 -1.4161
 9230SOL    HW239153   1.408   0.900  13.234  1.2331 -0.5513  0.7880
 9231SOL     OW39154   4.541   1.238   3.806  0.0481 -0.2031  0.0073
 9231SOL    HW139155   4.501   1.311   3.854  1.8511  1.6932 -1.3488
 9231SOL    HW239156   4.623   1.279   3.778  0.1331 -1.3729 -1.4168
 9232SOL     OW39157   2.264   4.201   4.279 -0.1070  0.0926  0.4931
 9232SOL    HW139158   2.338   4.218   4.336  0.0388  2.5359 -0.4332
 9232SOL    HW239159   2.289   4.253   4.203 -0.7344  1.3285  1.1327
 9233SOL     OW39160   2.381   3.037   2.775 -0.0574 -0.6116 -0.6662
 9233SOL    HW139161   2.464   2.990   2.772 -0.8564 -2.0320 -0.4405
 9233SOL    HW239162   2.318   2.969   2.798  0.7192 -0.9592  0.4395
 9234SOL     OW39163   3.180   4.449  12.781 -0.0884 -0.1606 -0.0923
 9234SOL    HW139164   3.106   4.505  12.757  0.0242 -0.2390 -0.6154
 9234SOL    HW239165   3.139   4.364  12.768  1.5286 -1.2958  2.3141
 9235SOL     OW39166   0.295   2.791   8.102  0.0794  0.0395 -0.2960
 9235SOL    HW139167   0.288   2.734   8.179 -2.2389 -1.1336 -1.3860
 9235SOL    HW239168   0.204   2.792   8.072  0.0769  0.4419 -0.2815
 9236SOL     OW39169   0.325   2.774  11.662 -0.7673  0.1424 -0.3133
 9236SOL    HW139170   0.307   2.815  11.577 -0.8963 -0.8760 -0.7752
 9236SOL    HW239171   0.358   2.855  11.702 -1.1386 -0.4332  1.1598
 9237SOL     OW39172   1.525   0.438  16.353 -0.2307 -0.0333 -0.4984
 9237SOL    HW139173   1.613   0.476  16.362  0.3982 -0.9186 -2.9903
 9237SOL    HW239174   1.524   0.414  16.261  1.5694  3.3857 -1.4242
 9238SOL     OW39175   0.156   2.980   2.463  0.2833 -0.5423 -0.2575
 9238SOL    HW139176   0.242   2.956   2.498  0.5912  1.2103  0.1842
 9238SOL    HW239177   0.177   3.026   2.381 -0.5979  1.2747  0.5283
 9239SOL     OW39178   2.688   0.522   4.828 -0.5574 -0.3349  0.0421
 9239SOL    HW139179   2.718   0.455   4.767  0.2890 -0.1175  0.2238
 9239SOL    HW239180   2.768   0.532   4.879 -0.9159 -1.4282  0.8044
 9240SOL     OW39181   1.978   0.223   0.463  0.4168 -0.4360  0.0207
 9240SOL    HW139182   1.948   0.192   0.548 -1.9005 -1.9240 -1.3451
 9240SOL    HW239183   1.897   0.269   0.442 -0.0329 -0.9357  0.6479
 9241SOL     OW39184   0.404   0.772   7.027  0.1030 -0.0017  0.6718
 9241SOL    HW139185   0.325   0.728   6.997  1.7046 -1.3230 -1.6141
 9241SOL    HW239186   0.473   0.738   6.971 -1.3301 -1.4702 -0.1724
 9242SOL     OW39187   1.041   2.928   7.334 -0.0572 -0.3098 -0.6282
 9242SOL    HW139188   1.077   2.993   7.394 -1.2196 -0.4513  0.2239
 9242SOL    HW239189   1.103   2.856   7.336  0.6234  0.3392  1.2820
 9243SOL     OW39190   4.711   4.430   4.288 -0.3994 -0.6949 -0.0329
 9243SOL    HW139191   0.026   4.422   4.375 -1.0423 -1.3766  0.1914
 9243SOL    HW239192   4.660   4.349   4.290 -0.1635 -0.8552 -0.5359
 9244SOL     OW39193   2.818   1.472  15.207 -0.1239  0.1027 -0.2959
 9244SOL    HW139194   2.847   1.409  15.141 -0.7141 -1.2546  0.7297
 9244SOL    HW239195   2.876   1.548  15.204  1.2583 -0.9478 -0.0438
 9245SOL     OW39196   3.103   0.555  10.941  0.1756 -0.1044  0.1009
 9245SOL    HW139197   3.165   0.486  10.962  0.4253  0.3649  0.9199
 9245SOL    HW239198   3.035   0.535  11.005  2.4378  2.0421  3.1785
 9246SOL     OW39199   3.156   0.203   5.094 -0.0869 -0.2298 -0.3207
 9246SOL    HW139200   3.099   0.216   5.018  1.0991 -0.0486 -1.1859
 9246SOL    HW239201   3.086   0.193   5.159  1.9789  0.2156  1.9838
 9247SOL     OW39202   3.445   4.074  10.644  0.1014 -0.4035  0.5274
 9247SOL    HW139203   3.368   4.047  10.594 -0.9505 -0.2012  2.0484
 9247SOL    HW239204   3.415   4.161  10.669 -1.8238 -0.5257 -1.3885
 9248SOL     OW39205   0.283   0.016  15.663 -0.7888  0.1717  0.1981
 9248SOL    HW139206   0.226   0.065  15.723 -2.1016 -1.1929  0.0735
 9248SOL    HW239207   0.297   0.075  15.590  0.1352 -0.4459 -0.1290
 9249SOL     OW39208   3.315   3.847  10.388  0.4316  0.1441  0.1125
 9249SOL    HW139209   3.325   3.927  10.335  1.1028  0.7267  1.1262
 9249SOL    HW239210   3.357   3.791  10.322  1.3174  1.0227 -0.0699
 9250SOL     OW39211   2.160   3.381   0.025  0.0423  0.9352 -0.1003
 9250SOL    HW139212   2.092   3.422   0.078 -1.7308  2.2272 -3.3590
 9250SOL    HW239213   2.128   3.414  17.638 -0.3901  1.5254  0.2923
 9251SOL     OW39214   1.816   2.220   5.686 -0.1653  0.1394 -0.4342
 9251SOL    HW139215   1.837   2.313   5.679 -0.4353  0.1881 -0.5814
 9251SOL    HW239216   1.828   2.190   5.596 -0.3012  1.4031 -0.8643
 9252SOL     OW39217   4.024   4.635   2.113  0.3095 -0.3919 -0.1745
 9252SOL    HW139218   3.932   4.625   2.137  0.6412  2.7248  2.4055
 9252SOL    HW239219   4.040   4.722   2.150  0.1490 -0.3313 -0.2448
 9253SOL     OW39220   4.407   1.094  11.097 -0.7048 -0.4874 -0.2875
 9253SOL    HW139221   4.420   1.055  11.010 -1.9042 -1.4309 -0.0296
 9253SOL    HW239222   4.476   1.048  11.143 -0.4167 -1.5883 -1.8175
 9254SOL     OW39223   2.240   1.447   9.800  0.7471  0.1589  0.7871
 9254SOL    HW139224   2.208   1.390   9.729  2.6045 -1.6618  1.4287
 9254SOL    HW239225   2.314   1.496   9.766  0.2130  0.5336  0.1434
 9255SOL     OW39226   0.774   2.184  11.545 -0.6357 -0.5382 -0.4246
 9255SOL    HW139227   0.732   2.269  11.563 -1.0526 -0.9886  0.6859
 9255SOL    HW239228   0.796   2.155  11.633 -0.3421  2.5796  0.5420
 9256SOL     OW39229   2.018   0.079   3.156  0.2777 -0.2566 -0.1972
 9256SOL    HW139230   1.947   0.016   3.166 -1.1911  1.4437 -0.0424
 9256SOL    HW239231   2.092   0.021   3.173  0.7102  0.6449  0.9709
 9257SOL     OW39232   0.100   3.905  10.349 -0.2159  0.3437 -0.2923
 9257SOL    HW139233   0.187   3.915  10.387 -0.1380 -0.0857 -0.3601
 9257SOL    HW239234   0.115   3.953  10.268  1.5318 -0.2794 -0.3349
 9258SOL     OW39235   1.420   0.981   8.158  0.1953  0.4437 -0.2058
 9258SOL    HW139236   1.507   0.951   8.183 -0.6209 -2.6794 -0.9914
 9258SOL    HW239237   1.439   0.981   8.065  0.3440 -1.9703 -0.1881
 9259SOL     OW39238   0.156   0.039   1.866  0.1945  0.2072  0.3821
 9259SOL    HW139239   0.170   0.062   1.774 -0.9936 -0.9183 -0.0790
 9259SOL    HW239240   0.089   0.104   1.889  1.4383  1.7780 -0.3878
 9260SOL     OW39241   3.426   1.078   8.019  0.5249 -0.0428 -0.1296
 9260SOL    HW139242   3.463   1.166   8.013 -0.3822  0.3874  0.6334
 9260SOL    HW239243   3.353   1.069   7.958  0.3365 -0.6325  0.1878
 9261SOL     OW39244   0.777   4.692  14.908 -0.5332  0.1097 -0.2203
 9261SOL    HW139245   0.770   4.632  14.983 -3.4309  0.7161 -0.0232
 9261SOL    HW239246   0.683   4.702  14.892 -0.6824 -0.1051  0.5129
 9262SOL     OW39247   4.102   1.675   8.434 -0.6838 -0.0694  0.4874
 9262SOL    HW139248   4.172   1.652   8.494  0.4956 -0.6053 -1.0944
 9262SOL    HW239249   4.129   1.627   8.356 -1.7972  1.4558 -0.8456
 9263SOL     OW39250   0.503   1.703  16.338  0.2636 -0.0204  0.1658
 9263SOL    HW139251   0.544   1.710  16.425 -1.3588 -0.9314  0.9935
 9263SOL    HW239252   0.474   1.792  16.324 -0.9090 -0.7593 -1.9897
 9264SOL     OW39253   4.519   2.841   8.130 -0.4802 -0.1451  0.9837
 9264SOL    HW139254   4.559   2.792   8.202  1.3700  0.7255  0.5256
 9264SOL    HW239255   4.428   2.811   8.131 -0.8461  0.8913 -0.9004
 9265SOL     OW39256   0.059   4.019   8.703 -0.4436  0.3833 -0.4278
 9265SOL    HW139257   4.697   3.978   8.709  0.0051 -0.2019  2.1559
 9265SOL    HW239258   0.042   4.094   8.759 -0.5335 -0.0084  0.0663
 9266SOL     OW39259   4.146   1.401   3.359  0.0279 -0.1026  0.5260
 9266SOL    HW139260   4.180   1.387   3.447  0.9005 -0.3352  0.1534
 9266SOL    HW239261   4.121   1.310   3.340 -0.8641 -0.0750  1.5444
 9267SOL     OW39262   2.653   0.238   3.715  0.3809 -0.2396  0.3784
 9267SOL    HW139263   2.593   0.228   3.642  0.9757  0.9183 -0.2703
 9267SOL    HW239264   2.622   0.323   3.747 -0.3073 -0.6956  0.9216
 9268SOL     OW39265   3.855   3.498  15.886 -0.7988  0.0781  0.5584
 9268SOL    HW139266   3.877   3.576  15.834  0.1317  0.0238  0.8769
 9268SOL    HW239267   3.820   3.441  15.818 -0.4537  2.4725 -1.6448
 9269SOL     OW39268   3.329   3.998   2.917  0.6609 -0.4841  0.2232
 9269SOL    HW139269   3.316   3.985   3.012 -0.1272 -0.3055  0.1432
 9269SOL    HW239270   3.424   3.991   2.912  0.6422 -0.5300 -0.0364
 9270SOL     OW39271   0.220   3.109  17.663 -0.4696  0.2212 -0.1345
 9270SOL    HW139272   0.166   3.070  17.594  0.6052 -2.1013  0.3214
 9270SOL    HW239273   0.298   3.054  17.666 -0.4195  0.4544  2.5731
 9271SOL     OW39274   1.825   3.689   2.488  0.2642  0.4388 -0.0146
 9271SOL    HW139275   1.848   3.597   2.497  1.6832  1.0827  2.7353
 9271SOL    HW239276   1.744   3.678   2.438 -1.2101 -1.0693  2.7284
 9272SOL     OW39277   2.273   1.672   8.891 -0.1765  0.5179 -0.0007
 9272SOL    HW139278   2.349   1.642   8.942  1.3889  2.2844 -1.2868
 9272SOL    HW239279   2.316   1.737   8.835  1.5069 -0.1220  0.5495
 9273SOL     OW39280   1.736   4.253   6.237  0.2814  0.0385 -0.1631
 9273SOL    HW139281   1.817   4.251   6.187  0.5879  0.3634  0.3104
 9273SOL    HW239282   1.688   4.318   6.186 -2.1407 -2.0263 -0.5541
 9274SOL     OW39283   1.927   0.595   5.274 -0.2441  0.6723  0.1838
 9274SOL    HW139284   1.927   0.500   5.267  1.9011  0.7067 -0.5606
 9274SOL    HW239285   1.987   0.620   5.203 -0.2426 -0.3920 -0.1952
 9275SOL     OW39286   2.028   2.503   4.411  0.2234  0.6613 -0.1564
 9275SOL    HW139287   2.118   2.477   4.394  0.4451  0.8323  0.7708
 9275SOL    HW239288   2.021   2.558   4.489 -0.4011  1.4682 -0.7830
 9276SOL     OW39289   1.331   2.145   0.727 -0.0664  0.4253  0.0416
 9276SOL    HW139290   1.287   2.071   0.685  1.9643 -0.9590  0.3886
 9276SOL    HW239291   1.333   2.212   0.658  0.9366  0.4710  0.1195
 9277SOL     OW39292   4.338   0.740   4.137  0.3803  0.2212  0.5466
 9277SOL    HW139293   4.356   0.761   4.045  1.6648 -0.6110  0.6029
 9277SOL    HW239294   4.431   0.734   4.160  1.0606  0.4548 -2.0656
 9278SOL     OW39295   0.027   2.839  11.471 -0.0206  0.2197 -0.2476
 9278SOL    HW139296   4.693   2.831  11.547  1.3140  2.4927  1.0185
 9278SOL    HW239297   0.020   2.751  11.435  2.3368 -0.2449  0.4602
 9279SOL     OW39298   4.607   1.881   6.258  0.2939 -0.5590  0.0832
 9279SOL    HW139299   4.621   1.975   6.246 -0.0566 -0.6202 -0.8282
 9279SOL    HW239300   4.534   1.887   6.319 -0.7580  1.1711 -1.3264
 9280SOL     OW39301   4.144   0.348   0.653 -0.0780  0.3399 -0.1918
 9280SOL    HW139302   4.121   0.259   0.680  0.5672  0.0268 -0.6697
 9280SOL    HW239303   4.177   0.380   0.737 -0.4444 -0.7736  0.3671
 9281SOL     OW39304   1.652   2.595   8.056  0.2048 -0.0890 -0.6739
 9281SOL    HW139305   1.653   2.682   8.017 -1.2631  0.4262  0.4077
 9281SOL    HW239306   1.569   2.561   8.022 -1.4069 -0.2325  3.4197
 9282SOL     OW39307   3.137   0.660   5.803 -0.0370 -0.5253  0.3601
 9282SOL    HW139308   3.217   0.699   5.766 -0.1942  0.5473  1.1530
 9282SOL    HW239309   3.068   0.712   5.761 -0.0296 -1.3233 -0.6277
 9283SOL     OW39310   1.471   0.646   5.750 -0.1367 -0.3091 -0.6011
 9283SOL    HW139311   1.420   0.726   5.765  0.4382  0.0890 -0.7328
 9283SOL    HW239312   1.401   0.589   5.720 -1.1545  1.6616 -2.0352
 9284SOL     OW39313   0.898   4.567  10.511  0.1644  0.9983  0.4131
 9284SOL    HW139314   0.884   4.505  10.439 -2.2256  1.2181  0.6893
 9284SOL    HW239315   0.926   4.641  10.457  0.3483 -0.8910 -2.0967
 9285SOL     OW39316   4.392   1.168  12.294  0.2441  0.3091 -0.9232
 9285SOL    HW139317   4.473   1.124  12.318 -1.0372 -1.8389 -0.5118
 9285SOL    HW239318   4.322   1.107  12.320  0.3724  0.1219 -1.0210
 9286SOL     OW39319   0.501   3.875  11.067 -0.0896  0.2746 -0.2717
 9286SOL    HW139320   0.516   3.840  10.979  1.1772  1.1012 -0.3756
 9286SOL    HW239321   0.406   3.860  11.066  0.1460 -1.3865  1.6631
 9287SOL     OW39322   2.822   0.667   6.064  0.2857  0.6745 -0.0304
 9287SOL    HW139323   2.873   0.645   6.143 -1.4557 -0.4953  0.7607
 9287SOL    HW239324   2.840   0.760   6.047  3.4870  0.0615 -0.1110
 9288SOL     OW39325   3.342   4.277   2.368 -0.2499  0.0146 -0.3325
 9288SOL    HW139326   3.299   4.363   2.368 -4.4919 -2.1331  2.4344
 9288SOL    HW239327   3.410   4.290   2.302 -0.8074  0.9558 -0.7121
 9289SOL     OW39328   4.083   0.122   0.803 -0.3709 -0.1826 -0.3195
 9289SOL    HW139329   4.106   0.030   0.819 -3.1316 -0.5082  1.6392
 9289SOL    HW239330   4.141   0.164   0.867 -1.6843 -0.5927  1.1406
 9290SOL     OW39331   0.685   1.784   3.153  0.0377  0.1805 -0.6066
 9290SOL    HW139332   0.629   1.714   3.187 -2.3093  1.9157 -0.8292
 9290SOL    HW239333   0.618   1.852   3.145  0.4361  0.5791 -0.5481
 9291SOL     OW39334   0.004   4.649   6.500  0.0308 -0.3192 -0.0152
 9291SOL    HW139335   0.080   4.599   6.530 -0.1674  0.3809  1.6434
 9291SOL    HW239336   4.717   4.599   6.419 -0.5517 -0.0807 -0.0831
 9292SOL     OW39337   3.375   1.757  14.997  0.3617  0.1209  1.0757
 9292SOL    HW139338   3.449   1.743  14.939 -0.8767 -0.6314 -0.3154
 9292SOL    HW239339   3.352   1.846  14.972 -0.0817 -0.1340  0.5844
 9293SOL     OW39340   0.458   4.155   8.169 -0.0846  0.6606  0.2002
 9293SOL    HW139341   0.528   4.214   8.197 -0.6868  2.5734 -2.3017
 9293SOL    HW239342   0.443   4.186   8.080  0.2936 -0.6736 -0.3158
 9294SOL     OW39343   2.816   4.150  16.189  0.0164  0.6696  0.5519
 9294SOL    HW139344   2.823   4.092  16.265  0.1941 -1.8731 -1.4431
 9294SOL    HW239345   2.770   4.218  16.238  1.9050  1.8190  0.7210
 9295SOL     OW39346   0.721   4.156   7.277 -0.2374  0.0941 -0.0005
 9295SOL    HW139347   0.688   4.071   7.249  2.2569 -1.0290  0.4759
 9295SOL    HW239348   0.747   4.135   7.366 -0.5519 -1.3132 -0.2379
 9296SOL     OW39349   3.736   1.881   6.027 -0.0835 -0.0333 -0.1832
 9296SOL    HW139350   3.795   1.839   6.090  0.7872  1.9885  0.3766
 9296SOL    HW239351   3.794   1.939   5.977 -1.9491  1.6368 -0.3988
 9297SOL     OW39352   3.015   0.200   3.394  0.4611 -0.9324 -0.0499
 9297SOL    HW139353   2.971   0.261   3.335 -1.3550 -0.0939  2.1608
 9297SOL    HW239354   3.047   0.262   3.460  0.2053 -2.8112  1.8566
 9298SOL     OW39355   3.095   4.400   6.060  0.5064 -0.1780  0.0916
 9298SOL    HW139356   3.137   4.396   5.974 -1.0034  1.7930 -0.7282
 9298SOL    HW239357   3.048   4.317   6.062 -1.1726  0.7998  0.3934
 9299SOL     OW39358   2.162   3.327   4.735 -0.0681 -0.5999 -0.1978
 9299SOL    HW139359   2.221   3.297   4.805  0.9831  0.5046 -0.5999
 9299SOL    HW239360   2.211   3.279   4.668  0.9950  0.7404 -0.3999
 9300SOL     OW39361   3.666   0.694   6.862  0.2265 -0.1334 -0.0534
 9300SOL    HW139362   3.602   0.743   6.913 -1.6049 -0.2364 -2.2639
 9300SOL    HW239363   3.718   0.766   6.825 -2.1637  1.5742 -0.1367
 9301SOL     OW39364   2.895   3.025   7.752 -0.1817 -0.7182 -0.0292
 9301SOL    HW139365   2.902   2.971   7.673  1.6129  2.5573 -2.1082
 9301SOL    HW239366   2.813   3.071   7.736 -1.0382 -0.8007  4.0977
 9302SOL     OW39367   0.942   3.258   8.459 -0.2010 -0.2524 -0.0121
 9302SOL    HW139368   0.857   3.245   8.417  0.3273  0.3384 -1.2472
 9302SOL    HW239369   0.939   3.351   8.480  0.8337 -0.7298  2.3214
 9303SOL     OW39370   0.018   1.347  14.553  0.2156  0.4893 -0.2593
 9303SOL    HW139371   0.032   1.367  14.461  3.5729  0.6838  0.2992
 9303SOL    HW239372   4.699   1.430  14.575  0.5050  0.6034 -0.1253
 9304SOL     OW39373   4.117   1.520   1.636 -0.5151 -0.1896 -0.0731
 9304SOL    HW139374   4.118   1.494   1.544 -2.1793  0.3382 -0.2253
 9304SOL    HW239375   4.025   1.539   1.650 -0.9736 -3.0843  0.7226
 9305SOL     OW39376   1.098   4.048   6.496 -0.3173 -0.3752  0.9369
 9305SOL    HW139377   1.113   4.127   6.547 -0.0928 -0.3309  0.8049
 9305SOL    HW239378   1.057   3.993   6.563  1.1333 -0.9992  1.3198
 9306SOL     OW39379   4.268   2.960   7.502  0.1280  0.2784  0.5949
 9306SOL    HW139380   4.255   2.910   7.421 -1.6505  0.6912  0.6414
 9306SOL    HW239381   4.258   2.885   7.560  0.9971  1.7644  2.6331
 9307SOL     OW39382   2.057   3.368   3.076  0.2743 -0.2284  0.8685
 9307SOL    HW139383   2.100   3.287   3.102  0.1236 -0.2440  1.0642
 9307SOL    HW239384   2.136   3.417   3.055  0.4087 -0.5334  0.6639
 9308SOL     OW39385   1.477   1.151   1.380  0.5768  0.0048 -0.2087
 9308SOL    HW139386   1.551   1.198   1.340  0.1874  0.8536  0.0627
 9308SOL    HW239387   1.407   1.195   1.331 -1.3218 -1.1649  1.4729
 9309SOL     OW39388   3.111   3.799   8.483 -0.9896  0.4971  0.0733
 9309SOL    HW139389   3.145   3.886   8.462 -0.4227 -0.0558 -1.2895
 9309SOL    HW239390   3.130   3.742   8.408 -3.4121 -1.2697  0.8129
 9310SOL     OW39391   2.654   0.084  17.219  0.1145 -0.3853  0.4261
 9310SOL    HW139392   2.676   0.040  17.301  0.8634  1.2463  1.1075
 9310SOL    HW239393   2.689   0.021  17.156  0.0001 -1.7837  1.7618
 9311SOL     OW39394   3.573   2.402  10.346  0.2966 -0.2800  0.1261
 9311SOL    HW139395   3.523   2.469  10.393  0.3320  0.5706 -1.0452
 9311SOL    HW239396   3.500   2.391  10.286  1.1946 -1.5026 -0.7409
 9312SOL     OW39397   2.644   1.739   1.962 -0.0440 -0.3215  0.2127
 9312SOL    HW139398   2.718   1.695   1.920 -1.5854 -0.2052 -2.6226
 9312SOL    HW239399   2.569   1.718   1.907  0.8265 -0.9670 -0.7231
 9313SOL     OW39400   1.790   3.257   3.747  0.2694 -0.0012 -0.3827
 9313SOL    HW139401   1.790   3.293   3.658 -0.7607  1.7968  0.3478
 9313SOL    HW239402   1.710   3.204   3.747  1.8932 -2.4671  1.1756
 9314SOL     OW39403   3.963   2.682   5.178  0.5523 -0.1355 -0.4741
 9314SOL    HW139404   3.927   2.593   5.183 -0.3880  0.2157 -0.9732
 9314SOL    HW239405   3.925   2.712   5.096  1.2186  2.3613  0.1467
 9315SOL     OW39406   4.089   1.171  10.717 -0.2784  0.4787 -0.1750
 9315SOL    HW139407   4.096   1.194  10.809  1.0151  2.6129 -0.8041
 9315SOL    HW239408   4.108   1.256  10.678 -0.9436  0.6528 -0.1180
 9316SOL     OW39409   3.794   2.876  15.659  0.1933 -0.4545  0.2706
 9316SOL    HW139410   3.842   2.952  15.691  1.0470 -1.7447  2.0356
 9316SOL    HW239411   3.857   2.804  15.666  1.9469  1.1577  1.1179
 9317SOL     OW39412   3.829   3.069   6.575 -0.0661  0.0302 -0.2512
 9317SOL    HW139413   3.905   3.127   6.582  1.7885 -2.4563  0.0972
 9317SOL    HW239414   3.866   2.997   6.626  2.6468  0.0689 -2.1456
 9318SOL     OW39415   3.160   4.553   4.293  0.6526  0.3140 -0.2346
 9318SOL    HW139416   3.110   4.503   4.358  0.6027  1.0720  0.3052
 9318SOL    HW239417   3.137   4.640   4.325 -1.0176 -0.0850 -0.3133
 9319SOL     OW39418   4.625   0.981   3.849  0.1790 -0.3851 -0.6969
 9319SOL    HW139419   4.576   1.061   3.830  0.0237  0.1473  1.8913
 9319SOL    HW239420   4.716   1.005   3.827  1.1510 -4.0194 -0.5876
 9320SOL     OW39421   1.155   1.384   6.630  0.3192  0.5657 -0.4720
 9320SOL    HW139422   1.237   1.379   6.581 -0.4518  1.7474 -1.8727
 9320SOL    HW239423   1.096   1.386   6.555 -1.7372 -0.1218  1.1347
 9321SOL     OW39424   3.903   3.708   4.746 -0.4566  0.0364  0.9371
 9321SOL    HW139425   3.933   3.631   4.697 -0.7720 -0.7134  1.9169
 9321SOL    HW239426   3.982   3.758   4.727 -0.5501  0.6267  2.0755
 9322SOL     OW39427   0.920   3.528   6.682 -0.2720  0.3933 -0.6983
 9322SOL    HW139428   0.992   3.508   6.743 -1.2372 -2.8940 -0.6350
 9322SOL    HW239429   0.899   3.617   6.710  1.0084  0.5638 -0.2635
 9323SOL     OW39430   4.248   4.533   9.007 -0.7061  0.5214 -0.5581
 9323SOL    HW139431   4.283   4.452   9.043 -0.7328  1.0795  0.7234
 9323SOL    HW239432   4.228   4.578   9.089 -1.4106  0.0417 -0.4741
 9324SOL     OW39433   4.218   2.689   2.194 -0.1011  0.2060  0.1303
 9324SOL    HW139434   4.293   2.630   2.189 -0.2942  0.1434 -1.9682
 9324SOL    HW239435   4.235   2.746   2.270 -0.1066 -0.0582  0.3298
 9325SOL     OW39436   2.587   0.557  12.757  0.2634  0.6046 -0.4825
 9325SOL    HW139437   2.679   0.563  12.732  0.3589 -0.8021 -0.5048
 9325SOL    HW239438   2.563   0.645  12.729 -0.0588  0.8853  0.6559
 9326SOL     OW39439   3.688   0.991  16.533 -0.0781 -0.1853 -0.4276
 9326SOL    HW139440   3.776   0.986  16.496  0.5368  1.2135  0.7948
 9326SOL    HW239441   3.694   1.086  16.547 -1.6423 -0.0007 -1.0459
 9327SOL     OW39442   4.330   2.088   2.532  0.4429  0.3458  0.4784
 9327SOL    HW139443   4.277   2.054   2.459  2.1006 -3.5335  1.1031
 9327SOL    HW239444   4.259   2.146   2.561 -1.1077 -1.5719  0.5034
 9328SOL     OW39445   4.660   0.712   4.143  0.1136 -0.1278 -0.4617
 9328SOL    HW139446   4.694   0.779   4.202 -2.1101  1.4137 -0.9528
 9328SOL    HW239447   0.013   0.706   4.086 -0.3448  2.6692 -1.3853
 9329SOL     OW39448   2.891   3.532   6.920  0.2882 -0.4353 -0.6404
 9329SOL    HW139449   2.814   3.514   6.866 -1.0101 -0.6296  1.2947
 9329SOL    HW239450   2.886   3.457   6.979  0.0756  0.1660  0.1071
 9330SOL     OW39451   3.744   3.792   9.087  0.0881  0.2510  0.3129
 9330SOL    HW139452   3.825   3.816   9.043  1.0297  0.8034  2.3352
 9330SOL    HW239453   3.763   3.803   9.180 -1.2837  2.7832  0.3001
 9331SOL     OW39454   2.074   3.038   7.699 -0.9110  1.0515  0.0879
 9331SOL    HW139455   1.994   3.057   7.747 -1.0429 -0.0894  0.3281
 9331SOL    HW239456   2.059   3.108   7.637  0.3545  0.7529 -0.5557
 9332SOL     OW39457   0.103   1.048  13.337 -0.8162 -0.1899  0.0960
 9332SOL    HW139458   0.134   1.129  13.377  0.0561  0.0419 -1.0782
 9332SOL    HW239459   0.148   1.038  13.254  0.6669  1.8670  0.6692
 9333SOL     OW39460   0.397   1.076   4.047  0.2283 -0.7067  0.2284
 9333SOL    HW139461   0.474   1.029   4.077  0.4813 -1.3823 -1.4662
 9333SOL    HW239462   0.380   1.031   3.964 -1.1789  1.3001 -0.5788
 9334SOL     OW39463   0.983   0.308   2.854 -0.0847 -0.4361 -0.2507
 9334SOL    HW139464   0.921   0.235   2.855 -0.5768 -0.0019  0.9759
 9334SOL    HW239465   0.937   0.392   2.849 -2.6096 -1.8260 -0.4352
 9335SOL     OW39466   2.106   0.133   8.237  0.0874 -0.1584  0.1418
 9335SOL    HW139467   2.062   0.185   8.304 -0.3604 -0.6363  0.2106
 9335SOL    HW239468   2.120   0.058   8.294 -1.6547 -0.4132  0.2180
 9336SOL     OW39469   3.553   1.465  11.285  0.2831 -0.0951  0.2882
 9336SOL    HW139470   3.533   1.542  11.338  2.1528 -0.2325  1.2041
 9336SOL    HW239471   3.599   1.410  11.348  0.0910  1.5130  1.8372
 9337SOL     OW39472   3.412   0.574  14.995 -0.5224  0.7540 -0.2523
 9337SOL    HW139473   3.398   0.638  15.064 -0.6362 -0.3234  0.7187
 9337SOL    HW239474   3.339   0.516  15.013 -0.0399  0.2549  0.1010
 9338SOL     OW39475   1.615   0.937   5.632  0.5764 -0.2971 -0.2432
 9338SOL    HW139476   1.574   0.960   5.549 -0.3155 -1.4971 -0.1334
 9338SOL    HW239477   1.550   0.891   5.685 -1.3928  3.5337  0.6474
 9339SOL     OW39478   0.316   2.622   3.255 -0.2059  0.1209 -0.5830
 9339SOL    HW139479   0.290   2.685   3.322  0.8687 -0.6875  0.6203
 9339SOL    HW239480   0.412   2.618   3.257 -0.2820 -2.1640 -1.5375
 9340SOL     OW39481   1.191   2.539   8.880  0.4705 -0.1623  0.1021
 9340SOL    HW139482   1.211   2.545   8.974  0.6461 -0.8086  0.1060
 9340SOL    HW239483   1.132   2.464   8.885 -1.3085  1.4059  2.4218
 9341SOL     OW39484   3.213   2.402   0.352 -0.3971 -0.2875  0.6023
 9341SOL    HW139485   3.281   2.341   0.324  1.1418  1.1651  1.2416
 9341SOL    HW239486   3.144   2.387   0.286  1.1531 -0.7015 -0.9223
 9342SOL     OW39487   4.005   1.266  13.431  0.3936  0.0840  0.2869
 9342SOL    HW139488   4.091   1.224  13.441  0.4840  0.6907  2.0198
 9342SOL    HW239489   3.990   1.258  13.337  1.2847  2.7603 -0.0759
 9343SOL     OW39490   3.740   0.125   8.878  0.6820 -0.0208 -0.1856
 9343SOL    HW139491   3.726   0.151   8.788 -0.7558  0.5232  0.1948
 9343SOL    HW239492   3.671   0.060   8.894  0.6422  0.0450 -0.0888
 9344SOL     OW39493   0.973   1.163  15.620  0.4766  0.6232  0.7887
 9344SOL    HW139494   1.010   1.096  15.563  0.2425  0.2471  1.0756
 9344SOL    HW239495   0.966   1.121  15.706  0.6958 -0.3552  0.3249
 9345SOL     OW39496   0.883   0.166   0.279 -0.1391  0.3606  0.0042
 9345SOL    HW139497   0.972   0.143   0.251 -0.6176  0.5955 -1.7614
 9345SOL    HW239498   0.880   0.124   0.365 -1.4855  1.2680  0.3896
 9346SOL     OW39499   1.370   0.600  14.974  0.5966  0.0579  0.0404
 9346SOL    HW139500   1.275   0.607  14.965  0.6577  0.8715  0.0873
 9346SOL    HW239501   1.406   0.662  14.910  0.4948 -0.7512 -0.8072
 9347SOL     OW39502   0.345   4.192   0.864 -0.7253  0.2075  0.0326
 9347SOL    HW139503   0.300   4.263   0.818 -0.4136 -0.2295 -0.9367
 9347SOL    HW239504   0.324   4.120   0.804  1.2372 -1.4319  1.3281
 9348SOL     OW39505   3.563   4.205   6.473 -0.2514  0.4801 -0.3098
 9348SOL    HW139506   3.507   4.155   6.532  0.4715  1.7763  1.4721
 9348SOL    HW239507   3.645   4.190   6.521 -0.8500 -0.1803  0.5150
 9349SOL     OW39508   2.431   3.111   3.160  0.3807 -0.1815 -0.3282
 9349SOL    HW139509   2.468   3.173   3.224 -0.7141 -0.3806  0.4783
 9349SOL    HW239510   2.514   3.089   3.116 -0.7897 -3.5724 -0.7750
 9350SOL     OW39511   2.633   3.215   4.736  0.2717  0.2991 -0.6547
 9350SOL    HW139512   2.545   3.216   4.774  0.6377  0.7958  0.1670
 9350SOL    HW239513   2.684   3.242   4.812  1.0652  0.1929 -1.1459
 9351SOL     OW39514   1.921   0.659   3.807 -0.3581 -0.2986 -0.4719
 9351SOL    HW139515   1.958   0.735   3.851  2.4890 -0.3857 -2.6713
 9351SOL    HW239516   1.966   0.666   3.723 -2.3003  1.2950 -1.3669
 9352SOL     OW39517   0.790   3.417   3.712  0.2176 -0.6996  0.4430
 9352SOL    HW139518   0.747   3.501   3.700  2.0612  0.3964  1.4369
 9352SOL    HW239519   0.862   3.419   3.649  0.8865  0.8976  1.2728
 9353SOL     OW39520   1.389   3.113   8.635 -0.2400  0.2398  0.2333
 9353SOL    HW139521   1.372   3.203   8.606 -0.1646  0.2040  0.0833
 9353SOL    HW239522   1.301   3.089   8.665 -0.1065 -1.9273 -1.1063
 9354SOL     OW39523   0.555   2.376   8.383  0.0785 -0.0158  0.4601
 9354SOL    HW139524   0.612   2.362   8.458  1.3157  0.0935 -0.4574
 9354SOL    HW239525   0.484   2.417   8.432  0.4847  0.2501  0.8204
 9355SOL     OW39526   4.219   1.692   6.023 -0.3491 -0.4134 -0.1705
 9355SOL    HW139527   4.204   1.649   5.939  0.7757 -0.8743 -0.1353
 9355SOL    HW239528   4.226   1.620   6.086  2.5459 -0.7929 -0.9057
 9356SOL     OW39529   1.215   3.329   8.934  0.3035  0.1429  0.6991
 9356SOL    HW139530   1.290   3.333   8.994  0.8075  0.1604  0.0820
 9356SOL    HW239531   1.235   3.249   8.886  0.2250 -0.6711  2.0373
 9357SOL     OW39532   0.082   4.426   1.345 -0.1323 -0.0105 -0.5219
 9357SOL    HW139533   0.089   4.350   1.287 -0.6501 -0.8377  0.4805
 9357SOL    HW239534   0.091   4.398   1.437  2.2854 -2.2365 -1.4460
 9358SOL     OW39535   1.738   0.609   3.338  0.4126 -0.0499  0.2417
 9358SOL    HW139536   1.775   0.534   3.386 -1.2858 -0.8768  0.2595
 9358SOL    HW239537   1.708   0.564   3.259  0.8391  1.5205 -0.8070
 9359SOL     OW39538   0.312   3.122  17.059 -0.1359 -0.2720 -0.2701
 9359SOL    HW139539   0.393   3.166  17.083 -1.7739  0.3849  4.1459
 9359SOL    HW239540   0.340   3.043  17.012  1.1083 -0.4262  0.7318
 9360SOL     OW39541   1.290   1.986   3.397 -0.6968 -0.1972  0.1033
 9360SOL    HW139542   1.299   1.945   3.312  0.3291 -1.1147  0.6574
 9360SOL    HW239543   1.239   2.065   3.376 -0.4109  0.2216  0.9682
 9361SOL     OW39544   2.089   0.013   8.683  0.2398  0.3410 -0.5726
 9361SOL    HW139545   2.181   4.716   8.667 -0.1444 -0.9714 -1.0758
 9361SOL    HW239546   2.039   4.660   8.655  0.9615  0.8220 -3.2528
 9362SOL     OW39547   1.274   2.596   5.369  0.0320  0.0269  0.2048
 9362SOL    HW139548   1.309   2.557   5.450 -1.6907 -0.5756  0.6628
 9362SOL    HW239549   1.247   2.518   5.321  1.0756  0.8495 -1.7038
 9363SOL     OW39550   3.985   2.357  15.803 -0.0181 -0.1860  0.6707
 9363SOL    HW139551   4.075   2.336  15.824  0.1843 -1.7724 -1.7524
 9363SOL    HW239552   3.976   2.301  15.725  0.4890  0.0196  0.4650
 9364SOL     OW39553   4.538   1.525   4.949 -0.5280  0.5528  0.0472
 9364SOL    HW139554   4.548   1.438   4.988 -0.1790  0.2850 -0.6526
 9364SOL    HW239555   4.464   1.506   4.892 -2.8576  1.9245  2.5732
 9365SOL     OW39556   1.140   4.210   0.245 -0.2593 -0.7359 -0.0865
 9365SOL    HW139557   1.108   4.293   0.280 -0.0120 -1.0369  0.8593
 9365SOL    HW239558   1.055   4.169   0.229 -0.6953 -0.4093  1.4134
 9366SOL     OW39559   0.083   3.171   3.531 -0.1504  0.7331 -0.3135
 9366SOL    HW139560   0.146   3.181   3.602 -1.4443 -0.5248  1.0055
 9366SOL    HW239561   0.096   3.079   3.509 -1.2519  0.0722  1.8119
 9367SOL     OW39562   3.323   3.397   8.658  0.1310 -0.4061 -0.1484
 9367SOL    HW139563   3.281   3.312   8.671 -0.0476  0.1687  3.1719
 9367SOL    HW239564   3.378   3.392   8.736  0.6644  0.1059 -0.4896
 9368SOL     OW39565   0.389   2.845   2.544 -0.2829  0.1634 -0.1155
 9368SOL    HW139566   0.377   2.820   2.635 -1.2234  1.0774  0.0111
 9368SOL    HW239567   0.483   2.863   2.534 -0.4806  1.0807 -0.3605
 9369SOL     OW39568   3.862   1.050   5.061  0.0990  0.0701 -0.7524
 9369SOL    HW139569   3.819   1.015   4.983  3.0790 -0.4134 -2.2069
 9369SOL    HW239570   3.860   0.978   5.123  2.5882 -0.8390 -1.6969
 9370SOL     OW39571   2.059   3.946   3.883 -0.1904  0.3011 -0.6874
 9370SOL    HW139572   2.019   4.032   3.875 -0.5080 -0.0203 -2.7207
 9370SOL    HW239573   2.112   3.963   3.961 -1.2498  1.5403 -0.2508
 9371SOL     OW39574   0.570   0.480  12.581  0.3380  0.1534 -0.2096
 9371SOL    HW139575   0.542   0.504  12.669 -0.6633 -0.9628 -0.2255
 9371SOL    HW239576   0.546   0.390  12.562 -0.5143  0.2457  0.4718
 9372SOL     OW39577   0.822   3.209   6.745  0.1152 -0.0615  0.1169
 9372SOL    HW139578   0.796   3.299   6.727  1.2673  0.1189 -0.6947
 9372SOL    HW239579   0.803   3.205   6.839 -0.5855  0.2271 -0.0123
 9373SOL     OW39580   3.750   4.437   6.383 -0.4293  0.4993  0.4629
 9373SOL    HW139581   3.704   4.504   6.435 -1.6052 -0.6343  0.8976
 9373SOL    HW239582   3.691   4.362   6.398  0.3669  0.2637  2.4473
 9374SOL     OW39583   0.387   2.392   5.143 -0.4110  0.4811 -0.6764
 9374SOL    HW139584   0.443   2.439   5.080  0.4667  0.2984 -0.0250
 9374SOL    HW239585   0.454   2.372   5.207 -1.3972 -2.6040 -0.6053
 9375SOL     OW39586   3.279   2.600   1.206  0.0649 -0.5186 -0.0174
 9375SOL    HW139587   3.254   2.570   1.119 -0.4984 -1.0106  0.3055
 9375SOL    HW239588   3.280   2.694   1.192  0.1018 -0.8885 -2.4975
 9376SOL     OW39589   0.549   3.217   6.379  0.1161 -0.4173  0.1558
 9376SOL    HW139590   0.555   3.234   6.285 -1.1435  0.5401  0.2489
 9376SOL    HW239591   0.594   3.294   6.414 -0.2913  0.1944 -0.6575
 9377SOL     OW39592   1.976   4.359  11.719 -0.0370  0.0835  0.3901
 9377SOL    HW139593   1.939   4.415  11.787  0.3315  0.8507 -0.0340
 9377SOL    HW239594   2.069   4.380  11.725 -0.1985  0.3753  1.6756
 9378SOL     OW39595   0.387   3.899   7.854 -0.3786  0.1524 -0.6862
 9378SOL    HW139596   0.456   3.844   7.819  0.8888  0.3509  1.5164
 9378SOL    HW239597   0.384   3.957   7.777  2.4378 -1.2226 -1.8068
 9379SOL     OW39598   4.042   2.415   6.565 -0.0765 -0.1016 -0.0783
 9379SOL    HW139599   4.031   2.463   6.647  0.1950  0.0988 -0.1617
 9379SOL    HW239600   3.957   2.444   6.531 -0.3808 -0.7484  0.1179
 9380SOL     OW39601   3.098   2.026  10.989  0.2202 -0.7606 -0.0109
 9380SOL    HW139602   3.089   1.943  10.943  0.1409 -0.2310 -0.9313
 9380SOL    HW239603   3.019   2.073  10.962  1.1589  0.8050 -0.0579
 9381SOL     OW39604   0.910   4.464   7.875 -0.4130 -0.0408  0.2250
 9381SOL    HW139605   0.962   4.430   7.802 -0.1511 -0.8473  0.7801
 9381SOL    HW239606   0.818   4.448   7.855 -0.4059  2.5231 -1.9044
 9382SOL     OW39607   1.202   3.753   6.620  0.1600  0.5618 -0.4281
 9382SOL    HW139608   1.123   3.742   6.567 -0.7647 -1.9118  1.4703
 9382SOL    HW239609   1.155   3.781   6.699 -1.2355 -2.4173 -0.1982
 9383SOL     OW39610   2.934   4.284   8.763  0.3535  0.0922  0.0945
 9383SOL    HW139611   2.853   4.283   8.711  0.9947 -1.4875 -0.8630
 9383SOL    HW239612   2.932   4.192   8.788 -1.9327 -0.7764 -3.2393
 9384SOL     OW39613   2.070   0.676  15.873  0.8035  0.7716 -0.6642
 9384SOL    HW139614   1.991   0.703  15.827 -2.2742 -2.2740  2.7625
 9384SOL    HW239615   2.083   0.751  15.931  2.1543  1.3820 -1.7605
 9385SOL     OW39616   3.254   1.905  12.167  0.1415  0.5953  0.7969
 9385SOL    HW139617   3.181   1.847  12.187  1.7496 -1.1881  1.4109
 9385SOL    HW239618   3.220   1.966  12.102 -0.9063 -1.9792 -1.0719
 9386SOL     OW39619   1.458   3.524   2.621  0.2130 -0.1313 -0.0451
 9386SOL    HW139620   1.458   3.437   2.580 -1.0055 -0.6341  1.0303
 9386SOL    HW239621   1.510   3.565   2.552 -1.4263  1.0562 -0.5723
 9387SOL     OW39622   1.413   0.326   1.272  0.2876  0.2281  0.2531
 9387SOL    HW139623   1.411   0.417   1.245 -1.6053  0.5650  1.5652
 9387SOL    HW239624   1.437   0.275   1.195  3.2167  2.6185 -0.4201
 9388SOL     OW39625   3.893   0.931   6.206 -0.1744 -0.4718 -0.0990
 9388SOL    HW139626   3.986   0.942   6.226  0.4966 -4.2613 -1.1200
 9388SOL    HW239627   3.854   1.015   6.231  0.7696 -0.2227  0.5255
 9389SOL     OW39628   2.857   3.354   5.204  0.5279  0.4014  0.2063
 9389SOL    HW139629   2.946   3.329   5.229  1.0649  0.4508 -1.7284
 9389SOL    HW239630   2.805   3.312   5.274  0.2229 -1.1402 -0.9500
 9390SOL     OW39631   0.009   3.164   1.054 -0.0895  0.3077 -0.0523
 9390SOL    HW139632   4.715   3.138   1.145 -2.8459 -3.4730 -1.6782
 9390SOL    HW239633   0.092   3.211   1.057  0.6013 -0.7721 -2.6404
 9391SOL     OW39634   0.423   0.440   5.952  0.8524 -0.6053 -0.4065
 9391SOL    HW139635   0.451   0.466   5.865 -0.7144 -0.4895 -0.8729
 9391SOL    HW239636   0.346   0.492   5.977  0.0556 -1.2713 -1.4697
 9392SOL     OW39637   3.119   2.146   1.992 -0.1254 -0.0770 -0.2135
 9392SOL    HW139638   3.194   2.204   1.982  1.1791 -2.1385 -2.2085
 9392SOL    HW239639   3.045   2.206   2.005 -0.1335 -0.3139  0.8886
 9393SOL     OW39640   1.575   2.403   2.173 -0.2276  0.2950 -0.3802
 9393SOL    HW139641   1.558   2.309   2.163 -1.0904  0.5958 -1.6564
 9393SOL    HW239642   1.671   2.406   2.165  0.0517  3.9201  4.0571
 9394SOL     OW39643   2.393   1.400   3.080  0.1541 -0.0795  0.5759
 9394SOL    HW139644   2.301   1.380   3.061  0.3487  0.9066 -1.4030
 9394SOL    HW239645   2.430   1.456   3.012  1.9911  1.4441  2.8335
 9395SOL     OW39646   0.447   2.927   1.743  0.4225  0.1726  0.1549
 9395SOL    HW139647   0.494   2.978   1.809 -1.9762 -0.6591  2.5382
 9395SOL    HW239648   0.485   2.840   1.751  1.7126  0.5624 -1.8682
 9396SOL     OW39649   0.424   1.671   3.167 -0.2416  0.5035  0.0569
 9396SOL    HW139650   0.351   1.704   3.114  0.0730 -0.1439 -0.7892
 9396SOL    HW239651   0.380   1.593   3.200  0.9925  0.0293  0.5732
 9397SOL     OW39652   1.492   1.773  12.851 -0.4312 -0.8585  0.2267
 9397SOL    HW139653   1.448   1.821  12.921  0.0130 -0.1298  0.0154
 9397SOL    HW239654   1.562   1.723  12.892  0.6441  0.6115  0.2024
 9398SOL     OW39655   1.116   4.639   7.976  0.1834 -0.0228  0.3187
 9398SOL    HW139656   1.033   4.592   7.968  1.0568 -1.1633 -2.0975
 9398SOL    HW239657   1.180   4.569   7.984  0.7532  0.5030  0.3697
 9399SOL     OW39658   2.991   2.594   7.920  0.1235 -0.3598  0.2009
 9399SOL    HW139659   3.082   2.566   7.913  0.8435  1.6057  1.5774
 9399SOL    HW239660   2.937   2.514   7.918 -0.2405 -0.1585  1.4323
 9400SOL     OW39661   0.333   1.572  15.747 -0.4050  0.4079  0.1085
 9400SOL    HW139662   0.378   1.545  15.827  0.4337  0.5506 -0.3157
 9400SOL    HW239663   0.402   1.614  15.695  0.5748  0.9175  1.8173
 9401SOL     OW39664   2.564   2.348  14.334 -0.3075 -0.3746 -0.2695
 9401SOL    HW139665   2.489   2.319  14.386 -0.4857 -0.1612 -0.4091
 9401SOL    HW239666   2.634   2.307  14.386 -1.7169 -0.2829  1.7003
 9402SOL     OW39667   1.454   2.289   8.493 -0.3828 -0.3026 -0.1388
 9402SOL    HW139668   1.437   2.200   8.525  0.1349 -0.2845  0.1805
 9402SOL    HW239669   1.535   2.309   8.539 -1.3193  1.7554  0.6615
 9403SOL     OW39670   1.087   1.249   5.727  0.0842 -0.2635 -0.0623
 9403SOL    HW139671   1.181   1.236   5.735 -0.0872 -1.4648  0.0001
 9403SOL    HW239672   1.089   1.285   5.639  2.3507  0.3080  0.2286
 9404SOL     OW39673   2.792   1.685   7.740  0.4940  0.0860  0.4037
 9404SOL    HW139674   2.715   1.636   7.712  0.1301  1.1483 -0.4476
 9404SOL    HW239675   2.830   1.693   7.653  0.5111 -1.2538  0.2920
 9405SOL     OW39676   3.397   3.454   1.448 -0.1817 -0.3806 -0.1002
 9405SOL    HW139677   3.340   3.393   1.402 -1.7989  1.0934 -0.0391
 9405SOL    HW239678   3.335   3.477   1.517 -0.0208 -2.5903  0.7783
 9406SOL     OW39679   2.577   2.772  15.158 -0.2718  0.1804 -0.8409
 9406SOL    HW139680   2.549   2.694  15.205  1.0893  0.9821  1.2772
 9406SOL    HW239681   2.669   2.745  15.146  0.2246  0.9205  1.4403
 9407SOL     OW39682   0.996   0.361   4.879  0.1608 -0.1829 -0.1505
 9407SOL    HW139683   0.922   0.302   4.890 -1.6045  2.5186  2.3648
 9407SOL    HW239684   1.069   0.308   4.911 -0.1305  0.5188  1.6901
 9408SOL     OW39685   2.855   1.430  11.859 -0.1242  0.1475 -0.0421
 9408SOL    HW139686   2.854   1.379  11.778  1.4056 -1.5927  1.0301
 9408SOL    HW239687   2.843   1.520  11.828  0.0993  0.5664  1.0781
 9409SOL     OW39688   0.007   3.360  10.341 -0.2206  0.3025  0.1013
 9409SOL    HW139689   0.060   3.325  10.270 -1.2388  1.9704 -1.4794
 9409SOL    HW239690   4.689   3.437  10.302 -0.9560 -0.0095  0.2652
 9410SOL     OW39691   3.643   4.131   9.910 -0.5787  0.2066 -0.6805
 9410SOL    HW139692   3.620   4.097   9.824  1.4417 -0.4267 -0.9635
 9410SOL    HW239693   3.611   4.056   9.961  1.6705  0.7053  1.4575
 9411SOL     OW39694   0.609   3.101  15.921  0.1484 -0.6060  0.7348
 9411SOL    HW139695   0.545   3.044  15.878  1.2227 -0.4793 -1.0234
 9411SOL    HW239696   0.640   3.141  15.840 -1.6550  2.0703  1.3558
 9412SOL     OW39697   0.955   1.499   7.218 -0.4339  0.0819  0.0475
 9412SOL    HW139698   0.929   1.591   7.221 -3.2117 -0.7991  2.9110
 9412SOL    HW239699   0.994   1.493   7.306  0.0359 -1.3480 -0.2597
 9413SOL     OW39700   2.116   1.666   2.866  0.2727 -0.4335 -0.3120
 9413SOL    HW139701   2.104   1.578   2.900  0.3426 -0.4229 -0.2591
 9413SOL    HW239702   2.038   1.684   2.814  0.9510 -0.0763 -1.2262
 9414SOL     OW39703   0.264   3.725   6.830 -0.4811 -0.1501  0.2218
 9414SOL    HW139704   0.271   3.651   6.891  0.4843  0.6550  1.1000
 9414SOL    HW239705   0.264   3.683   6.744 -0.6860  1.8443 -0.7623
 9415SOL     OW39706   3.776   0.888   0.200  0.6138  0.2188 -0.1521
 9415SOL    HW139707   3.829   0.821   0.243 -1.0473 -0.6675  0.5494
 9415SOL    HW239708   3.788   0.882   0.106  2.3163 -2.2226  0.2067
 9416SOL     OW39709   3.833   4.685  15.155 -0.0168 -0.0122 -0.1726
 9416SOL    HW139710   3.875   4.599  15.146  0.4584  0.0173  1.9035
 9416SOL    HW239711   3.842   4.702  15.249  2.7284 -0.3968 -0.3767
 9417SOL     OW39712   1.666   1.751   6.964  0.5046  0.6329 -0.3474
 9417SOL    HW139713   1.685   1.690   7.035  0.0513 -1.0115 -1.6354
 9417SOL    HW239714   1.688   1.830   7.013 -0.9953  0.6728  0.2861
 9418SOL     OW39715   3.747   0.078   0.517 -0.0890  0.3750 -0.1079
 9418SOL    HW139716   3.684   0.009   0.535  1.3330 -1.5307 -2.3774
 9418SOL    HW239717   3.761   0.102   0.609  1.3163  0.9664 -0.4645
 9419SOL     OW39718   4.059   3.067   2.123 -0.0404  0.0254  0.2593
 9419SOL    HW139719   4.049   3.035   2.212 -0.2912  1.8285  0.8882
 9419SOL    HW239720   4.064   2.990   2.066 -0.3561 -0.2337  0.5864
 9420SOL     OW39721   0.332   1.668   8.914 -0.2668  0.1077 -0.0474
 9420SOL    HW139722   0.324   1.758   8.946 -0.6028 -0.9423  2.8580
 9420SOL    HW239723   0.396   1.683   8.845  0.2987  1.4082  0.7490
 9421SOL     OW39724   0.865   2.219   2.755  0.4491 -0.7573  0.6616
 9421SOL    HW139725   0.805   2.293   2.762  0.5774 -0.4728 -1.1549
 9421SOL    HW239726   0.834   2.166   2.681  0.8393  1.5744 -1.1442
 9422SOL     OW39727   1.193   3.077   7.942  0.2110 -0.1906  0.2522
 9422SOL    HW139728   1.169   3.114   8.027  1.2126  0.2620  0.3340
 9422SOL    HW239729   1.284   3.106   7.934  0.4039 -0.7546  0.3470
 9423SOL     OW39730   2.004   1.012   3.899  0.3477 -0.2023  0.2519
 9423SOL    HW139731   2.005   1.074   3.826 -1.4467  0.7883  1.0786
 9423SOL    HW239732   1.927   0.960   3.875 -1.3323  1.7682  1.4531
 9424SOL     OW39733   2.923   2.187   5.520 -0.2770 -0.7518  0.3025
 9424SOL    HW139734   2.947   2.188   5.612  0.5729 -0.0155  0.0704
 9424SOL    HW239735   2.995   2.236   5.480 -0.4242 -1.2295 -0.5469
 9425SOL     OW39736   0.529   0.634  13.719 -0.2849 -0.0357 -0.4671
 9425SOL    HW139737   0.437   0.655  13.737 -0.4281 -1.7014  0.7063
 9425SOL    HW239738   0.567   0.716  13.687  1.7336 -0.6810  0.3071
 9426SOL     OW39739   2.149   1.842   4.085 -0.2548  0.0502  0.2046
 9426SOL    HW139740   2.120   1.785   4.014  1.2614 -0.8808  0.3404
 9426SOL    HW239741   2.227   1.791   4.105 -0.1764 -0.2518 -0.8671
 9427SOL     OW39742   3.839   2.902   5.851 -0.0075  0.7061  0.3947
 9427SOL    HW139743   3.792   2.942   5.778 -0.6967  0.0232  0.4728
 9427SOL    HW239744   3.864   2.976   5.907  1.2629 -0.0376  0.8147
 9428SOL     OW39745   1.707   2.647  16.787 -0.4830  0.0022  0.7055
 9428SOL    HW139746   1.703   2.628  16.881 -0.1530 -0.7358  0.5672
 9428SOL    HW239747   1.617   2.628  16.760 -0.1494  2.1380 -1.8866
 9429SOL     OW39748   0.031   2.118   8.405  0.2205  0.0182 -0.1441
 9429SOL    HW139749   0.032   2.026   8.428 -0.3408 -0.0073 -0.2247
 9429SOL    HW239750   4.668   2.136   8.369 -0.8277 -1.2509  1.7772
 9430SOL     OW39751   3.189   3.259   2.500  0.0861  0.1687  0.6146
 9430SOL    HW139752   3.217   3.190   2.440 -0.3848 -0.3987  1.0438
 9430SOL    HW239753   3.266   3.315   2.507  0.9517 -0.8796 -0.6339
 9431SOL     OW39754   3.363   4.620   3.447  0.6760 -0.0456 -0.5340
 9431SOL    HW139755   3.448   4.664   3.446  0.5210  0.3126  1.8059
 9431SOL    HW239756   3.371   4.549   3.511 -1.0129 -0.0177 -0.3056
 9432SOL     OW39757   0.043   1.571   1.972 -0.0305  0.1828 -0.3807
 9432SOL    HW139758   4.675   1.543   1.968 -0.1769  0.6406 -0.2016
 9432SOL    HW239759   0.032   1.589   2.065 -0.7269  1.2356 -0.6624
 9433SOL     OW39760   4.382   2.588  16.929 -0.3231 -0.2605  0.6455
 9433SOL    HW139761   4.363   2.677  16.961 -1.5895  0.3868 -1.9015
 9433SOL    HW239762   4.472   2.590  16.897 -0.9231 -2.5838 -1.1697
 9434SOL     OW39763   1.742   3.182  12.021 -0.0506  0.6481 -0.0376
 9434SOL    HW139764   1.819   3.207  11.971  0.8336  0.4959  1.2556
 9434SOL    HW239765   1.703   3.106  11.977  0.5751  0.6320 -0.5617
 9435SOL     OW39766   0.500   2.541  13.135 -0.3632 -0.2258 -0.1995
 9435SOL    HW139767   0.478   2.625  13.094  1.9460  1.0018  1.0970
 9435SOL    HW239768   0.569   2.510  13.075 -0.5983 -0.0529 -0.5617
 9436SOL     OW39769   1.077   1.926  10.350  0.0368  0.2319 -0.4134
 9436SOL    HW139770   1.078   1.832  10.366 -0.6367 -0.1943 -2.8699
 9436SOL    HW239771   1.165   1.947  10.318  1.2994 -0.8920  2.3746
 9437SOL     OW39772   3.071   4.632   3.469 -0.4856  0.3090 -0.3569
 9437SOL    HW139773   3.163   4.645   3.448 -0.2996  0.2634  0.4359
 9437SOL    HW239774   3.031   4.697   3.412  0.3195 -0.4461 -1.7808
 9438SOL     OW39775   4.510   2.243  13.510  0.6091 -0.1922  0.9293
 9438SOL    HW139776   4.429   2.285  13.539  0.4203  0.3359 -0.4025
 9438SOL    HW239777   4.551   2.209  13.590 -0.8523  0.5594  1.9914
 9439SOL     OW39778   2.676   3.134   7.641  0.0186 -0.0215 -0.1063
 9439SOL    HW139779   2.581   3.128   7.631  0.0828 -0.4098 -0.5060
 9439SOL    HW239780   2.688   3.228   7.636 -2.1082  0.2824  0.6864
 9440SOL     OW39781   0.653   3.732   6.466  0.1103 -0.1462  0.0147
 9440SOL    HW139782   0.631   3.805   6.409  1.2965 -0.7834 -1.2461
 9440SOL    HW239783   0.575   3.725   6.523 -0.2053  0.4058 -0.3499
 9441SOL     OW39784   0.478   4.044   3.065 -0.1514  0.4451  0.3264
 9441SOL    HW139785   0.476   4.031   2.971  1.4542  0.3923  0.3011
 9441SOL    HW239786   0.551   4.104   3.080  1.8005 -1.4816 -1.4758
 9442SOL     OW39787   0.238   2.035   2.779  0.1933 -0.3010 -0.3577
 9442SOL    HW139788   0.285   2.067   2.702  0.4007  1.1528  0.3649
 9442SOL    HW239789   0.180   2.107   2.804  0.7714  0.2942 -0.7364
 9443SOL     OW39790   4.623   0.883   8.845 -0.2753  0.4209 -0.3576
 9443SOL    HW139791   4.701   0.829   8.857 -1.7946 -1.8459 -0.7309
 9443SOL    HW239792   4.586   0.837   8.770  2.4006 -1.9326 -0.2447
 9444SOL     OW39793   3.620   3.471   4.653 -0.0162 -0.0981  0.3191
 9444SOL    HW139794   3.654   3.385   4.628  2.1536  0.5557  1.0444
 9444SOL    HW239795   3.645   3.523   4.576 -1.7087  1.1433  0.6251
 9445SOL     OW39796   2.345   0.142   7.373  0.1719 -0.6693 -0.3644
 9445SOL    HW139797   2.276   0.081   7.349 -1.0896  0.0990  1.3295
 9445SOL    HW239798   2.358   0.129   7.467 -0.2029  1.2242 -0.0532
 9446SOL     OW39799   0.026   1.033   7.332 -0.5177 -0.6914  0.1147
 9446SOL    HW139800   0.066   1.083   7.261 -1.0551  0.4075  0.5758
 9446SOL    HW239801   0.055   0.944   7.312 -0.9152 -0.4226 -1.6411
 9447SOL     OW39802   0.069   0.428  14.790 -0.6850  0.0486 -0.5405
 9447SOL    HW139803   0.153   0.382  14.795 -0.5957 -0.0534 -2.9622
 9447SOL    HW239804   0.086   0.475  14.709 -0.8552  0.8872 -0.0871
 9448SOL     OW39805   1.986   4.460   8.363 -0.6148  1.0365 -0.0496
 9448SOL    HW139806   1.939   4.483   8.442  0.9008  0.3506  1.0521
 9448SOL    HW239807   2.068   4.508   8.374 -0.3699  0.3762  0.9822
 9449SOL     OW39808   1.687   3.991   7.019 -0.4260  0.3322 -0.1349
 9449SOL    HW139809   1.753   4.015   6.954  2.0486 -1.0142  1.8730
 9449SOL    HW239810   1.731   3.932   7.080 -0.5766 -1.8681 -2.1616
 9450SOL     OW39811   1.131   0.030   5.634 -0.0589 -0.7641  0.1882
 9450SOL    HW139812   1.132   4.710   5.719  0.6404 -0.4162  0.3634
 9450SOL    HW239813   1.216   0.075   5.638 -0.2732 -0.5639  2.7443
 9451SOL     OW39814   1.564   3.681   5.048  0.0764 -0.3446 -0.2524
 9451SOL    HW139815   1.656   3.663   5.027  0.4932 -0.2718  1.5718
 9451SOL    HW239816   1.576   3.749   5.114  0.5748 -0.1794 -0.5101
 9452SOL     OW39817   3.709   3.522   6.171  0.0311  0.5389  0.0394
 9452SOL    HW139818   3.660   3.440   6.164  1.0937 -0.1852  1.0382
 9452SOL    HW239819   3.798   3.514   6.137 -0.3433 -1.9263 -0.3298
 9453SOL     OW39820   0.553   1.727   9.148  0.4751  0.1433  0.6731
 9453SOL    HW139821   0.479   1.701   9.094 -0.5005  2.2960  0.9465
 9453SOL    HW239822   0.600   1.791   9.094  0.6075 -2.2438 -1.9688
 9454SOL     OW39823   3.091   4.462   8.862 -0.2730 -0.0011  0.3068
 9454SOL    HW139824   3.019   4.524   8.866 -0.2098  0.2668 -2.8081
 9454SOL    HW239825   3.047   4.388   8.820  0.2325  0.3963 -0.9321
 9455SOL     OW39826   1.054   2.830   1.770  0.0002  0.3577  0.1941
 9455SOL    HW139827   1.143   2.863   1.778 -0.2346  1.4973 -2.0839
 9455SOL    HW239828   1.057   2.809   1.677  0.6697  0.5371  0.1793
 9456SOL     OW39829   4.308   4.486  16.787  0.4597 -0.8675  0.0623
 9456SOL    HW139830   4.355   4.489  16.704 -2.4445  3.8851 -1.4386
 9456SOL    HW239831   4.237   4.427  16.763  0.5640 -0.5185 -1.1050
 9457SOL     OW39832   3.850   3.263   1.193 -0.4015 -0.1891 -0.7859
 9457SOL    HW139833   3.789   3.195   1.165  0.6236 -0.0566 -3.3591
 9457SOL    HW239834   3.909   3.215   1.250 -1.1683  0.1425  0.2981
 9458SOL     OW39835   0.537   1.072  15.834  0.0094  0.3365  0.5915
 9458SOL    HW139836   0.570   0.995  15.880 -0.4955  0.8850  1.8640
 9458SOL    HW239837   0.450   1.040  15.809 -0.2246  1.3193  0.1823
 9459SOL     OW39838   1.857   4.479   6.618  0.3774 -0.0925 -0.3719
 9459SOL    HW139839   1.946   4.446   6.633  0.8042  1.1275 -0.2513
 9459SOL    HW239840   1.813   4.470   6.702  0.4190  2.6515 -0.0448
 9460SOL     OW39841   1.372   2.979  15.134 -0.3337 -0.6056  0.5689
 9460SOL    HW139842   1.466   2.990  15.151 -0.4595 -0.9032  1.4559
 9460SOL    HW239843   1.330   3.041  15.194 -0.9685 -0.2047 -0.2818
 9461SOL     OW39844   2.038   1.111   4.429 -0.2736 -0.1310 -0.0581
 9461SOL    HW139845   1.994   1.104   4.344 -0.1930 -0.9643 -0.0328
 9461SOL    HW239846   1.978   1.056   4.479 -0.1556 -1.5073 -1.4291
 9462SOL     OW39847   1.390   1.784   7.196 -0.0013 -1.1429 -0.0040
 9462SOL    HW139848   1.366   1.695   7.170 -1.7198 -1.2787  1.9572
 9462SOL    HW239849   1.477   1.761   7.228  0.2090 -0.7048 -0.2650
 9463SOL     OW39850   3.108   0.462  16.176  0.5039  0.3276 -0.8830
 9463SOL    HW139851   3.045   0.524  16.214 -1.4953 -1.6644 -0.9759
 9463SOL    HW239852   3.133   0.509  16.096  2.4563  1.0968  0.1575
 9464SOL     OW39853   2.494   3.034  17.000 -0.8231  0.1258  0.2733
 9464SOL    HW139854   2.426   3.068  17.058 -1.1512 -1.1914  0.6716
 9464SOL    HW239855   2.561   3.103  16.998 -0.0975 -0.5570  1.2326
 9465SOL     OW39856   1.697   4.635  15.184 -0.0780 -0.0755 -0.0649
 9465SOL    HW139857   1.691   4.711  15.126  0.1044  0.3043  0.4190
 9465SOL    HW239858   1.633   4.657  15.251  1.1066 -0.4908  1.2010
 9466SOL     OW39859   3.012   4.716   8.065  0.2595 -0.3039 -0.4945
 9466SOL    HW139860   2.996   0.086   8.055  0.4931 -0.3092 -0.9127
 9466SOL    HW239861   3.073   4.716   8.138 -0.8357  0.2158  0.4347
 9467SOL     OW39862   3.816   0.263   1.325  0.0891 -0.3703  0.3373
 9467SOL    HW139863   3.784   0.290   1.411  0.5941  1.5393 -0.0711
 9467SOL    HW239864   3.738   0.268   1.269 -0.8357  0.5729  1.7255
 9468SOL     OW39865   1.379   4.485  14.857  0.0102  0.0047  0.3718
 9468SOL    HW139866   1.370   4.437  14.940 -0.2211  0.4765  0.6208
 9468SOL    HW239867   1.286   4.479  14.833 -0.3708  0.9125  1.6127
 9469SOL     OW39868   0.428   1.357  15.895 -0.1039 -0.3840 -0.1096
 9469SOL    HW139869   0.459   1.314  15.816 -0.5966  0.2911 -0.6781
 9469SOL    HW239870   0.418   1.282  15.953  1.3134  0.7780  1.6440
 9470SOL     OW39871   2.718   2.044   3.324 -0.0373  0.5400  0.1234
 9470SOL    HW139872   2.758   2.109   3.266 -2.7262  1.1152 -1.1257
 9470SOL    HW239873   2.796   2.006   3.362 -0.6374 -3.2576 -2.4992
 9471SOL     OW39874   2.702   3.419   4.961  0.0026  0.2218 -0.2312
 9471SOL    HW139875   2.746   3.410   5.045 -1.0137  0.6352  0.3461
 9471SOL    HW239876   2.624   3.468   4.987  0.0553  0.6129 -0.7952
 9472SOL     OW39877   3.698   4.250   8.656 -0.1522  0.6898  0.1949
 9472SOL    HW139878   3.742   4.270   8.573 -0.1028 -0.7126 -0.1204
 9472SOL    HW239879   3.727   4.161   8.676  0.1856  0.0068 -3.2057
 9473SOL     OW39880   3.236   2.563  10.750  0.3615 -0.1534  0.4415
 9473SOL    HW139881   3.284   2.582  10.670 -1.3641  2.8723  0.1353
 9473SOL    HW239882   3.274   2.486  10.793 -1.2456 -1.0336  0.2421
 9474SOL     OW39883   1.930   3.112   3.363  0.3777  0.0482 -0.5274
 9474SOL    HW139884   1.845   3.124   3.322  0.3967  0.3502 -0.4839
 9474SOL    HW239885   1.900   3.093   3.452  0.8973  0.0801 -0.3457
 9475SOL     OW39886   3.455   1.670   7.708 -0.8845  0.6716 -0.1790
 9475SOL    HW139887   3.441   1.576   7.697  2.3634  0.2633 -0.8578
 9475SOL    HW239888   3.550   1.674   7.721 -1.0818 -0.3284  1.5892
 9476SOL     OW39889   0.506   3.110   5.412  0.0020 -0.4543  0.3310
 9476SOL    HW139890   0.474   3.141   5.327  0.4177 -0.2726  0.2412
 9476SOL    HW239891   0.490   3.016   5.415  2.7473 -0.8991  1.3805
 9477SOL     OW39892   1.122   0.989   7.930  0.2986 -0.0607  0.4695
 9477SOL    HW139893   1.207   0.993   7.885 -0.7372 -0.8482 -1.5984
 9477SOL    HW239894   1.058   0.985   7.859  0.1877  1.0117  0.5112
 9478SOL     OW39895   2.035   2.650  14.762  0.1536 -0.2076  0.1503
 9478SOL    HW139896   1.945   2.629  14.738 -0.4648  1.1611  1.2872
 9478SOL    HW239897   2.025   2.628  14.854  0.1338  1.4358  0.5307
 9479SOL     OW39898   0.578   2.511   9.689 -0.1722  0.5595  0.1043
 9479SOL    HW139899   0.485   2.533   9.681  0.6316  3.2418 -2.0809
 9479SOL    HW239900   0.600   2.521   9.596 -1.3955 -0.8227 -0.3405
 9480SOL     OW39901   3.627   2.305   5.277  0.7748 -0.6946 -0.1573
 9480SOL    HW139902   3.666   2.226   5.313  1.0834 -0.4051  0.1409
 9480SOL    HW239903   3.642   2.287   5.184  0.6926 -0.1454 -0.2809
 9481SOL     OW39904   2.153   3.422   9.633 -0.2659  0.1602 -0.8031
 9481SOL    HW139905   2.073   3.380   9.664  1.3117 -1.3189  1.2871
 9481SOL    HW239906   2.123   3.513   9.626 -0.9233 -0.0001 -0.0965
 9482SOL     OW39907   3.520   3.079   2.622  0.0981  0.0797  0.4549
 9482SOL    HW139908   3.588   3.132   2.664  0.0190  0.3371  0.2585
 9482SOL    HW239909   3.502   3.144   2.554 -0.2912 -0.4810  0.0254
 9483SOL     OW39910   2.740   0.418   7.838  0.2498 -0.0696 -0.4823
 9483SOL    HW139911   2.819   0.370   7.862  0.8633  2.2515  2.1497
 9483SOL    HW239912   2.708   0.414   7.929 -0.5317 -1.4850 -0.8111
 9484SOL     OW39913   2.567   3.852   2.777 -0.4930  0.6377 -0.4823
 9484SOL    HW139914   2.514   3.772   2.783  2.5675 -1.5427 -2.1820
 9484SOL    HW239915   2.575   3.870   2.683  1.0444  3.9879  0.2847
 9485SOL     OW39916   3.635   3.073  17.665 -0.0255  0.2148  0.4420
 9485SOL    HW139917   3.614   2.996   0.021 -0.6877  0.6140  0.7658
 9485SOL    HW239918   3.667   3.137   0.033 -1.0049  0.8418  0.2921
 9486SOL     OW39919   3.468   0.395   0.475  0.1524  0.1979  0.3936
 9486SOL    HW139920   3.515   0.367   0.553  0.5761 -0.3623 -0.0621
 9486SOL    HW239921   3.442   0.485   0.495  0.9176  0.2693  1.0824
 9487SOL     OW39922   1.689   3.871  15.216  0.1998  0.7039 -0.2122
 9487SOL    HW139923   1.745   3.946  15.238  1.1598  0.5152 -2.0007
 9487SOL    HW239924   1.746   3.796  15.229 -1.4045 -0.2501  1.2431
 9488SOL     OW39925   1.052   2.106   0.671 -0.4471 -0.2485  0.0541
 9488SOL    HW139926   1.057   2.122   0.577  0.7674  0.7409  0.2678
 9488SOL    HW239927   1.050   2.193   0.711 -2.1647 -0.5369  0.5933
 9489SOL     OW39928   3.498   3.563   7.041  0.3028  0.0014  0.0037
 9489SOL    HW139929   3.489   3.486   7.097  0.8223  0.1215  0.2565
 9489SOL    HW239930   3.489   3.526   6.954 -1.6019 -1.0603  0.6497
 9490SOL     OW39931   0.770   0.227   4.372 -0.3992  0.4816  0.2370
 9490SOL    HW139932   0.767   0.133   4.387 -0.4026 -0.1138 -3.7096
 9490SOL    HW239933   0.692   0.255   4.421  0.3204  0.1503  1.5872
 9491SOL     OW39934   2.773   0.429   3.426 -0.2066  0.3739 -0.0247
 9491SOL    HW139935   2.830   0.423   3.349 -1.5955  0.1898 -1.0246
 9491SOL    HW239936   2.716   0.353   3.415 -2.3949  1.8293  1.3409
 9492SOL     OW39937   2.794   3.429  17.126 -0.5428  0.4172  0.5781
 9492SOL    HW139938   2.886   3.403  17.119 -0.8394 -0.4240 -0.3155
 9492SOL    HW239939   2.784   3.423  17.221  0.2119 -0.0436  0.6234
 9493SOL     OW39940   4.255   4.186   3.880  0.1076 -0.0284 -0.2028
 9493SOL    HW139941   4.258   4.097   3.917 -3.3240 -0.1050 -0.1163
 9493SOL    HW239942   4.314   4.238   3.934  2.3699 -0.7312 -1.9987
 9494SOL     OW39943   0.510   2.261  15.166 -0.5832  0.0458 -0.3214
 9494SOL    HW139944   0.426   2.241  15.208  0.0320  3.0186  2.3182
 9494SOL    HW239945   0.548   2.334  15.215  0.1333 -0.8096  0.3933
 9495SOL     OW39946   4.526   0.484   1.284  0.3974  0.3368 -0.0183
 9495SOL    HW139947   4.540   0.565   1.233  0.2395 -0.0024 -0.6037
 9495SOL    HW239948   4.449   0.511   1.335 -1.4018 -2.4416 -1.2570
 9496SOL     OW39949   2.240   1.727   7.527  0.1294  0.9048 -0.2109
 9496SOL    HW139950   2.277   1.721   7.616  0.6370  1.1612 -0.4054
 9496SOL    HW239951   2.163   1.672   7.542  0.8476  0.1000  0.5871
 9497SOL     OW39952   4.128   2.819   4.809 -0.1616  0.4242 -0.1621
 9497SOL    HW139953   4.036   2.800   4.794 -0.5480  2.6794 -0.6895
 9497SOL    HW239954   4.155   2.745   4.862 -1.4360  0.7440  0.9323
 9498SOL     OW39955   4.043   0.963  10.550 -0.3644 -0.0326 -0.4838
 9498SOL    HW139956   4.001   0.891  10.597  1.3460  0.0113  1.1463
 9498SOL    HW239957   4.065   1.025  10.620 -0.0901 -0.9946  0.2819
 9499SOL     OW39958   0.501   3.715   5.673  0.3152  0.5104 -0.3817
 9499SOL    HW139959   0.428   3.681   5.724  0.7711 -3.3214 -2.3100
 9499SOL    HW239960   0.533   3.632   5.637 -0.6328  0.5275 -1.2833
 9500SOL     OW39961   4.165   0.229   7.457 -0.3787  0.0928 -0.0987
 9500SOL    HW139962   4.235   0.250   7.394  0.1181 -2.4702 -0.4187
 9500SOL    HW239963   4.158   0.133   7.454  1.7771 -0.0407 -1.3725
 9501SOL     OW39964   4.309   1.296  15.141  0.1248  0.3769  0.0871
 9501SOL    HW139965   4.297   1.226  15.077  0.7049 -0.5684  1.0233
 9501SOL    HW239966   4.239   1.273  15.201 -1.2651 -0.6604 -1.9285
 9502SOL     OW39967   1.180   4.697   9.764  0.1871  0.0121 -0.1587
 9502SOL    HW139968   1.223   4.629   9.712  0.6577 -0.4392  0.8111
 9502SOL    HW239969   1.118   4.648   9.818  1.0739 -0.2960  0.5896
 9503SOL     OW39970   2.505   1.966   6.150 -0.3175  0.5115 -0.2327
 9503SOL    HW139971   2.482   2.051   6.111  1.4223 -0.4512 -3.3799
 9503SOL    HW239972   2.569   1.938   6.084  1.5506  0.2253  1.7274
 9504SOL     OW39973   4.495   1.383   6.236  0.5994 -0.2237  0.0236
 9504SOL    HW139974   4.508   1.476   6.218  0.4423 -0.3321 -0.6595
 9504SOL    HW239975   4.500   1.377   6.331  0.2420  1.8044  0.1691
 9505SOL     OW39976   1.523   4.150   9.201 -0.4708  0.4006 -0.1400
 9505SOL    HW139977   1.446   4.189   9.160 -1.5923 -1.4824  0.1647
 9505SOL    HW239978   1.584   4.223   9.193  0.1796 -0.1230 -0.0049
 9506SOL     OW39979   0.201   3.883   6.484 -0.3706 -0.0448 -0.4817
 9506SOL    HW139980   0.209   3.810   6.545 -1.6002 -1.1938 -1.7083
 9506SOL    HW239981   0.181   3.848   6.397  1.0594  1.0657 -1.2645
 9507SOL     OW39982   3.919   1.067   6.493 -0.1234 -0.0358  0.1332
 9507SOL    HW139983   3.963   1.146   6.526 -1.0795 -0.1292  1.6097
 9507SOL    HW239984   3.839   1.102   6.455 -0.2731 -0.5770 -0.0500
 9508SOL     OW39985   2.720   3.003   2.988  0.3962  0.2906 -0.0301
 9508SOL    HW139986   2.763   3.037   2.910 -1.4914  0.3143 -1.0749
 9508SOL    HW239987   2.724   3.080   3.045  0.0443  0.8252 -0.7280
 9509SOL     OW39988   4.623   3.415  11.944 -0.4894  0.0503  0.0694
 9509SOL    HW139989   4.652   3.368  12.022 -0.7947 -0.6148 -0.2223
 9509SOL    HW239990   4.536   3.448  11.968 -0.0778 -0.6903  2.6023
 9510SOL     OW39991   1.720   0.908  17.584 -0.0506 -0.7957  0.5018
 9510SOL    HW139992   1.754   0.990  17.548 -0.9801 -0.5217  0.2616
 9510SOL    HW239993   1.656   0.931  17.651  0.0888  0.7913  0.0755
 9511SOL     OW39994   3.114   0.219   4.718 -0.1883 -0.1239 -0.0085
 9511SOL    HW139995   3.100   0.126   4.734 -2.0209 -0.2152 -1.9871
 9511SOL    HW239996   3.069   0.258   4.793  0.1995 -0.4749  0.4044
 9512SOL     OW39997   1.771   0.914   3.798  0.3361 -0.1375 -0.5610
 9512SOL    HW139998   1.788   0.860   3.721 -0.7995 -3.3617  1.4320
 9512SOL    HW239999   1.722   0.862   3.862 -0.2093  3.1235  1.6448
 9513SOL     OW40000   0.608   2.174  10.286  0.0038  0.1363 -0.5627
 9513SOL    HW140001   0.567   2.087  10.284 -0.5993  0.4375 -1.0968
 9513SOL    HW240002   0.696   2.137  10.286  0.9394  2.3561  2.6168
 9514SOL     OW40003   0.654   2.141   6.580  0.0909  0.2052 -0.6748
 9514SOL    HW140004   0.692   2.095   6.654 -0.6837  2.4026  1.0748
 9514SOL    HW240005   0.689   2.229   6.593 -1.2803  0.1838  3.0674
 9515SOL     OW40006   2.484   2.766  17.109  0.3873  0.5657  0.0902
 9515SOL    HW140007   2.500   2.846  17.061  2.9272 -0.8265 -1.3692
 9515SOL    HW240008   2.501   2.802  17.196  2.0244 -0.2067  0.0842
 9516SOL     OW40009   4.656   3.805   3.681  0.2099 -0.1858  0.7515
 9516SOL    HW140010   4.590   3.855   3.633  0.3258 -1.5105 -0.7903
 9516SOL    HW240011   0.010   3.860   3.683 -0.2234  0.3246  4.3203
 9517SOL     OW40012   3.432   0.350   6.921  0.4045 -0.1416  0.0971
 9517SOL    HW140013   3.445   0.273   6.975 -0.7933  0.4607  1.2427
 9517SOL    HW240014   3.362   0.327   6.860  0.3762  0.1153  0.0301
 9518SOL     OW40015   0.196   0.692   3.076 -0.0693 -0.2440 -0.1347
 9518SOL    HW140016   0.206   0.716   2.984 -1.0104 -1.9126 -0.6722
 9518SOL    HW240017   0.286   0.667   3.093 -0.1487 -0.3597  0.1179
 9519SOL     OW40018   0.072   2.486   4.713  0.1011 -0.2648  0.0678
 9519SOL    HW140019   0.115   2.529   4.787 -0.3895 -2.6867  1.7837
 9519SOL    HW240020   0.134   2.503   4.643 -0.8361 -0.4100 -0.8017
 9520SOL     OW40021   3.730   2.057   5.353  0.5923  0.2953  0.5061
 9520SOL    HW140022   3.756   1.964   5.348  1.2211  0.5090 -0.2603
 9520SOL    HW240023   3.811   2.093   5.388  1.2497 -1.8243  1.1958
 9521SOL     OW40024   2.110   2.606   3.975  0.1041 -0.3026  0.2377
 9521SOL    HW140025   2.063   2.532   4.014  2.6262 -1.3869  1.2603
 9521SOL    HW240026   2.081   2.601   3.884  1.4076  2.5711 -0.3327
 9522SOL     OW40027   2.498   2.294   3.617 -0.2632  0.7332 -0.4559
 9522SOL    HW140028   2.573   2.247   3.582  0.7327  2.2978 -0.3967
 9522SOL    HW240029   2.437   2.221   3.606 -0.5781  0.8456  0.4946
 9523SOL     OW40030   3.267   1.588  12.349 -0.4765 -0.2015 -0.0957
 9523SOL    HW140031   3.311   1.657  12.399 -0.4172 -0.3495  0.0566
 9523SOL    HW240032   3.283   1.601  12.256  1.2256 -0.1347  0.2198
 9524SOL     OW40033   4.666   0.237   2.841 -0.0393 -0.3471 -0.2075
 9524SOL    HW140034   4.689   0.198   2.756 -2.0788 -0.5168 -0.6912
 9524SOL    HW240035   0.027   0.257   2.882 -0.0146 -1.7161  0.4108
 9525SOL     OW40036   2.704   1.619   5.968 -0.0274  0.1769  0.7065
 9525SOL    HW140037   2.730   1.585   6.054  0.1354 -0.2003  0.5092
 9525SOL    HW240038   2.769   1.576   5.913  0.3462 -0.3369  1.5471
 9526SOL     OW40039   0.405   0.835   7.708  0.0357 -0.4027 -0.0957
 9526SOL    HW140040   0.487   0.786   7.703  0.1337 -0.1788 -0.7009
 9526SOL    HW240041   0.369   0.792   7.785  2.3485 -0.1535  1.1234
 9527SOL     OW40042   1.516   3.144   9.225  0.8130  0.4465  0.0175
 9527SOL    HW140043   1.590   3.084   9.215 -0.4854 -1.3602  1.2429
 9527SOL    HW240044   1.472   3.110   9.303  4.0356 -2.6074  0.5142
 9528SOL     OW40045   1.864   1.204  10.442 -0.7029  0.1249  0.5213
 9528SOL    HW140046   1.794   1.218  10.506 -0.8576  1.3868  0.0658
 9528SOL    HW240047   1.896   1.119  10.472  1.6329  0.7083 -0.3189
 9529SOL     OW40048   0.790   3.800   1.393 -0.2813 -0.0278  0.4570
 9529SOL    HW140049   0.788   3.867   1.324  0.1242 -1.5771 -1.0304
 9529SOL    HW240050   0.708   3.817   1.440  0.0455  2.0877  0.2985
 9530SOL     OW40051   0.205   1.046  16.929  0.2812  0.1748  0.2045
 9530SOL    HW140052   0.187   1.005  16.845 -0.2676 -2.0534  1.4096
 9530SOL    HW240053   0.180   1.136  16.907 -1.0129  0.1842  1.7345
 9531SOL     OW40054   2.963   2.840   3.975 -0.2605 -0.3718  0.2316
 9531SOL    HW140055   2.940   2.859   4.066  0.9529 -1.7515  0.8269
 9531SOL    HW240056   2.900   2.768   3.967 -2.3819  0.9599  4.6731
 9532SOL     OW40057   1.024   0.664   7.225 -0.2059 -0.1955 -0.4239
 9532SOL    HW140058   1.051   0.748   7.187  2.2048 -1.4228 -1.4284
 9532SOL    HW240059   1.109   0.645   7.265  0.3334 -2.9657 -2.9345
 9533SOL     OW40060   3.122   3.009   4.319  0.2057 -0.3229  0.0877
 9533SOL    HW140061   3.026   3.003   4.323  0.1754  0.4130  0.4686
 9533SOL    HW240062   3.145   2.966   4.237 -2.4660 -2.1422  0.2962
 9534SOL     OW40063   0.585   3.135   4.932  0.2975  0.4469 -0.1563
 9534SOL    HW140064   0.612   3.186   5.009 -0.7148  0.9520 -0.1268
 9534SOL    HW240065   0.660   3.082   4.907 -0.6355 -1.4615  1.0740
 9535SOL     OW40066   1.009   3.260   2.533 -0.0591 -0.0015 -0.0232
 9535SOL    HW140067   1.008   3.248   2.438 -0.6271 -0.4023  0.0316
 9535SOL    HW240068   0.964   3.180   2.559 -0.6281 -0.1102 -1.3676
 9536SOL     OW40069   0.048   2.803   7.604  0.2497  0.3228 -0.1822
 9536SOL    HW140070   0.141   2.794   7.627  0.1141  1.4445  0.7981
 9536SOL    HW240071   0.053   2.814   7.509  2.2241  0.1869 -0.0957
 9537SOL     OW40072   1.675   2.378   0.474  0.8643 -0.2183 -0.3338
 9537SOL    HW140073   1.758   2.424   0.464  0.9181 -0.8476 -2.6245
 9537SOL    HW240074   1.674   2.360   0.568 -0.6588  1.0415 -0.1135
 9538SOL     OW40075   2.037   4.221   0.777  0.0707  0.4503  0.7222
 9538SOL    HW140076   2.059   4.151   0.716  1.6508  1.3066  0.3046
 9538SOL    HW240077   2.015   4.178   0.860 -0.8896 -0.8287 -0.2061
 9539SOL     OW40078   2.594   1.074  17.475  0.3381 -0.4834  0.0487
 9539SOL    HW140079   2.532   1.134  17.432 -1.7430 -2.9343 -0.3788
 9539SOL    HW240080   2.530   1.011  17.509 -0.6600 -0.5859 -2.0350
 9540SOL     OW40081   2.611   0.548   5.145  0.5225 -0.3493  0.1388
 9540SOL    HW140082   2.545   0.555   5.077  1.1237 -3.2538 -0.7337
 9540SOL    HW240083   2.580   0.472   5.194 -0.3192  0.3088  0.6151
 9541SOL     OW40084   2.130   0.706   3.547 -0.1024 -0.0697 -0.0402
 9541SOL    HW140085   2.186   0.781   3.565  0.1428  0.8206 -4.5333
 9541SOL    HW240086   2.152   0.655   3.624  1.9290  1.0362  0.0970
 9542SOL     OW40087   1.649   3.457  13.222  1.2136 -0.4012  0.5399
 9542SOL    HW140088   1.676   3.426  13.309  2.0110  1.0843  0.8182
 9542SOL    HW240089   1.632   3.368  13.190 -0.6369  0.6443 -1.4028
 9543SOL     OW40090   1.835   1.886   3.083  0.1806  0.3272  0.3149
 9543SOL    HW140091   1.823   1.971   3.125  2.3342  0.3786  0.8573
 9543SOL    HW240092   1.776   1.899   3.009 -0.8343 -0.2264  1.0410
 9544SOL     OW40093   3.133   0.263   5.493  0.0775  0.1349  0.0648
 9544SOL    HW140094   3.064   0.303   5.546  1.9409  1.1639  1.7186
 9544SOL    HW240095   3.075   0.189   5.475  2.2209 -2.2132  2.6727
 9545SOL     OW40096   1.679   3.989  12.794  0.2305 -0.1164 -0.3406
 9545SOL    HW140097   1.753   3.957  12.742 -0.0983 -0.8637 -0.3561
 9545SOL    HW240098   1.624   3.912  12.809 -1.1147  1.2506  1.8083
 9546SOL     OW40099   0.287   2.261  15.308 -0.2319 -0.0388 -0.0587
 9546SOL    HW140100   0.245   2.271  15.222  2.1995 -0.7056 -1.3280
 9546SOL    HW240101   0.211   2.247  15.364  0.4161 -0.9418  0.5876
 9547SOL     OW40102   2.364   2.781  16.798  0.1845 -0.2364  0.6072
 9547SOL    HW140103   2.455   2.753  16.788  0.7504  1.5082  0.8780
 9547SOL    HW240104   2.380   2.828  16.879  0.7562  0.0559  0.3252
 9548SOL     OW40105   1.031   2.034   8.825  0.0997 -0.1032  0.3447
 9548SOL    HW140106   1.065   2.115   8.863 -1.6052 -0.3102  2.3299
 9548SOL    HW240107   1.054   1.982   8.902  1.4920 -0.7950 -0.5371
 9549SOL     OW40108   0.070   1.441   5.406 -0.0672 -0.6112  0.2089
 9549SOL    HW140109   0.073   1.364   5.349 -0.9772  2.0142 -3.3193
 9549SOL    HW240110   4.702   1.434   5.434 -0.3672 -1.4758 -0.9580
 9550SOL     OW40111   4.675   2.027   5.103  0.0920  0.0897  0.0685
 9550SOL    HW140112   4.598   2.018   5.159  1.4174 -1.7989  1.5968
 9550SOL    HW240113   4.646   2.097   5.044  0.9939  1.0904  0.7975
 9551SOL     OW40114   3.100   1.616   6.981 -0.5131 -0.6876  0.5451
 9551SOL    HW140115   3.022   1.615   7.035  0.5608  0.1698  2.1182
 9551SOL    HW240116   3.165   1.604   7.050  0.3985 -3.2751 -0.7585
 9552SOL     OW40117   0.723   2.631   5.830  0.1499  0.1114 -0.1709
 9552SOL    HW140118   0.755   2.720   5.846  0.2238  0.2715 -1.1923
 9552SOL    HW240119   0.801   2.582   5.854  1.0892  1.1254 -1.1388
 9553SOL     OW40120   3.900   3.561  14.233  0.5646  0.0315  0.1023
 9553SOL    HW140121   3.952   3.640  14.216 -0.3543  0.2179 -1.7709
 9553SOL    HW240122   3.818   3.573  14.186  1.4953  0.9087 -1.3090
 9554SOL     OW40123   4.479   1.221   4.492  0.1075 -0.2873  0.3367
 9554SOL    HW140124   4.503   1.220   4.399 -2.1472  1.6844 -0.2660
 9554SOL    HW240125   4.509   1.309   4.515 -0.8927  0.1894 -0.1857
 9555SOL     OW40126   1.786   3.229   2.520 -0.0475 -0.3146 -0.0277
 9555SOL    HW140127   1.775   3.139   2.552  1.0638  0.6218  3.0112
 9555SOL    HW240128   1.742   3.278   2.591 -1.8932  0.0333 -1.4041
 9556SOL     OW40129   3.052   2.702   7.160 -0.4819 -0.0222 -0.2704
 9556SOL    HW140130   3.052   2.757   7.082  2.5379 -3.3747 -2.6234
 9556SOL    HW240131   3.146   2.689   7.175 -0.5811  0.3119  0.6234
 9557SOL     OW40132   0.347   0.353   8.555 -0.1090 -0.0167 -0.0341
 9557SOL    HW140133   0.396   0.334   8.475 -1.6622 -1.4519 -0.6634
 9557SOL    HW240134   0.263   0.332   8.514 -0.2666  1.0018 -0.2386
 9558SOL     OW40135   0.795   3.171   2.916 -0.6339  0.1374  0.4831
 9558SOL    HW140136   0.821   3.250   2.868 -2.1885 -0.0853 -0.7075
 9558SOL    HW240137   0.792   3.200   3.008  0.1931 -3.5117  1.6544
 9559SOL     OW40138   4.603   1.881   7.739  0.2928 -0.5740  0.4787
 9559SOL    HW140139   4.601   1.813   7.807 -1.2497 -1.8715 -0.8638
 9559SOL    HW240140   4.656   1.947   7.784 -2.3436  1.2256  0.9058
 9560SOL     OW40141   1.067   4.066   5.313  0.3019 -0.3487 -0.3370
 9560SOL    HW140142   1.105   3.983   5.283 -0.4655 -1.4875  1.7752
 9560SOL    HW240143   1.099   4.119   5.241  1.2411  0.9254  1.0072
 9561SOL     OW40144   3.556   1.943   8.325  0.2406 -0.0191  0.5931
 9561SOL    HW140145   3.552   2.037   8.342  0.7266  0.0509  0.3301
 9561SOL    HW240146   3.487   1.929   8.260  1.0390 -4.6280  0.7687
 9562SOL     OW40147   2.606   0.538   2.809 -0.0688 -0.5790  0.2482
 9562SOL    HW140148   2.549   0.603   2.768 -0.3412 -0.8486  0.1987
 9562SOL    HW240149   2.678   0.588   2.848  1.0142 -1.8363 -0.1538
 9563SOL     OW40150   0.121   2.030   6.568  0.3705 -0.6284  0.7609
 9563SOL    HW140151   0.159   1.976   6.498 -1.7251 -0.5481 -0.4541
 9563SOL    HW240152   0.029   2.034   6.538 -0.3285 -4.0723  2.4132
 9564SOL     OW40153   4.256   2.622   2.743 -0.5095 -0.2150 -0.0853
 9564SOL    HW140154   4.304   2.572   2.809  1.2554  0.8770 -0.5456
 9564SOL    HW240155   4.269   2.715   2.764 -2.2226  0.1223 -0.5025
 9565SOL     OW40156   0.476   3.990   9.181 -0.2620 -0.0733  0.1705
 9565SOL    HW140157   0.398   3.963   9.132 -0.3549 -0.4757  0.5277
 9565SOL    HW240158   0.523   3.907   9.186  0.0103  0.1714  1.6521
 9566SOL     OW40159   2.368   0.802   6.745 -0.0405 -0.4057 -0.7425
 9566SOL    HW140160   2.299   0.740   6.768 -1.1054  0.5047 -1.4818
 9566SOL    HW240161   2.423   0.801   6.823  1.6323 -5.5654 -1.9801
 9567SOL     OW40162   3.802   3.088   9.335 -0.2486 -0.4633  0.2010
 9567SOL    HW140163   3.717   3.070   9.375 -0.0755 -0.7563  0.4327
 9567SOL    HW240164   3.809   3.179   9.364  0.9639  0.2049 -2.1468
 9568SOL     OW40165   3.915   4.354   2.304  0.0805  0.1554 -0.1552
 9568SOL    HW140166   3.993   4.410   2.309  0.3331 -0.2209  0.0373
 9568SOL    HW240167   3.907   4.314   2.390 -1.9326 -0.6140 -0.6791
   4.72376   4.72376  17.69678
