Membrane in water
40167
    1TCq1    O1    1   1.977   3.643  11.194 -0.0303  0.0508  0.3289
    1TCq1    C1    2   2.047   3.547  11.256 -0.2071  0.3473  0.3065
    1TCq1    O2    3   2.025   3.521  11.374 -0.1474 -0.7622 -0.1196
    1TCq1    C2    4   2.186   3.572  11.210 -0.3561 -0.1450 -0.4992
    1TCq1    C3    5   2.212   3.557  11.074  0.4291 -0.2187 -0.3034
    1TCq1    C4    6   2.340   3.560  11.031  0.0255  0.4643 -0.9023
    1TCq1    C5    7   2.429   3.602  11.123 -0.1062 -0.0160 -0.0541
    1TCq1    C6    8   2.396   3.620  11.256 -0.1483 -0.2258  0.4942
    1TCq1    C7    9   2.275   3.600  11.306  0.4761 -0.1718  0.1318
    1TCq1    C8   10   2.508   3.662  11.345  0.1366 -0.4054 -0.2605
    1TCq1    O4   11   2.620   3.620  11.309 -0.4175  0.2831 -0.5563
    1TCq1    C9   12   2.375   3.528  10.897  1.0540 -0.3586  0.5060
    1TCq1    O5   13   2.287   3.486  10.824 -0.1665  0.0117 -0.1865
    1TCq1    O6   14   2.498   3.528  10.874  0.6178 -0.0281 -0.6239
    1TCq1    H1   15   2.002   3.660  11.101  1.5469 -2.1633  0.3376
    1TCq1    H2   16   2.132   3.517  11.012  0.0389 -0.6809  0.4938
    1TCq1    H3   17   2.530   3.617  11.086  0.0389  0.1319  0.3989
    1TCq1    H4   18   2.247   3.603  11.411  0.7079 -5.6995  0.3741
    2MPD2     C   19   2.725   3.971  11.697  0.1223 -0.2496  0.3558
    2MPD2    C1   20   2.587   3.966  11.719  0.2183  0.4332 -0.1553
    2MPD2    C2   21   2.506   3.888  11.637  0.1912  0.3217  0.2342
    2MPD2    C3   22   2.565   3.808  11.541  0.1091 -0.4216  0.7432
    2MPD2    C4   23   2.702   3.805  11.531 -0.9834 -0.1994 -0.5124
    2MPD2    C5   24   2.780   3.882  11.608  0.1906 -0.8764  0.5634
    2MPD2     H   25   2.400   3.881  11.657  0.3643 -2.2863  0.2051
    2MPD2    H1   26   2.744   3.737  11.459 -0.7903 -0.8708  0.2286
    2MPD2    H2   27   2.798   4.030  11.753  0.3591 -0.4637  0.2738
    2MPD2    H3   28   2.888   3.886  11.601 -0.0256  2.4135 -0.7636
    2MPD2     N   29   2.473   3.739  11.456 -0.0590 -0.0718  0.1689
    2MPD2    H5   30   2.373   3.758  11.465  0.1625  0.9581  0.4409
    2MPD2    N1   31   2.519   4.039  11.823 -0.0582  0.6010  0.2192
    2MPD2    H7   32   2.418   4.031  11.818  0.1807 -2.0844 -0.3232
    3TCq1    O1   33   2.158   4.170  10.675 -0.1984 -0.4424  0.3334
    3TCq1    C1   34   2.036   4.194  10.618  0.3674 -0.3827 -0.1991
    3TCq1    O2   35   1.931   4.169  10.666 -0.3154  0.3149 -0.1061
    3TCq1    C2   36   2.057   4.310  10.535 -0.4878 -0.2720  0.8478
    3TCq1    C3   37   2.162   4.307  10.443  0.5283  0.1623  0.3762
    3TCq1    C4   38   2.189   4.417  10.365  0.2779  0.8674 -0.1000
    3TCq1    C5   39   2.103   4.517  10.359  0.3026 -0.0702 -0.6153
    3TCq1    C6   40   1.988   4.505  10.441  0.6339 -0.2490  0.0805
    3TCq1    C7   41   1.967   4.406  10.530 -0.1152  0.5837 -0.4712
    3TCq1    C8   42   1.885   4.598  10.401 -0.0783  0.1238 -0.2214
    3TCq1    O4   43   1.915   4.707  10.352  0.0514  0.6609  0.3928
    3TCq1    C9   44   2.297   4.417  10.277 -0.4772 -0.4315 -0.1239
    3TCq1    O5   45   2.346   4.305  10.248  0.1583 -0.4732  0.1849
    3TCq1    O6   46   2.332   4.525  10.216 -0.1780 -0.2897  0.0690
    3TCq1    H1   47   2.227   4.204  10.614 -0.9292  0.2793 -0.0887
    3TCq1    H2   48   2.223   4.218  10.430 -1.0498 -0.7467 -0.7573
    3TCq1    H3   49   2.126   4.602  10.295 -1.3444  1.2237  0.5100
    3TCq1    H4   50   1.890   4.415  10.606  1.0471 -0.5608  0.8492
    4MPD2     C   51   1.396   0.021  10.435 -0.3772  0.1857  0.2017
    4MPD2    C1   52   1.514   0.092  10.456  0.4719 -0.1635  0.0127
    4MPD2    C2   53   1.637   0.026  10.447  0.2394  0.3099  0.2896
    4MPD2    C3   54   1.638   4.620  10.411  0.1634 -0.0757  0.2438
    4MPD2    C4   55   1.518   4.553  10.394 -0.2448  0.3528  0.0295
    4MPD2    C5   56   1.400   4.615  10.397 -0.3963  0.5157 -0.5736
    4MPD2     H   57   1.722   0.091  10.467  2.1414 -2.0061 -0.2918
    4MPD2    H1   58   1.522   4.445  10.380 -3.6329 -0.0387  2.0547
    4MPD2    H2   59   1.304   0.079  10.434 -0.6860 -0.3356 -1.6478
    4MPD2    H3   60   1.304   4.565  10.390  0.2655 -0.8334 -0.0966
    4MPD2     N   61   1.760   4.542  10.417 -0.2911 -1.0024  0.1709
    4MPD2    H5   62   1.762   4.442  10.433 -1.8796 -0.9639  0.5928
    4MPD2    N1   63   1.521   0.219  10.512 -0.8121  0.1326  0.5486
    4MPD2    H7   64   1.610   0.248  10.551  0.0675 -2.7588  0.6406
    5TCq1    O1   65   2.092   1.652  11.612  0.7363  0.5566 -0.3937
    5TCq1    C1   66   2.128   1.565  11.513 -0.3579  0.1484  0.2437
    5TCq1    O2   67   2.099   1.446  11.507  0.3208  0.3592  0.3009
    5TCq1    C2   68   2.239   1.623  11.437 -0.3454 -0.0791 -0.6249
    5TCq1    C3   69   2.310   1.726  11.488 -0.1538 -0.7626  0.3830
    5TCq1    C4   70   2.415   1.775  11.418  0.1215 -0.4421 -0.4720
    5TCq1    C5   71   2.449   1.723  11.298 -0.3927 -0.7360  0.3531
    5TCq1    C6   72   2.356   1.641  11.241  0.2637 -0.3400  0.0976
    5TCq1    C7   73   2.258   1.585  11.308  0.2569  0.2291 -0.1296
    5TCq1    C8   74   2.408   1.579  11.121 -0.2944  0.3752 -0.4701
    5TCq1    O4   75   2.525   1.580  11.095  0.3510  0.0845  0.2962
    5TCq1    C9   76   2.503   1.861  11.489  0.3303  1.0359 -0.2503
    5TCq1    O5   77   2.618   1.862  11.445  0.1381  0.0361 -0.0810
    5TCq1    O6   78   2.462   1.936  11.580  0.8439 -0.2285 -0.3455
    5TCq1    H1   79   2.089   1.748  11.593  0.0635  0.4638 -0.7656
    5TCq1    H2   80   2.310   1.749  11.594  0.6835 -0.5627  0.3419
    5TCq1    H3   81   2.544   1.745  11.251 -0.4410 -1.3563 -0.0360
    5TCq1    H4   82   2.188   1.511  11.271  0.0570 -0.0812  0.8495
    6MPD2     C   83   2.227   1.588  10.805 -0.8865  0.6657  0.8479
    6MPD2    C1   84   2.322   1.535  10.894  0.5569  0.2023 -0.5846
    6MPD2    C2   85   2.422   1.447  10.847  0.4984 -0.3623  0.8009
    6MPD2    C3   86   2.422   1.413  10.715  0.0422  1.0460 -0.7475
    6MPD2    C4   87   2.329   1.460  10.627 -0.4866  0.0058 -0.2144
    6MPD2    C5   88   2.243   1.555  10.671 -0.0999  1.0133 -0.0098
    6MPD2     H   89   2.492   1.406  10.919  3.1262 -0.5896 -1.8539
    6MPD2    H1   90   2.317   1.425  10.525  2.2726 -0.7240 -0.2910
    6MPD2    H2   91   2.142   1.650  10.828 -0.4520  1.5731  0.0416
    6MPD2    H3   92   2.174   1.596  10.598  1.0906  2.3361 -0.3874
    6MPD2     N   93   2.511   1.314  10.672  0.2097 -0.4661 -0.1093
    6MPD2    H5   94   2.570   1.270  10.743 -1.6765 -2.0639  0.4708
    6MPD2    N1   95   2.310   1.575  11.029 -0.3072  0.1612  0.2409
    6MPD2    H7   96   2.217   1.613  11.046  0.5396  2.5175 -0.3866
    7TCq1    O1   97   0.435   1.565  13.361 -0.1873 -0.2922  0.5440
    7TCq1    C1   98   0.454   1.446  13.415  0.1616 -0.3353 -0.1740
    7TCq1    O2   99   0.554   1.411  13.475  0.3502  0.6962 -0.4432
    7TCq1    C2  100   0.386   1.362  13.329  0.7972  0.8551 -0.2785
    7TCq1    C3  101   0.259   1.387  13.295 -0.2124 -0.4956  0.4148
    7TCq1    C4  102   0.179   1.296  13.240  0.2072  0.4835 -0.7348
    7TCq1    C5  103   0.228   1.169  13.234  0.5945 -0.7832 -0.3995
    7TCq1    C6  104   0.355   1.144  13.270  0.3281 -0.1248 -0.1817
    7TCq1    C7  105   0.436   1.235  13.319 -0.4468 -0.0055 -0.4210
    7TCq1    C8  106   0.402   1.009  13.269  0.4611 -0.0699  0.0977
    7TCq1    O4  107   0.317   0.919  13.272 -0.3144 -0.8088  0.4237
    7TCq1    C9  108   0.046   1.318  13.203 -0.6941  0.9744 -0.0263
    7TCq1    O5  109   0.013   1.440  13.188 -0.4506  0.4826  0.0404
    7TCq1    O6  110   4.699   1.218  13.184  0.2771  0.1215  0.3936
    7TCq1    H1  111   0.352   1.589  13.315  0.0172  1.5781  1.1297
    7TCq1    H2  112   0.208   1.475  13.332 -1.5316 -0.5804 -1.2472
    7TCq1    H3  113   0.165   1.087  13.201 -0.8216 -0.0996  0.5856
    7TCq1    H4  114   0.535   1.209  13.355 -1.3582 -2.4852  0.2694
    8MPD2     C  115   0.764   0.637  13.280 -0.9379 -0.3285 -0.0820
    8MPD2    C1  116   0.638   0.647  13.337 -0.6103 -0.0271  0.9369
    8MPD2    C2  117   0.557   0.760  13.324 -0.5800  0.2300  0.1434
    8MPD2    C3  118   0.609   0.879  13.270  0.0430  0.5640  0.6480
    8MPD2    C4  119   0.740   0.866  13.224 -0.5667  0.4945 -0.0284
    8MPD2    C5  120   0.818   0.751  13.228  0.1484  0.4132 -0.4482
    8MPD2     H  121   0.454   0.758  13.360 -0.3805  0.7675  0.7503
    8MPD2    H1  122   0.786   0.954  13.180  1.0996 -1.0754 -1.4148
    8MPD2    H2  123   0.821   0.545  13.271 -1.9861 -0.9478 -0.4173
    8MPD2    H3  124   0.920   0.748  13.193 -0.0504  0.4216 -1.0335
    8MPD2     N  125   0.541   0.997  13.256  0.5775 -0.1540 -0.6048
    8MPD2    H5  126   0.596   1.081  13.242  1.4256 -0.8244 -1.2697
    8MPD2    N1  127   0.593   0.531  13.400  0.3340  0.2884 -0.3484
    8MPD2    H7  128   0.656   0.453  13.414  0.9911  1.1134  1.3759
    9TCq1    O1  129   2.528   4.162  10.875  0.0655  0.3840  0.0016
    9TCq1    C1  130   2.500   4.247  10.978 -0.8090  0.0155  0.2558
    9TCq1    O2  131   2.393   4.248  11.035 -0.1054  0.0564 -0.2049
    9TCq1    C2  132   2.604   4.337  10.983 -0.0763  0.9774  0.1554
    9TCq1    C3  133   2.727   4.290  10.959  0.6634  0.0152 -0.4118
    9TCq1    C4  134   2.826   4.375  10.937 -0.6122 -0.2712 -0.5698
    9TCq1    C5  135   2.799   4.511  10.935  0.1813  0.3679 -0.1691
    9TCq1    C6  136   2.677   4.559  10.958  0.2428  0.2274 -0.6348
    9TCq1    C7  137   2.570   4.473  10.984 -0.0651 -0.2404  0.5816
    9TCq1    C8  138   2.657   4.706  10.947  0.3637 -0.6380 -0.8225
    9TCq1    O4  139   2.749   0.041  10.897  0.0068 -0.0307 -0.2512
    9TCq1    C9  140   2.968   4.333  10.940  0.0122  0.7085 -0.1384
    9TCq1    O5  141   3.051   4.425  10.910 -0.0696 -0.5414 -0.2700
    9TCq1    O6  142   2.987   4.208  10.955 -0.6903 -0.4536 -0.1112
    9TCq1    H1  143   2.609   4.189  10.827  0.2954  0.4416  0.4273
    9TCq1    H2  144   2.752   4.185  10.971  1.0518  0.1496 -0.0542
    9TCq1    H3  145   2.882   4.581  10.922 -0.1854  0.7910 -0.2342
    9TCq1    H4  146   2.471   4.515  10.997  0.4117  1.0889  0.0160
   10MPD2     C  147   2.587   0.268  10.960  0.4879  0.1075  0.3988
   10MPD2    C1  148   2.525   0.167  11.033 -0.2041  0.4442 -0.4671
   10MPD2    C2  149   2.428   0.205  11.121  0.7173  0.5926  0.1359
   10MPD2    C3  150   2.405   0.340  11.149 -0.0382  0.4175 -0.3593
   10MPD2    C4  151   2.484   0.437  11.090  0.5041  0.1619 -0.0895
   10MPD2    C5  152   2.563   0.399  10.992  0.1050 -0.3951  0.4599
   10MPD2     H  153   2.380   0.128  11.180 -0.1845  1.3474  0.3838
   10MPD2    H1  154   2.471   0.541  11.117  1.9385  0.6591 -1.3138
   10MPD2    H2  155   2.662   0.248  10.883 -0.6052  0.7116 -0.8263
   10MPD2    H3  156   2.617   0.473  10.933 -0.5661  0.5641  1.0596
   10MPD2     N  157   2.320   0.389  11.251 -0.2745 -0.0091  0.2233
   10MPD2    H5  158   2.324   0.485  11.285 -2.2530  0.4399 -0.8456
   10MPD2    N1  159   2.555   0.034  11.024 -0.4526  0.4296 -0.2757
   10MPD2    H7  160   2.486   4.700  11.070 -1.0867  3.0986  2.1953
   11TCq1    O1  161   3.727   0.404  13.976 -0.1706 -0.8637 -0.4640
   11TCq1    C1  162   3.833   0.347  14.035 -0.0810  0.3589  0.0072
   11TCq1    O2  163   3.948   0.371  14.007 -0.8069 -0.1444 -0.0975
   11TCq1    C2  164   3.792   0.303  14.170 -0.8720  0.0661  0.2884
   11TCq1    C3  165   3.875   0.314  14.269 -0.1258 -0.5364 -0.0439
   11TCq1    C4  166   3.839   0.313  14.402 -0.1263  0.2595  0.0282
   11TCq1    C5  167   3.704   0.308  14.435 -0.1088  0.3642 -0.7565
   11TCq1    C6  168   3.623   0.261  14.331  0.3732 -0.4192 -0.0794
   11TCq1    C7  169   3.663   0.269  14.196 -0.5037 -0.3576 -0.2774
   11TCq1    C8  170   3.485   0.245  14.358 -0.7968  0.3741  0.4729
   11TCq1    O4  171   3.431   0.307  14.450 -0.0596 -0.0566 -0.3514
   11TCq1    C9  172   3.929   0.343  14.503 -0.3202 -0.3975  0.5097
   11TCq1    O5  173   3.889   0.332  14.623 -0.3290  0.1835  0.0252
   11TCq1    O6  174   4.043   0.384  14.467 -0.0634 -0.4569 -0.3416
   11TCq1    H1  175   3.642   0.403  14.025 -0.9591 -1.5577 -1.8382
   11TCq1    H2  176   3.979   0.333  14.245  0.1388 -1.9226  0.0329
   11TCq1    H3  177   3.668   0.301  14.537  0.0379  1.6995 -0.6139
   11TCq1    H4  178   3.601   0.265  14.107  0.9678  1.3683 -1.3972
   12MPD2     C  179   3.204   0.134  14.327 -0.2233 -0.4317 -0.2820
   12MPD2    C1  180   3.310   0.103  14.245 -0.4258  0.0647 -0.0034
   12MPD2    C2  181   3.296   0.010  14.142 -0.0910  0.0982 -0.5005
   12MPD2    C3  182   3.175   4.672  14.117  0.1618 -0.5640  0.3004
   12MPD2    C4  183   3.068   4.697  14.201  0.3618  0.4080  0.6604
   12MPD2    C5  184   3.089   0.062  14.307 -0.0452 -0.4996  0.3829
   12MPD2     H  185   3.383   4.711  14.082  0.7666 -0.1553  0.8454
   12MPD2    H1  186   2.972   4.651  14.187  0.1226  0.3006  2.6781
   12MPD2    H2  187   3.220   0.202  14.410  0.9689  0.1992 -1.0378
   12MPD2    H3  188   3.013   0.100  14.373  2.3795 -0.1153  2.9595
   12MPD2     N  189   3.155   4.574  14.013 -0.0681 -0.0631  0.2869
   12MPD2    H5  190   3.059   4.544  14.007  0.0136  0.1417 -1.9755
   12MPD2    N1  191   3.435   0.162  14.254  0.0824  0.0408  0.2523
   12MPD2    H7  192   3.504   0.124  14.190  0.1178  0.4594  0.0431
   13TCq1    O1  193   2.759   0.678  11.436  0.1752 -0.1395  0.3895
   13TCq1    C1  194   2.693   0.601  11.342  0.4877  0.5022  0.0662
   13TCq1    O2  195   2.572   0.588  11.338  0.4597  0.2609  0.0286
   13TCq1    C2  196   2.792   0.493  11.314 -0.3116  0.1828  0.5072
   13TCq1    C3  197   2.881   0.519  11.209 -0.0484  0.1593 -0.2640
   13TCq1    C4  198   2.934   0.412  11.142  0.2296  0.7731  0.2568
   13TCq1    C5  199   2.907   0.285  11.189 -0.0307 -0.8821 -0.3023
   13TCq1    C6  200   2.817   0.268  11.297 -0.1871 -0.8760  1.1943
   13TCq1    C7  201   2.759   0.369  11.361  0.7372 -0.1260  0.0301
   13TCq1    C8  202   2.751   0.145  11.325 -0.1002 -1.1681  0.6839
   13TCq1    O4  203   2.643   0.139  11.379 -0.3519 -0.3542  0.0000
   13TCq1    C9  204   3.010   0.439  11.021  0.0458 -0.0499  0.6615
   13TCq1    O5  205   3.031   0.560  10.991 -0.1020  0.0931 -0.0232
   13TCq1    O6  206   3.038   0.351  10.938  0.0320  0.4102  0.5636
   13TCq1    H1  207   2.856   0.666  11.445  0.2912  2.3814  2.3951
   13TCq1    H2  208   2.893   0.616  11.161  2.5972  0.4911  1.0798
   13TCq1    H3  209   2.951   0.202  11.134 -0.1124 -0.6086 -0.7788
   13TCq1    H4  210   2.683   0.360  11.438 -1.4533  0.6035 -2.0341
   14MPD2     C  211   2.900   4.547  11.277  0.3495 -0.2346  0.7363
   14MPD2    C1  212   2.800   4.635  11.295  0.5379  0.0533  0.0929
   14MPD2    C2  213   2.673   4.590  11.324  0.7393 -0.3654  0.2789
   14MPD2    C3  214   2.653   4.452  11.342  0.5302 -0.5123  0.3078
   14MPD2    C4  215   2.766   4.361  11.333 -0.0031 -1.0789  0.0065
   14MPD2    C5  216   2.887   4.412  11.288 -0.4975  0.2887  0.3867
   14MPD2     H  217   2.589   4.657  11.340  0.0009 -1.1459 -0.3662
   14MPD2    H1  218   2.759   4.253  11.344  1.3308 -1.3315 -1.5307
   14MPD2    H2  219   2.996   4.584  11.242 -0.4888  0.9106 -0.3349
   14MPD2    H3  220   2.968   4.346  11.260 -1.8082 -0.0492 -2.6484
   14MPD2     N  221   2.523   4.409  11.366 -0.4082 -0.1508  0.3459
   14MPD2    H5  222   2.448   4.477  11.369  0.7317  1.1687 -0.4627
   14MPD2    N1  223   2.826   0.045  11.275  0.5355 -0.3452 -0.1384
   14MPD2    H7  224   2.917   0.076  11.244  0.5836 -1.8470 -1.5284
   15TCq1    O1  225   0.159   3.295   2.201 -0.6443  0.1501 -0.1835
   15TCq1    C1  226   0.273   3.348   2.155 -0.0512  0.1236  0.3639
   15TCq1    O2  227   0.388   3.305   2.167  0.1386 -0.2487 -0.3352
   15TCq1    C2  228   0.234   3.377   2.015  0.1990  0.0787 -0.5677
   15TCq1    C3  229   0.138   3.468   1.982  0.6020  0.1209  0.2727
   15TCq1    C4  230   0.110   3.488   1.848 -0.5427 -0.0587 -0.4021
   15TCq1    C5  231   0.180   3.423   1.750  0.3299  0.2492  0.5682
   15TCq1    C6  232   0.255   3.317   1.791 -0.1221 -0.5733  0.4450
   15TCq1    C7  233   0.294   3.298   1.919  1.1139 -0.5393  0.0279
   15TCq1    C8  234   0.320   3.229   1.695 -0.2711 -0.2991  0.1123
   15TCq1    O4  235   0.380   3.131   1.733  0.3557 -0.3280 -0.1333
   15TCq1    C9  236   0.016   3.592   1.819 -0.5983  0.1909 -0.2207
   15TCq1    O5  237   4.722   3.676   1.915 -0.0284  0.8476  0.5346
   15TCq1    O6  238   4.709   3.624   1.702 -0.1989 -0.6404  0.2485
   15TCq1    H1  239   0.086   3.348   2.165 -0.1997 -0.9762 -2.7395
   15TCq1    H2  240   0.073   3.514   2.055  0.1727 -0.0303 -0.0172
   15TCq1    H3  241   0.150   3.441   1.647 -1.1434 -0.4767  0.8626
   15TCq1    H4  242   0.355   3.215   1.953  0.1722 -1.5567 -0.8001
   16MPD2     C  243   0.294   3.243   1.325 -0.6863  0.2597  0.0109
   16MPD2    C1  244   0.329   3.188   1.448  0.0866 -0.1255 -0.3071
   16MPD2    C2  245   0.401   3.070   1.455  0.3476  0.4391 -0.7236
   16MPD2    C3  246   0.433   3.005   1.339 -0.1620  0.0694  0.0491
   16MPD2    C4  247   0.392   3.054   1.221 -0.5814  0.9526 -0.2213
   16MPD2    C5  248   0.321   3.167   1.211  0.2215  0.0935 -0.7482
   16MPD2     H  249   0.430   3.034   1.553 -1.8018  0.1281 -0.1823
   16MPD2    H1  250   0.427   3.006   1.131  0.7819 -0.0469  0.8526
   16MPD2    H2  251   0.239   3.336   1.328 -0.1423  0.6410 -1.9913
   16MPD2    H3  252   0.283   3.208   1.119 -2.4636  0.1417  0.3849
   16MPD2     N  253   0.511   2.885   1.352  0.6337 -0.3463 -0.3478
   16MPD2    H5  254   0.545   2.862   1.445 -2.1287  0.0062  0.7537
   16MPD2    N1  255   0.294   3.261   1.563  0.6493  0.4579 -0.4423
   16MPD2    H7  256   0.244   3.349   1.550  1.5855  1.0360 -0.1713
   17TCq1    O1  257   1.655   4.687  10.015 -0.6737  0.3199 -0.4299
   17TCq1    C1  258   1.624   4.560  10.027 -0.1169  0.1952  0.1293
   17TCq1    O2  259   1.514   4.507  10.043  0.1887  0.5633  0.4672
   17TCq1    C2  260   1.744   4.486  10.003  0.2014  0.1527  0.7518
   17TCq1    C3  261   1.846   4.541   9.932  0.4419 -0.5069  0.6400
   17TCq1    C4  262   1.971   4.486   9.964 -0.3218  0.0511 -0.6140
   17TCq1    C5  263   1.992   4.375  10.042 -0.6616  0.1324  0.1921
   17TCq1    C6  264   1.878   4.330  10.110  0.0681  0.3634 -0.1584
   17TCq1    C7  265   1.757   4.381  10.086  0.2713 -0.1173 -0.3107
   17TCq1    C8  266   1.892   4.218  10.203  0.7169 -0.0960 -0.6114
   17TCq1    O4  267   1.789   4.192  10.269  0.1125  0.3180 -0.1339
   17TCq1    C9  268   2.093   4.543   9.905 -0.3305 -0.0675 -0.0433
   17TCq1    O5  269   2.202   4.491   9.929 -0.1995 -0.2211  0.0026
   17TCq1    O6  270   2.083   4.626   9.808  0.2162 -0.5152  0.3245
   17TCq1    H1  271   1.752   4.702  10.006 -0.4066 -0.1968  1.7551
   17TCq1    H2  272   1.843   4.626   9.864  0.6555 -2.2580 -1.5396
   17TCq1    H3  273   2.093   4.352  10.077 -0.8208 -0.1297  0.4811
   17TCq1    H4  274   1.669   4.340  10.134  0.3711 -0.1547 -0.1602
   18MPD2     C  275   1.989   3.990  10.361 -0.2580 -0.5394  0.0989
   18MPD2    C1  276   2.054   4.038  10.253  0.2031  0.8267  0.6493
   18MPD2    C2  277   2.179   3.977  10.214 -0.1299  0.2366 -0.3906
   18MPD2    C3  278   2.233   3.869  10.280  0.4568  0.1660 -0.2784
   18MPD2    C4  279   2.161   3.817  10.384 -0.3811  0.7793  0.2192
   18MPD2    C5  280   2.045   3.877  10.425  0.3187 -0.6237 -1.3273
   18MPD2     H  281   2.227   4.015  10.124 -1.3186  1.2876 -0.5895
   18MPD2    H1  282   2.196   3.727  10.435 -1.1618 -0.6920 -1.8580
   18MPD2    H2  283   1.903   4.035  10.409  0.3275 -0.2598  0.8862
   18MPD2    H3  284   1.997   3.831  10.510 -2.4914 -0.3790 -2.7668
   18MPD2     N  285   2.357   3.810  10.239  0.0756 -0.4140 -0.0031
   18MPD2    H5  286   2.394   3.727  10.285  0.6464  1.2525  2.4993
   18MPD2    N1  287   2.011   4.150  10.178 -0.1867  0.3694  0.1158
   18MPD2    H7  288   2.061   4.182  10.095 -2.0840 -0.9736 -1.5563
   19TMC2    C1  289   0.271   4.399  13.784 -0.4173  0.1332  0.2854
   19TMC2    C2  290   0.343   4.450  13.685  0.5312 -0.0126  0.2456
   19TMC2    C3  291   0.328   4.397  13.558  0.5033  0.3558  0.6847
   19TMC2    C4  292   0.159   4.322  13.762  0.0414  1.1008  0.0702
   19TMC2    C5  293   0.149   4.267  13.633 -0.4544  0.5320 -0.1047
   19TMC2    C6  294   0.235   4.302  13.532  0.5913 -0.3241 -0.0083
   19TMC2     C  295   0.288   4.468  13.909 -0.5965 -0.0025 -0.0349
   19TMC2     O  296   0.313   4.591  13.901 -0.0138  0.0356  0.4424
   19TMC2     H  297   0.426   4.515  13.708  0.2149 -0.0160  1.3674
   19TMC2    H1  298   0.093   4.298  13.845 -0.5961  1.1528 -0.4296
   19TMC2    H2  299   0.234   4.252  13.436  2.0636 -0.2459 -0.0636
   19TMC2    C7  300   0.022   4.200  13.609 -0.1328  0.3605 -0.2334
   19TMC2    C8  301   0.446   4.409  13.474 -0.6105  0.0099 -0.1347
   19TMC2    O1  302   4.696   4.143  13.707 -0.4922  0.4173 -0.3878
   19TMC2    O2  303   0.506   4.306  13.445 -0.1545 -0.5873 -0.5175
   19TMC2    O5  304   0.488   4.537  13.483  0.3120 -0.6391 -0.2321
   19TMC2    H5  305   0.411   4.594  13.502  4.2391  3.2775  3.8634
   20MPD2     C  306   0.433   4.537  14.158 -0.1358 -0.4633 -0.1750
   20MPD2    C1  307   0.378   4.413  14.128  0.2470 -0.0496  0.0468
   20MPD2    C2  308   0.378   4.309  14.222  0.3753  0.0113  0.2996
   20MPD2    C3  309   0.418   4.334  14.352  0.0806 -0.4581  0.2591
   20MPD2    C4  310   0.463   4.460  14.383  0.1392 -0.1103  0.3137
   20MPD2    C5  311   0.471   4.559  14.287 -0.6005  0.4399 -0.0905
   20MPD2     H  312   0.354   4.210  14.185 -0.2304 -0.1206  1.0346
   20MPD2    H1  313   0.510   4.475  14.480  0.7841  0.7132 -0.1169
   20MPD2    H2  314   0.445   4.611  14.080  0.2781  0.1030  0.4290
   20MPD2    H3  315   0.504   4.657  14.321  2.7215 -0.3176 -1.1994
   20MPD2     N  316   0.418   4.234  14.454 -0.1969 -0.2525  0.5885
   20MPD2    H5  317   0.438   4.269  14.547 -2.3377 -1.3195  1.4422
   20MPD2    N1  318   0.319   4.374  14.004  0.3989  0.0778  0.3033
   20MPD2    H7  319   0.296   4.278  13.982  1.3811 -0.0725 -0.0733
   21MPD2     C  320   1.805   4.617  14.302 -0.5181  0.4640 -0.0130
   21MPD2    C1  321   1.920   4.563  14.363  0.7680  0.4137 -0.5580
   21MPD2    C2  322   1.937   4.573  14.504 -0.1525 -0.0910  0.4136
   21MPD2    C3  323   1.838   4.626  14.583 -0.6641  0.1386 -0.4927
   21MPD2    C4  324   1.721   4.666  14.527  1.1301 -0.0866  0.7801
   21MPD2    C5  325   1.704   4.667  14.388  0.6465  0.0070  0.0910
   21MPD2     H  326   2.032   4.530  14.533  0.5458  0.0816 -1.6083
   21MPD2    H1  327   1.637   4.689  14.592 -1.5733 -2.2168 -1.9198
   21MPD2    H2  328   1.792   4.620  14.194  0.5088 -0.3690 -0.1639
   21MPD2    H3  329   1.611   4.701  14.343  1.2057 -0.2384 -1.2695
   21MPD2     N  330   1.842   4.625  14.722  0.2438  0.3883 -0.7179
   21MPD2    H5  331   1.761   4.670  14.763  0.9989  3.5035 -2.6293
   21MPD2    N1  332   2.023   4.503  14.292 -0.8522 -0.0517  0.3148
   21MPD2    H7  333   2.106   4.485  14.346 -2.2776 -0.3504  2.4055
   22TCq2    C1  334   1.940   4.572  14.808  0.0686  0.2614  0.0293
   22TCq2    O2  335   2.046   4.513  14.787  0.3428  0.0939 -1.2077
   22TCq2    C2  336   1.904   4.590  14.947 -0.0118  0.3786 -0.3009
   22TCq2    C3  337   1.980   4.515  15.034  0.0342 -0.4024  0.4748
   22TCq2    C4  338   2.005   4.570  15.156  0.1257 -0.0678 -0.5271
   22TCq2    C5  339   1.930   4.670  15.203  0.3000 -0.3907 -0.8579
   22TCq2    C6  340   1.837   0.008  15.122 -0.2498 -0.7340  0.2755
   22TCq2    C7  341   1.829   4.698  14.991 -0.4737  0.0004  0.1089
   22TCq2    C8  342   1.808   0.147  15.164 -0.2827  0.5511 -0.3112
   22TCq2    O4  343   1.824   0.176  15.285  0.2224  0.6375  0.6405
   22TCq2    C9  344   2.110   4.514  15.239 -0.0123  0.1849  0.2760
   22TCq2    O5  345   2.188   4.426  15.196 -0.3697  0.3045 -0.5089
   22TCq2    O6  346   2.120   4.559  15.355 -0.3620  0.3394  0.4888
   22TCq2    H2  347   2.050   4.442  14.995  2.4737  1.5090  1.2668
   22TCq2    H3  348   1.951   4.705  15.303 -0.0903  0.5556 -1.1089
   22TCq2    H4  349   1.768   0.027  14.919 -2.5443 -3.6347 -0.8566
   23MPD2     C  350   3.872   0.973  14.473  0.0888  0.4444  0.6034
   23MPD2    C1  351   3.784   0.992  14.576  0.0920  0.0160  0.7433
   23MPD2    C2  352   3.734   1.119  14.593 -0.0236 -0.9961 -0.1434
   23MPD2    C3  353   3.767   1.224  14.512  0.0776 -0.3882  1.2642
   23MPD2    C4  354   3.858   1.205  14.411 -0.1274  0.1972  0.4951
   23MPD2    C5  355   3.915   1.084  14.406  0.2192  0.2295  0.8596
   23MPD2     H  356   3.663   1.130  14.674  0.8330 -1.8379  0.7270
   23MPD2    H1  357   3.903   1.286  14.354 -1.4115  1.6166  1.4887
   23MPD2    H2  358   3.923   0.879  14.457 -0.9536 -0.2558  1.3372
   23MPD2    H3  359   3.993   1.070  14.332 -0.0662  0.9166  0.4257
   23MPD2     N  360   3.720   1.355  14.524  0.0643  0.0185  0.1423
   23MPD2    H5  361   3.749   1.410  14.443 -0.0918 -0.2337 -0.0847
   23MPD2    N1  362   3.733   0.884  14.659 -0.0645 -0.1807 -0.4343
   23MPD2    H7  363   3.681   0.911  14.742  1.5448 -0.6427  0.7188
   24TCq2    C1  364   3.614   1.403  14.605  0.0692 -0.5613  0.9926
   24TCq2    O2  365   3.571   1.345  14.700  0.3074  0.1129  1.2552
   24TCq2    C2  366   3.548   1.519  14.559 -0.1044  0.2055  0.1168
   24TCq2    C3  367   3.592   1.583  14.443  0.3471  0.9391  0.4881
   24TCq2    C4  368   3.496   1.650  14.366 -0.2777 -0.4194 -0.2448
   24TCq2    C5  369   3.364   1.636  14.397  0.0924  0.8439  0.2041
   24TCq2    C6  370   3.324   1.574  14.512  0.5304  0.0438  0.8904
   24TCq2    C7  371   3.415   1.520  14.600 -0.0411 -0.5219 -0.2839
   24TCq2    C8  372   3.213   1.481  14.502  0.0755 -0.4245 -0.1366
   24TCq2    O4  373   3.220   1.375  14.560  0.3622 -0.0412  0.3713
   24TCq2    C9  374   3.539   1.740  14.259 -0.7159  0.0953 -0.1741
   24TCq2    O5  375   3.627   1.691  14.185 -0.0877  0.2088 -0.0437
   24TCq2    O6  376   3.463   1.827  14.214 -0.1155  0.4222 -0.7939
   24TCq2    H2  377   3.694   1.592  14.407  0.5091 -1.3857  0.3998
   24TCq2    H3  378   3.296   1.685  14.328  0.3393  3.0475  1.5288
   24TCq2    H4  379   3.378   1.462  14.684  1.5762 -0.1044  0.7031
   25TMC2    C1  380   1.734   3.334  11.318  0.8393 -1.0032 -0.0404
   25TMC2    C2  381   1.627   3.370  11.243 -0.1786 -0.1424 -0.0270
   25TMC2    C3  382   1.539   3.446  11.307  0.0540  0.4944 -0.5209
   25TMC2    C4  383   1.750   3.366  11.455  0.4162 -0.3037 -0.2120
   25TMC2    C5  384   1.658   3.447  11.511  0.2031 -0.0918  0.4607
   25TMC2    C6  385   1.555   3.498  11.432  0.4479  0.0493 -0.0596
   25TMC2     C  386   1.806   3.214  11.278 -0.7738 -0.0496  0.3707
   25TMC2     O  387   1.930   3.210  11.306  0.2322  0.5744 -0.1024
   25TMC2     H  388   1.625   3.334  11.141  0.5066  0.6999 -0.3401
   25TMC2    H1  389   1.832   3.331  11.518 -0.9546 -2.2936  0.4486
   25TMC2    H2  390   1.474   3.557  11.474  0.1272 -0.0809 -0.4962
   25TMC2    C7  391   1.662   3.447  11.653  0.2454  0.8433 -0.6515
   25TMC2    C8  392   1.445   3.507  11.226 -0.5228 -0.3923  0.5338
   25TMC2    O1  393   1.746   3.383  11.714 -0.2240 -0.2717  0.1944
   25TMC2    O2  394   1.384   3.602  11.271  0.4503  0.2125 -0.5136
   25TMC2    O5  395   1.380   3.403  11.170 -0.3353 -0.3289 -0.3881
   25TMC2    H5  396   1.435   3.322  11.156 -2.4994 -1.3274 -2.9862
   26MPD2     C  397   1.871   2.754  11.083  0.2898 -0.2504  0.4142
   26MPD2    C1  398   1.736   2.780  11.106  0.3014  0.0996 -0.5888
   26MPD2    C2  399   1.691   2.911  11.127  0.3610 -0.4255 -0.7387
   26MPD2    C3  400   1.784   3.008  11.156 -0.0776 -0.6105 -0.7382
   26MPD2    C4  401   1.917   2.977  11.144 -0.8522  0.3895 -0.2373
   26MPD2    C5  402   1.962   2.856  11.100 -0.2932 -0.6634  0.1841
   26MPD2     H  403   1.589   2.941  11.148  0.8683 -0.7250  2.0961
   26MPD2    H1  404   1.998   3.049  11.153  1.4131 -1.9727 -1.4139
   26MPD2    H2  405   1.909   2.657  11.052 -1.9210 -1.3445  1.1675
   26MPD2    H3  406   2.068   2.837  11.088 -0.1390  1.7358 -2.2512
   26MPD2     N  407   1.732   3.130  11.204  0.5075 -0.2752  0.7858
   26MPD2    H5  408   1.632   3.146  11.199  1.2418  4.0108  0.2252
   26MPD2    N1  409   1.664   2.663  11.116 -0.1832 -0.0940  0.6001
   26MPD2    H7  410   1.709   2.575  11.092  3.0707  1.3751  1.3633
   27TMC2    C1  411   1.802   0.520  12.674  0.1467  0.2200 -0.1636
   27TMC2    C2  412   1.798   0.632  12.750  0.4249 -0.0292  0.0999
   27TMC2    C3  413   1.911   0.681  12.813 -0.0567 -0.1079  0.3298
   27TMC2    C4  414   1.922   0.452  12.654  0.4507 -0.1656  0.0591
   27TMC2    C5  415   2.030   0.495  12.725 -0.3374 -0.5448 -0.4266
   27TMC2    C6  416   2.026   0.610  12.799 -0.3426 -0.8425  0.1829
   27TMC2     C  417   1.680   0.456  12.613 -0.9685 -1.0671 -0.2423
   27TMC2     O  418   1.695   0.367  12.532  0.5195 -0.1422  0.0291
   27TMC2     H  419   1.712   0.697  12.746 -0.0578 -0.6186  1.0193
   27TMC2    H1  420   1.910   0.358  12.602 -2.1736  0.4725 -0.5173
   27TMC2    H2  421   2.122   0.648  12.833  0.3385 -1.1904 -1.3658
   27TMC2    C7  422   2.161   0.438  12.694  0.0962 -0.0515 -0.6862
   27TMC2    C8  423   1.926   0.827  12.835  0.2671  0.0839 -0.4288
   27TMC2    O1  424   2.245   0.527  12.664 -0.2587 -0.2000  0.0033
   27TMC2    O2  425   2.031   0.889  12.834 -0.2073 -0.1829 -0.2010
   27TMC2    O5  426   1.810   0.867  12.897 -0.5432 -0.3149  0.3874
   27TMC2    H5  427   1.737   0.802  12.906 -0.3042 -0.7150 -0.5579
   28MPD2     C  428   1.187   0.346  12.595 -0.7070 -0.1682  0.0497
   28MPD2    C1  429   1.192   0.467  12.659 -0.2504  0.3022  0.0761
   28MPD2    C2  430   1.314   0.520  12.680  0.0441  0.5254  0.5381
   28MPD2    C3  431   1.432   0.460  12.627  0.5161 -0.1905 -0.2632
   28MPD2    C4  432   1.411   0.352  12.540 -0.3182 -0.2716  0.0602
   28MPD2    C5  433   1.292   0.284  12.533 -0.7590 -0.7147 -0.0880
   28MPD2     H  434   1.322   0.605  12.747  2.1064  1.0342 -0.3728
   28MPD2    H1  435   1.490   0.292  12.496  0.9749 -0.2517  2.4003
   28MPD2    H2  436   1.092   0.295  12.589  0.0607 -1.6067  0.3598
   28MPD2    H3  437   1.277   0.188  12.486 -0.9478 -0.4873 -0.4996
   28MPD2     N  438   1.563   0.510  12.654  0.7368  0.9733 -0.2275
   28MPD2    H5  439   1.581   0.590  12.713  0.3476 -1.5126  3.2766
   28MPD2    N1  440   1.076   0.506  12.723  0.6830 -0.2660 -0.2513
   28MPD2    H7  441   0.995   0.444  12.720  1.1733 -0.9968  2.2787
   29MPD2     C  442   0.803   2.345  13.733  0.0822  0.8728  0.6299
   29MPD2    C1  443   0.894   2.329  13.835  0.2973 -1.3149  0.2965
   29MPD2    C2  444   0.921   2.435  13.922  0.2725  0.3270 -0.5521
   29MPD2    C3  445   0.838   2.549  13.925 -0.0065  0.0553 -0.4350
   29MPD2    C4  446   0.746   2.568  13.823 -0.0479 -0.7445 -0.5988
   29MPD2    C5  447   0.734   2.464  13.731 -0.5667  0.2468  0.1961
   29MPD2     H  448   0.999   2.423  13.995 -1.5945  0.1152  1.4079
   29MPD2    H1  449   0.699   2.665  13.810 -1.1408 -1.0220  1.3638
   29MPD2    H2  450   0.779   2.274  13.654 -0.6132  0.7135  0.9860
   29MPD2    H3  451   0.657   2.476  13.656 -0.7331 -0.3836  0.2627
   29MPD2     N  452   0.853   2.650  14.020 -0.0086 -0.0427  0.3381
   29MPD2    H5  453   0.780   2.720  14.012 -0.7964 -0.8227  0.6047
   29MPD2    N1  454   0.968   2.207  13.844  1.0228  0.0378 -0.0774
   29MPD2    H7  455   0.932   2.137  13.780  1.6770 -0.1801 -0.2164
   30TCq2    C1  456   0.937   2.660  14.132  0.1633 -0.7151 -1.1587
   30TCq2    O2  457   1.039   2.595  14.150  0.0500  0.1088  0.2982
   30TCq2    C2  458   0.917   2.767  14.225  0.2636 -0.3952 -0.5068
   30TCq2    C3  459   0.996   2.773  14.339 -0.1321 -0.2059  0.2531
   30TCq2    C4  460   0.999   2.897  14.400 -0.2777  0.5966 -0.8532
   30TCq2    C5  461   0.920   3.003  14.360 -1.1480 -0.5951  0.0929
   30TCq2    C6  462   0.843   2.989  14.248 -0.2157  0.1012 -0.1154
   30TCq2    C7  463   0.845   2.879  14.174  0.5206 -0.4025 -0.6768
   30TCq2    C8  464   0.736   3.085  14.226  0.0477 -0.2249  0.2329
   30TCq2    O4  465   0.627   3.057  14.180 -0.4192 -0.2734  0.1359
   30TCq2    C9  466   1.076   2.912  14.522 -0.5543 -0.3853  0.5523
   30TCq2    O5  467   1.141   2.812  14.552  0.2560  0.3697 -0.1044
   30TCq2    O6  468   1.085   3.027  14.574 -0.4109  0.1040 -0.0019
   30TCq2    H2  469   1.055   2.692  14.381  2.3532  0.5511 -1.7468
   30TCq2    H3  470   0.912   3.086  14.429  1.4835 -0.7404  0.5565
   30TCq2    H4  471   0.795   2.877  14.078  3.0547  0.1062 -2.0255
   31MPD2     C  472   3.832   1.840  14.679 -1.2125 -0.6786 -0.7870
   31MPD2    C1  473   3.700   1.844  14.726 -0.0605 -0.4063  1.0757
   31MPD2    C2  474   3.654   1.756  14.828  0.2344 -0.3366  0.1700
   31MPD2    C3  475   3.740   1.653  14.863 -0.2812 -0.2298 -0.6255
   31MPD2    C4  476   3.859   1.641  14.805 -0.2880 -0.1181 -0.2514
   31MPD2    C5  477   3.912   1.740  14.721 -0.5576 -0.3873  0.6603
   31MPD2     H  478   3.552   1.769  14.862  0.7688  0.1219  1.5841
   31MPD2    H1  479   3.917   1.551  14.821  1.8348  0.7361 -2.9811
   31MPD2    H2  480   3.874   1.917  14.616  2.8039 -0.6729  1.9071
   31MPD2    H3  481   4.008   1.739  14.671  0.5228 -0.9667  2.7517
   31MPD2     N  482   3.706   1.544  14.952  0.5196 -0.2908 -0.5178
   31MPD2    H5  483   3.775   1.474  14.978  2.5313  2.5939  1.8509
   31MPD2    N1  484   3.632   1.949  14.663  0.2428  0.6870 -0.5894
   31MPD2    H7  485   3.684   2.002  14.595  0.0016  0.5369 -0.8905
   32TCq2    C1  486   3.586   1.523  15.007  0.1186 -0.6974 -0.0778
   32TCq2    O2  487   3.488   1.598  15.026 -0.4554  0.1644  0.2144
   32TCq2    C2  488   3.583   1.376  15.058  0.2845 -0.2307 -1.0515
   32TCq2    C3  489   3.680   1.295  15.008  0.0136  0.1733 -0.0009
   32TCq2    C4  490   3.715   1.188  15.087 -0.1027  0.3675 -0.3216
   32TCq2    C5  491   3.687   1.183  15.222 -0.0073  0.0758 -0.1122
   32TCq2    C6  492   3.601   1.275  15.271 -0.4836  0.5349 -0.3254
   32TCq2    C7  493   3.551   1.377  15.194 -0.1398 -0.0273 -0.1300
   32TCq2    C8  494   3.582   1.278  15.410  0.2707 -0.0310 -0.2480
   32TCq2    O4  495   3.673   1.238  15.479 -0.3535 -0.4536 -0.0785
   32TCq2    C9  496   3.800   1.086  15.034 -0.7547 -0.2447  0.5350
   32TCq2    O5  497   3.834   1.094  14.911  0.1691 -0.0695 -0.7620
   32TCq2    O6  498   3.854   1.010  15.116  0.1638 -0.1049  0.4009
   32TCq2    H2  499   3.712   1.295  14.904  0.8640 -0.9658  0.2623
   32TCq2    H3  500   3.721   1.104  15.287  1.6294 -0.7415 -1.9584
   32TCq2    H4  501   3.492   1.460  15.231  1.6812  0.4955  1.5500
   33MPD2     C  502   2.643   3.661   9.501 -0.4155  0.4441  0.4251
   33MPD2    C1  503   2.741   3.685   9.593  0.3027  0.1852  0.9577
   33MPD2    C2  504   2.871   3.701   9.546 -0.3549  0.3221 -0.3232
   33MPD2    C3  505   2.898   3.683   9.406  0.6654 -0.3700  0.0462
   33MPD2    C4  506   2.796   3.645   9.325 -0.0348 -0.9878  0.2831
   33MPD2    C5  507   2.669   3.639   9.367  0.2652 -0.2654  0.4667
   33MPD2     H  508   2.950   3.720   9.618 -0.2370  0.3721 -0.4679
   33MPD2    H1  509   2.819   3.632   9.220 -0.2953 -0.4315  0.1574
   33MPD2    H2  510   2.541   3.653   9.538  0.0136 -0.1214  1.4884
   33MPD2    H3  511   2.596   3.609   9.293 -0.2652 -0.6690  1.1469
   33MPD2     N  512   3.029   3.705   9.354 -0.0658  0.5407  0.3299
   33MPD2    H5  513   3.046   3.676   9.258 -0.2709  0.4912  0.3075
   33MPD2    N1  514   2.702   3.693   9.729  0.4781 -0.1994  0.0215
   33MPD2    H7  515   2.609   3.670   9.762  0.3835  1.8229  1.1734
   34TCq2    C1  516   3.134   3.773   9.425  0.6907 -0.3420  0.1362
   34TCq2    O2  517   3.135   3.834   9.534 -0.8952  0.1284  0.2567
   34TCq2    C2  518   3.258   3.774   9.357 -0.5036 -0.7764  0.0314
   34TCq2    C3  519   3.282   3.683   9.256 -0.0042 -0.4437 -0.2195
   34TCq2    C4  520   3.408   3.686   9.194 -0.4045  0.2165 -0.2363
   34TCq2    C5  521   3.511   3.773   9.241  0.3840 -0.0904 -0.8059
   34TCq2    C6  522   3.474   3.866   9.342  0.3073  0.3313 -0.1982
   34TCq2    C7  523   3.349   3.868   9.395  0.0445  0.8566  0.6323
   34TCq2    C8  524   3.553   3.992   9.352  0.2393 -0.1899  0.0501
   34TCq2    O4  525   3.497   4.088   9.404 -0.7226 -0.4865  0.3831
   34TCq2    C9  526   3.435   3.585   9.097  0.7630 -0.4909  0.9378
   34TCq2    O5  527   3.337   3.507   9.066 -0.3223 -0.3308 -0.1157
   34TCq2    O6  528   3.531   3.606   9.021 -0.2631  0.0209 -0.2803
   34TCq2    H2  529   3.213   3.607   9.223  0.9993 -1.0292 -0.9672
   34TCq2    H3  530   3.609   3.753   9.201  1.1563 -0.2599  1.1578
   34TCq2    H4  531   3.325   3.949   9.464  0.8134  0.0032  1.9038
   35MPD2     C  532   0.080   1.371  11.991  0.3015  0.7248 -0.2179
   35MPD2    C1  533   0.109   1.233  11.989  0.0268  0.2211  0.2024
   35MPD2    C2  534   0.081   1.153  11.881 -0.5466 -0.0688  0.1941
   35MPD2    C3  535   0.023   1.216  11.771  0.2849  0.1260  1.0048
   35MPD2    C4  536   0.002   1.357  11.767 -0.1025  0.7711  0.7640
   35MPD2    C5  537   0.026   1.427  11.878  0.3127  0.5605  0.5783
   35MPD2     H  538   0.099   1.047  11.888 -0.5460 -0.1833 -1.6781
   35MPD2    H1  539   4.699   1.414  11.679  0.7632 -1.7572 -1.1664
   35MPD2    H2  540   0.115   1.438  12.069  0.3188  0.6912 -0.1970
   35MPD2    H3  541   0.003   1.533  11.870  1.0461  0.7408  0.8606
   35MPD2     N  542   4.705   1.136  11.662  0.5076  1.0351 -0.5670
   35MPD2    H5  543   4.705   1.035  11.676  2.8992  0.9979 -0.8938
   35MPD2    N1  544   0.162   1.177  12.112  0.2529 -0.2834  0.7119
   35MPD2    H7  545   0.149   1.246  12.185  0.9943  0.7849 -0.1530
   36TCq2    C1  546   4.669   1.178  11.534  0.2849  0.1662  0.6201
   36TCq2    O2  547   4.689   1.291  11.491  0.2012 -0.0277  0.4291
   36TCq2    C2  548   4.610   1.078  11.447 -0.1199 -0.0876  0.4512
   36TCq2    C3  549   4.596   1.112  11.316  0.4740  0.3493  0.7391
   36TCq2    C4  550   4.515   1.044  11.241  0.2157  0.1514 -0.9087
   36TCq2    C5  551   4.446   0.931  11.279 -0.2614 -0.2091  0.0881
   36TCq2    C6  552   4.463   0.896  11.410  0.1633  0.0842  0.1360
   36TCq2    C7  553   4.545   0.965  11.497  0.2015  0.2793  0.2715
   36TCq2    C8  554   4.395   0.781  11.457 -0.6789  0.1666 -0.2766
   36TCq2    O4  555   4.277   0.765  11.419 -0.0846 -0.5043 -0.0406
   36TCq2    C9  556   4.488   1.099  11.104  0.3347  0.2466 -0.5425
   36TCq2    O5  557   4.419   1.021  11.027 -0.6398 -0.6252 -0.5535
   36TCq2    O6  558   4.481   1.224  11.088 -0.0645 -0.3364  0.5250
   36TCq2    H2  559   4.639   1.202  11.273 -1.4275  0.6467 -0.5678
   36TCq2    H3  560   4.378   0.883  11.210  1.0090 -2.5146  0.4316
   36TCq2    H4  561   4.547   0.946  11.604 -1.2118 -0.9705  0.0887
   37TMC2    C1  562   2.069   1.061  12.061 -0.9275 -0.2910  0.4309
   37TMC2    C2  563   1.942   1.058  12.113 -1.1566 -0.3437 -0.3360
   37TMC2    C3  564   1.834   1.049  12.034  0.1198  0.0985  0.1937
   37TMC2    C4  565   2.081   1.060  11.923 -0.3182 -0.3222  0.0983
   37TMC2    C5  566   1.973   1.036  11.846 -0.1556 -0.8994 -0.2754
   37TMC2    C6  567   1.848   1.043  11.901 -0.3555  0.4994  0.6112
   37TMC2     C  568   2.175   1.069  12.150  0.1941  0.7138  0.1931
   37TMC2     O  569   2.154   1.078  12.269  0.9939  0.1073 -0.2223
   37TMC2     H  570   1.925   1.061  12.220  0.7010  0.8492 -0.0593
   37TMC2    H1  571   2.175   1.053  11.869 -0.2777  2.0153 -0.1215
   37TMC2    H2  572   1.766   1.055  11.832 -1.0426  2.4568  1.7711
   37TMC2    C7  573   1.994   1.045  11.707 -0.1738 -0.1089 -0.3211
   37TMC2    C8  574   1.707   1.011  12.094 -0.2653  0.0441  0.1224
   37TMC2    O1  575   2.075   1.129  11.672 -0.4127  0.4909 -0.1995
   37TMC2    O2  576   1.696   1.033  12.215  0.3749 -0.1344 -0.1825
   37TMC2    O5  577   1.611   1.020  11.998  0.4707  0.1625 -0.1594
   37TMC2    H5  578   1.611   0.961  11.920  0.0714  2.6546 -2.0375
   38MPD2     C  579   2.656   1.223  12.223  0.3135 -0.0753 -0.0865
   38MPD2    C1  580   2.624   1.239  12.091  0.0696 -0.3612 -0.3813
   38MPD2    C2  581   2.500   1.208  12.044 -0.4531  0.4976  0.3141
   38MPD2    C3  582   2.408   1.150  12.133 -1.0575  0.4018 -0.7408
   38MPD2    C4  583   2.436   1.148  12.270  0.5279 -0.1886  0.8574
   38MPD2    C5  584   2.560   1.185  12.311  0.3734  0.0984 -0.4224
   38MPD2     H  585   2.476   1.219  11.939  0.6959 -0.6358 -0.0812
   38MPD2    H1  586   2.360   1.118  12.341  0.0009 -0.9338 -0.0302
   38MPD2    H2  587   2.749   1.258  12.265 -0.9969  0.7763  2.0765
   38MPD2    H3  588   2.586   1.186  12.416  4.5697 -1.4109 -1.4747
   38MPD2     N  589   2.284   1.114  12.080 -0.2821 -0.7225 -0.7324
   38MPD2    H5  590   2.279   1.115  11.978  0.3696 -1.0242 -0.7657
   38MPD2    N1  591   2.712   1.303  11.999 -0.6387 -0.1294  0.4447
   38MPD2    H7  592   2.677   1.326  11.907 -1.6851  0.9808  1.1132
   39MPD2     C  593   1.125   2.167   1.545  0.6517 -0.6983  0.1301
   39MPD2    C1  594   1.058   2.219   1.647  0.3354 -0.4322 -0.1775
   39MPD2    C2  595   0.921   2.212   1.653 -0.3458 -0.4635  0.0244
   39MPD2    C3  596   0.847   2.155   1.543  0.1745  0.0683 -0.4182
   39MPD2    C4  597   0.917   2.104   1.443 -0.0922  0.3516  0.8253
   39MPD2    C5  598   1.053   2.111   1.440  0.4182 -0.1623  0.2446
   39MPD2     H  599   0.868   2.254   1.737 -1.7716  2.1710 -2.2046
   39MPD2    H1  600   0.866   2.074   1.352 -1.1527 -3.2477  2.6011
   39MPD2    H2  601   1.232   2.174   1.533  0.5686 -1.1097 -0.8483
   39MPD2    H3  602   1.107   2.069   1.356 -3.3110  0.7769 -2.6700
   39MPD2     N  603   0.707   2.177   1.515 -0.5639  0.5770  0.3250
   39MPD2    H5  604   0.667   2.149   1.426 -1.3681  2.1814  0.1737
   39MPD2    N1  605   1.135   2.271   1.756 -0.0658 -0.4649  0.5919
   39MPD2    H7  606   1.236   2.275   1.744 -0.4409  0.1458 -2.5253
   40TCq2    C1  607   1.092   2.301   1.879  0.2367  0.2321 -0.7124
   40TCq2    O2  608   0.978   2.304   1.921  0.1989  0.2055 -0.1521
   40TCq2    C2  609   1.200   2.349   1.967  0.1804  0.8263 -0.2793
   40TCq2    C3  610   1.158   2.397   2.092  0.0748  0.3174  0.3070
   40TCq2    C4  611   1.251   2.426   2.180  0.2407 -0.2463 -0.1993
   40TCq2    C5  612   1.386   2.434   2.141  0.5450 -0.4406 -0.0263
   40TCq2    C6  613   1.419   2.397   2.017 -0.1364  0.0935 -0.2707
   40TCq2    C7  614   1.329   2.358   1.924  0.1966  0.0268 -0.3708
   40TCq2    C8  615   1.556   2.413   1.975 -0.0442 -0.4686  0.0928
   40TCq2    O4  616   1.589   2.341   1.880 -0.4533 -0.2688  0.6110
   40TCq2    C9  617   1.213   2.473   2.310  0.0050 -0.4586  0.6287
   40TCq2    O5  618   1.091   2.453   2.331 -0.3037 -0.5126 -0.0604
   40TCq2    O6  619   1.305   2.496   2.390 -0.3838  0.5666 -0.1402
   40TCq2    H2  620   1.052   2.395   2.117 -0.6965  1.0115 -2.8839
   40TCq2    H3  621   1.461   2.470   2.211  1.0822 -0.5634 -0.5388
   40TCq2    H4  622   1.367   2.312   1.834  1.6554  2.9589 -1.2400
   41TMC2    C1  623   0.050   0.877  13.512 -0.1037 -0.1808 -0.2351
   41TMC2    C2  624   4.680   0.973  13.495  0.1121  0.1462  0.2457
   41TMC2    C3  625   4.597   0.975  13.387  0.0983 -0.3329 -0.2891
   41TMC2    C4  626   0.070   0.781  13.410  0.0047 -0.5180 -0.1471
   41TMC2    C5  627   4.706   0.785  13.303  0.1643  0.3321  0.1288
   41TMC2    C6  628   4.608   0.881  13.288 -0.1933  0.6638  0.1857
   41TMC2     C  629   0.073   0.818  13.640 -0.6167  0.3260  0.0651
   41TMC2     O  630   0.161   0.734  13.652  0.1919 -0.6003 -0.8142
   41TMC2     H  631   4.673   1.055  13.566 -3.4789  0.7567 -0.7973
   41TMC2    H1  632   0.149   0.707  13.420  0.6772  0.3091  0.6783
   41TMC2    H2  633   4.534   0.859  13.212  0.8662 -1.4136 -0.2573
   41TMC2    C7  634   0.002   0.695  13.182 -0.3085  0.5426 -0.1017
   41TMC2    C8  635   4.480   1.056  13.394 -0.4674  0.1821 -0.2573
   41TMC2    O1  636   0.071   0.592  13.201  0.1130  0.1156  0.2984
   41TMC2    O2  637   4.388   1.032  13.467 -0.6652  0.1882  0.6848
   41TMC2    O5  638   4.534   1.188  13.378 -0.4989  0.4348 -0.4928
   41TMC2    H5  639   4.611   1.182  13.318 -0.1774  1.2268 -0.1592
   42MPD2     C  640   0.113   0.794  13.941  0.1722 -0.5237 -0.4998
   42MPD2    C1  641   0.006   0.865  13.883 -0.0997 -0.0638  0.1420
   42MPD2    C2  642   4.640   0.931  13.974 -0.7031  0.2259  0.4375
   42MPD2    C3  643   4.653   0.919  14.112 -0.5735  0.7979  0.3652
   42MPD2    C4  644   0.028   0.839  14.161 -0.0422 -0.0141 -0.1919
   42MPD2    C5  645   0.124   0.789  14.075 -0.0456 -1.0018 -0.0671
   42MPD2     H  646   4.551   0.970  13.927 -0.4839 -0.1885 -0.3246
   42MPD2    H1  647   0.042   0.826  14.268 -0.3010 -0.5244 -0.2189
   42MPD2    H2  648   0.188   0.737  13.887  1.2453  0.0425  0.4040
   42MPD2    H3  649   0.207   0.735  14.120 -0.6581 -1.2375  0.7724
   42MPD2     N  650   4.554   0.959  14.206 -0.3977  1.1178 -0.1055
   42MPD2    H5  651   4.570   0.930  14.302  1.3297  0.1930 -0.6725
   42MPD2    N1  652   4.718   0.878  13.741 -0.1569 -0.3213 -0.5470
   42MPD2    H7  653   4.641   0.935  13.709  1.3831  1.8505 -0.4575
   43MPD2     C  654   0.665   4.142   0.571 -0.0468  0.3107 -0.1221
   43MPD2    C1  655   0.796   4.112   0.611  0.1191  0.5260 -0.5159
   43MPD2    C2  656   0.856   4.178   0.715  0.2070  0.1289 -0.1537
   43MPD2    C3  657   0.785   4.277   0.782  0.1895 -0.1838  0.4998
   43MPD2    C4  658   0.652   4.306   0.746 -0.1288 -0.5818  0.8014
   43MPD2    C5  659   0.595   4.239   0.636 -1.0764  0.2686 -0.5026
   43MPD2     H  660   0.958   4.152   0.743  0.1672  0.9621  0.7654
   43MPD2    H1  661   0.608   4.399   0.780  2.0116  0.3916  0.8678
   43MPD2    H2  662   0.622   4.089   0.487 -0.2471  2.0374 -1.1114
   43MPD2    H3  663   0.500   4.274   0.595 -1.1087  0.4520 -0.2717
   43MPD2     N  664   0.829   4.335   0.906 -0.5263  0.3881 -0.3699
   43MPD2    H5  665   0.768   4.404   0.949 -0.9230 -0.7974  0.9729
   43MPD2    N1  666   0.860   3.993   0.568 -0.6833  0.1560  0.6088
   43MPD2    H7  667   0.940   3.957   0.620 -0.5334  0.4651  0.5917
   44TCq2    C1  668   1.244   4.381   1.324  0.5719 -0.5336  0.0174
   44TCq2    O2  669   1.314   4.470   1.273  0.1921  0.1080  0.1848
   44TCq2    C2  670   1.111   4.370   1.274 -0.1292  0.0279 -0.5149
   44TCq2    C3  671   1.014   4.339   1.363  0.3755  0.3569  0.0233
   44TCq2    C4  672   0.889   4.338   1.317  0.3055 -0.6647  0.2086
   44TCq2    C5  673   0.863   4.351   1.185  0.0727  0.3004  0.4784
   44TCq2    C6  674   0.965   4.375   1.093 -0.1509  0.5275 -0.2457
   44TCq2    C7  675   1.091   4.396   1.137  0.6523  0.0319  0.4395
   44TCq2    C8  676   0.953   4.317   0.963 -0.3702 -0.1157  0.0583
   44TCq2    O4  677   1.055   4.267   0.910  0.2176  0.4562  0.0786
   44TCq2    C9  678   0.784   4.324   1.411  0.8829  0.3683  0.2384
   44TCq2    O5  679   0.675   4.279   1.377  0.1730  0.5510 -0.1598
   44TCq2    O6  680   0.818   4.335   1.530  0.1372  0.0138 -0.2978
   44TCq2    H2  681   1.044   4.319   1.465 -0.2520 -2.9758 -0.4397
   44TCq2    H3  682   0.761   4.332   1.151  0.1035  0.1946  0.4447
   44TCq2    H4  683   1.177   4.410   1.072 -1.2702  1.1593 -1.8499
   45TMC2    C1  684   1.583   1.022   9.848  0.3062  0.3716  0.2102
   45TMC2    C2  685   1.534   1.126   9.782 -0.5031 -0.2899  0.2133
   45TMC2    C3  686   1.583   1.250   9.809 -0.9983  0.2157 -0.2634
   45TMC2    C4  687   1.695   1.030   9.924  0.5374 -0.2937 -0.2381
   45TMC2    C5  688   1.736   1.162   9.951  0.7700 -0.2157 -0.9825
   45TMC2    C6  689   1.679   1.275   9.903  0.2285  0.1673  0.5125
   45TMC2     C  690   1.514   0.892   9.855 -0.3468  0.2648  0.3704
   45TMC2     O  691   1.563   0.807   9.932  0.4030 -0.3722  0.6817
   45TMC2     H  692   1.447   1.131   9.718 -0.1263  2.7197 -0.0670
   45TMC2    H1  693   1.737   0.947   9.980 -0.4682  0.8250  2.1525
   45TMC2    H2  694   1.731   1.366   9.927 -0.5737  1.1246 -1.3967
   45TMC2    C7  695   1.803   1.185  10.080  0.4833  1.0424  0.1920
   45TMC2    C8  696   1.500   1.361   9.767 -0.2583  0.1083  0.0113
   45TMC2    O1  697   1.757   1.285  10.136  0.0148  0.5833 -0.7441
   45TMC2    O2  698   1.422   1.354   9.674  0.2249  0.2130 -0.0808
   45TMC2    O5  699   1.545   1.479   9.811  0.1205 -0.7186 -0.0197
   45TMC2    H5  700   1.604   1.460   9.887 -0.6194 -0.9024  0.5116
   46MPD2     C  701   1.339   0.654   9.818  0.4561  0.0074 -0.0393
   46MPD2    C1  702   1.314   0.771   9.754 -0.3765 -0.1041 -0.5355
   46MPD2    C2  703   1.202   0.787   9.666 -1.0844  0.1981 -0.1340
   46MPD2    C3  704   1.130   0.674   9.642 -0.0753 -0.1877  0.5465
   46MPD2    C4  705   1.155   0.556   9.707  0.0958  0.1236 -0.7079
   46MPD2    C5  706   1.255   0.547   9.794 -0.5492  0.5719 -0.4274
   46MPD2     H  707   1.176   0.879   9.615 -1.9757 -1.4791 -2.6766
   46MPD2    H1  708   1.092   0.467   9.701  0.3848 -0.4281  4.0941
   46MPD2    H2  709   1.412   0.653   9.898 -0.0379 -0.7169  0.4057
   46MPD2    H3  710   1.269   0.450   9.839  0.0868  0.7567 -0.2316
   46MPD2     N  711   1.025   0.693   9.543 -0.2072 -0.2464  0.4063
   46MPD2    H5  712   1.009   0.787   9.509  2.4466  1.5359  4.0477
   46MPD2    N1  713   1.399   0.882   9.770 -0.5883 -0.0760  0.2486
   46MPD2    H7  714   1.374   0.968   9.722  1.6541  1.2677  1.5248
   47TMC2    C1  715   3.224   0.941  10.046  0.6349  0.5867  0.1177
   47TMC2    C2  716   3.251   0.809  10.032  0.5040 -0.2199  0.5435
   47TMC2    C3  717   3.165   0.738   9.954 -0.1070 -0.1067  0.4165
   47TMC2    C4  718   3.106   0.996  10.006  0.0269  0.0688  0.2953
   47TMC2    C5  719   3.018   0.916   9.939  0.4156  0.6537 -1.4861
   47TMC2    C6  720   3.041   0.791   9.907  0.5410 -0.2563 -0.4490
   47TMC2     C  721   3.332   1.033  10.095 -0.0933 -0.4964 -0.5930
   47TMC2     O  722   3.296   1.133  10.152  0.3788 -0.5359  0.2059
   47TMC2     H  723   3.338   0.764  10.078 -1.6756 -4.8832  0.0835
   47TMC2    H1  724   3.091   1.095  10.048  1.1993  0.3831 -0.0305
   47TMC2    H2  725   2.969   0.728   9.857  1.2679 -0.7358 -0.8999
   47TMC2    C7  726   2.909   0.987   9.874 -0.2713 -0.3979 -0.9184
   47TMC2    C8  727   3.204   0.599   9.923  0.3418 -0.8560  0.6011
   47TMC2    O1  728   2.798   0.936   9.873 -0.6639  0.6731  0.7431
   47TMC2    O2  729   3.321   0.567   9.906  0.2625  0.1282 -0.1153
   47TMC2    O5  730   3.108   0.519   9.969  0.5584  0.5670 -0.5444
   47TMC2    H5  731   3.030   0.572   9.996 -0.8275 -1.0278 -1.4511
   48MPD2     C  732   3.587   1.123  10.206 -0.0974  0.0210  0.3334
   48MPD2    C1  733   3.582   1.042  10.099 -0.4318  0.5420  0.7585
   48MPD2    C2  734   3.695   1.014  10.025  0.9268  0.2851  0.4643
   48MPD2    C3  735   3.817   1.064  10.071 -0.6491  0.0189 -0.0841
   48MPD2    C4  736   3.820   1.142  10.185 -0.3359 -0.1448  0.3002
   48MPD2    C5  737   3.709   1.171  10.258 -0.0456  0.3516  0.2452
   48MPD2     H  738   3.697   0.962   9.930 -0.3276  3.4629 -1.2920
   48MPD2    H1  739   3.909   1.180  10.233 -1.1413 -1.6628  3.0025
   48MPD2    H2  740   3.500   1.150  10.265 -0.0738  1.4776 -0.2968
   48MPD2    H3  741   3.709   1.236  10.345  2.7308 -1.5123  1.6297
   48MPD2     N  742   3.923   1.045   9.984  0.4127  0.7751  0.5809
   48MPD2    H5  743   3.898   0.995   9.899 -1.0984  1.4341  0.6282
   48MPD2    N1  744   3.462   0.992  10.049 -0.2044  0.1033  0.6986
   48MPD2    H7  745   3.470   0.914   9.985 -0.7633  0.3390  0.3441
   49MPD2     C  746   1.527   2.522  10.412  0.2764  0.0781 -0.6461
   49MPD2    C1  747   1.491   2.654  10.404  0.9463 -0.3068 -0.2764
   49MPD2    C2  748   1.566   2.748  10.466 -0.2340  0.0282 -0.4060
   49MPD2    C3  749   1.680   2.721  10.540  0.1898 -0.0380 -0.5343
   49MPD2    C4  750   1.694   2.589  10.568  0.5137  0.1861 -1.0742
   49MPD2    C5  751   1.617   2.486  10.515 -0.4844 -0.1283 -0.3956
   49MPD2     H  752   1.538   2.853  10.459  2.3036  0.8027  1.0327
   49MPD2    H1  753   1.784   2.549  10.614 -0.9478 -2.1705 -0.2842
   49MPD2    H2  754   1.485   2.447  10.346 -1.3802 -0.7238  1.3421
   49MPD2    H3  755   1.650   2.384  10.532 -2.1681 -0.6521 -0.2767
   49MPD2     N  756   1.763   2.806  10.610  0.3731  0.3108  0.3181
   49MPD2    H5  757   1.828   2.760  10.674 -2.5731  0.2293  3.2136
   49MPD2    N1  758   1.389   2.699  10.321  0.5640 -0.4880 -0.2581
   49MPD2    H7  759   1.383   2.800  10.309 -0.0381 -0.4203  0.6067
   50TCq2    C1  760   1.300   2.614  10.253 -0.2314  0.5555 -0.2127
   50TCq2    O2  761   1.266   2.495  10.271  0.2894 -0.0119 -0.2288
   50TCq2    C2  762   1.226   2.692  10.151 -0.4818  0.1820 -0.4022
   50TCq2    C3  763   1.121   2.634  10.081 -0.1114 -1.0171 -0.1084
   50TCq2    C4  764   1.064   2.698   9.977  0.4541 -0.3079  0.2959
   50TCq2    C5  765   1.104   2.823   9.946  0.1297  0.2458  0.1336
   50TCq2    C6  766   1.206   2.878  10.014  0.0961  0.4992 -1.1673
   50TCq2    C7  767   1.277   2.805  10.110  0.0593  0.6032  0.0467
   50TCq2    C8  768   1.274   3.004   9.960 -0.2160 -0.5518 -0.1086
   50TCq2    O4  769   1.395   3.009   9.971 -0.0003 -0.0316  0.4004
   50TCq2    C9  770   0.970   2.633   9.890 -0.2746  0.1138  0.2380
   50TCq2    O5  771   0.918   2.533   9.948 -0.6011 -0.4282 -0.1299
   50TCq2    O6  772   0.921   2.693   9.786 -0.1721  0.1228 -0.4975
   50TCq2    H2  773   1.069   2.546  10.116  0.2869 -1.8913 -1.6775
   50TCq2    H3  774   1.050   2.874   9.867 -0.9507 -0.9573  0.0905
   50TCq2    H4  775   1.365   2.853  10.152 -0.5069  2.0520 -0.4416
   51MPD2     C  776   3.181   2.173   1.009 -0.0407  0.3131  0.1746
   51MPD2    C1  777   3.258   2.263   0.935  0.8530  0.6160 -0.1013
   51MPD2    C2  778   3.237   2.395   0.945 -0.0643 -1.3791 -0.2622
   51MPD2    C3  779   3.128   2.439   1.015  0.7492  0.2840  0.1892
   51MPD2    C4  780   3.035   2.350   1.073  0.3534 -0.4921  0.3426
   51MPD2    C5  781   3.060   2.220   1.065  0.1700 -0.1369 -0.0597
   51MPD2     H  782   3.295   2.463   0.884 -0.3267 -0.3697  0.6217
   51MPD2    H1  783   2.941   2.376   1.120 -0.1018 -0.8437 -0.3760
   51MPD2    H2  784   3.190   2.066   1.016  0.9987  0.2191 -2.4949
   51MPD2    H3  785   2.984   2.149   1.096  0.4844  0.4834  2.1215
   51MPD2     N  786   3.075   2.574   1.010 -0.0019 -0.0079  0.0663
   51MPD2    H5  787   2.982   2.583   1.051  0.4074 -2.0966  1.4254
   51MPD2    N1  788   3.365   2.216   0.851  0.0034  0.4299  0.0656
   51MPD2    H7  789   3.412   2.284   0.792  1.5894 -0.6892  0.0335
   52TCq2    C1  790   3.141   2.685   0.968  0.2514 -0.2395 -0.4305
   52TCq2    O2  791   3.255   2.700   0.932 -0.4129 -0.3577  0.3329
   52TCq2    C2  792   3.056   2.807   0.980  0.9699 -0.2035 -0.2484
   52TCq2    C3  793   2.921   2.787   0.980  0.1781  0.2626 -0.2025
   52TCq2    C4  794   2.847   2.889   1.014  0.2955  0.8912 -0.1906
   52TCq2    C5  795   2.894   3.012   1.056 -0.0105 -0.5086 -0.2272
   52TCq2    C6  796   3.032   3.024   1.059 -0.6321 -0.6128  0.4014
   52TCq2    C7  797   3.115   2.914   1.042 -0.6975  0.1335 -1.0879
   52TCq2    C8  798   3.084   3.147   1.096 -0.2573 -0.0093  1.3437
   52TCq2    O4  799   3.204   3.146   1.120  0.0597  0.2942 -0.0180
   52TCq2    C9  800   2.703   2.874   0.996  0.3136  0.6623 -1.2997
   52TCq2    O5  801   2.663   2.756   0.993  0.2673 -0.0982  0.2140
   52TCq2    O6  802   2.625   2.971   0.990 -0.2843 -0.1609 -0.3457
   52TCq2    H2  803   2.874   2.708   0.922  0.7031  0.9814 -1.6009
   52TCq2    H3  804   2.825   3.093   1.081  0.5163 -0.0842 -0.1574
   52TCq2    H4  805   3.222   2.916   1.058 -0.4454  1.6158 -2.8597
   53TMC2    C1  806   2.240   1.145  11.029 -0.7674 -0.0225 -0.3040
   53TMC2    C2  807   2.341   1.077  10.976  0.3335 -1.2254  0.3988
   53TMC2    C3  808   2.473   1.100  11.018 -0.1701 -0.8222 -0.0750
   53TMC2    C4  809   2.269   1.231  11.127 -0.0953 -0.1939  0.6538
   53TMC2    C5  810   2.394   1.254  11.171  0.2652  0.4852  0.6357
   53TMC2    C6  811   2.494   1.188  11.115 -0.0544 -0.0051 -0.5397
   53TMC2     C  812   2.124   1.067  11.068  0.0173  0.9391 -0.0922
   53TMC2     O  813   2.083   0.985  10.988  0.4085 -0.3878 -0.5701
   53TMC2     H  814   2.320   0.995  10.908  0.3827 -0.3315 -0.6820
   53TMC2    H1  815   2.189   1.290  11.171 -1.1318 -1.2123  0.1228
   53TMC2    H2  816   2.597   1.207  11.143 -0.1954  1.8298 -1.2025
   53TMC2    C7  817   2.395   1.245  11.319 -0.5295  0.1120  0.5868
   53TMC2    C8  818   2.580   1.049  10.942 -0.0350 -0.2272  0.1138
   53TMC2    O1  819   2.283   1.218  11.357 -0.3377  0.0213 -0.2698
   53TMC2    O2  820   2.647   1.142  10.890 -0.2208 -0.3014 -0.8649
   53TMC2    O5  821   2.538   0.937  10.884  0.2082 -0.1596 -0.3714
   53TMC2    H5  822   2.471   0.902  10.945  0.1068 -1.4167 -1.2004
   54MPD2     C  823   1.882   0.959  11.214 -0.1459 -0.5107  0.0263
   54MPD2    C1  824   1.987   1.013  11.273  0.3203 -0.6708  0.5985
   54MPD2    C2  825   1.996   1.015  11.408 -0.6538  0.1119 -0.2402
   54MPD2    C3  826   1.897   0.967  11.492  0.4710 -0.2873 -0.1085
   54MPD2    C4  827   1.789   0.923  11.425 -0.6160  0.3219  0.1087
   54MPD2    C5  828   1.779   0.916  11.288 -0.0879  0.4187  0.1663
   54MPD2     H  829   2.086   1.065  11.441 -2.0251  2.8200 -0.6935
   54MPD2    H1  830   1.704   0.888  11.482  0.4609 -2.7748 -0.2072
   54MPD2    H2  831   1.880   0.948  11.106 -1.8104  0.2515 -0.0251
   54MPD2    H3  832   1.683   0.889  11.245  2.0079 -0.6859 -3.8510
   54MPD2     N  833   1.902   0.967  11.636 -0.5385 -0.3000 -0.3963
   54MPD2    H5  834   1.827   0.924  11.689  0.6342  1.6323  2.8468
   54MPD2    N1  835   2.095   1.077  11.202 -0.1274  0.6195 -0.6741
   54MPD2    H7  836   2.166   1.125  11.256  0.2872 -0.2248 -0.4574
   55MPD2     C  837   3.642   4.024   0.111 -0.1053  0.2026  0.1450
   55MPD2    C1  838   3.598   3.895   0.105  0.0376 -0.2038 -0.7337
   55MPD2    C2  839   3.488   3.852   0.177 -0.4417 -0.7038 -0.3374
   55MPD2    C3  840   3.417   3.938   0.249  0.0779 -0.4070  0.1102
   55MPD2    C4  841   3.466   4.062   0.264 -0.1809 -0.0906  0.1691
   55MPD2    C5  842   3.577   4.107   0.192  0.1841 -0.0899 -0.6740
   55MPD2     H  843   3.447   3.752   0.164 -0.9419 -0.3801 -1.2249
   55MPD2    H1  844   3.409   4.132   0.324 -0.1794  0.9916 -1.0947
   55MPD2    H2  845   3.735   4.049   0.060  0.0099 -0.6909 -0.0964
   55MPD2    H3  846   3.625   4.203   0.208  1.1131 -1.0056  2.0426
   55MPD2     N  847   3.310   3.884   0.327 -0.2793 -0.1454  0.0772
   55MPD2    H5  848   3.298   3.784   0.335  1.2182 -0.5062 -2.2184
   55MPD2    N1  849   3.673   3.804   0.030 -0.1066 -0.0467 -0.3566
   55MPD2    H7  850   3.749   3.835  17.673 -0.2739  1.4321  0.2238
   56TCq2    C1  851   3.667   3.667   0.053  0.2102 -0.7980 -0.3395
   56TCq2    O2  852   3.604   3.598   0.132 -0.4772  0.0043 -0.0056
   56TCq2    C2  853   3.760   3.609  17.673 -0.8443 -0.2272  0.3184
   56TCq2    C3  854   3.764   3.652  17.540 -0.6520  0.0035  0.0251
   56TCq2    C4  855   3.846   3.581  17.457 -0.4705 -0.7731  0.0663
   56TCq2    C5  856   3.890   3.459  17.490  0.0081 -0.5972  0.3689
   56TCq2    C6  857   3.866   3.409  17.611  0.5619  0.0445 -0.0949
   56TCq2    C7  858   3.806   3.483   0.009  0.1604  0.6282  0.5217
   56TCq2    C8  859   3.894   3.270  17.640 -0.2482 -0.0722 -0.1046
   56TCq2    O4  860   3.979   3.219  17.572 -0.1533  0.0736  0.3322
   56TCq2    C9  861   3.860   3.636  17.325 -0.1914  0.2060 -0.5111
   56TCq2    O5  862   3.778   3.723  17.295 -0.1582  0.1250 -0.2049
   56TCq2    O6  863   3.935   3.580  17.238  0.2985 -0.2904 -0.0772
   56TCq2    H2  864   3.714   3.741  17.505  0.5863  0.8406  0.3824
   56TCq2    H3  865   3.936   3.394  17.416  0.2538 -1.3478  1.1699
   56TCq2    H4  866   3.798   3.450   0.112 -0.9302 -0.3924  0.1033
   57TMC2    C1  867   2.882   0.183  13.872  0.3476  0.2225 -0.3907
   57TMC2    C2  868   2.915   0.256  13.981 -0.1218 -0.5304  0.6488
   57TMC2    C3  869   3.045   0.296  13.983 -0.3567  0.3281 -0.1164
   57TMC2    C4  870   2.966   0.134  13.775  0.5279  0.2656  0.1675
   57TMC2    C5  871   3.100   0.167  13.790  0.2686 -0.2415 -0.9576
   57TMC2    C6  872   3.141   0.233  13.903  0.0534  0.5269  0.4389
   57TMC2     C  873   2.737   0.154  13.860 -0.1628 -1.0719  0.1485
   57TMC2     O  874   2.665   0.211  13.941 -0.1887  0.1389 -0.0420
   57TMC2     H  875   2.842   0.320  14.030  2.2425  0.9788  2.2231
   57TMC2    H1  876   2.936   0.067  13.696  0.3775 -1.5699  1.7658
   57TMC2    H2  877   3.241   0.274  13.908 -0.7568  2.4985  0.5822
   57TMC2    C7  878   3.207   0.093  13.726 -0.0566 -0.0987 -0.4473
   57TMC2    C8  879   3.097   0.404  14.075 -0.1357 -0.2498 -1.0060
   57TMC2    O1  880   3.320   0.102  13.779 -0.6657  0.0494 -0.6422
   57TMC2    O2  881   3.201   0.472  14.057  0.2828 -0.2829  0.1209
   57TMC2    O5  882   3.025   0.395  14.191  0.2901 -0.0563 -0.1384
   57TMC2    H5  883   2.939   0.347  14.194 -0.1238  0.7391  0.6354
   58MPD2     C  884   2.329   4.552  13.816  0.2581 -1.0219 -0.0167
   58MPD2    C1  885   2.339   4.681  13.862  0.1058  0.4519 -0.2101
   58MPD2    C2  886   2.463   0.022  13.865 -0.6685  0.0632 -1.2400
   58MPD2    C3  887   2.582   4.687  13.819  0.2836  0.0740  0.2065
   58MPD2    C4  888   2.573   4.561  13.771  0.1304 -0.6041 -0.1570
   58MPD2    C5  889   2.448   4.495  13.770 -0.0386  0.1397 -0.7631
   58MPD2     H  890   2.463   0.129  13.880 -0.2671  0.0701 -1.2876
   58MPD2    H1  891   2.661   4.510  13.734  0.0659  1.9084 -3.7154
   58MPD2    H2  892   2.235   4.505  13.789 -1.0638  0.6052  1.7606
   58MPD2    H3  893   2.437   4.400  13.720  1.2074 -0.7389  0.6295
   58MPD2     N  894   2.708   0.028  13.817 -0.0556 -0.1431  0.7995
   58MPD2    H5  895   2.775   4.693  13.771  0.9008  1.3535  0.2602
   58MPD2    N1  896   2.229   0.030  13.898  0.4792 -0.0400 -0.4023
   58MPD2    H7  897   2.246   0.118  13.946 -0.9762 -0.3621  0.7125
   59MPD2     C  898   0.797   0.001  13.347 -0.8425 -0.4496 -0.0353
   59MPD2    C1  899   0.871   0.057  13.246 -0.4012 -1.1882 -0.2053
   59MPD2    C2  900   0.979   0.138  13.286 -0.0651  0.3471  0.8835
   59MPD2    C3  901   1.004   0.176  13.417  0.3724 -0.8345  0.1680
   59MPD2    C4  902   0.920   0.123  13.508 -0.3277 -0.1326  0.0125
   59MPD2    C5  903   0.818   0.039  13.476 -0.3636  0.1450 -0.0311
   59MPD2     H  904   1.047   0.183  13.214 -0.2060 -0.0832  0.4793
   59MPD2    H1  905   0.937   0.166  13.606 -1.1016 -1.7728  0.8583
   59MPD2    H2  906   0.721   4.650  13.331 -1.4276  0.3362 -0.9812
   59MPD2    H3  907   0.744   0.004  13.548 -0.7703 -1.3746 -1.1940
   59MPD2     N  908   1.108   0.260  13.464  0.1684  0.4347  1.1937
   59MPD2    H5  909   1.106   0.290  13.561 -0.0923  1.5799  0.8253
   59MPD2    N1  910   0.847   0.041  13.106  0.2736  0.2737  0.1843
   59MPD2    H7  911   0.908   0.080  13.035  0.2361  1.6207  0.8965
   60TCq2    C1  912   0.740   4.705  13.056 -0.0454 -0.6852  0.4535
   60TCq2    O2  913   0.655   4.636  13.112  0.1087 -0.5885 -0.5666
   60TCq2    C2  914   0.722   0.000  12.917 -0.2238  0.0561  0.9253
   60TCq2    C3  915   0.612   4.661  12.864  0.0507 -0.9435 -0.4155
   60TCq2    C4  916   0.558   4.699  12.742 -0.7693 -0.4819  0.6213
   60TCq2    C5  917   0.600   0.092  12.689  0.4542  0.0489 -0.1679
   60TCq2    C6  918   0.715   0.153  12.739 -0.1314  0.2115  0.2645
   60TCq2    C7  919   0.773   0.111  12.856  0.8169 -0.0611 -0.2127
   60TCq2    C8  920   0.760   0.282  12.691 -0.1207  0.1828 -0.2732
   60TCq2    O4  921   0.877   0.314  12.699 -0.2447  0.4700 -0.4909
   60TCq2    C9  922   0.452   4.620  12.672  0.6509 -0.1678 -0.9212
   60TCq2    O5  923   0.391   4.534  12.742 -0.4236 -0.3013  0.1076
   60TCq2    O6  924   0.430   4.643  12.552 -0.7165  0.5377  0.0503
   60TCq2    H2  925   0.569   4.573  12.911  0.6556 -1.2100 -0.3574
   60TCq2    H3  926   0.559   0.113  12.591  0.4165  0.1033 -0.1406
   60TCq2    H4  927   0.857   0.170  12.891 -0.1745 -0.9318  3.5576
   61MPD2     C  928   4.677   1.261  14.446  0.2045 -0.7900 -0.5403
   61MPD2    C1  929   4.646   1.389  14.499 -0.4925 -0.5339  0.1359
   61MPD2    C2  930   4.697   1.509  14.438 -0.1586  0.1245 -0.0433
   61MPD2    C3  931   0.061   1.500  14.334  0.0686  0.1259  0.2576
   61MPD2    C4  932   0.103   1.381  14.290 -0.4936  0.3684 -0.0065
   61MPD2    C5  933   0.039   1.268  14.337  0.2557 -0.4097 -0.5099
   61MPD2     H  934   4.657   1.601  14.479 -0.8584  0.7130 -2.0665
   61MPD2    H1  935   0.151   1.368  14.194 -0.6328 -1.8995  0.2213
   61MPD2    H2  936   4.634   1.170  14.488 -1.0902 -0.6272 -1.5204
   61MPD2    H3  937   0.062   1.172  14.293  2.8112 -0.4134  0.8114
   61MPD2     N  938   0.100   1.618  14.280  0.2209  0.4839  0.7014
   61MPD2    H5  939   0.042   1.698  14.302  0.2416  0.9314 -0.8956
   61MPD2    N1  940   4.565   1.401  14.608 -0.0004 -0.4659  0.4630
   61MPD2    H7  941   4.544   1.498  14.629 -0.5983 -0.3530 -0.6708
   62TCq2    C1  942   4.514   1.303  14.689  0.2844  0.9613 -0.0033
   62TCq2    O2  943   4.535   1.179  14.693  0.2010  0.1190  0.5392
   62TCq2    C2  944   4.421   1.360  14.787  0.2064 -0.5063 -0.8744
   62TCq2    C3  945   4.350   1.283  14.868 -0.4430  0.1652  0.0562
   62TCq2    C4  946   4.263   1.331  14.962 -0.3647  0.3652  0.0466
   62TCq2    C5  947   4.257   1.465  14.984  0.2696  0.6001  0.4431
   62TCq2    C6  948   4.325   1.546  14.902 -0.6796 -0.1471 -0.3370
   62TCq2    C7  949   4.414   1.497  14.808 -0.0852 -0.3309  0.0774
   62TCq2    C8  950   4.354   1.679  14.941 -0.0820 -0.0725 -0.5728
   62TCq2    O4  951   4.393   1.756  14.853 -0.0941 -0.3527 -0.2568
   62TCq2    C9  952   4.189   1.242  15.045 -0.2907 -0.3271  0.0787
   62TCq2    O5  953   4.130   1.284  15.147 -0.3120  0.7301  0.5702
   62TCq2    O6  954   4.179   1.123  15.005  0.1049  0.1810 -0.2522
   62TCq2    H2  955   4.367   1.177  14.851 -1.5024 -0.1874  1.1981
   62TCq2    H3  956   4.197   1.495  15.069 -1.3290 -0.4780 -0.2972
   62TCq2    H4  957   4.483   1.571  14.768  1.1850 -1.3688  0.3706
   63TMC2    C1  958   3.628   1.203  10.777 -0.2434  0.1231 -0.0149
   63TMC2    C2  959   3.745   1.186  10.856  0.4721  0.6426  0.2525
   63TMC2    C3  960   3.827   1.285  10.877  0.0601 -0.7555 -0.3766
   63TMC2    C4  961   3.601   1.328  10.728  0.0160  0.2880 -0.7623
   63TMC2    C5  962   3.685   1.433  10.767 -0.0267 -0.8837 -0.4480
   63TMC2    C6  963   3.796   1.414  10.846 -0.2817  0.0594  0.3798
   63TMC2     C  964   3.576   1.081  10.710 -0.1497  0.5984  0.0054
   63TMC2     O  965   3.603   0.975  10.760 -0.0703 -0.2106  0.3980
   63TMC2     H  966   3.769   1.083  10.882  0.9819  0.0450 -2.5248
   63TMC2    H1  967   3.524   1.353  10.657  1.0878  0.7210 -1.7686
   63TMC2    H2  968   3.873   1.487  10.869  1.0999 -1.2807 -0.0683
   63TMC2    C7  969   3.673   1.560  10.686 -0.1803  0.4205 -0.0230
   63TMC2    C8  970   3.946   1.258  10.951 -0.6729  0.5624 -0.2348
   63TMC2    O1  971   3.560   1.586  10.644 -0.2468  0.6737 -0.0775
   63TMC2    O2  972   4.052   1.315  10.937  0.4285 -0.9060  0.2986
   63TMC2    O5  973   3.902   1.227  11.073 -0.3274  0.4321 -0.1651
   63TMC2    H5  974   3.806   1.213  11.057 -0.2580  0.0553 -0.2506
   64MPD2     C  975   3.244   0.860  10.388 -0.2826  0.0522  0.2592
   64MPD2    C1  976   3.358   0.807  10.445  0.4579 -0.2934 -0.0517
   64MPD2    C2  977   3.441   0.886  10.517  0.0038  0.1710 -0.9551
   64MPD2    C3  978   3.408   1.018  10.542 -0.6691  0.1079  0.5650
   64MPD2    C4  979   3.289   1.068  10.494 -0.2537  0.2043 -0.3232
   64MPD2    C5  980   3.216   0.986  10.414 -0.1763  0.4037 -0.4344
   64MPD2     H  981   3.526   0.839  10.568 -1.1723 -0.8731  0.0443
   64MPD2    H1  982   3.269   1.175  10.501  2.1915  0.6403 -0.0822
   64MPD2    H2  983   3.178   0.796  10.330  0.0979 -1.1076  1.1181
   64MPD2    H3  984   3.122   1.030  10.382 -0.8296  0.8275  2.0808
   64MPD2     N  985   3.490   1.112  10.613  0.4835 -0.3352 -0.1107
   64MPD2    H5  986   3.454   1.204  10.634  1.3696 -0.2973  1.2599
   64MPD2    N1  987   3.406   0.674  10.424 -0.4936 -0.0353  0.6780
   64MPD2    H7  988   3.500   0.660  10.459  0.2517  2.2824 -0.4088
   65MPD2     C  989   0.301   0.520  15.629  0.3318 -0.3045  0.3774
   65MPD2    C1  990   0.283   0.552  15.498 -0.1213 -0.1754  0.3843
   65MPD2    C2  991   0.305   0.456  15.405 -0.1439  0.0951  0.6186
   65MPD2    C3  992   0.340   0.327  15.433  0.7118  0.2045 -0.1804
   65MPD2    C4  993   0.352   0.291  15.564  0.0235  1.1204 -0.2448
   65MPD2    C5  994   0.336   0.388  15.666  0.2524 -0.0653 -0.1786
   65MPD2     H  995   0.298   0.486  15.301  1.0041  1.5262  0.9489
   65MPD2    H1  996   0.376   0.188  15.587  0.7921  1.8255  2.1235
   65MPD2    H2  997   0.295   0.594  15.708 -0.3047 -0.5668  0.5736
   65MPD2    H3  998   0.344   0.357  15.770  1.4770 -1.0245 -0.5522
   65MPD2     N  999   0.371   0.237  15.331  0.9821 -0.0605  0.1114
   65MPD2    H5 1000   0.379   0.138  15.353 -2.0945 -0.8114 -2.1668
   65MPD2    N1 1001   0.263   0.681  15.446 -0.2778 -0.4546  0.3716
   65MPD2    H7 1002   0.253   0.689  15.346  0.7857  1.3585  0.4189
   66TCq2    C1 1003   0.276   0.797  15.514 -0.7183 -0.3671 -0.0897
   66TCq2    O2 1004   0.298   0.813  15.631 -0.3784  0.0997  0.2657
   66TCq2    C2 1005   0.212   0.905  15.446  0.2324  0.5359  0.4129
   66TCq2    C3 1006   0.157   0.873  15.317  0.0275 -0.5101 -0.5156
   66TCq2    C4 1007   0.165   0.968  15.219  0.2015  0.1367  0.2391
   66TCq2    C5 1008   0.215   1.091  15.249  0.2322 -0.3513  0.0853
   66TCq2    C6 1009   0.262   1.119  15.371  0.1918 -0.0875 -0.3887
   66TCq2    C7 1010   0.265   1.027  15.476 -0.0930  0.0137  0.0322
   66TCq2    C8 1011   0.300   1.253  15.404  0.6449 -0.5619  0.2573
   66TCq2    O4 1012   0.290   1.328  15.305  0.4012 -0.7151 -0.1538
   66TCq2    C9 1013   0.121   0.939  15.088 -0.0395  1.0349 -0.2281
   66TCq2    O5 1014   0.080   0.824  15.060 -0.4506 -0.2657  0.3644
   66TCq2    O6 1015   0.111   1.038  15.010  0.1538 -0.3497  0.4220
   66TCq2    H2 1016   0.104   0.784  15.284 -0.5120 -1.1446  2.0278
   66TCq2    H3 1017   0.218   1.163  15.168 -1.8112 -1.0398 -0.6247
   66TCq2    H4 1018   0.312   1.039  15.572 -0.9815  1.7932  0.2420
   67MPD2     C 1019   0.619   0.220  14.223 -0.2867  0.1744 -0.6652
   67MPD2    C1 1020   0.568   0.271  14.343  0.1298 -0.1831 -0.4477
   67MPD2    C2 1021   0.430   0.280  14.378  0.1040 -0.1806 -0.4875
   67MPD2    C3 1022   0.340   0.236  14.284 -0.3639  1.0708 -0.5552
   67MPD2    C4 1023   0.386   0.181  14.168 -0.3460 -0.0887  0.4611
   67MPD2    C5 1024   0.526   0.175  14.131  0.1328  0.1903 -0.2803
   67MPD2     H 1025   0.393   0.327  14.468 -0.5209 -0.2779 -0.6941
   67MPD2    H1 1026   0.326   0.135  14.090  0.6978 -1.5305  0.5102
   67MPD2    H2 1027   0.727   0.220  14.208  0.0634 -1.1614  1.9002
   67MPD2    H3 1028   0.550   0.131  14.035 -1.3028  1.3625 -1.1718
   67MPD2     N 1029   0.204   0.261  14.285 -0.1415 -0.8584 -0.1668
   67MPD2    H5 1030   0.149   0.224  14.208 -0.5803  0.8738 -0.6819
   67MPD2    N1 1031   0.655   0.332  14.437  0.7925 -0.4662 -0.3183
   67MPD2    H7 1032   0.622   0.378  14.522 -1.5696 -1.9472 -0.4358
   68TCq2    C1 1033   0.793   0.329  14.431  0.0079  0.3429  0.0072
   68TCq2    O2 1034   0.871   0.239  14.402 -0.3808  0.0752 -0.0297
   68TCq2    C2 1035   0.850   0.440  14.505  0.0834 -0.6447 -0.2225
   68TCq2    C3 1036   0.771   0.548  14.528 -0.4672 -0.5919  0.0755
   68TCq2    C4 1037   0.820   0.646  14.606  0.3581 -0.0605  0.2074
   68TCq2    C5 1038   0.939   0.628  14.667  0.9452  0.7181  0.2094
   68TCq2    C6 1039   1.019   0.522  14.640 -0.1173  0.1012 -0.3474
   68TCq2    C7 1040   0.979   0.431  14.550 -0.6419  0.6033  0.0982
   68TCq2    C8 1041   1.128   0.493  14.729 -0.1950 -0.1861 -0.2439
   68TCq2    O4 1042   1.223   0.432  14.684 -0.9619  0.0056 -0.4012
   68TCq2    C9 1043   0.743   0.764  14.619 -0.4635  1.2325 -0.1407
   68TCq2    O5 1044   0.644   0.772  14.545  0.2218  0.1799  0.1916
   68TCq2    O6 1045   0.766   0.842  14.709 -0.1752 -0.7814 -0.5586
   68TCq2    H2 1046   0.687   0.565  14.461 -1.1783 -0.6047  0.9735
   68TCq2    H3 1047   0.972   0.711  14.728  1.1124  0.4587  0.4696
   68TCq2    H4 1048   1.038   0.340  14.543 -0.3313  0.6654  2.1408
   69TMC2    C1 1049   2.707   1.539  12.393  0.0435  0.5027 -0.3426
   69TMC2    C2 1050   2.572   1.515  12.400 -0.1353  0.2636  0.6938
   69TMC2    C3 1051   2.497   1.564  12.297  0.0068  0.0721  0.7098
   69TMC2    C4 1052   2.773   1.586  12.284  0.1348  0.2163 -0.3433
   69TMC2    C5 1053   2.688   1.604  12.176  0.0254 -0.2821  0.2584
   69TMC2    C6 1054   2.551   1.605  12.178 -0.1527  1.4734 -0.2271
   69TMC2     C 1055   2.787   1.466  12.486  0.5744  0.6190  0.1702
   69TMC2     O 1056   2.750   1.358  12.535 -0.4493 -0.6878 -0.3037
   69TMC2     H 1057   2.527   1.474  12.489  0.4822 -1.4715  0.2132
   69TMC2    H1 1058   2.878   1.564  12.270 -0.0580 -1.3984  0.8165
   69TMC2    H2 1059   2.500   1.611  12.082  0.5562  0.0095 -0.7067
   69TMC2    C7 1060   2.750   1.655  12.058  0.6583  0.1315 -0.3610
   69TMC2    C8 1061   2.356   1.518  12.298  0.6540  0.1879 -0.2194
   69TMC2    O1 1062   2.703   1.618  11.952  0.6061 -0.0992  0.7633
   69TMC2    O2 1063   2.306   1.453  12.391  0.1644 -0.1413  0.2475
   69TMC2    O5 1064   2.285   1.612  12.230  0.3040  0.0463  0.2619
   69TMC2    H5 1065   2.337   1.667  12.167  0.1172 -0.6602 -0.5038
   70MPD2     C 1066   3.083   1.599  12.658 -0.6370 -0.0153 -0.1530
   70MPD2    C1 1067   2.988   1.506  12.630 -0.5891  0.8077 -0.3203
   70MPD2    C2 1068   2.989   1.384  12.697 -0.5747  0.1968 -0.8156
   70MPD2    C3 1069   3.087   1.365  12.796 -0.4002 -0.3638 -0.4843
   70MPD2    C4 1070   3.179   1.462  12.819  0.5017 -0.2520  0.7545
   70MPD2    C5 1071   3.182   1.576  12.744 -0.6230  0.1010 -0.4882
   70MPD2     H 1072   2.901   1.321  12.685 -0.2442 -1.0133  3.2127
   70MPD2    H1 1073   3.259   1.449  12.890  0.1605 -2.0161  0.8241
   70MPD2    H2 1074   3.095   1.681  12.587 -1.6268 -0.8895 -1.3176
   70MPD2    H3 1075   3.264   1.646  12.752 -0.4540 -0.2288  0.7983
   70MPD2     N 1076   3.094   1.237  12.864 -0.6785  0.3127 -0.2488
   70MPD2    H5 1077   3.169   1.222  12.931  0.5824 -0.9734 -1.9458
   70MPD2    N1 1078   2.893   1.540  12.530  0.3296 -0.2488 -0.4723
   70MPD2    H7 1079   2.897   1.632  12.487  0.1896 -0.2345 -0.4555
   71TMC2    C1 1080   0.870   1.473   1.610 -0.8062  0.1761  0.3579
   71TMC2    C2 1081   0.996   1.520   1.639 -0.8926  0.0870  0.5902
   71TMC2    C3 1082   1.032   1.557   1.768 -0.2023  0.3769  0.0015
   71TMC2    C4 1083   0.771   1.475   1.708 -0.4291  0.1910  0.4726
   71TMC2    C5 1084   0.814   1.504   1.838 -0.3416  0.1498  0.2732
   71TMC2    C6 1085   0.940   1.536   1.874  0.8601  0.6790  0.4283
   71TMC2     C 1086   0.834   1.439   1.472 -0.4809  0.0468 -0.1197
   71TMC2     O 1087   0.903   1.492   1.386 -0.5516  0.5055  0.5019
   71TMC2     H 1088   1.071   1.517   1.561 -0.7701 -1.0308  0.7534
   71TMC2    H1 1089   0.671   1.441   1.683  0.7270 -2.9473  0.1773
   71TMC2    H2 1090   0.970   1.562   1.975  1.2598  2.6304 -0.1902
   71TMC2    C7 1091   0.708   1.536   1.929 -0.1713 -0.0865 -0.5178
   71TMC2    C8 1092   1.161   1.532   1.813  0.1228  0.1060  0.5055
   71TMC2    O1 1093   0.721   1.533   2.048 -0.0480  0.0025  0.4566
   71TMC2    O2 1094   1.183   1.455   1.907  0.0911 -0.1869 -0.0649
   71TMC2    O5 1095   1.247   1.544   1.709  0.4569  0.1523 -0.2428
   71TMC2    H5 1096   1.224   1.624   1.657  1.0649  0.0529 -0.6757
   72MPD2     C 1097   0.455   1.297   1.154 -0.2879 -0.4073  0.3824
   72MPD2    C1 1098   0.533   1.412   1.154 -0.3532  0.4064  0.4347
   72MPD2    C2 1099   0.632   1.419   1.252  0.5480 -0.2434  0.2718
   72MPD2    C3 1100   0.652   1.323   1.354  0.0425  0.1023  0.5672
   72MPD2    C4 1101   0.564   1.213   1.346  0.2976  0.7497  0.0264
   72MPD2    C5 1102   0.471   1.206   1.245 -0.6805  0.2520  0.9209
   72MPD2     H 1103   0.693   1.508   1.255 -1.0183  0.8497 -0.2184
   72MPD2    H1 1104   0.561   1.138   1.423  0.1339  0.9431  0.2058
   72MPD2    H2 1105   0.367   1.289   1.091  1.1314  1.5765 -1.8235
   72MPD2    H3 1106   0.391   1.134   1.241  1.9545 -2.6787  1.0445
   72MPD2     N 1107   0.734   1.348   1.466 -0.0940  0.1269  0.2729
   72MPD2    H5 1108   0.727   1.285   1.545 -4.8920 -0.0271 -0.2486
   72MPD2    N1 1109   0.529   1.517   1.062 -0.5854  0.4222  0.2397
   72MPD2    H7 1110   0.588   1.599   1.073  0.0775 -0.1461  0.9419
   73TMC2    C1 1111   0.087   3.732  13.711  0.0917 -0.6970  0.2806
   73TMC2    C2 1112   0.069   3.831  13.806  0.3499 -0.5288 -0.0997
   73TMC2    C3 1113   0.167   3.923  13.825 -0.4268 -0.0503 -0.5855
   73TMC2    C4 1114   0.191   3.742  13.619 -0.1377 -0.0019  0.5807
   73TMC2    C5 1115   0.280   3.848  13.633 -0.0917  0.2403 -0.3125
   73TMC2    C6 1116   0.271   3.932  13.735  0.8552  0.5947  0.3007
   73TMC2     C 1117   4.689   3.713  13.646 -0.3808  0.6835  0.3244
   73TMC2     O 1118   4.703   3.710  13.522 -0.0574 -0.0047 -0.6790
   73TMC2     H 1119   4.701   3.829  13.861  0.0439 -2.5868 -0.7015
   73TMC2    H1 1120   0.218   3.661  13.551 -1.6955  0.0965 -0.1365
   73TMC2    H2 1121   0.337   4.017  13.750  0.5126  0.6571  1.4250
   73TMC2    C7 1122   0.279   3.929  13.511  0.4006 -0.5223  0.8477
   73TMC2    C8 1123   0.193   3.977  13.951  0.0692 -0.4628 -0.1593
   73TMC2    O1 1124   0.361   4.020  13.503  0.4376  0.2013  0.2271
   73TMC2    O2 1125   0.239   4.090  13.967  0.1953 -0.0256 -0.2569
   73TMC2    O5 1126   0.148   3.893  14.047 -0.6935 -0.5026 -0.6349
   73TMC2    H5 1127   0.136   3.806  14.005  0.3166 -0.4219 -1.1008
   74MPD2     C 1128   4.235   3.504  13.554 -0.1304  0.1600 -0.1525
   74MPD2    C1 1129   4.324   3.564  13.474  0.1108  0.6569 -0.7865
   74MPD2    C2 1130   4.435   3.624  13.524  0.1003  0.0129 -0.3330
   74MPD2    C3 1131   4.462   3.629  13.664  1.0479 -0.1642  0.0455
   74MPD2    C4 1132   4.364   3.559  13.739  0.4797  0.2144 -0.0788
   74MPD2    C5 1133   4.257   3.492  13.689 -0.3177 -0.4992 -0.0289
   74MPD2     H 1134   4.500   3.685  13.462  0.7676  0.9562  1.2742
   74MPD2    H1 1135   4.370   3.549  13.847 -1.6322  1.3239  0.1250
   74MPD2    H2 1136   4.145   3.462  13.512  0.5862 -1.3032 -0.1970
   74MPD2    H3 1137   4.186   3.445  13.756  1.7360  0.1744  2.6157
   74MPD2     N 1138   4.586   3.681  13.727  0.2435  0.6639  0.7192
   74MPD2    H5 1139   4.608   3.678  13.826 -2.0528 -2.5441  1.1333
   74MPD2    N1 1140   4.290   3.580  13.339 -0.2681 -1.1387  0.3816
   74MPD2    H7 1141   4.216   3.522  13.299 -2.8349  4.4892 -3.0209
   75TCq2    C1 1142   0.136   0.323  14.381 -0.1252 -0.6839 -0.1614
   75TCq2    O2 1143   0.168   0.361  14.491 -0.0857  0.4779 -0.0289
   75TCq2    C2 1144   0.016   0.374  14.327  0.0281 -0.9999 -1.1925
   75TCq2    C3 1145   4.651   0.419  14.416 -0.8866 -0.0889  0.2852
   75TCq2    C4 1146   4.560   0.510  14.381  0.7267  0.7483 -0.0838
   75TCq2    C5 1147   4.559   0.565  14.260 -0.4284 -0.6482 -0.0594
   75TCq2    C6 1148   4.641   0.512  14.164 -0.1815 -0.0735 -0.4075
   75TCq2    C7 1149   0.010   0.412  14.195  0.2434  0.2285  0.4643
   75TCq2    C8 1150   4.612   0.534  14.023  0.2365 -0.2029  0.5135
   75TCq2    O4 1151   4.651   0.444  13.950 -0.3398 -0.2358  0.5123
   75TCq2    C9 1152   4.466   0.560  14.477  0.0257 -0.0687 -0.4640
   75TCq2    O5 1153   4.481   0.537  14.600 -0.3565  0.0905  0.4756
   75TCq2    O6 1154   4.363   0.619  14.429  0.0734  0.0899  0.3360
   75TCq2    H2 1155   4.667   0.397  14.521  1.9313 -0.9561 -0.3261
   75TCq2    H3 1156   4.494   0.651  14.241  0.6310 -0.0218 -0.8484
   75TCq2    H4 1157   0.075   0.382  14.113 -1.3566 -0.5219 -0.5307
   76MPD2     C 1158   3.721   1.281  11.563 -0.3093  0.1600 -0.0112
   76MPD2    C1 1159   3.611   1.224  11.513 -0.2157 -0.5866  0.0933
   76MPD2    C2 1160   3.611   1.089  11.495 -0.7308 -0.1561 -0.5911
   76MPD2    C3 1161   3.720   1.011  11.533  0.3412 -0.0629 -0.5239
   76MPD2    C4 1162   3.830   1.067  11.583 -0.1663  0.1014  0.3428
   76MPD2    C5 1163   3.832   1.203  11.588 -0.1106 -0.4161  0.1782
   76MPD2     H 1164   3.517   1.042  11.467  0.3585 -1.1682 -2.5202
   76MPD2    H1 1165   3.913   1.006  11.616 -1.2012 -0.4479  1.9524
   76MPD2    H2 1166   3.717   1.387  11.586 -0.6231 -0.2302  1.7236
   76MPD2    H3 1167   3.923   1.245  11.631  0.8345  1.1979 -3.3896
   76MPD2     N 1168   3.710   0.873  11.554  0.7817 -0.5265 -0.6039
   76MPD2    H5 1169   3.784   0.849  11.618  0.2961 -0.1846  0.0861
   76MPD2    N1 1170   3.489   1.292  11.492 -0.4386  0.0809 -0.1392
   76MPD2    H7 1171   3.410   1.235  11.463  0.9389  0.3923 -4.5124
   77TCq2    C1 1172   3.603   0.788  11.529 -0.7836 -0.5146 -0.4297
   77TCq2    O2 1173   3.504   0.811  11.459 -0.2351  0.3098 -0.2545
   77TCq2    C2 1174   3.606   0.663  11.606 -0.1587 -0.7489  0.0882
   77TCq2    C3 1175   3.492   0.587  11.612 -0.4436 -0.3748  0.2929
   77TCq2    C4 1176   3.491   0.473  11.691 -0.0771  0.4015  0.1336
   77TCq2    C5 1177   3.602   0.436  11.763 -0.3237  0.1085 -0.1154
   77TCq2    C6 1178   3.715   0.507  11.752  0.4307 -0.4906 -0.0292
   77TCq2    C7 1179   3.722   0.622  11.675  0.1876 -0.2148  0.8647
   77TCq2    C8 1180   3.830   0.448  11.815  0.0065  0.1970  0.7897
   77TCq2    O4 1181   3.821   0.326  11.832  0.1969  0.5858 -0.0866
   77TCq2    C9 1182   3.369   0.394  11.702 -0.2313 -0.0606  0.1657
   77TCq2    O5 1183   3.275   0.441  11.634 -0.1541  0.2788  0.2482
   77TCq2    O6 1184   3.362   0.304  11.788 -0.8263  0.4619  0.0907
   77TCq2    H2 1185   3.402   0.616  11.559 -0.8119 -1.3968  0.3681
   77TCq2    H3 1186   3.594   0.343  11.819  0.5256  0.3183  0.3593
   77TCq2    H4 1187   3.819   0.665  11.656 -0.6573  0.5730 -1.7180
   78MPD1     C 1188   1.218   2.015   2.112 -0.8919 -0.1513  0.0846
   78MPD1    C1 1189   1.138   1.959   2.017  0.7050  0.4940 -0.9087
   78MPD1    C2 1190   1.182   1.932   1.891  0.5754  0.6451 -0.1180
   78MPD1    C3 1191   1.309   1.965   1.853 -0.0401  0.0724  0.2836
   78MPD1    C4 1192   1.395   2.019   1.948  0.8592  0.2208 -0.1407
   78MPD1    C5 1193   1.347   2.044   2.074  0.0114 -0.2199 -1.1050
   78MPD1     H 1194   1.120   1.878   1.820 -0.9083  1.9773  0.1639
   78MPD1    H1 1195   1.499   2.037   1.923  0.8375  0.7683  0.1630
   78MPD1    H2 1196   1.179   2.034   2.211 -0.2156  0.2059  0.2833
   78MPD1    H3 1197   1.409   2.087   2.151 -0.9438  2.5119 -1.8412
   78MPD1     N 1198   1.373   1.928   1.732 -0.2737  0.0549  0.4212
   78MPD1    H5 1199   1.470   1.955   1.737 -0.9430  2.1698  1.9889
   78MPD1    N1 1200   1.017   1.899   2.062  0.4214 -0.1278  0.6549
   78MPD1    H6 1201   0.962   1.947   2.133 -1.5194 -0.6021 -0.5147
   78MPD1    H7 1202   0.951   1.880   1.987  0.1236 -3.8446  1.8942
   79TCq2    C1 1203   1.320   1.856   1.626 -0.3868  0.7778  0.5030
   79TCq2    O2 1204   1.214   1.791   1.623  0.4900  0.6416  0.2368
   79TCq2    C2 1205   1.395   1.878   1.506 -0.1175  0.2653 -0.3517
   79TCq2    C3 1206   1.327   1.863   1.393  0.0736 -0.3210  0.1843
   79TCq2    C4 1207   1.381   1.887   1.272  0.4652 -0.1728  0.2590
   79TCq2    C5 1208   1.507   1.936   1.271 -0.0643 -0.2488 -0.0014
   79TCq2    C6 1209   1.566   1.969   1.387 -0.0942 -0.2325 -0.3499
   79TCq2    C7 1210   1.518   1.930   1.502 -0.1818 -0.0742 -0.2399
   79TCq2    C8 1211   1.711   1.965   1.391 -0.0681 -0.1376 -0.1162
   79TCq2    O4 1212   1.772   1.889   1.317  0.5166 -0.2140  0.5448
   79TCq2    C9 1213   1.317   1.840   1.155  0.0224 -0.0932 -0.5421
   79TCq2    O5 1214   1.382   1.844   1.053  0.5069  0.0070  0.1123
   79TCq2    O6 1215   1.195   1.810   1.161  0.0432 -0.3182 -0.2087
   79TCq2    H2 1216   1.232   1.810   1.397  1.6524 -3.4537 -2.9732
   79TCq2    H3 1217   1.552   1.955   1.174  0.0953  2.5482  0.6207
   79TCq2    H4 1218   1.581   1.931   1.591  1.1263 -1.8509 -1.1581
   80MPD2     C 1219   2.706   0.878  11.184  0.2806 -0.3872  0.4980
   80MPD2    C1 1220   2.619   0.916  11.285  0.0268  0.4112 -0.4314
   80MPD2    C2 1221   2.682   0.993  11.384 -0.3828 -0.0514 -0.4392
   80MPD2    C3 1222   2.809   1.037  11.380 -0.1422 -0.2411  0.2822
   80MPD2    C4 1223   2.886   1.001  11.277  0.3079  0.1954  0.0423
   80MPD2    C5 1224   2.837   0.921  11.176 -0.0034  0.3205 -0.6670
   80MPD2     H 1225   2.617   1.014  11.467  1.2751 -0.7101  1.0394
   80MPD2    H1 1226   2.985   1.043  11.264  0.6346 -0.8390 -0.7805
   80MPD2    H2 1227   2.677   0.812  11.104  3.3949 -0.9656 -0.1551
   80MPD2    H3 1228   2.902   0.879  11.099 -1.8372 -1.4057 -1.2624
   80MPD2     N 1229   2.868   1.122  11.486 -0.7794 -0.5821  0.1350
   80MPD2    H5 1230   2.955   1.167  11.462 -0.8213 -0.3992  0.3268
   80MPD2    N1 1231   2.486   0.875  11.297  0.3839  0.5689  0.4648
   80MPD2    H7 1232   2.436   0.911  11.378 -1.2037  0.4072 -0.4557
   81TCq2    C1 1233   2.426   0.806  11.197  0.4192  0.2538  0.1973
   81TCq2    O2 1234   2.453   0.802  11.079  0.0135  0.2375  0.7062
   81TCq2    C2 1235   2.297   0.763  11.230 -0.1914  0.7151 -0.0571
   81TCq2    C3 1236   2.215   0.723  11.128  0.3764  0.3218 -0.0988
   81TCq2    C4 1237   2.090   0.676  11.157 -0.3657 -0.2620  0.4707
   81TCq2    C5 1238   2.042   0.674  11.282  0.2189 -0.2949 -0.5214
   81TCq2    C6 1239   2.127   0.709  11.384 -0.1646 -0.1813 -0.2002
   81TCq2    C7 1240   2.255   0.747  11.357  0.5571 -0.3347  0.0119
   81TCq2    C8 1241   2.085   0.692  11.520  0.1699  0.9110  0.4537
   81TCq2    O4 1242   1.976   0.635  11.530 -0.6542 -0.8056  0.4857
   81TCq2    C9 1243   1.998   0.659  11.046  0.2007  0.0959 -0.0445
   81TCq2    O5 1244   2.042   0.672  10.931  0.2272 -0.4419  0.1467
   81TCq2    O6 1245   1.876   0.654  11.078 -0.0008 -0.2323  0.0008
   81TCq2    H2 1246   2.246   0.736  11.025  1.6396 -0.8793  0.1367
   81TCq2    H3 1247   1.937   0.657  11.303 -0.3060  0.1239 -2.8177
   81TCq2    H4 1248   2.326   0.770  11.436  0.9061 -0.6359 -0.2116
   82MPD2     C 1249   0.895   0.352  10.714  0.3736  0.1147  0.7224
   82MPD2    C1 1250   0.791   0.293  10.776 -0.8577  0.4506  0.1052
   82MPD2    C2 1251   0.823   0.182  10.861  0.1491  0.4893  0.5569
   82MPD2    C3 1252   0.955   0.141  10.886  0.5788 -0.0941  0.1763
   82MPD2    C4 1253   1.052   0.221  10.823  0.1622 -0.7320 -0.0719
   82MPD2    C5 1254   1.023   0.323  10.745  0.4386 -0.2565 -0.6826
   82MPD2     H 1255   0.746   0.121  10.908 -0.2585  0.9487  0.4815
   82MPD2    H1 1256   1.152   0.183  10.837 -0.1605 -1.5911 -0.0953
   82MPD2    H2 1257   0.878   0.436  10.648 -2.1177  0.0727  1.3076
   82MPD2    H3 1258   1.111   0.372  10.703  0.4144 -0.4117 -0.9156
   82MPD2     N 1259   0.999   0.047  10.979  0.7993 -0.2655 -0.2027
   82MPD2    H5 1260   1.090   0.011  10.952  1.2262 -0.2966  1.2815
   82MPD2    N1 1261   0.659   0.323  10.744  1.1089  0.6618 -0.5081
   82MPD2    H7 1262   0.649   0.388  10.666 -0.2083  1.1671  0.0757
   83TCq2    C1 1263   0.922   4.707  11.074 -0.3542 -0.1350 -0.8504
   83TCq2    O2 1264   0.811   0.017  11.121 -0.0452 -0.5444  0.3452
   83TCq2    C2 1265   0.972   4.573  11.115  0.5838  0.4600 -0.2454
   83TCq2    C3 1266   1.083   4.507  11.064 -0.9457 -0.3040  0.1573
   83TCq2    C4 1267   1.085   4.369  11.048 -0.5978 -0.0459 -0.4990
   83TCq2    C5 1268   0.980   4.295  11.107 -0.5094 -0.1924 -0.1772
   83TCq2    C6 1269   0.882   4.364  11.176 -0.3348  1.0404 -0.3794
   83TCq2    C7 1270   0.870   4.499  11.174 -0.6749 -0.4716  0.5828
   83TCq2    C8 1271   0.768   4.288  11.219  0.4897  0.3563 -0.8807
   83TCq2    O4 1272   0.706   4.340  11.312 -0.4416 -0.4301 -0.2595
   83TCq2    C9 1273   1.206   4.308  10.989  0.3905  0.3481  0.0428
   83TCq2    O5 1274   1.278   4.389  10.930  0.6216  0.6693 -0.1021
   83TCq2    O6 1275   1.220   4.181  10.981  0.0172 -0.4447 -0.1820
   83TCq2    H2 1276   1.163   4.569  11.023 -1.5636 -0.3231 -1.0622
   83TCq2    H3 1277   0.987   4.187  11.095 -0.4695 -0.4764  2.4364
   83TCq2    H4 1278   0.787   4.542  11.229 -0.8742 -2.5310  1.8877
   84TCq2    C1 1279   1.755   2.948  10.616  0.3093  0.0145  0.3856
   84TCq2    O2 1280   1.687   3.024  10.552 -0.6293  0.6026 -0.1090
   84TCq2    C2 1281   1.843   3.010  10.711 -0.2097  0.6999  0.2957
   84TCq2    C3 1282   1.973   2.971  10.705 -0.1653 -0.4913 -0.4966
   84TCq2    C4 1283   2.062   3.044  10.778 -0.2014 -0.2047  0.3538
   84TCq2    C5 1284   2.016   3.143  10.857  0.1510 -0.0887  0.0157
   84TCq2    C6 1285   1.883   3.176  10.869  0.4543  0.3832 -0.9800
   84TCq2    C7 1286   1.795   3.116  10.787  0.0558  0.1873  0.2936
   84TCq2    C8 1287   1.855   3.306  10.926  0.5484  0.6773  0.2354
   84TCq2    O4 1288   1.923   3.354  11.015 -0.3658  0.0115  0.7544
   84TCq2    C9 1289   2.205   3.014  10.773 -0.1288  0.3648 -0.9204
   84TCq2    O5 1290   2.283   3.090  10.838 -0.3225 -0.0396 -0.6626
   84TCq2    O6 1291   2.240   2.902  10.730 -0.0441 -0.1752 -0.4807
   84TCq2    H2 1292   2.013   2.914  10.622 -1.6441  2.2549 -3.0909
   84TCq2    H3 1293   2.096   3.199  10.904  2.4639 -1.4567 -2.3182
   84TCq2    H4 1294   1.688   3.129  10.794 -0.2810 -1.3717 -1.9512
   85MPD2     C 1295   2.667   1.808  16.071 -0.1935 -0.1511 -0.1134
   85MPD2    C1 1296   2.574   1.762  15.979 -0.0948  0.4595 -0.7691
   85MPD2    C2 1297   2.550   1.835  15.861 -0.4507 -0.5396 -0.5048
   85MPD2    C3 1298   2.621   1.958  15.844 -0.2411  0.1656  0.0948
   85MPD2    C4 1299   2.702   1.999  15.943  0.0432  0.7111 -0.0608
   85MPD2    C5 1300   2.729   1.924  16.050  0.0833 -0.0768  0.6604
   85MPD2     H 1301   2.488   1.792  15.784 -0.5274 -0.4644 -0.4857
   85MPD2    H1 1302   2.765   2.087  15.940  1.9769 -0.7623 -2.0997
   85MPD2    H2 1303   2.698   1.746  16.154  0.9729 -0.6682 -0.9328
   85MPD2    H3 1304   2.807   1.950  16.121  1.5335  0.2881 -1.0570
   85MPD2     N 1305   2.608   2.030  15.719 -0.3898 -0.1930 -0.1095
   85MPD2    H5 1306   2.567   1.980  15.641 -2.9361  2.9164 -0.7766
   85MPD2    N1 1307   2.513   1.636  15.989  0.3187  0.0004 -0.2561
   85MPD2    H7 1308   2.444   1.618  15.918  0.6497  1.6711 -0.9955
   86TCq2    C1 1309   2.661   2.160  15.701 -0.2041 -0.0631 -0.0170
   86TCq2    O2 1310   2.667   2.242  15.791 -0.6614 -0.4890 -0.2835
   86TCq2    C2 1311   2.683   2.192  15.561  0.3468  0.4139 -0.5319
   86TCq2    C3 1312   2.712   2.320  15.534 -0.3853  0.1296 -0.1896
   86TCq2    C4 1313   2.767   2.354  15.416 -0.1875  0.5164 -0.0281
   86TCq2    C5 1314   2.810   2.250  15.332 -0.7639 -0.6396  0.0773
   86TCq2    C6 1315   2.783   2.122  15.362  0.3713  0.0920 -0.3633
   86TCq2    C7 1316   2.707   2.090  15.476  0.2454  0.1908 -0.2791
   86TCq2    C8 1317   2.867   2.020  15.298  0.1292 -0.8716  0.9729
   86TCq2    O4 1318   2.857   1.908  15.349 -0.0685  0.6182 -0.3657
   86TCq2    C9 1319   2.804   2.491  15.391  0.8757  0.2833  0.3158
   86TCq2    O5 1320   2.705   2.573  15.381  0.1052 -0.3799  0.7580
   86TCq2    O6 1321   2.929   2.513  15.411 -0.3098  0.3058 -0.2856
   86TCq2    H2 1322   2.713   2.402  15.605  1.3862 -0.0898  0.0488
   86TCq2    H3 1323   2.866   2.290  15.248 -0.5173  1.6899  1.3487
   86TCq2    H4 1324   2.696   1.984  15.493 -1.7200  0.7319  1.9534
   87MPD2     C 1325   1.271   1.115   1.468 -0.7853  0.1635 -0.4773
   87MPD2    C1 1326   1.210   1.001   1.416 -0.7379  0.8872 -0.7693
   87MPD2    C2 1327   1.100   1.012   1.331 -0.9535  0.0801  1.1939
   87MPD2    C3 1328   1.064   1.130   1.293 -0.3641 -0.3587  1.0242
   87MPD2    C4 1329   1.124   1.244   1.346 -0.3564  0.3057  0.4162
   87MPD2    C5 1330   1.224   1.234   1.441  0.7169  0.2708  0.0421
   87MPD2     H 1331   1.036   0.928   1.305 -3.5012  1.1285  4.0143
   87MPD2    H1 1332   1.085   1.339   1.313 -2.7578 -0.3705  1.3382
   87MPD2    H2 1333   1.349   1.111   1.542  0.2451 -0.2702 -1.5852
   87MPD2    H3 1334   1.267   1.321   1.489  1.9786 -0.9916  1.1940
   87MPD2     N 1335   0.963   1.157   1.198  0.0586  0.0923  0.1638
   87MPD2    H5 1336   0.946   1.255   1.177  3.5432  0.6308 -0.1505
   87MPD2    N1 1337   1.255   0.873   1.458  0.4172 -0.7279  0.2615
   87MPD2    H7 1338   1.338   0.863   1.515 -0.9342  0.4811  2.4395
   88TCq2    C1 1339   1.237   0.757   1.383  0.5349 -0.5478  0.2816
   88TCq2    O2 1340   1.170   0.740   1.276 -0.0420 -0.4758  0.4745
   88TCq2    C2 1341   1.292   0.635   1.445  0.0704  0.1525  0.3764
   88TCq2    C3 1342   1.259   0.622   1.578 -0.2197 -0.6620 -0.1283
   88TCq2    C4 1343   1.203   0.503   1.624  0.2292 -0.4527 -0.3918
   88TCq2    C5 1344   1.185   0.404   1.538  0.1405  0.0847 -0.2991
   88TCq2    C6 1345   1.218   0.419   1.405  0.5282  0.8651  0.0290
   88TCq2    C7 1346   1.272   0.531   1.358 -0.2169 -0.1793 -1.1069
   88TCq2    C8 1347   1.155   0.325   1.310  0.3518 -0.3439 -0.1122
   88TCq2    O4 1348   1.164   0.361   1.196  0.2699  0.9607  0.0080
   88TCq2    C9 1349   1.147   0.506   1.757  0.3396 -0.2998  0.8171
   88TCq2    O5 1350   1.164   0.607   1.833  0.0533  0.4201 -0.1124
   88TCq2    O6 1351   1.110   0.392   1.806 -0.2306 -0.0449 -0.0683
   88TCq2    H2 1352   1.277   0.704   1.647  0.3698  0.7308 -1.9233
   88TCq2    H3 1353   1.154   0.308   1.578  1.0706  0.5701  1.5907
   88TCq2    H4 1354   1.281   0.541   1.250  0.3156  0.2008 -1.0298
   89MPD2     C 1355   1.842   2.479   1.940  0.0385 -0.5324  0.2946
   89MPD2    C1 1356   1.753   2.560   2.004  0.2571 -0.3477 -0.3318
   89MPD2    C2 1357   1.800   2.681   2.045  0.6443  0.2166  0.6546
   89MPD2    C3 1358   1.933   2.715   2.026  0.8008 -0.9387 -0.1863
   89MPD2    C4 1359   2.019   2.630   1.968 -0.1007 -0.9060  0.3680
   89MPD2    C5 1360   1.974   2.509   1.932 -0.0280 -0.2181  0.2362
   89MPD2     H 1361   1.740   2.754   2.098 -0.4547  0.4042 -0.8255
   89MPD2    H1 1362   2.123   2.655   1.954 -0.3660  0.9928  1.8716
   89MPD2    H2 1363   1.817   2.382   1.899 -1.4365 -1.0338  2.3918
   89MPD2    H3 1364   2.046   2.443   1.883 -1.2455 -0.1047 -1.7086
   89MPD2     N 1365   1.970   2.850   2.063 -0.5068 -0.6398 -0.4575
   89MPD2    H5 1366   1.898   2.905   2.109  0.3108  0.1429 -0.1265
   89MPD2    N1 1367   1.622   2.523   2.034 -0.1237 -0.1146  0.0198
   89MPD2    H7 1368   1.563   2.576   2.097  2.5437  0.1349  2.3249
   90TCq2    C1 1369   2.083   2.915   2.034  0.1246 -0.0637  0.7054
   90TCq2    O2 1370   2.180   2.880   1.966  0.3908  0.1717 -0.6887
   90TCq2    C2 1371   2.064   3.052   2.065 -0.9084 -0.1483 -0.1477
   90TCq2    C3 1372   2.184   3.116   2.082 -0.4691 -0.4806  0.5358
   90TCq2    C4 1373   2.179   3.253   2.055  0.1737  0.1509 -0.1382
   90TCq2    C5 1374   2.055   3.306   2.015  0.9248  0.6437 -0.1531
   90TCq2    C6 1375   1.940   3.232   1.999 -0.5623 -0.3349 -0.4190
   90TCq2    C7 1376   1.942   3.098   2.031  0.2441  0.3878 -0.1061
   90TCq2    C8 1377   1.818   3.282   1.940 -0.0283 -0.1762 -0.3507
   90TCq2    O4 1378   1.714   3.217   1.947  0.5667  0.5902  0.2925
   90TCq2    C9 1379   2.289   3.338   2.075  0.5658  0.1941  0.2451
   90TCq2    O5 1380   2.285   3.446   2.010  0.5199  0.4057  0.0591
   90TCq2    O6 1381   2.391   3.293   2.130 -0.5888 -0.2342 -0.2284
   90TCq2    H2 1382   2.272   3.060   2.110 -1.9162 -2.2689  1.4969
   90TCq2    H3 1383   2.047   3.414   2.011 -0.6320  0.5489  0.2428
   90TCq2    H4 1384   1.867   3.033   1.985  0.0024  0.4330  0.2269
   91TMC2    C1 1385   2.735   3.099  16.823  0.4994 -0.1421  1.0414
   91TMC2    C2 1386   2.795   3.162  16.926 -0.4317  0.1161 -0.0129
   91TMC2    C3 1387   2.708   3.184  17.035 -0.1687 -0.4972  0.4497
   91TMC2    C4 1388   2.603   3.067  16.820  0.2079  0.1844 -0.4757
   91TMC2    C5 1389   2.526   3.077  16.930  0.3683 -0.4868 -0.0337
   91TMC2    C6 1390   2.573   3.138  17.047 -0.0665  0.1602 -0.1152
   91TMC2     C 1391   2.827   3.042  16.724 -0.0237 -0.0011  0.0684
   91TMC2     O 1392   2.776   2.965  16.643 -0.2262 -0.2616  0.3719
   91TMC2     H 1393   2.902   3.170  16.935 -0.7172  2.7470  1.0208
   91TMC2    H1 1394   2.573   3.015  16.730 -1.2334  0.7055 -0.2960
   91TMC2    H2 1395   2.503   3.171  17.123 -0.6717 -0.2885 -0.4790
   91TMC2    C7 1396   2.418   2.982  16.945  0.0211 -0.2791  0.7301
   91TMC2    C8 1397   2.745   3.271  17.146 -0.2297  0.6162 -0.3266
   91TMC2    O1 1398   2.386   2.946  17.059  0.1860  0.0930  0.4202
   91TMC2    O2 1399   2.669   3.313  17.229 -0.1931 -0.2369 -0.1419
   91TMC2    O5 1400   2.867   3.315  17.119  0.7885  0.1088 -0.3318
   91TMC2    H5 1401   2.908   3.273  17.040 -1.5654 -0.1838 -1.3882
   92MPD2     C 1402   3.057   2.925  16.586  0.2811 -0.0632  0.2695
   92MPD2    C1 1403   3.061   3.052  16.645 -0.0072  0.0420 -0.5940
   92MPD2    C2 1404   3.177   3.123  16.638  0.0535 -0.6861  0.4059
   92MPD2    C3 1405   3.285   3.076  16.580  0.0186 -0.3525 -0.9427
   92MPD2    C4 1406   3.276   2.952  16.523 -0.1141  0.6052 -0.5198
   92MPD2    C5 1407   3.162   2.874  16.524  0.3526  0.6233  0.6408
   92MPD2     H 1408   3.181   3.217  16.693 -1.2902  0.3605 -1.2787
   92MPD2    H1 1409   3.360   2.911  16.468  1.1173  1.2584  0.8750
   92MPD2    H2 1410   2.971   2.859  16.592 -1.2285  2.0233  1.5828
   92MPD2    H3 1411   3.159   2.783  16.465 -2.0608  1.5580 -0.6966
   92MPD2     N 1412   3.414   3.137  16.563 -0.7572  0.0471 -0.2262
   92MPD2    H5 1413   3.480   3.079  16.511 -0.0698  0.3794  0.2769
   92MPD2    N1 1414   2.947   3.104  16.708 -0.1913 -0.6012  0.1871
   92MPD2    H7 1415   2.960   3.198  16.744  0.4908 -0.4541 -0.4502
   93MPD2     C 1416   4.377   3.030  13.699 -0.5714  0.6470 -0.6302
   93MPD2    C1 1417   4.391   3.145  13.779 -1.0862 -0.3918  0.4651
   93MPD2    C2 1418   4.283   3.208  13.830  0.6744 -0.2660  0.1349
   93MPD2    C3 1419   4.158   3.153  13.819  0.5690  0.5794  0.6622
   93MPD2    C4 1420   4.154   3.030  13.749 -0.2231 -0.4875 -0.6221
   93MPD2    C5 1421   4.256   2.972  13.683 -0.3690  0.6051  0.3003
   93MPD2     H 1422   4.299   3.289  13.900 -1.9577  0.6428 -0.3241
   93MPD2    H1 1423   4.056   2.986  13.738  0.0427 -1.0861 -0.5842
   93MPD2    H2 1424   4.466   2.979  13.664 -1.2118 -0.5988 -0.4478
   93MPD2    H3 1425   4.251   2.875  13.637 -1.6043  2.2217 -2.9785
   93MPD2     N 1426   4.034   3.199  13.881  0.2808 -0.3777  0.3602
   93MPD2    H5 1427   3.956   3.134  13.871  0.0630 -0.0187 -0.2921
   93MPD2    N1 1428   4.520   3.202  13.819  0.1505 -0.4999  1.0037
   93MPD2    H7 1429   4.532   3.282  13.880  3.4386  1.5185 -2.2706
   94TCq2    C1 1430   4.638   3.155  13.781  0.2830  0.3808  0.1200
   94TCq2    O2 1431   4.672   3.057  13.716 -0.1239 -0.4215  0.6663
   94TCq2    C2 1432   0.026   3.227  13.828 -0.5893  0.9801  0.6722
   94TCq2    C3 1433   0.006   3.352  13.866 -0.6996 -0.5998  0.2643
   94TCq2    C4 1434   0.109   3.415  13.925  0.3501 -0.5475  0.2967
   94TCq2    C5 1435   0.232   3.353  13.942 -0.8202 -0.0221  0.0059
   94TCq2    C6 1436   0.248   3.229  13.890 -0.3674 -0.1428  0.1056
   94TCq2    C7 1437   0.144   3.155  13.841 -0.2965 -0.0911  0.2485
   94TCq2    C8 1438   0.382   3.183  13.868  0.1609  0.5054 -0.2696
   94TCq2    O4 1439   0.382   3.070  13.827  0.3350  0.2349  0.2587
   94TCq2    C9 1440   0.083   3.550  13.968 -0.3080 -0.3152 -0.0942
   94TCq2    O5 1441   0.186   3.621  13.988 -0.0687  0.5713  0.4202
   94TCq2    O6 1442   4.683   3.575  13.982 -0.5716  0.1884  0.3335
   94TCq2    H2 1443   4.639   3.403  13.840 -1.7178 -3.1119 -1.0781
   94TCq2    H3 1444   0.307   3.424  13.974 -0.4248 -0.0471 -0.8602
   94TCq2    H4 1445   0.154   3.051  13.815 -0.7569 -0.3108  0.9558
   95TMC2    C1 1446   0.515   4.055  15.663  0.0364  0.1717  0.1497
   95TMC2    C2 1447   0.618   3.978  15.710  0.1326 -0.0212 -0.2887
   95TMC2    C3 1448   0.586   3.867  15.785 -0.6226  0.4021  0.0123
   95TMC2    C4 1449   0.383   4.016  15.673  0.5438  0.3347 -0.2048
   95TMC2    C5 1450   0.355   3.898  15.734  0.5241  0.1820 -0.0845
   95TMC2    C6 1451   0.460   3.826  15.795  0.2726 -0.6675  0.0371
   95TMC2     C 1452   0.553   4.172  15.589 -0.0963 -0.2381  0.3148
   95TMC2     O 1453   0.472   4.216  15.511  0.6241 -0.1037  0.9644
   95TMC2     H 1454   0.724   3.996  15.690  0.1089  0.2786 -0.1467
   95TMC2    H1 1455   0.313   4.088  15.632 -0.4472 -0.8570 -0.5852
   95TMC2    H2 1456   0.437   3.733  15.845  0.9392 -0.9322 -0.1437
   95TMC2    C7 1457   0.216   3.851  15.739  0.1213  1.1341  0.1044
   95TMC2    C8 1458   0.690   3.786  15.849 -0.1579 -0.5866 -0.3576
   95TMC2    O1 1459   0.192   3.768  15.828  1.0005  0.3517  0.1479
   95TMC2    O2 1460   0.680   3.669  15.888 -0.2314 -0.3014 -0.6902
   95TMC2    O5 1461   0.802   3.869  15.859  0.3861  0.0283  0.6761
   95TMC2    H5 1462   0.775   3.964  15.862 -0.3831 -0.2428  2.0542
   96MPD2     C 1463   0.867   4.546  15.422 -0.5837 -0.1002  0.6123
   96MPD2    C1 1464   0.739   4.512  15.383  0.3588 -0.2606  0.6451
   96MPD2    C2 1465   0.675   4.403  15.437  0.2719 -0.3486  0.3427
   96MPD2    C3 1466   0.735   4.325  15.541 -0.0409  0.3089 -0.1344
   96MPD2    C4 1467   0.863   4.359  15.572 -0.1669  0.5097  0.1541
   96MPD2    C5 1468   0.928   4.468  15.520 -0.3201  0.9807  0.7644
   96MPD2     H 1469   0.576   4.373  15.407 -0.1377  1.9134 -0.4991
   96MPD2    H1 1470   0.917   4.290  15.636 -0.8271 -0.8476 -0.7615
   96MPD2    H2 1471   0.928   4.622  15.375  1.1087  0.6840  4.1159
   96MPD2    H3 1472   1.031   4.483  15.548 -0.0148  0.8189 -0.2893
   96MPD2     N 1473   0.679   4.216  15.612 -0.2024 -0.0018 -0.4143
   96MPD2    H5 1474   0.737   4.178  15.686  0.6662 -0.0401 -1.1173
   96MPD2    N1 1475   0.681   4.594  15.285 -0.1639 -0.1880  0.2494
   96MPD2    H7 1476   0.724   4.680  15.255 -0.5844 -0.8283 -2.2219
   97MPD2     C 1477   1.841   2.390   1.349 -0.6636  0.0442 -0.0019
   97MPD2    C1 1478   1.962   2.427   1.287  0.3123 -0.2092  0.9022
   97MPD2    C2 1479   1.995   2.378   1.158  0.3908  0.1659  0.9384
   97MPD2    C3 1480   1.908   2.292   1.094  0.3196 -0.5460  0.1774
   97MPD2    C4 1481   1.786   2.266   1.149  0.8061 -0.0077 -0.4552
   97MPD2    C5 1482   1.756   2.314   1.277  0.5507 -0.0467 -0.1346
   97MPD2     H 1483   2.095   2.405   1.127 -0.8340  1.6573 -1.7001
   97MPD2    H1 1484   1.710   2.201   1.108  0.0050  0.4543  0.2853
   97MPD2    H2 1485   1.809   2.407   1.451 -0.6804 -1.7521  0.2969
   97MPD2    H3 1486   1.658   2.286   1.312  0.5367 -2.6859 -2.3242
   97MPD2     N 1487   1.948   2.223   0.974  0.2158 -0.3280  0.2629
   97MPD2    H5 1488   1.873   2.182   0.920 -1.1292  0.5747  1.4659
   97MPD2    N1 1489   2.062   2.490   1.362  0.1947 -0.1153 -0.0028
   97MPD2    H7 1490   2.022   2.537   1.443  1.3043 -2.2047  1.7365
   98TCq2    C1 1491   2.064   2.236   0.909  0.5971 -0.2631  0.2211
   98TCq2    O2 1492   2.170   2.278   0.954  0.1475  0.3894  0.3395
   98TCq2    C2 1493   2.064   2.195   0.775  0.4614 -0.6970  0.3681
   98TCq2    C3 1494   1.988   2.086   0.723  0.0957 -0.2879 -0.6576
   98TCq2    C4 1495   2.020   2.041   0.591  0.1930  0.9575  0.1752
   98TCq2    C5 1496   2.128   2.100   0.530  0.1870 -0.4747  0.4583
   98TCq2    C6 1497   2.197   2.203   0.584 -0.3553 -0.3689  0.0806
   98TCq2    C7 1498   2.164   2.254   0.707  0.7782  0.4260  0.1383
   98TCq2    C8 1499   2.300   2.279   0.511 -0.6303  0.3806 -0.4327
   98TCq2    O4 1500   2.306   2.401   0.526 -0.3710  0.1145  0.2492
   98TCq2    C9 1501   1.974   1.906   0.542  0.3799  0.0900  0.2138
   98TCq2    O5 1502   2.049   1.849   0.457 -0.3064 -0.4787  0.0691
   98TCq2    O6 1503   1.861   1.862   0.587 -0.0747  0.1911 -0.2254
   98TCq2    H2 1504   1.909   2.040   0.781  1.1726 -0.7070  0.4511
   98TCq2    H3 1505   2.159   2.055   0.437  0.0769 -1.8877  1.0950
   98TCq2    H4 1506   2.212   2.344   0.741  0.0659 -0.1889  2.7307
   99MPD2     C 1507   1.637   4.229   1.609 -1.2760  1.0413  0.3206
   99MPD2    C1 1508   1.541   4.134   1.633  0.8653 -0.3250 -0.0903
   99MPD2    C2 1509   1.416   4.155   1.568 -0.3558  0.2355  0.4459
   99MPD2    C3 1510   1.403   4.262   1.483 -0.0558  0.8326  0.6560
   99MPD2    C4 1511   1.507   4.355   1.458  0.1418 -0.6757  0.1623
   99MPD2    C5 1512   1.624   4.335   1.529 -0.2435  0.4542  0.3356
   99MPD2     H 1513   1.333   4.088   1.588 -0.9666  1.1695  1.0368
   99MPD2    H1 1514   1.493   4.451   1.409 -0.5773 -1.2638 -0.7787
   99MPD2    H2 1515   1.728   4.232   1.668 -2.4866  0.4073  2.2267
   99MPD2    H3 1516   1.700   4.412   1.533  1.2493 -1.0377  0.7946
   99MPD2     N 1517   1.283   4.278   1.416 -0.3470  0.0762  0.1390
   99MPD2    H5 1518   1.213   4.208   1.435  0.2976 -0.5756  0.1045
   99MPD2    N1 1519   1.559   4.039   1.736 -0.3326  0.0989 -0.5241
   99MPD2    H7 1520   1.479   3.987   1.769  0.6333 -0.5036  0.8770
  100TCq2    C1 1521   1.674   4.010   1.805 -0.1266 -0.1069  0.7385
  100TCq2    O2 1522   1.793   4.034   1.786 -0.0775 -0.3980 -0.3866
  100TCq2    C2 1523   1.645   3.942   1.927 -0.9758 -0.3062  0.4157
  100TCq2    C3 1524   1.749   3.868   1.974  0.3064 -0.2739  0.7014
  100TCq2    C4 1525   1.712   3.798   2.088 -0.2767 -0.7450 -0.5229
  100TCq2    C5 1526   1.586   3.791   2.143 -0.8944 -0.2128 -0.3144
  100TCq2    C6 1527   1.484   3.861   2.093 -0.1908 -0.8285 -0.1185
  100TCq2    C7 1528   1.515   3.944   1.983  0.6802  0.0782 -0.9177
  100TCq2    C8 1529   1.382   3.905   2.182 -0.0419  0.6326 -0.0419
  100TCq2    O4 1530   1.405   3.926   2.301 -0.1618 -0.2227 -0.5230
  100TCq2    C9 1531   1.813   3.720   2.154  0.4449  0.4445  0.0936
  100TCq2    O5 1532   1.926   3.707   2.095  0.0232 -0.4402 -0.4006
  100TCq2    O6 1533   1.785   3.669   2.264  0.3361  0.0064 -0.0579
  100TCq2    H2 1534   1.849   3.879   1.935  0.2264  2.5949  1.2606
  100TCq2    H3 1535   1.558   3.739   2.234  0.5253  0.4747  0.5018
  100TCq2    H4 1536   1.446   4.018   1.944  0.0358  0.3501  0.7472
  101MPD2     C 1537   1.670   1.070  13.197 -0.8708 -0.6721  0.3635
  101MPD2    C1 1538   1.547   1.034  13.160  0.2683 -1.2374  0.3287
  101MPD2    C2 1539   1.503   0.920  13.223 -0.0953 -0.0179  0.2393
  101MPD2    C3 1540   1.573   0.844  13.314 -1.0711  0.3858  0.1125
  101MPD2    C4 1541   1.687   0.892  13.366  0.0731 -0.3783 -0.0434
  101MPD2    C5 1542   1.733   1.004  13.300 -0.2845 -0.2040  0.3362
  101MPD2     H 1543   1.412   0.883  13.178  0.1096  0.9827 -1.0059
  101MPD2    H1 1544   1.746   0.842  13.441  2.1842  3.3041  0.7364
  101MPD2    H2 1545   1.712   1.159  13.151  0.4254 -0.7158  1.4558
  101MPD2    H3 1546   1.825   1.046  13.341 -1.1135  2.6690 -0.7611
  101MPD2     N 1547   1.512   0.728  13.365  0.2543  0.4816 -0.1953
  101MPD2    H5 1548   1.423   0.706  13.322  0.8359 -2.6146  0.1463
  101MPD2    N1 1549   1.477   1.120  13.068  0.3381 -0.1672  0.1943
  101MPD2    H7 1550   1.527   1.202  13.036 -0.6875  0.3237 -0.1556
  102TCq2    C1 1551   1.530   1.380  12.665  0.3707 -0.1537 -0.0091
  102TCq2    O2 1552   1.491   1.426  12.557 -0.4110 -0.0253 -0.3173
  102TCq2    C2 1553   1.419   1.336  12.747 -0.5569 -0.2940 -0.0310
  102TCq2    C3 1554   1.294   1.391  12.736 -0.2504 -0.5488 -0.2370
  102TCq2    C4 1555   1.189   1.324  12.790 -0.2845  0.2490  0.4559
  102TCq2    C5 1556   1.213   1.214  12.878 -0.1195 -0.1986 -0.6964
  102TCq2    C6 1557   1.344   1.173  12.892  0.8660 -0.5107 -0.0999
  102TCq2    C7 1558   1.447   1.234  12.831 -0.4002 -0.3518  0.1986
  102TCq2    C8 1559   1.364   1.089  13.004  0.4003 -0.0333  0.6523
  102TCq2    O4 1560   1.289   0.999  13.035  0.1023 -0.2602 -0.2282
  102TCq2    C9 1561   1.057   1.367  12.771  0.2705  0.3197  0.1439
  102TCq2    O5 1562   1.043   1.479  12.714 -0.2363 -0.3270 -1.0538
  102TCq2    O6 1563   0.966   1.300  12.829  0.2239  1.3089  0.3058
  102TCq2    H2 1564   1.286   1.480  12.675  0.8796 -0.1347  0.2217
  102TCq2    H3 1565   1.133   1.166  12.934  1.3459 -1.3757  0.3752
  102TCq2    H4 1566   1.545   1.189  12.844 -0.6129 -1.3219 -1.5772
  103TMC2    C1 1567   4.278   0.906  12.301  0.1660  1.6356  0.6977
  103TMC2    C2 1568   4.269   1.041  12.276 -0.5751 -0.6820  0.1197
  103TMC2    C3 1569   4.314   1.116  12.379  0.7007 -0.1807  0.7163
  103TMC2    C4 1570   4.334   0.859  12.413 -0.0990 -0.1474 -0.3182
  103TMC2    C5 1571   4.389   0.942  12.505 -0.3088 -0.4269  0.6147
  103TMC2    C6 1572   4.372   1.075  12.496  0.2562  0.1454 -0.2480
  103TMC2     C 1573   4.200   0.826  12.206 -0.0286 -0.8907  0.5867
  103TMC2     O 1574   4.115   0.889  12.150 -0.1347  0.1387 -0.0853
  103TMC2     H 1575   4.214   1.089  12.197  0.7256  0.4391 -0.1140
  103TMC2    H1 1576   4.337   0.755  12.442  0.3522 -0.2242 -0.6487
  103TMC2    H2 1577   4.427   1.139  12.564 -0.3416 -1.1169  1.3952
  103TMC2    C7 1578   4.438   0.891  12.628 -0.0794  1.1114 -0.4260
  103TMC2    C8 1579   4.302   1.261  12.353  0.3775  0.2727  0.2145
  103TMC2    O1 1580   4.432   0.964  12.723 -0.1291 -0.2866  0.0352
  103TMC2    O2 1581   4.294   1.304  12.239 -0.0629 -0.1679 -0.3620
  103TMC2    O5 1582   4.375   1.332  12.440  0.6657 -0.1307  0.3937
  103TMC2    H5 1583   4.385   1.290  12.528 -0.6808 -0.6107  0.3086
  104MPD2     C 1584   4.246   0.474  12.108 -0.6286  0.2769 -0.1379
  104MPD2    C1 1585   4.190   0.599  12.100  0.7712  0.1022 -0.4217
  104MPD2    C2 1586   4.083   0.624  12.014 -0.1368  0.8883 -0.5702
  104MPD2    C3 1587   4.028   0.516  11.949 -0.2428  0.4687  0.2523
  104MPD2    C4 1588   4.086   0.390  11.950 -0.3716 -0.2889  0.2509
  104MPD2    C5 1589   4.194   0.366  12.035  0.2594 -0.1730 -0.3664
  104MPD2     H 1590   4.033   0.720  12.010 -0.7659  0.5713 -0.3452
  104MPD2    H1 1591   4.053   0.302  11.896 -2.5394 -0.3348  1.6762
  104MPD2    H2 1592   4.337   0.463  12.166  0.9939  0.4550 -2.6244
  104MPD2    H3 1593   4.238   0.268  12.025 -2.0469 -1.2014 -0.4257
  104MPD2     N 1594   3.914   0.545  11.868 -0.2546  1.2218 -0.1265
  104MPD2    H5 1595   3.882   0.641  11.860  0.0969  1.5441  2.2423
  104MPD2    N1 1596   4.240   0.691  12.194 -0.0992  0.9977  0.1055
  104MPD2    H7 1597   4.321   0.664  12.248  0.4489  2.4286 -0.0003
  105MPD2     C 1598   1.132   4.527  17.635 -0.2494  0.8204  0.3662
  105MPD2    C1 1599   1.174   4.651  17.677  0.5766  0.4360 -0.7272
  105MPD2    C2 1600   1.130   4.697   0.097  0.3668 -0.1506  1.2946
  105MPD2    C3 1601   1.048   4.620   0.180  0.6715 -0.5018  0.1912
  105MPD2    C4 1602   1.005   4.497   0.136 -0.1017 -0.3810 -0.2266
  105MPD2    C5 1603   1.056   4.448   0.022  0.4878 -0.3983 -0.4953
  105MPD2     H 1604   1.159   0.072   0.126 -1.5531  0.2657  1.7435
  105MPD2    H1 1605   0.936   4.439   0.195 -0.9258 -0.8786 -1.6913
  105MPD2    H2 1606   1.146   4.493  17.533  0.4307  1.2862  0.3077
  105MPD2    H3 1607   1.015   4.353  17.690  0.8979 -0.1085 -1.8091
  105MPD2     N 1608   1.003   4.678   0.306  0.0064  0.3738  0.1714
  105MPD2    H5 1609   1.033   0.048   0.324  0.9000  0.2733 -0.8060
  105MPD2    N1 1610   1.261   0.006  17.597  0.1389 -0.6476  0.6265
  105MPD2    H7 1611   1.280   0.100  17.630  2.1117 -1.6180  2.2643
  106TCq2    C1 1612   0.929   4.619   0.402  0.6617 -0.0163  0.1754
  106TCq2    O2 1613   0.903   4.500   0.421  0.4887  0.0014  0.1507
  106TCq2    C2 1614   0.906   4.719   0.508  1.0263 -0.2583 -0.2415
  106TCq2    C3 1615   0.940   0.127   0.492  0.2421 -0.8517 -0.2418
  106TCq2    C4 1616   0.919   0.219   0.590  0.2956  0.0034 -0.7930
  106TCq2    C5 1617   0.863   0.170   0.705 -0.1199 -0.3594 -0.3458
  106TCq2    C6 1618   0.833   0.039   0.723 -0.2631 -0.0754  0.1362
  106TCq2    C7 1619   0.863   4.671   0.628  0.3904 -0.3980  0.4098
  106TCq2    C8 1620   0.808   4.720   0.863  0.4733  0.9674  0.2511
  106TCq2    O4 1621   0.744   4.618   0.876  0.1241 -0.5094 -0.7359
  106TCq2    C9 1622   0.932   0.366   0.558  0.1024 -0.8809  0.2236
  106TCq2    O5 1623   0.873   0.449   0.638 -0.2279  0.1304 -0.9713
  106TCq2    O6 1624   1.002   0.402   0.459 -0.4566  0.0701  0.2550
  106TCq2    H2 1625   0.966   0.174   0.397 -2.7427  0.1855 -0.5499
  106TCq2    H3 1626   0.833   0.248   0.774 -3.3135 -1.7276 -0.2092
  106TCq2    H4 1627   0.848   4.566   0.651 -1.0970 -0.1555  0.5657
  107TMC2    C1 1628   1.596   4.020  11.524  0.8078 -0.0182 -0.2192
  107TMC2    C2 1629   1.684   3.958  11.607 -0.1417  0.2680 -0.0523
  107TMC2    C3 1630   1.755   3.859  11.548  0.4402  0.2313  0.6235
  107TMC2    C4 1631   1.590   3.994  11.390 -0.3528 -0.0023  0.2861
  107TMC2    C5 1632   1.661   3.892  11.339 -0.3135 -0.1037 -0.3958
  107TMC2    C6 1633   1.744   3.818  11.423  0.5251  0.5564 -0.5063
  107TMC2     C 1634   1.506   4.120  11.588 -0.3034 -0.6923  0.2675
  107TMC2     O 1635   1.532   4.134  11.711 -0.5573  0.3915 -0.3508
  107TMC2     H 1636   1.708   3.996  11.705  3.4130 -1.8676 -0.1005
  107TMC2    H1 1637   1.528   4.061  11.330 -0.3327  0.7820  1.1500
  107TMC2    H2 1638   1.813   3.741  11.392  1.4835  0.4911  1.7807
  107TMC2    C7 1639   1.629   3.856  11.208 -0.3531  0.6201  0.1888
  107TMC2    C8 1640   1.862   3.800  11.628 -0.3700 -0.1457 -0.0515
  107TMC2    O1 1641   1.544   3.930  11.152 -0.1823  0.0256 -0.0246
  107TMC2    O2 1642   1.952   3.739  11.574 -0.1348 -0.2603 -1.0879
  107TMC2    O5 1643   1.805   3.781  11.748  0.1692  0.2152 -0.8041
  107TMC2    H5 1644   1.724   3.826  11.778 -1.2210 -0.9103 -2.8210
  108MPD2     C 1645   1.209   4.309  11.469  0.2103 -0.0013  0.1883
  108MPD2    C1 1646   1.297   4.253  11.557 -0.5163  0.3301 -0.1398
  108MPD2    C2 1647   1.261   4.258  11.689  0.0242 -0.5760 -0.1394
  108MPD2    C3 1648   1.144   4.318  11.730  0.4141 -0.3493 -0.3165
  108MPD2    C4 1649   1.063   4.385  11.640 -0.2680 -0.7233 -0.5533
  108MPD2    C5 1650   1.096   4.378  11.509 -0.2136  0.2323  0.0447
  108MPD2     H 1651   1.328   4.213  11.761  1.2121 -0.9494 -1.4922
  108MPD2    H1 1652   0.979   4.441  11.680 -0.1269  1.2255 -3.0319
  108MPD2    H2 1653   1.226   4.293  11.364 -1.0063  0.9969 -0.1732
  108MPD2    H3 1654   1.031   4.420  11.433  0.2387  0.0650 -0.4400
  108MPD2     N 1655   1.101   4.322  11.861 -0.1180 -0.3127  0.1062
  108MPD2    H5 1656   1.011   4.368  11.873  0.5901  1.1910 -0.3079
  108MPD2    N1 1657   1.402   4.168  11.508 -0.2882 -0.1906 -0.0721
  108MPD2    H7 1658   1.400   4.145  11.410  0.9024 -0.0739 -0.1222
  109MPD2     C 1659   3.066   1.728   1.467  0.4837 -0.5109 -0.1666
  109MPD2    C1 1660   2.971   1.820   1.420 -0.3681  0.4845  0.3029
  109MPD2    C2 1661   3.021   1.941   1.366 -0.3164  0.0759 -0.1838
  109MPD2    C3 1662   3.148   1.980   1.391 -0.0271 -0.7958  0.0823
  109MPD2    C4 1663   3.236   1.887   1.434 -0.6877 -0.4039 -0.0824
  109MPD2    C5 1664   3.195   1.761   1.471 -0.0296 -1.0477  0.5724
  109MPD2     H 1665   2.946   2.011   1.331 -0.5652 -0.4824 -0.7762
  109MPD2    H1 1666   3.342   1.910   1.445 -1.2019  1.5891  0.6394
  109MPD2    H2 1667   3.049   1.625   1.496 -0.9439 -0.3046 -0.2944
  109MPD2    H3 1668   3.274   1.694   1.504 -1.0490 -2.8256 -0.6245
  109MPD2     N 1669   3.189   2.111   1.372 -0.2662  0.5028  0.1078
  109MPD2    H5 1670   3.115   2.180   1.362 -0.1231  0.7353  0.6933
  109MPD2    N1 1671   2.834   1.784   1.420 -0.0683  0.5378 -0.2383
  109MPD2    H7 1672   2.816   1.690   1.453  0.6115  0.4210 -0.2003
  110TCq2    C1 1673   3.317   2.158   1.349 -0.7289 -0.1250 -0.4025
  110TCq2    O2 1674   3.422   2.097   1.337 -0.8119  0.1919  0.6083
  110TCq2    C2 1675   3.331   2.303   1.338  0.3916 -0.2309 -0.1912
  110TCq2    C3 1676   3.454   2.351   1.290 -0.1423 -0.3889 -0.6785
  110TCq2    C4 1677   3.462   2.484   1.274  0.5475 -0.1223 -0.7564
  110TCq2    C5 1678   3.357   2.567   1.285 -0.5411 -0.1461  1.0357
  110TCq2    C6 1679   3.243   2.516   1.341  0.8202 -0.1345  0.1941
  110TCq2    C7 1680   3.228   2.383   1.369 -0.3762  0.1059  0.0148
  110TCq2    C8 1681   3.115   2.590   1.339 -0.3462 -0.6038  0.0159
  110TCq2    O4 1682   3.009   2.527   1.335 -0.0245 -0.2800  0.1793
  110TCq2    C9 1683   3.587   2.537   1.223  0.0950  0.4866  0.5279
  110TCq2    O5 1684   3.590   2.660   1.183  0.1348  0.2360  0.1810
  110TCq2    O6 1685   3.676   2.448   1.201  0.0592 -0.3832  0.5001
  110TCq2    H2 1686   3.539   2.285   1.278  1.9899  2.0117  1.1934
  110TCq2    H3 1687   3.372   2.670   1.258 -0.6936 -0.4622 -0.2444
  110TCq2    H4 1688   3.135   2.351   1.416 -0.9519  0.8622 -0.5957
  111TMC2    C1 1689   1.124   1.641  11.344 -0.3108  0.3165  1.0012
  111TMC2    C2 1690   1.021   1.653  11.433 -0.2542 -0.1408 -0.0930
  111TMC2    C3 1691   1.015   1.546  11.517 -0.4344 -0.8785 -0.1077
  111TMC2    C4 1692   1.203   1.534  11.331  0.2297 -0.2911  0.2303
  111TMC2    C5 1693   1.193   1.434  11.417  0.3433  0.0123  0.1524
  111TMC2    C6 1694   1.088   1.429  11.507 -0.5626 -0.2158  0.2910
  111TMC2     C 1695   1.151   1.747  11.252 -0.1716  0.1786  0.0322
  111TMC2     O 1696   1.233   1.727  11.168  0.4249  0.1995 -0.4312
  111TMC2     H 1697   0.958   1.739  11.454  0.7143  0.7198 -0.7491
  111TMC2    H1 1698   1.277   1.538  11.252  0.5925 -2.3269  0.4789
  111TMC2    H2 1699   1.084   1.350  11.582  2.1715 -0.3600  0.2683
  111TMC2    C7 1700   1.316   1.379  11.467 -0.2138  0.3545 -0.7432
  111TMC2    C8 1701   0.897   1.532  11.596 -0.2659 -0.2736  0.9806
  111TMC2    O1 1702   1.316   1.351  11.586  0.0140  0.5843  0.2128
  111TMC2    O2 1703   0.788   1.566  11.562  0.0528 -0.0636 -0.1927
  111TMC2    O5 1704   0.950   1.538  11.721 -0.1483  0.0946 -0.4435
  111TMC2    H5 1705   1.045   1.514  11.731  0.1504  0.0904 -3.2300
  112MPD2     C 1706   1.071   2.204  11.051  0.0575 -0.1294  0.5465
  112MPD2    C1 1707   1.076   2.081  10.991 -0.3395  0.5768  0.2989
  112MPD2    C2 1708   1.097   1.968  11.071  0.4771 -0.2093 -0.2245
  112MPD2    C3 1709   1.093   1.980  11.206  0.2560 -0.9161 -0.1959
  112MPD2    C4 1710   1.077   2.097  11.264  0.0642  0.0523  0.2550
  112MPD2    C5 1711   1.068   2.211  11.186 -0.4906 -0.0975  0.4000
  112MPD2     H 1712   1.105   1.875  11.017 -1.3421  0.3786 -1.5248
  112MPD2    H1 1713   1.077   2.101  11.373  2.4527  3.5998  0.1545
  112MPD2    H2 1714   1.060   2.298  10.999 -1.8312 -0.2362  0.7630
  112MPD2    H3 1715   1.073   2.311  11.228  0.4585 -0.4652  1.1717
  112MPD2     N 1716   1.115   1.871  11.295 -0.6384 -0.8281  0.6046
  112MPD2    H5 1717   1.095   1.881  11.394 -0.1503  2.4158  0.3778
  112MPD2    N1 1718   1.071   2.070  10.857 -0.2612 -0.1695 -0.5458
  112MPD2    H7 1719   1.100   1.980  10.819  2.4966 -0.2063  1.6888
  113MPD2     C 1720   0.881   3.887   1.693 -0.7159 -0.2189  0.1857
  113MPD2    C1 1721   0.836   4.005   1.645 -0.5227 -0.5165  0.1647
  113MPD2    C2 1722   0.714   4.009   1.575 -0.5597  0.3533 -0.1710
  113MPD2    C3 1723   0.645   3.893   1.541  0.5396  0.6126 -0.4860
  113MPD2    C4 1724   0.705   3.772   1.571 -0.5564 -0.3806 -0.7563
  113MPD2    C5 1725   0.824   3.769   1.644 -0.9281 -0.5804  1.1547
  113MPD2     H 1726   0.678   4.109   1.552  0.4679  0.8208  0.1947
  113MPD2    H1 1727   0.661   3.677   1.542 -2.2953  0.0118  0.5572
  113MPD2    H2 1728   0.958   3.877   1.769 -2.4021 -0.4183  1.8754
  113MPD2    H3 1729   0.860   3.673   1.680  1.7695  0.6087  1.6258
  113MPD2     N 1730   0.513   3.889   1.489 -0.3489 -0.7959 -0.1320
  113MPD2    H5 1731   0.481   3.796   1.467  0.3589 -1.2061  0.5948
  113MPD2    N1 1732   0.902   4.122   1.687 -0.3329 -0.3749 -0.0628
  113MPD2    H7 1733   0.871   4.210   1.648  0.1100  0.6328  1.8607
  114TCq2    C1 1734   0.424   3.996   1.489  0.5060 -0.1427 -0.6063
  114TCq2    O2 1735   0.432   4.121   1.502 -0.2240 -0.5990  0.4373
  114TCq2    C2 1736   0.289   3.946   1.468 -0.3600 -0.5198  0.5554
  114TCq2    C3 1737   0.184   4.030   1.507 -0.8208  0.1811 -0.4889
  114TCq2    C4 1738   0.059   3.974   1.518  0.1081  0.1128 -0.3269
  114TCq2    C5 1739   0.038   3.841   1.478 -0.1648  0.7394 -0.3411
  114TCq2    C6 1740   0.141   3.761   1.443  0.3931  0.5701  0.4683
  114TCq2    C7 1741   0.267   3.817   1.427 -0.1059  0.1179  0.3828
  114TCq2    C8 1742   0.113   3.630   1.384  0.8400  0.5144  0.2330
  114TCq2    O4 1743   0.197   3.579   1.317  0.5660 -0.3923 -0.6859
  114TCq2    C9 1744   4.670   4.054   1.566 -0.2652  0.1070  0.1218
  114TCq2    O5 1745   4.577   3.978   1.603  0.0002  0.0707 -0.2416
  114TCq2    O6 1746   4.682   4.173   1.600  0.1986 -0.0132 -0.4993
  114TCq2    H2 1747   0.201   4.124   1.559 -0.7240  0.6421 -1.3483
  114TCq2    H3 1748   4.664   3.802   1.461  1.0873 -2.1675 -0.8606
  114TCq2    H4 1749   0.340   3.763   1.368 -1.5574  0.3586 -1.6285
  115TMC2    C1 1750   0.420   1.984  17.474 -0.1985 -0.1233  0.0217
  115TMC2    C2 1751   0.550   1.958  17.510 -0.3033  0.2579 -0.3002
  115TMC2    C3 1752   0.628   2.072  17.522  0.1696  0.1116  0.5019
  115TMC2    C4 1753   0.359   2.106  17.473  0.2576 -0.4949 -0.6751
  115TMC2    C5 1754   0.439   2.215  17.472 -0.3237  0.7725 -0.3957
  115TMC2    C6 1755   0.572   2.196  17.505  0.4352 -0.2908 -0.4079
  115TMC2     C 1756   0.341   1.869  17.450 -0.3396 -0.2047 -0.0650
  115TMC2     O 1757   0.404   1.765  17.438  0.5938 -0.2647  0.0816
  115TMC2     H 1758   0.572   1.867  17.564 -0.4072 -2.2269 -4.4191
  115TMC2    H1 1759   0.257   2.118  17.439  1.0417 -0.2305 -2.9974
  115TMC2    H2 1760   0.642   2.278  17.517 -0.4675  0.2807  0.9407
  115TMC2    C7 1761   0.384   2.350  17.484 -0.1713 -0.4595 -0.7955
  115TMC2    C8 1762   0.741   2.057  17.608  0.2355 -0.0033 -0.3191
  115TMC2    O1 1763   0.266   2.354  17.511 -0.2161  0.2260 -0.1149
  115TMC2    O2 1764   0.783   2.149  17.681 -0.1666  0.3465  0.2051
  115TMC2    O5 1765   0.801   1.943  17.572  0.9108 -0.0439 -0.2710
  115TMC2    H5 1766   0.768   1.899  17.490 -0.1986 -0.7854  0.5680
  116MPD2     C 1767   4.616   1.611  17.442  0.0863 -0.1502 -0.0996
  116MPD2    C1 1768   0.017   1.573  17.396 -0.0215  0.3120 -0.5675
  116MPD2    C2 1769   0.121   1.660  17.413 -0.2767  0.2745  0.7899
  116MPD2    C3 1770   0.105   1.794  17.464  0.2817 -0.3990  0.1698
  116MPD2    C4 1771   4.705   1.825  17.510  0.7688  0.7906  0.4086
  116MPD2    C5 1772   4.604   1.733  17.511  0.0897 -0.7581  0.1584
  116MPD2     H 1773   0.220   1.637  17.376 -0.1930  0.5232  0.8603
  116MPD2    H1 1774   4.684   1.915  17.567  0.3756 -0.3599  2.0777
  116MPD2    H2 1775   4.538   1.537  17.448  1.2397 -1.3884 -0.2923
  116MPD2    H3 1776   4.507   1.748  17.558 -0.0657  2.5942 -1.2560
  116MPD2     N 1777   0.203   1.892  17.466 -0.5138  0.2789 -0.1776
  116MPD2    H5 1778   0.168   1.986  17.482  1.1757  0.9960 -0.7351
  116MPD2    N1 1779   0.032   1.458  17.317 -0.0082 -0.2364 -0.1337
  116MPD2    H7 1780   4.671   1.415  17.285  1.5608 -1.9223 -2.0923
  117TMC2    C1 1781   3.932   3.767  13.608 -0.0250 -0.8292 -0.8508
  117TMC2    C2 1782   3.901   3.771  13.736  0.3301  0.4005  0.4111
  117TMC2    C3 1783   3.998   3.805  13.832  0.2170  0.2711  0.5581
  117TMC2    C4 1784   4.063   3.794  13.572 -0.3239  0.3576  0.4670
  117TMC2    C5 1785   4.162   3.822  13.665  0.4541  0.4400  0.3612
  117TMC2    C6 1786   4.130   3.816  13.798 -0.3150  0.4755  0.6843
  117TMC2     C 1787   3.825   3.760  13.508  0.6373  0.0751  0.0710
  117TMC2     O 1788   3.849   3.699  13.401  0.3529 -0.5101 -0.2803
  117TMC2     H 1789   3.797   3.761  13.763  0.0293  0.0274 -0.8961
  117TMC2    H1 1790   4.078   3.777  13.466 -0.4756 -2.6335  0.9255
  117TMC2    H2 1791   4.205   3.831  13.875  0.7784 -3.9945  0.5145
  117TMC2    C7 1792   4.277   3.904  13.630  0.1456  0.0064  0.4313
  117TMC2    C8 1793   3.973   3.784  13.975 -0.4848 -0.1055 -0.9857
  117TMC2    O1 1794   4.357   3.929  13.720  0.3105 -0.5788 -0.1305
  117TMC2    O2 1795   4.056   3.731  14.049  0.5236 -0.7038  0.0411
  117TMC2    O5 1796   3.838   3.787  13.994  0.1433  0.0030 -0.1253
  117TMC2    H5 1797   3.780   3.832  13.929 -2.9982 -0.1042  2.6603
  118MPD2     C 1798   4.336   4.086  13.311  0.0008 -0.0916 -0.3591
  118MPD2    C1 1799   4.358   4.041  13.436 -0.4430 -0.6191  0.1889
  118MPD2    C2 1800   4.470   4.086  13.506 -0.2797 -0.0290 -0.1681
  118MPD2    C3 1801   4.570   4.166  13.431  0.2551 -0.2385 -0.3568
  118MPD2    C4 1802   4.545   4.200  13.302 -0.4485  0.1710 -0.2646
  118MPD2    C5 1803   4.422   4.172  13.246  0.8829  0.3838  0.1657
  118MPD2     H 1804   4.493   4.054  13.607 -1.3555  0.8015  0.3405
  118MPD2    H1 1805   4.613   4.251  13.235 -0.4891  0.4635 -0.0865
  118MPD2    H2 1806   4.243   4.060  13.262 -0.3246 -0.8662  0.6882
  118MPD2    H3 1807   4.403   4.196  13.141  0.8905  0.8805  0.2759
  118MPD2     N 1808   4.694   4.216  13.484 -0.4733 -0.1793  0.2678
  118MPD2    H5 1809   0.023   4.281  13.427 -3.0472 -0.6178 -2.6278
  118MPD2    N1 1810   4.264   3.949  13.498  0.5633 -0.3690  0.7183
  118MPD2    H7 1811   4.176   3.921  13.455  0.9410 -0.9767  0.3495
  119MPD2     C 1812   2.284   0.359  13.501  0.3616  0.3017  0.0833
  119MPD2    C1 1813   2.147   0.353  13.520  0.1174 -0.7463 -0.6396
  119MPD2    C2 1814   2.077   0.297  13.413  0.6394  0.2619  0.6913
  119MPD2    C3 1815   2.142   0.237  13.308 -0.7417 -0.0856  0.2021
  119MPD2    C4 1816   2.272   0.254  13.288  0.4922  0.5931 -0.6337
  119MPD2    C5 1817   2.342   0.311  13.393  0.1910  0.3016 -0.0185
  119MPD2     H 1818   1.970   0.283  13.400  1.1200 -2.3008 -0.4251
  119MPD2    H1 1819   2.331   0.194  13.220 -1.3906 -0.1112 -1.6506
  119MPD2    H2 1820   2.348   0.381  13.586  1.1668 -2.9922  0.2934
  119MPD2    H3 1821   2.450   0.306  13.406 -0.0377  0.0888  1.7933
  119MPD2     N 1822   2.089   0.138  13.223 -0.4031 -0.0175  0.0466
  119MPD2    H5 1823   2.152   0.097  13.156  0.3649  0.3796  0.5333
  119MPD2    N1 1824   2.086   0.376  13.641 -0.0830  0.2507  0.2570
  119MPD2    H7 1825   2.142   0.413  13.718 -0.3432 -0.0839  0.6081
  120TCq2    C1 1826   1.960   0.095  13.218 -0.0519  0.9160 -0.0021
  120TCq2    O2 1827   1.859   0.123  13.277 -0.2353  0.2128 -0.0380
  120TCq2    C2 1828   1.944   4.688  13.152 -0.4547  0.6862 -0.4905
  120TCq2    C3 1829   2.055   4.642  13.082 -0.2956 -0.3848 -0.5002
  120TCq2    C4 1830   2.064   4.504  13.067 -0.2616 -0.0404  0.3082
  120TCq2    C5 1831   1.965   4.423  13.111 -0.6559 -0.2232  0.1376
  120TCq2    C6 1832   1.864   4.473  13.188 -0.1924  1.1928 -0.4152
  120TCq2    C7 1833   1.848   4.605  13.203 -0.1175  0.0796  0.1923
  120TCq2    C8 1834   1.757   4.376  13.203 -0.0370 -0.0736 -0.2675
  120TCq2    O4 1835   1.756   4.275  13.125  0.1634  0.2689 -0.1737
  120TCq2    C9 1836   2.191   4.445  13.014  0.1527 -0.2875 -0.3784
  120TCq2    O5 1837   2.200   4.320  13.035  0.2996  0.3193  0.9196
  120TCq2    O6 1838   2.283   4.526  13.006 -0.6529 -0.1104 -0.4429
  120TCq2    H2 1839   2.129   4.706  13.035  0.7447 -2.8670 -2.2442
  120TCq2    H3 1840   1.961   4.315  13.100  1.1360  0.1799 -4.1954
  120TCq2    H4 1841   1.773   4.659  13.261 -0.9018 -0.0839 -0.6678
  121TMC2    C1 1842   3.808   2.269  13.975  0.8493 -0.7962  0.2799
  121TMC2    C2 1843   3.826   2.188  14.084 -0.7254  0.9786  0.2266
  121TMC2    C3 1844   3.722   2.099  14.113  0.3778  0.2531 -0.3017
  121TMC2    C4 1845   3.693   2.278  13.898 -0.4157  0.6963  0.3234
  121TMC2    C5 1846   3.595   2.187  13.930 -0.3994 -0.0501 -0.2649
  121TMC2    C6 1847   3.604   2.099  14.046  0.0526  0.7162  0.2108
  121TMC2     C 1848   3.928   2.345  13.936 -0.0158  0.5702  0.1962
  121TMC2     O 1849   4.016   2.361  14.018 -0.1877  0.1237  0.0657
  121TMC2     H 1850   3.927   2.169  14.116 -1.6588  0.4962  2.8933
  121TMC2    H1 1851   3.682   2.350  13.817 -0.9508 -0.5907 -0.7526
  121TMC2    H2 1852   3.525   2.027  14.062 -1.5665  2.0491 -1.7627
  121TMC2    C7 1853   3.473   2.203  13.856 -0.5636 -0.2920  0.0628
  121TMC2    C8 1854   3.721   2.065  14.252 -0.5759 -0.4720 -1.0011
  121TMC2    O1 1855   3.480   2.297  13.781 -0.7153  0.3970 -0.0247
  121TMC2    O2 1856   3.796   2.112  14.332 -0.3099  0.0347 -0.0279
  121TMC2    O5 1857   3.592   2.055  14.283  0.7536 -0.3712  0.5492
  121TMC2    H5 1858   3.541   1.978  14.251 -0.7045  1.4931 -1.6288
  122MPD2     C 1859   4.118   2.533  13.797 -0.2491  0.9789 -0.6603
  122MPD2    C1 1860   4.021   2.450  13.733 -0.4513  0.3000 -0.6496
  122MPD2    C2 1861   4.017   2.446  13.592  0.2432 -0.3909  0.1397
  122MPD2    C3 1862   4.106   2.518  13.517 -0.0702  0.3575  0.2309
  122MPD2    C4 1863   4.197   2.599  13.576  0.6032  0.6099  0.4259
  122MPD2    C5 1864   4.201   2.601  13.715 -0.9323  0.2148 -0.5494
  122MPD2     H 1865   3.932   2.398  13.543  0.2242 -0.3309  0.1133
  122MPD2    H1 1866   4.278   2.640  13.518 -0.4016 -0.0743 -1.4442
  122MPD2    H2 1867   4.110   2.544  13.905  1.3750 -2.4161 -0.1807
  122MPD2    H3 1868   4.280   2.658  13.763  0.7474  1.0427 -4.2754
  122MPD2     N 1869   4.107   2.511  13.378 -0.6442 -0.1120  0.1851
  122MPD2    H5 1870   4.176   2.560  13.323  0.7736 -1.4367  0.7765
  122MPD2    N1 1871   3.922   2.375  13.800  0.2358  0.8544  0.0364
  122MPD2    H7 1872   3.853   2.332  13.739 -1.7437  3.9118  0.1806
  123MPD2     C 1873   0.313   4.016   9.602 -0.1378  0.4242  0.2603
  123MPD2    C1 1874   0.294   4.145   9.556 -0.4305 -0.2399  0.0279
  123MPD2    C2 1875   0.380   4.197   9.465 -0.1427 -0.4323  0.7270
  123MPD2    C3 1876   0.498   4.132   9.433 -0.0858  0.1366  0.2477
  123MPD2    C4 1877   0.523   4.008   9.488 -0.7927  0.0330  0.2915
  123MPD2    C5 1878   0.429   3.948   9.569  0.5083 -0.1726 -0.0379
  123MPD2     H 1879   0.372   4.299   9.429 -2.1426 -0.3751  1.2949
  123MPD2    H1 1880   0.618   3.957   9.470 -1.4683 -0.9481 -0.5057
  123MPD2    H2 1881   0.237   3.970   9.663 -1.1488  2.5708  0.6430
  123MPD2    H3 1882   0.455   3.855   9.617 -1.1353 -0.8982 -0.5540
  123MPD2     N 1883   0.599   4.209   9.373  0.0438 -0.4476  0.6997
  123MPD2    H5 1884   0.572   4.306   9.361  0.2549 -0.3959  0.6431
  123MPD2    N1 1885   0.193   4.220   9.611 -0.4505 -0.2794 -0.1938
  123MPD2    H7 1886   0.168   4.187   9.704 -1.2235  1.9251  0.3966
  124TCq2    C1 1887   0.734   4.187   9.379 -0.0643 -0.5219  0.0620
  124TCq2    O2 1888   0.785   4.080   9.408 -0.1374  0.1446  0.4532
  124TCq2    C2 1889   0.823   4.296   9.341 -0.7703  0.4275 -0.1807
  124TCq2    C3 1890   0.774   4.382   9.238 -0.0385 -0.7055 -0.0613
  124TCq2    C4 1891   0.863   4.484   9.210  0.1741  0.0693 -0.0317
  124TCq2    C5 1892   0.986   4.493   9.268 -0.0237 -0.3409  0.6042
  124TCq2    C6 1893   1.018   4.406   9.364  0.0101 -0.5245 -0.0317
  124TCq2    C7 1894   0.940   4.299   9.403  0.9165  0.3792 -0.1821
  124TCq2    C8 1895   1.150   4.422   9.439 -0.4150 -0.0720  0.1903
  124TCq2    O4 1896   1.156   4.356   9.547 -0.2113 -0.2993  0.0494
  124TCq2    C9 1897   0.819   4.571   9.103 -1.0064 -0.0819 -0.8944
  124TCq2    O5 1898   0.699   4.569   9.069  0.0804 -0.1125  0.0180
  124TCq2    O6 1899   0.902   4.639   9.035  0.2506 -0.2822 -0.2976
  124TCq2    H2 1900   0.681   4.371   9.184  0.0476 -0.5167 -0.2480
  124TCq2    H3 1901   1.053   4.570   9.232  0.1301 -0.4586  0.6383
  124TCq2    H4 1902   0.954   4.240   9.493  2.3816  0.3434 -0.4373
  125TMC2    C1 1903   2.116   1.367   9.428 -0.3871 -1.0293 -0.2077
  125TMC2    C2 1904   2.101   1.236   9.398 -0.0079  1.2488 -0.4876
  125TMC2    C3 1905   2.191   1.149   9.449  0.4893  0.9492 -0.1744
  125TMC2    C4 1906   2.230   1.411   9.492  1.2022  0.0519 -0.5190
  125TMC2    C5 1907   2.320   1.318   9.548 -0.3841  0.3513  0.6056
  125TMC2    C6 1908   2.302   1.184   9.525  0.5592  0.2483  0.0730
  125TMC2     C 1909   2.057   1.474   9.343  0.3674  0.1598 -0.3532
  125TMC2     O 1910   2.100   1.588   9.361 -0.1499  0.0249 -0.0935
  125TMC2     H 1911   2.011   1.198   9.350 -0.4311  2.3850 -0.6057
  125TMC2    H1 1912   2.250   1.516   9.508 -0.1868  0.0496  1.2740
  125TMC2    H2 1913   2.364   1.102   9.557  0.2629  0.6919  1.7738
  125TMC2    C7 1914   2.448   1.365   9.588  0.2430  0.6813 -0.0546
  125TMC2    C8 1915   2.184   1.010   9.423  0.2865 -0.1319 -0.1419
  125TMC2    O1 1916   2.467   1.482   9.561  0.4712 -0.3390 -0.5486
  125TMC2    O2 1917   2.252   0.932   9.492 -0.1474  0.0717 -0.4692
  125TMC2    O5 1918   2.123   0.980   9.304  0.2462  0.1421 -0.8005
  125TMC2    H5 1919   2.083   1.060   9.264 -1.1501  0.9188  2.1761
  126MPD1     C 1920   1.735   1.647   8.998  0.0742 -0.6776  0.4589
  126MPD1    C1 1921   1.726   1.510   8.995  0.2451 -0.1477  0.2543
  126MPD1    C2 1922   1.804   1.438   9.081 -0.2707  0.3783  0.1327
  126MPD1    C3 1923   1.891   1.504   9.163 -1.3529  0.9437 -0.0534
  126MPD1    C4 1924   1.900   1.641   9.163  0.1444 -0.3776 -0.5374
  126MPD1    C5 1925   1.817   1.716   9.085  0.1848  0.0900 -0.3739
  126MPD1     H 1926   1.784   1.331   9.084 -0.4641  0.3874 -0.8863
  126MPD1    H1 1927   1.959   1.707   9.226  0.9858 -0.1574 -1.5680
  126MPD1    H2 1928   1.682   1.702   8.921  2.3797 -0.2240 -0.8395
  126MPD1    H3 1929   1.815   1.824   9.083 -2.5951  0.0338 -0.3469
  126MPD1     N 1930   1.975   1.427   9.245 -0.2270  0.1580  0.5391
  126MPD1    H5 1931   1.985   1.327   9.229 -2.5144  0.2575 -1.4187
  126MPD1    N1 1932   1.658   1.444   8.896 -0.7710 -0.0951 -0.0605
  126MPD1    H6 1933   1.574   1.498   8.877 -0.7651  0.6629  2.1012
  126MPD1    H7 1934   1.633   1.346   8.909  0.2550 -0.1183  1.5994
  127MPD2     C 1935   4.388   0.328   9.443  0.4255 -0.1717  0.1964
  127MPD2    C1 1936   4.286   0.328   9.540 -0.7553 -0.2614  0.8266
  127MPD2    C2 1937   4.262   0.445   9.611 -0.1583 -0.0624 -0.0696
  127MPD2    C3 1938   4.334   0.560   9.586  0.2172 -0.2560 -0.1692
  127MPD2    C4 1939   4.425   0.560   9.475  0.0545  0.1857  0.4980
  127MPD2    C5 1940   4.449   0.443   9.411  0.1987  0.0315  0.2021
  127MPD2     H 1941   4.187   0.451   9.688  1.4765 -1.2904  1.6136
  127MPD2    H1 1942   4.477   0.650   9.443 -0.3883  0.6282  1.0192
  127MPD2    H2 1943   4.423   0.244   9.384  1.1350 -0.1029  0.5216
  127MPD2    H3 1944   4.534   0.436   9.345  0.6390  2.5027  0.5097
  127MPD2     N 1945   4.308   0.679   9.659  0.1340  0.1906  0.3970
  127MPD2    H5 1946   4.379   0.748   9.640  1.2955 -1.2208 -0.4089
  127MPD2    N1 1947   4.210   0.205   9.557 -0.4632 -0.3395 -0.0916
  127MPD2    H7 1948   4.235   0.133   9.490  1.4309  0.4850 -0.2781
  128TCq2    C1 1949   4.110   0.192   9.652 -0.2403 -0.4324  0.6082
  128TCq2    O2 1950   4.077   0.260   9.749 -0.3555  0.2057 -0.0833
  128TCq2    C2 1951   4.013   0.087   9.633 -0.0493  0.1654 -0.1346
  128TCq2    C3 1952   3.903   0.098   9.715 -0.2904  0.6234  0.2214
  128TCq2    C4 1953   3.811   0.001   9.707  0.6804 -0.0988  1.1166
  128TCq2    C5 1954   3.825   4.616   9.622  0.5245 -0.4382  1.1604
  128TCq2    C6 1955   3.942   4.611   9.542  0.1000 -0.5539 -0.1092
  128TCq2    C7 1956   4.034   4.711   9.542  0.3127  0.2805  0.1791
  128TCq2    C8 1957   3.954   4.517   9.436  0.4293  0.0801 -0.3224
  128TCq2    O4 1958   4.039   4.532   9.345 -0.0176 -0.0159 -0.1556
  128TCq2    C9 1959   3.696   0.010   9.786  0.1011  0.0426  0.1828
  128TCq2    O5 1960   3.635   4.627   9.818  0.0470 -0.1625  0.4234
  128TCq2    O6 1961   3.691   0.108   9.859  0.1270 -0.3345 -0.5189
  128TCq2    H2 1962   3.879   0.181   9.781  1.4936 -0.1213  1.8090
  128TCq2    H3 1963   3.757   4.532   9.626 -1.4712  1.1543  0.0638
  128TCq2    H4 1964   4.126   4.700   9.486  0.6648  3.3392  0.1984
  129MPD2     C 1965   4.043   1.454   0.814 -0.1412  0.3905  0.4946
  129MPD2    C1 1966   3.933   1.472   0.899  0.6718 -0.3971 -0.3721
  129MPD2    C2 1967   3.855   1.594   0.887 -0.0679  0.6720  0.1831
  129MPD2    C3 1968   3.883   1.686   0.787 -0.1883  1.0185 -0.1517
  129MPD2    C4 1969   3.987   1.662   0.700 -0.3305 -0.6904  0.3408
  129MPD2    C5 1970   4.062   1.549   0.715 -0.0972 -0.1000 -0.5462
  129MPD2     H 1971   3.769   1.614   0.950 -0.8418  0.7635 -0.9111
  129MPD2    H1 1972   4.013   1.731   0.621  1.3110 -2.1196 -0.3462
  129MPD2    H2 1973   4.113   1.372   0.822 -0.3413  0.4208  2.5829
  129MPD2    H3 1974   4.144   1.535   0.646 -0.0946 -1.9539 -0.1594
  129MPD2     N 1975   3.795   1.792   0.759  0.4149  0.0367  0.0073
  129MPD2    H5 1976   3.721   1.804   0.828  0.3134 -2.0912  0.2637
  129MPD2    N1 1977   3.891   1.381   0.995  0.1868  0.1874  0.5030
  129MPD2    H7 1978   3.806   1.404   1.046 -0.2732  0.9341 -0.5900
  130TCq2    C1 1979   3.957   1.265   1.034 -0.3001 -0.3077 -0.0721
  130TCq2    O2 1980   4.071   1.225   1.011  0.4205 -0.1246 -0.0591
  130TCq2    C2 1981   3.871   1.184   1.130 -0.2672  0.0402 -0.7044
  130TCq2    C3 1982   3.935   1.084   1.197  0.4066 -0.2050  0.2907
  130TCq2    C4 1983   3.857   1.002   1.272  0.1725 -0.4777 -0.4368
  130TCq2    C5 1984   3.720   1.011   1.277  0.2320 -0.5106 -0.5824
  130TCq2    C6 1985   3.664   1.114   1.197  0.0743  0.1528  0.2629
  130TCq2    C7 1986   3.736   1.197   1.121  0.0019  1.1302 -0.1914
  130TCq2    C8 1987   3.518   1.130   1.202 -0.3583  0.1740  0.6340
  130TCq2    O4 1988   3.467   1.055   1.282 -0.7284 -0.1822 -0.0616
  130TCq2    C9 1989   3.925   0.909   1.353 -0.2416  0.3542  0.6140
  130TCq2    O5 1990   3.853   0.827   1.422 -0.0272 -0.1115  0.1131
  130TCq2    O6 1991   4.049   0.926   1.359 -0.1568  0.9160  0.2685
  130TCq2    H2 1992   4.043   1.075   1.191  0.6266  1.9779  0.7450
  130TCq2    H3 1993   3.658   0.937   1.328  0.2018 -0.9119 -1.2013
  130TCq2    H4 1994   3.687   1.257   1.045  0.7547 -0.1608 -1.6917
  131MPD2     C 1995   0.228   0.251   9.169  0.1848 -0.1321  0.2252
  131MPD2    C1 1996   0.323   0.199   9.259  0.3252  0.1453  0.8269
  131MPD2    C2 1997   0.282   0.139   9.375  0.5028  0.6653 -0.0837
  131MPD2    C3 1998   0.151   0.116   9.398 -0.6228 -0.2243 -0.3518
  131MPD2    C4 1999   0.054   0.176   9.315  0.1276 -0.2188 -0.6693
  131MPD2    C5 2000   0.096   0.255   9.209  0.4780  0.4162  0.2337
  131MPD2     H 2001   0.356   0.103   9.446  2.4965  2.4665 -1.2325
  131MPD2    H1 2002   4.672   0.182   9.331  0.0939 -2.3383 -0.1381
  131MPD2    H2 2003   0.257   0.306   9.080  0.4338 -1.3438 -0.4430
  131MPD2    H3 2004   0.025   0.309   9.148  0.2155 -1.2744 -0.9587
  131MPD2     N 2005   0.118   0.038   9.511 -0.3530  0.5539 -0.0874
  131MPD2    H5 2006   0.190   0.010   9.576 -0.9991 -1.1282 -0.0858
  131MPD2    N1 2007   0.464   0.220   9.231  0.3897 -0.8234  0.4356
  131MPD2    H7 2008   0.491   0.282   9.155  2.8852 -0.5121  1.5852
  132TCq2    C1 2009   1.021   0.141   9.414 -0.7411 -0.7237 -1.1055
  132TCq2    O2 2010   1.008   0.043   9.486  0.1710 -0.0988 -0.2604
  132TCq2    C2 2011   0.912   0.189   9.324 -0.4367  1.1665  0.4294
  132TCq2    C3 2012   0.941   0.286   9.236 -0.1838  0.9271  0.4797
  132TCq2    C4 2013   0.847   0.333   9.149 -1.0711 -0.3916  0.4789
  132TCq2    C5 2014   0.719   0.286   9.159 -0.4810 -0.5822  0.6727
  132TCq2    C6 2015   0.690   0.202   9.260  0.5038 -0.4627 -0.1790
  132TCq2    C7 2016   0.783   0.151   9.343 -0.6933 -0.0699  0.3570
  132TCq2    C8 2017   0.561   0.156   9.301 -0.3797  0.3272  0.2736
  132TCq2    O4 2018   0.563   0.063   9.378  0.0753  0.0242 -0.2831
  132TCq2    C9 2019   0.878   0.431   9.052  0.1384  0.4245  0.8321
  132TCq2    O5 2020   0.785   0.469   8.972  0.9287  0.5133 -0.2666
  132TCq2    O6 2021   0.994   0.468   9.047 -0.3243  0.1669 -0.5752
  132TCq2    H2 2022   1.043   0.323   9.227  0.1536  0.3154  1.7652
  132TCq2    H3 2023   0.641   0.334   9.100 -0.0484 -0.1681  0.4422
  132TCq2    H4 2024   0.769   0.090   9.432  0.5338  0.7306  1.1042
  133MPD2     C 2025   0.889   0.878   8.551  0.0279 -0.5260  0.4277
  133MPD2    C1 2026   0.918   0.963   8.654 -0.0122 -0.0427  0.1333
  133MPD2    C2 2027   0.902   0.921   8.787  0.2066 -0.3316  0.0843
  133MPD2    C3 2028   0.852   0.795   8.820 -0.2685 -0.8328 -0.1363
  133MPD2    C4 2029   0.823   0.711   8.718 -0.4223  0.7769 -0.4635
  133MPD2    C5 2030   0.847   0.753   8.586 -0.3977  0.5433 -0.7176
  133MPD2     H 2031   0.927   0.995   8.862 -1.2755 -0.7485  0.9894
  133MPD2    H1 2032   0.794   0.608   8.733 -1.1528  1.5447  3.2304
  133MPD2    H2 2033   0.908   0.896   8.446  1.2440 -3.8697  0.0805
  133MPD2    H3 2034   0.839   0.687   8.501  2.9421 -1.3901  0.5086
  133MPD2     N 2035   0.809   0.749   8.948  0.5047 -0.1712  0.1048
  133MPD2    H5 2036   0.772   0.655   8.957 -1.6099  0.7686  1.1549
  133MPD2    N1 2037   0.964   1.091   8.610  0.0525  0.0615 -0.1573
  133MPD2    H7 2038   0.961   1.115   8.511 -0.3941 -0.8431 -0.3611
  134TCq2    C1 2039   1.008   1.192   8.687  0.2375 -0.0296  0.0336
  134TCq2    O2 2040   0.992   1.211   8.804 -0.4685  0.1236  0.4483
  134TCq2    C2 2041   1.067   1.298   8.603  0.3086  0.7247 -0.1053
  134TCq2    C3 2042   1.093   1.279   8.473 -0.3697 -0.3384  0.7388
  134TCq2    C4 2043   1.133   1.381   8.397  0.2391 -0.2844 -1.0370
  134TCq2    C5 2044   1.152   1.506   8.444  0.6110  0.4359 -0.3560
  134TCq2    C6 2045   1.121   1.529   8.578  0.4138  0.4959  0.4853
  134TCq2    C7 2046   1.075   1.429   8.660 -0.2522  0.3113 -0.2057
  134TCq2    C8 2047   1.150   1.655   8.651 -0.0436  0.1316 -0.4052
  134TCq2    O4 2048   1.107   1.674   8.764  0.5146  0.0930 -0.0040
  134TCq2    C9 2049   1.142   1.353   8.253 -0.6942 -0.0701 -0.3419
  134TCq2    O5 2050   1.101   1.242   8.214  0.2562 -0.4077  1.1167
  134TCq2    O6 2051   1.158   1.456   8.180  0.4325 -0.3254 -0.7090
  134TCq2    H2 2052   1.090   1.181   8.427 -3.5273  0.2111 -0.2441
  134TCq2    H3 2053   1.200   1.576   8.376 -0.2977 -0.0661 -1.5221
  134TCq2    H4 2054   1.072   1.436   8.768  0.1942  1.8160 -0.2938
  135MPD2     C 2055   3.038   1.962   9.728  0.5178 -0.1931 -0.5028
  135MPD2    C1 2056   2.938   1.972   9.641  0.1329  0.7502 -0.3614
  135MPD2    C2 2057   2.898   1.860   9.572  0.0488 -0.0888 -0.7124
  135MPD2    C3 2058   2.964   1.736   9.594  0.1456 -0.0982 -0.0641
  135MPD2    C4 2059   3.074   1.730   9.679  0.0555  0.1815  0.0567
  135MPD2    C5 2060   3.104   1.843   9.754  0.4261  0.1106 -0.7823
  135MPD2     H 2061   2.809   1.880   9.513 -0.7517 -0.2651  0.4209
  135MPD2    H1 2062   3.134   1.642   9.700 -1.1431 -0.2936  1.4448
  135MPD2    H2 2063   3.079   2.053   9.771 -0.9987 -0.4899  1.5461
  135MPD2    H3 2064   3.197   1.842   9.810 -0.6789 -2.0499  1.0161
  135MPD2     N 2065   2.930   1.618   9.524  0.2922  0.0280 -0.1729
  135MPD2    H5 2066   2.993   1.539   9.534  0.6203  0.1333 -1.4582
  135MPD2    N1 2067   2.882   2.093   9.592  0.2152  0.2295 -0.1249
  135MPD2    H7 2068   2.811   2.090   9.520 -0.4535  1.3403  0.4853
  136TCq2    C1 2069   2.892   2.217   9.652 -0.4508  0.0680  0.0093
  136TCq2    O2 2070   2.973   2.254   9.739  0.0927 -0.2409  0.5687
  136TCq2    C2 2071   2.814   2.322   9.585 -0.6434 -0.3603  0.4767
  136TCq2    C3 2072   2.854   2.452   9.613 -0.7028  0.1507  0.3283
  136TCq2    C4 2073   2.775   2.541   9.549 -0.1729 -0.7882 -0.0665
  136TCq2    C5 2074   2.673   2.518   9.457  0.1768  0.0043  0.3247
  136TCq2    C6 2075   2.636   2.388   9.446  0.5160 -0.2271 -0.0066
  136TCq2    C7 2076   2.707   2.289   9.506 -0.4353 -0.3106 -0.3301
  136TCq2    C8 2077   2.546   2.353   9.330  0.1846  0.1094 -0.9668
  136TCq2    O4 2078   2.517   2.443   9.256 -0.3362 -0.3853 -0.3895
  136TCq2    C9 2079   2.789   2.676   9.573 -0.1870  0.4296  0.0043
  136TCq2    O5 2080   2.683   2.745   9.589 -0.0603 -0.3128  0.0555
  136TCq2    O6 2081   2.902   2.709   9.605  0.4223  0.7749  0.5540
  136TCq2    H2 2082   2.935   2.481   9.678 -0.9192 -0.3240  0.8063
  136TCq2    H3 2083   2.619   2.596   9.404  0.8695  0.7925  0.7882
  136TCq2    H4 2084   2.692   2.188   9.471  0.6312 -0.2654 -0.9036
  137MPD2     C 2085   2.861   0.541  10.295 -0.5332  0.0667 -0.2924
  137MPD2    C1 2086   2.832   0.561  10.167  0.0350  0.4614 -0.0995
  137MPD2    C2 2087   2.829   0.693  10.122 -0.3866  0.4401  0.0185
  137MPD2    C3 2088   2.852   0.801  10.212  0.0498  0.3395 -0.3643
  137MPD2    C4 2089   2.889   0.764  10.335  0.5577  0.5590 -0.0294
  137MPD2    C5 2090   2.884   0.639  10.384  0.2404 -0.3277 -0.2228
  137MPD2     H 2091   2.782   0.717  10.028  1.9675 -0.8014 -1.4591
  137MPD2    H1 2092   2.907   0.842  10.407  0.0359  0.0492  0.6568
  137MPD2    H2 2093   2.868   0.442  10.337 -1.8195 -0.3531 -1.0454
  137MPD2    H3 2094   2.895   0.620  10.490 -0.8493  2.6421  0.4394
  137MPD2     N 2095   2.817   0.932  10.163 -0.1914  0.3327  0.5337
  137MPD2    H5 2096   2.767   0.946  10.076  0.1817  0.9038  0.4115
  137MPD2    N1 2097   2.797   0.442  10.088 -0.2982  0.6631 -0.2828
  137MPD2    H7 2098   2.795   0.351  10.132 -0.9707 -0.3389 -2.4284
  138TCq2    C1 2099   2.790   0.446   9.955 -0.2334  0.1689  0.1689
  138TCq2    O2 2100   2.812   0.534   9.871  0.4626 -0.7992 -0.3423
  138TCq2    C2 2101   2.733   0.328   9.891  1.0147  0.1989 -0.4036
  138TCq2    C3 2102   2.646   0.252   9.966 -0.2120 -0.2519  0.8500
  138TCq2    C4 2103   2.548   0.183   9.894 -0.2072  0.1666 -0.1175
  138TCq2    C5 2104   2.533   0.201   9.759  0.7478 -0.3910 -0.5374
  138TCq2    C6 2105   2.628   0.271   9.691  0.1300  0.3868 -0.9394
  138TCq2    C7 2106   2.733   0.329   9.754  0.4164  0.0255 -0.3290
  138TCq2    C8 2107   2.585   0.334   9.571 -0.3209 -0.2067 -0.0314
  138TCq2    O4 2108   2.675   0.376   9.500  0.4935  0.0693 -0.5277
  138TCq2    C9 2109   2.458   0.087   9.958 -0.3044 -0.1002  0.3705
  138TCq2    O5 2110   2.362   0.031   9.896 -0.0118 -0.2331 -0.3459
  138TCq2    O6 2111   2.504   0.032  10.059 -0.0240 -0.1981  0.0605
  138TCq2    H2 2112   2.643   0.246  10.075  1.2527 -2.6916  0.7641
  138TCq2    H3 2113   2.442   0.160   9.717  2.1782 -0.2389 -3.7876
  138TCq2    H4 2114   2.806   0.383   9.695  2.4970  0.1547  2.4132
  139TMC2    C1 2115   3.517   4.561  13.104  0.4110 -0.3352 -0.1702
  139TMC2    C2 2116   3.421   4.539  13.004 -0.7704 -0.6112 -0.3861
  139TMC2    C3 2117   3.331   4.633  12.980  0.3188 -0.4036  0.8257
  139TMC2    C4 2118   3.501   4.672  13.189 -0.1651 -0.3944 -0.6778
  139TMC2    C5 2119   3.393   0.027  13.179  0.7172  0.6178 -0.3562
  139TMC2    C6 2120   3.301   0.009  13.075  0.2565 -0.0001  0.6784
  139TMC2     C 2121   3.624   4.461  13.114 -0.1600 -0.4876  0.1401
  139TMC2     O 2122   3.661   4.400  13.015 -0.3913  0.1420  0.0161
  139TMC2     H 2123   3.442   4.458  12.936 -1.7669 -0.9737 -0.2574
  139TMC2    H1 2124   3.591   4.694  13.246 -0.2388 -0.6835 -0.4478
  139TMC2    H2 2125   3.215   0.071  13.054  2.0060  2.1785 -0.0505
  139TMC2    C7 2126   3.379   0.145  13.262 -0.0354  0.0263  0.4609
  139TMC2    C8 2127   3.218   4.587  12.904  0.4140  0.1001 -0.4640
  139TMC2    O1 2128   3.285   0.217  13.228 -0.6530  0.7407 -0.3578
  139TMC2    O2 2129   3.099   4.614  12.921 -0.1231 -0.5970 -0.0585
  139TMC2    O5 2130   3.267   4.518  12.796  0.3173  0.0410 -0.1416
  139TMC2    H5 2131   3.364   4.516  12.784  0.2823 -0.6125 -0.3123
  140MPD2     C 2132   3.812   4.344  13.410  0.5966 -0.8340 -0.2438
  140MPD2    C1 2133   3.754   4.339  13.285  0.0327 -0.4349 -0.1797
  140MPD2    C2 2134   3.779   4.225  13.205 -1.0723 -0.4791  0.1497
  140MPD2    C3 2135   3.869   4.133  13.240 -0.3418 -0.1096 -0.2689
  140MPD2    C4 2136   3.928   4.141  13.369 -0.4948  0.0565  0.0734
  140MPD2    C5 2137   3.895   4.244  13.454  0.4970 -0.1678  0.6106
  140MPD2     H 2138   3.724   4.208  13.113 -0.2526  2.0472 -0.8301
  140MPD2    H1 2139   3.998   4.066  13.402  0.2247  1.9002  2.7815
  140MPD2    H2 2140   3.780   4.419  13.482 -0.7171 -1.0929 -0.5718
  140MPD2    H3 2141   3.936   4.247  13.554 -1.6832  2.1165  1.4630
  140MPD2     N 2142   3.881   4.027  13.150 -0.0216 -0.1251 -0.1636
  140MPD2    H5 2143   3.815   4.039  13.074 -2.0965 -0.9325  1.4966
  140MPD2    N1 2144   3.674   4.446  13.241  0.2156  0.4857 -0.6286
  140MPD2    H7 2145   3.652   4.513  13.314  0.4315 -2.3088  2.0167
  141TCq2    C1 2146   4.469   1.059  14.181  0.8401 -0.1229  0.1478
  141TCq2    O2 2147   4.471   1.135  14.089 -0.4601 -0.4199 -0.3242
  141TCq2    C2 2148   4.385   1.091  14.299 -0.3813  0.4739  0.1390
  141TCq2    C3 2149   4.379   1.016  14.415  0.1034  0.2633  0.1637
  141TCq2    C4 2150   4.289   1.062  14.509  0.4138 -0.7830  0.4386
  141TCq2    C5 2151   4.237   1.186  14.509  0.2500 -0.1528  0.7180
  141TCq2    C6 2152   4.248   1.260  14.396 -0.9395  0.0014  0.3675
  141TCq2    C7 2153   4.323   1.214  14.288 -0.1542 -0.3334  0.3483
  141TCq2    C8 2154   4.221   1.401  14.419 -0.1084  0.0498 -0.2643
  141TCq2    O4 2155   4.154   1.426  14.518 -0.1035 -0.3733 -0.4334
  141TCq2    C9 2156   4.272   0.982  14.627  0.1194 -0.3410 -0.2495
  141TCq2    O5 2157   4.201   1.029  14.726  0.4651  0.3786  0.2004
  141TCq2    O6 2158   4.356   0.887  14.640  0.3349 -0.2970 -0.7674
  141TCq2    H2 2159   4.423   0.917  14.423 -0.3131  0.0591 -0.0254
  141TCq2    H3 2160   4.179   1.227  14.591 -1.7161 -0.8537 -0.3203
  141TCq2    H4 2161   4.336   1.283  14.205  2.0134  1.0112  1.8120
  142MPD2     C 2162   1.716   3.479  10.191  0.6108  0.3502  0.2323
  142MPD2    C1 2163   1.621   3.547  10.118 -0.2437 -0.1721 -0.4213
  142MPD2    C2 2164   1.655   3.666  10.059  0.5035 -0.2769 -0.1069
  142MPD2    C3 2165   1.778   3.726  10.072 -0.0262 -0.2714  0.4549
  142MPD2    C4 2166   1.876   3.656  10.135 -0.0471  0.1206  0.5365
  142MPD2    C5 2167   1.844   3.535  10.192 -0.6904  0.5245 -0.7351
  142MPD2     H 2168   1.579   3.717  10.000 -0.5606 -2.2071 -0.3838
  142MPD2    H1 2169   1.979   3.688  10.147 -0.1314  0.6423 -0.1591
  142MPD2    H2 2170   1.699   3.376  10.223  1.5562  0.8093  2.1866
  142MPD2    H3 2171   1.925   3.482  10.241 -0.8286  0.3727 -0.6709
  142MPD2     N 2172   1.817   3.850  10.017  0.2281  0.0687 -0.1995
  142MPD2    H5 2173   1.917   3.870  10.020  0.3601 -0.9214  1.8301
  142MPD2    N1 2174   1.494   3.488  10.112 -0.6245  0.4645 -0.3661
  142MPD2    H7 2175   1.492   3.397  10.156 -1.7712 -0.6039 -2.5903
  143TCq2    C1 2176   1.731   3.944   9.971 -1.0067 -0.5737 -0.2715
  143TCq2    O2 2177   1.610   3.936   9.967  0.3916 -0.3822  0.6665
  143TCq2    C2 2178   1.785   4.066   9.908 -0.5301  0.3440  0.2685
  143TCq2    C3 2179   1.919   4.069   9.872 -0.0396 -0.3995 -0.1049
  143TCq2    C4 2180   1.952   4.163   9.777  0.6855  0.1730 -0.0194
  143TCq2    C5 2181   1.857   4.251   9.722 -0.8824  0.3438  0.3832
  143TCq2    C6 2182   1.731   4.242   9.762 -0.0777  0.4526 -0.3353
  143TCq2    C7 2183   1.691   4.157   9.865  0.5205  0.5998 -0.2623
  143TCq2    C8 2184   1.613   4.315   9.704  0.3844 -0.5086 -0.3856
  143TCq2    O4 2185   1.500   4.287   9.749 -0.1765 -0.0790 -0.0728
  143TCq2    C9 2186   2.089   4.161   9.724  0.0285  0.1629 -0.4815
  143TCq2    O5 2187   2.110   4.236   9.628  0.0875  0.2112  0.3709
  143TCq2    O6 2188   2.158   4.066   9.769  0.2471 -0.5079 -0.3988
  143TCq2    H2 2189   1.985   3.996   9.918 -0.9421 -1.1628 -0.0139
  143TCq2    H3 2190   1.879   4.325   9.646 -0.5612 -0.3831 -0.2318
  143TCq2    H4 2191   1.586   4.139   9.885  1.0642 -2.6187 -0.2587
  144MPD2     C 2192   4.665   3.468   0.910  0.4349  0.2772 -0.1709
  144MPD2    C1 2193   4.711   3.342   0.870  0.3961  0.4656 -0.0166
  144MPD2    C2 2194   0.123   3.311   0.884 -0.1414 -1.0548  0.4311
  144MPD2    C3 2195   0.210   3.412   0.931 -0.1591 -0.2106  0.0349
  144MPD2    C4 2196   0.162   3.535   0.966  0.1879 -0.1149  0.7323
  144MPD2    C5 2197   0.031   3.559   0.960 -0.0521  0.6230  0.1155
  144MPD2     H 2198   0.159   3.219   0.839  0.5503 -0.7389  0.3374
  144MPD2    H1 2199   0.222   3.618   1.002 -1.9287  0.8379  2.0570
  144MPD2    H2 2200   4.565   3.507   0.896 -0.3080 -1.7819 -0.5439
  144MPD2    H3 2201   4.722   3.655   0.997 -1.0135 -0.4139  1.9141
  144MPD2     N 2202   0.349   3.400   0.949 -0.4024  0.1268 -0.2603
  144MPD2    H5 2203   0.395   3.469   1.006 -0.3789  0.8310 -1.1311
  144MPD2    N1 2204   4.628   3.240   0.813  0.0549  1.1265  0.2553
  144MPD2    H7 2205   4.670   3.157   0.773 -1.2974  1.1492 -1.2163
  145TCq2    C1 2206   0.420   3.314   0.871  0.9496  0.4104 -0.1978
  145TCq2    O2 2207   0.390   3.255   0.769 -0.3451  0.4420  0.0394
  145TCq2    C2 2208   0.556   3.286   0.918  0.0707  0.4365 -0.0282
  145TCq2    C3 2209   0.644   3.245   0.820  0.2991 -0.3593 -0.2507
  145TCq2    C4 2210   0.771   3.223   0.866  0.3160 -0.6500 -0.0012
  145TCq2    C5 2211   0.815   3.273   0.987  0.4646 -0.3169  0.0429
  145TCq2    C6 2212   0.723   3.309   1.076  0.5472 -0.0176 -0.1987
  145TCq2    C7 2213   0.589   3.303   1.048 -0.6149  0.0725  0.2988
  145TCq2    C8 2214   0.756   3.284   1.219 -0.4307  0.0115 -0.1615
  145TCq2    O4 2215   0.868   3.231   1.232  0.2222  0.2210 -0.6693
  145TCq2    C9 2216   0.868   3.161   0.777 -0.4301 -0.6873 -0.0693
  145TCq2    O5 2217   0.991   3.146   0.812 -0.4221 -0.0058  0.0446
  145TCq2    O6 2218   0.816   3.102   0.681  0.5471  0.3133 -0.5044
  145TCq2    H2 2219   0.617   3.242   0.716  2.3184  2.5500 -0.8579
  145TCq2    H3 2220   0.920   3.273   1.011  0.6492 -1.2787 -0.7116
  145TCq2    H4 2221   0.513   3.323   1.122 -2.1447  0.6732 -1.4505
  146TMC2    C1 2222   1.227   1.977  12.026  0.0545  0.4345  0.4048
  146TMC2    C2 2223   1.145   1.965  11.916  0.2245  0.3114  0.0118
  146TMC2    C3 2224   1.198   1.905  11.797 -0.3485  0.4637 -0.1743
  146TMC2    C4 2225   1.353   1.915  12.029 -0.9847  0.1277  1.2003
  146TMC2    C5 2226   1.393   1.858  11.907  0.7160  0.9600  0.3835
  146TMC2    C6 2227   1.323   1.856  11.791 -0.1456  0.0669 -0.2189
  146TMC2     C 2228   1.165   2.033  12.147  0.0533  0.4973  0.4514
  146TMC2     O 2229   1.060   2.099  12.143  0.1911  0.3143 -0.0168
  146TMC2     H 2230   1.048   2.014  11.909 -0.9567 -2.3930 -2.6161
  146TMC2    H1 2231   1.433   1.926  12.101  0.6148 -0.0292 -0.5532
  146TMC2    H2 2232   1.373   1.838  11.697  2.8735  0.7678  1.2739
  146TMC2    C7 2233   1.529   1.817  11.895  0.0760  0.5439 -0.2125
  146TMC2    C8 2234   1.101   1.892  11.686  0.3929  0.3333 -0.0828
  146TMC2    O1 2235   1.575   1.836  11.784  0.2649  0.1516 -0.0569
  146TMC2    O2 2236   1.125   1.900  11.567 -0.5971 -0.4085  0.2989
  146TMC2    O5 2237   0.983   1.866  11.743 -0.0061  1.1015 -0.4597
  146TMC2    H5 2238   0.998   1.836  11.836 -2.0674 -2.6224 -1.3078
  147MPD2     C 2239   1.997   1.749  12.078 -0.7675 -0.2989 -0.3035
  147MPD2    C1 2240   1.909   1.734  12.186  0.3488 -0.1234 -0.2714
  147MPD2    C2 2241   1.775   1.722  12.156  0.5913  0.6879 -0.1754
  147MPD2    C3 2242   1.722   1.748  12.026 -0.4547 -0.0013  0.2972
  147MPD2    C4 2243   1.819   1.763  11.926 -0.5610 -0.2842 -0.0331
  147MPD2    C5 2244   1.954   1.749  11.945 -0.2671 -0.1049  0.5416
  147MPD2     H 2245   1.697   1.703  12.229 -0.2348  1.4666 -0.8499
  147MPD2    H1 2246   1.789   1.779  11.823 -2.5587  0.2957  0.6311
  147MPD2    H2 2247   2.104   1.748  12.097 -0.3651 -3.3989 -2.7092
  147MPD2    H3 2248   2.015   1.756  11.856 -1.8833  1.3178 -0.4538
  147MPD2     N 2249   1.584   1.764  12.011 -0.3817 -0.3023  0.0656
  147MPD2    H5 2250   1.525   1.751  12.092  0.7800 -0.5932  0.8631
  147MPD2    N1 2251   1.974   1.712  12.311 -0.2839  1.0798  0.1962
  147MPD2    H7 2252   2.076   1.712  12.303 -0.2933 -1.9698 -0.0002
  148MPD2     C 2253   0.811   1.002  10.225  0.4999  0.4870  0.1050
  148MPD2    C1 2254   0.896   0.897  10.247 -0.1684 -0.2713 -0.5054
  148MPD2    C2 2255   0.862   0.767  10.227 -0.3987 -0.3118 -0.8205
  148MPD2    C3 2256   0.737   0.745  10.161  0.5059 -0.8188  0.3697
  148MPD2    C4 2257   0.653   0.849  10.142 -0.3184  0.4553  0.3408
  148MPD2    C5 2258   0.686   0.975  10.180 -0.3925  0.8345  0.1010
  148MPD2     H 2259   0.924   0.687  10.267 -0.9671  0.4222  1.5510
  148MPD2    H1 2260   0.564   0.843  10.081 -0.2976  2.1568  0.1130
  148MPD2    H2 2261   0.826   1.108  10.238  3.7947  0.2734 -1.8915
  148MPD2    H3 2262   0.623   1.059  10.155  0.0700  1.1259 -0.0924
  148MPD2     N 2263   0.697   0.610  10.139  0.2042  0.0874  0.6717
  148MPD2    H5 2264   0.601   0.587  10.116  1.1404 -3.0873 -0.0011
  148MPD2    N1 2265   1.026   0.915  10.306  0.1948 -0.2788  0.0912
  148MPD2    H7 2266   1.081   0.834  10.331 -2.5073 -2.1026  0.1535
  149TCq2    C1 2267   1.097   1.034  10.319 -0.0141 -0.7808  0.1065
  149TCq2    O2 2268   1.059   1.150  10.313  0.4134 -0.2336  0.6634
  149TCq2    C2 2269   1.240   1.014  10.318 -0.1907  0.3534 -0.1079
  149TCq2    C3 2270   1.321   1.074  10.412 -0.0403 -0.8340 -0.2599
  149TCq2    C4 2271   1.454   1.033  10.433 -0.0982 -0.0093  0.0209
  149TCq2    C5 2272   1.481   0.907  10.385 -0.0178  0.1573  0.5773
  149TCq2    C6 2273   1.397   0.846  10.300 -0.3033  0.0267  1.1478
  149TCq2    C7 2274   1.275   0.894  10.262  0.2090 -0.1546 -0.2848
  149TCq2    C8 2275   1.418   0.701  10.281  0.0798  0.1115  0.0054
  149TCq2    O4 2276   1.313   0.646  10.243 -0.6883 -0.2795  0.1665
  149TCq2    C9 2277   1.534   1.091  10.535  0.2013 -0.9762  0.6861
  149TCq2    O5 2278   1.646   1.039  10.556 -0.1699 -0.3686 -0.1884
  149TCq2    O6 2279   1.481   1.171  10.611  0.3536  0.2588 -0.0048
  149TCq2    H2 2280   1.289   1.167  10.458 -1.0486 -1.1575 -0.3029
  149TCq2    H3 2281   1.572   0.857  10.414 -0.5111 -1.3643 -0.4638
  149TCq2    H4 2282   1.220   0.848  10.181 -0.2112 -0.8192  0.3844
  150MPD2     C 2283   2.625   0.315  12.018 -0.3242  0.7076 -0.1767
  150MPD2    C1 2284   2.594   0.405  11.924  0.0738  0.1475 -1.1903
  150MPD2    C2 2285   2.687   0.506  11.901  0.3032  0.3701  0.0140
  150MPD2    C3 2286   2.808   0.516  11.955  0.2322  0.0505  0.5671
  150MPD2    C4 2287   2.837   0.419  12.050  0.2507 -0.2466  0.2395
  150MPD2    C5 2288   2.750   0.324  12.076 -0.3382  0.3534  0.1034
  150MPD2     H 2289   2.661   0.582  11.829  1.8542  1.6068  0.7575
  150MPD2    H1 2290   2.929   0.417  12.108  0.3415 -0.6642  0.0781
  150MPD2    H2 2291   2.562   0.230  12.044  0.7304 -0.3059 -0.9492
  150MPD2    H3 2292   2.780   0.239  12.136 -2.3536 -0.4850 -0.0936
  150MPD2     N 2293   2.891   0.618  11.910  0.1171  0.1618 -0.0961
  150MPD2    H5 2294   2.851   0.691  11.852 -2.5133 -0.9425  0.3129
  150MPD2    N1 2295   2.476   0.394  11.843 -0.0160  0.1331  0.1926
  150MPD2    H7 2296   2.409   0.321  11.866 -0.1510  0.3621  0.5129
  151TCq2    C1 2297   3.022   0.638  11.941  0.1023 -0.3733 -0.1526
  151TCq2    O2 2298   3.111   0.577  12.002 -0.4309 -0.1454  0.3808
  151TCq2    C2 2299   3.081   0.737  11.853 -0.2727 -0.1511 -0.1894
  151TCq2    C3 2300   3.046   0.741  11.723  0.4431  0.5803  0.3987
  151TCq2    C4 2301   3.130   0.795  11.631 -0.0126  0.6388  0.3394
  151TCq2    C5 2302   3.253   0.852  11.673 -0.2874  0.6295  0.2078
  151TCq2    C6 2303   3.291   0.832  11.806  0.1035  0.5532 -0.3735
  151TCq2    C7 2304   3.199   0.783  11.896 -0.2658 -0.6593  0.3945
  151TCq2    C8 2305   3.428   0.822  11.850  0.2181 -0.1946 -0.3206
  151TCq2    O4 2306   3.520   0.894  11.807 -0.2157 -0.2595 -0.2744
  151TCq2    C9 2307   3.100   0.774  11.490 -0.4328 -0.0562 -0.3915
  151TCq2    O5 2308   3.012   0.680  11.467  0.5310 -0.2836  0.4145
  151TCq2    O6 2309   3.188   0.814  11.407  0.5046 -0.1126 -0.2932
  151TCq2    H2 2310   2.954   0.694  11.690  0.4226 -0.0138  1.2906
  151TCq2    H3 2311   3.322   0.854  11.589 -1.6328  3.2207 -0.8555
  151TCq2    H4 2312   3.223   0.774  12.002 -0.4941  0.8550  0.5761
  152MPD2     C 2313   2.997   0.116  12.585 -0.3787  0.5624  0.7196
  152MPD2    C1 2314   3.082   0.218  12.550  1.1206  0.6105 -0.1160
  152MPD2    C2 2315   3.032   0.333  12.500  0.0462 -0.6766  0.0045
  152MPD2    C3 2316   2.889   0.342  12.483 -0.1881  0.6298  0.0214
  152MPD2    C4 2317   2.811   0.239  12.515 -0.4509  0.2467  0.1590
  152MPD2    C5 2318   2.867   0.124  12.552 -0.8959  0.5433 -0.1878
  152MPD2     H 2319   3.090   0.425  12.491  1.7427 -1.4212  3.2692
  152MPD2    H1 2320   2.705   0.237  12.492 -0.5770  0.9485  0.6503
  152MPD2    H2 2321   3.032   0.019  12.615 -0.5396 -0.0797 -1.1526
  152MPD2    H3 2322   2.806   0.039  12.582  2.1456 -1.9996 -1.2228
  152MPD2     N 2323   2.841   0.455  12.420  0.7044 -0.5264 -0.0386
  152MPD2    H5 2324   2.906   0.531  12.405 -1.0079  0.9799  0.1221
  152MPD2    N1 2325   3.220   0.190  12.575  0.0717  0.1739 -0.3262
  152MPD2    H7 2326   3.242   0.109  12.632 -0.7353  1.3921  1.6999
  153TCq2    C1 2327   3.330   0.272  12.553 -0.6100  0.7148 -0.4654
  153TCq2    O2 2328   3.330   0.376  12.487 -0.0377 -0.6011 -0.2237
  153TCq2    C2 2329   3.461   0.220  12.597  0.4230  0.0212  0.5870
  153TCq2    C3 2330   3.474   0.096  12.646  0.4746  0.9754  0.1179
  153TCq2    C4 2331   3.597   0.035  12.664 -0.2390 -0.2283  0.2430
  153TCq2    C5 2332   3.709   0.099  12.629 -0.3474  0.5401 -0.3269
  153TCq2    C6 2333   3.697   0.230  12.586 -0.7272  0.0555 -0.0255
  153TCq2    C7 2334   3.578   0.286  12.562 -0.1730  0.2447  0.2703
  153TCq2    C8 2335   3.818   0.304  12.549 -0.0770  0.1262  0.1172
  153TCq2    O4 2336   3.822   0.371  12.445  0.5232 -0.1379 -0.0808
  153TCq2    C9 2337   3.613   4.628  12.704  0.4589 -0.2703 -0.4899
  153TCq2    O5 2338   3.511   4.559  12.721  0.1869 -0.3002 -0.1921
  153TCq2    O6 2339   3.732   4.582  12.709  0.1945  0.4702  0.4334
  153TCq2    H2 2340   3.391   0.041  12.689  1.0697 -0.6884 -0.8588
  153TCq2    H3 2341   3.806   0.050  12.631 -0.1843  0.8358 -1.0659
  153TCq2    H4 2342   3.573   0.390  12.530  0.7473  0.0872 -0.3738
  154MPD2     C 2343   0.557   4.612   0.321  0.0180  0.2142 -0.4109
  154MPD2    C1 2344   0.593   0.014   0.360 -0.3036  0.2897 -0.3678
  154MPD2    C2 2345   0.563   0.058   0.492  0.2646  0.8999  0.2291
  154MPD2    C3 2346   0.503   4.698   0.577 -0.2945 -0.6066 -0.1272
  154MPD2    C4 2347   0.479   4.568   0.540  0.2514 -0.4811  0.0419
  154MPD2    C5 2348   0.506   4.526   0.413 -0.0172 -0.8100  0.1350
  154MPD2     H 2349   0.578   0.162   0.518 -2.3963  1.2334  0.3703
  154MPD2    H1 2350   0.438   4.490   0.603 -1.2832  1.3648  1.3085
  154MPD2    H2 2351   0.580   4.579   0.220  0.6034 -0.2893 -0.1137
  154MPD2    H3 2352   0.478   4.425   0.383  2.2562 -0.9488 -1.5422
  154MPD2     N 2353   0.458   0.010   0.711  0.2920  0.2581 -0.1110
  154MPD2    H5 2354   0.491   0.103   0.731 -2.8615  1.2348  0.6508
  154MPD2    N1 2355   0.653   0.099   0.264 -0.5511 -0.1328 -0.1254
  154MPD2    H7 2356   0.667   0.058   0.172  0.6559 -0.6339  0.2843
  155TCq2    C1 2357   0.694   0.228   0.278  0.3686  0.3025 -0.3094
  155TCq2    O2 2358   0.668   0.302   0.370 -1.0769 -0.2446  0.6937
  155TCq2    C2 2359   0.778   0.277   0.168 -0.1447  0.0673 -0.0424
  155TCq2    C3 2360   0.798   0.410   0.160  0.1192 -0.2490 -0.1632
  155TCq2    C4 2361   0.888   0.458   0.081  0.1820  0.1962 -0.5918
  155TCq2    C5 2362   0.946   0.374  17.695  1.2094 -0.1703 -0.0507
  155TCq2    C6 2363   0.922   0.236  17.698 -0.1783  0.0633 -0.1348
  155TCq2    C7 2364   0.831   0.188   0.088  0.0321  0.1555 -0.4040
  155TCq2    C8 2365   0.919   0.156  17.575 -0.0767 -0.0526 -0.2974
  155TCq2    O4 2366   0.861   0.050  17.568 -0.4217 -0.0718 -0.1511
  155TCq2    C9 2367   0.926   0.595   0.083  0.8712 -0.5067 -0.4250
  155TCq2    O5 2368   0.871   0.661   0.178  0.4615  0.0964 -0.0440
  155TCq2    O6 2369   0.995   0.641  17.688  0.4742  0.4591 -0.2431
  155TCq2    H2 2370   0.750   0.479   0.228  1.5344  0.6362 -0.0699
  155TCq2    H3 2371   1.015   0.425  17.628  0.2639 -0.4930 -1.2716
  155TCq2    H4 2372   0.827   0.081   0.102  0.9919  0.3183  1.1304
  156MPD2     C 2373   2.770   2.255  12.550  0.2111  0.6679 -0.2454
  156MPD2    C1 2374   2.754   2.363  12.474 -0.4929 -0.6748 -0.1475
  156MPD2    C2 2375   2.863   2.446  12.456 -0.4636 -0.6177  0.4013
  156MPD2    C3 2376   2.975   2.422  12.536 -0.3014 -0.2997 -0.1008
  156MPD2    C4 2377   2.989   2.309  12.607  0.1446  0.3079 -0.1808
  156MPD2    C5 2378   2.880   2.228  12.616  0.1625  0.1516  0.0460
  156MPD2     H 2379   2.859   2.540  12.402 -1.9985 -0.6127  0.5169
  156MPD2    H1 2380   3.080   2.277  12.656  0.8122  1.4028 -0.6873
  156MPD2    H2 2381   2.692   2.180  12.560  2.6015 -1.9043 -0.6156
  156MPD2    H3 2382   2.888   2.136  12.672  1.5666 -0.4732 -1.1864
  156MPD2     N 2383   3.082   2.510  12.517 -0.4485  0.4222  0.6093
  156MPD2    H5 2384   3.070   2.595  12.463 -0.1105 -0.7409 -1.3131
  156MPD2    N1 2385   2.632   2.380  12.395  0.2064 -0.4945 -0.0681
  156MPD2    H7 2386   2.570   2.299  12.393  1.2755 -1.2757 -2.0019
  157TCq2    C1 2387   2.609   2.492  12.314  0.4348  0.5412  1.0877
  157TCq2    O2 2388   2.675   2.593  12.297 -0.0070  0.2645 -0.1666
  157TCq2    C2 2389   2.530   2.460  12.191  0.7145  0.2285  0.4882
  157TCq2    C3 2390   2.485   2.333  12.165  0.4695  0.8411 -0.1058
  157TCq2    C4 2391   2.473   2.294  12.032  0.1041  0.1474 -0.2190
  157TCq2    C5 2392   2.493   2.380  11.930 -0.5342 -0.2137  0.4718
  157TCq2    C6 2393   2.544   2.507  11.968 -0.3862  0.2788 -0.1135
  157TCq2    C7 2394   2.559   2.547  12.094 -0.1517  0.2577  0.4842
  157TCq2    C8 2395   2.557   2.607  11.860 -0.5314 -0.4528 -0.0982
  157TCq2    O4 2396   2.637   2.700  11.872 -0.8339 -0.0469 -0.1778
  157TCq2    C9 2397   2.437   2.157  12.005 -0.3594 -0.3806 -0.6172
  157TCq2    O5 2398   2.425   2.080  12.104  0.1213 -0.0555 -0.2473
  157TCq2    O6 2399   2.416   2.129  11.887 -0.0552  0.3650 -0.0555
  157TCq2    H2 2400   2.464   2.263  12.244  0.6457 -1.1776 -1.8297
  157TCq2    H3 2401   2.488   2.343  11.828  0.0649  1.5324 -0.1855
  157TCq2    H4 2402   2.595   2.648  12.110 -1.4818  1.3866 -3.5445
  158TMC2    C1 2403   3.347   1.616  13.263  0.3532 -0.2112 -0.2550
  158TMC2    C2 2404   3.355   1.732  13.185 -0.4215 -0.1619 -0.3657
  158TMC2    C3 2405   3.255   1.757  13.104  0.1340  0.3005  0.9055
  158TMC2    C4 2406   3.247   1.528  13.259 -0.3956  0.6489  0.1686
  158TMC2    C5 2407   3.146   1.565  13.177  0.3679 -0.3679  0.2860
  158TMC2    C6 2408   3.145   1.677  13.105  0.0402  0.0331 -0.0861
  158TMC2     C 2409   3.470   1.585  13.338 -0.8638  0.0505 -0.2252
  158TMC2     O 2410   3.583   1.619  13.301 -0.2793  1.1763  0.2426
  158TMC2     H 2411   3.440   1.795  13.209 -0.5019  0.0061 -0.5249
  158TMC2    H1 2412   3.258   1.430  13.305 -1.8200 -0.4432 -1.8245
  158TMC2    H2 2413   3.066   1.705  13.036 -1.2572 -3.1001  0.1350
  158TMC2    C7 2414   3.028   1.487  13.148 -0.3201  0.3437  0.4557
  158TMC2    C8 2415   3.249   1.884  13.045 -0.4895  0.6617  0.3238
  158TMC2    O1 2416   2.933   1.533  13.086 -0.1639  0.5253  0.6421
  158TMC2    O2 2417   3.352   1.940  13.005 -0.3200  0.8720  0.1593
  158TMC2    O5 2418   3.142   1.941  13.109  0.5332  0.5720  0.5097
  158TMC2    H5 2419   3.090   1.872  13.155  1.9322 -1.3722 -0.8242
  159MPD2     C 2420   3.709   1.409  13.735  0.4005  0.1342 -0.7042
  159MPD2    C1 2421   3.575   1.425  13.769  1.0389  0.2620 -0.6771
  159MPD2    C2 2422   3.479   1.453  13.668 -0.8300  1.0168 -0.1263
  159MPD2    C3 2423   3.521   1.459  13.543 -0.8449 -0.8209  0.1072
  159MPD2    C4 2424   3.652   1.433  13.507 -0.3583  0.6242  0.1837
  159MPD2    C5 2425   3.747   1.403  13.602 -0.1769  0.9393  0.6607
  159MPD2     H 2426   3.375   1.469  13.692 -0.2066  0.3435  2.9495
  159MPD2    H1 2427   3.689   1.427  13.405 -0.1395 -0.7990  0.3375
  159MPD2    H2 2428   3.786   1.396  13.810 -0.4078 -2.2170 -0.3030
  159MPD2    H3 2429   3.850   1.396  13.568 -0.5786  3.6189 -1.0879
  159MPD2     N 2430   3.429   1.510  13.454 -0.0718  0.4020  0.1447
  159MPD2    H5 2431   3.329   1.503  13.474 -0.2487  1.0407 -0.5040
  159MPD2    N1 2432   3.535   1.413  13.907  0.1513  0.1251  0.3033
  159MPD2    H7 2433   3.589   1.350  13.965  1.3882  0.4447 -0.5085
  160TMC2    C1 2434   4.213   3.483   1.122 -0.7212  0.1951  0.2333
  160TMC2    C2 2435   4.225   3.446   1.251 -0.1168 -0.2144  0.7317
  160TMC2    C3 2436   4.331   3.499   1.317  0.0560  0.4775 -0.0060
  160TMC2    C4 2437   4.300   3.570   1.060 -0.5473  0.4310 -0.6555
  160TMC2    C5 2438   4.398   3.625   1.130  0.7684  0.2531 -0.7651
  160TMC2    C6 2439   4.417   3.586   1.256 -0.5812 -0.3849 -1.0082
  160TMC2     C 2440   4.095   3.436   1.046  0.0590  0.1820 -0.9435
  160TMC2     O 2441   4.057   3.322   1.060 -0.0047  0.5851 -0.5807
  160TMC2     H 2442   4.148   3.382   1.292 -0.6814  0.1505  0.2296
  160TMC2    H1 2443   4.296   3.576   0.952 -2.3206  0.9979 -0.5512
  160TMC2    H2 2444   4.505   3.619   1.311 -1.4709  2.2901 -1.1639
  160TMC2    C7 2445   4.486   3.714   1.065  0.2431 -0.3074 -0.2099
  160TMC2    C8 2446   4.348   3.480   1.461 -0.4871 -0.2882 -0.0929
  160TMC2    O1 2447   4.485   3.721   0.947  0.1236 -0.0425 -0.1414
  160TMC2    O2 2448   4.289   3.386   1.513  0.1089  0.5239  0.5611
  160TMC2    O5 2449   4.362   3.599   1.519 -0.1780 -0.0079  0.3597
  160TMC2    H5 2450   4.351   3.670   1.452 -0.7688 -0.4170  0.0289
  161MPD2     C 2451   3.861   3.415   0.865  0.6368 -0.5933 -0.4667
  161MPD2    C1 2452   3.916   3.537   0.902  0.1345 -0.0333  0.6335
  161MPD2    C2 2453   3.869   3.651   0.840  0.3853  0.1776  0.2960
  161MPD2    C3 2454   3.769   3.650   0.745  0.4037 -0.4069  0.0016
  161MPD2    C4 2455   3.715   3.532   0.707 -0.1218  0.2413 -0.1327
  161MPD2    C5 2456   3.756   3.414   0.772 -0.3527 -0.2209  0.6464
  161MPD2     H 2457   3.909   3.746   0.872 -1.1899  0.9579 -0.0519
  161MPD2    H1 2458   3.629   3.519   0.643 -0.8036  0.4943  0.7402
  161MPD2    H2 2459   3.895   3.323   0.910  1.3801 -1.4397 -2.7713
  161MPD2    H3 2460   3.700   3.324   0.749  2.5461 -1.0490 -3.0536
  161MPD2     N 2461   3.707   3.763   0.683  0.0348  0.1091 -0.0767
  161MPD2    H5 2462   3.652   3.752   0.599  1.2201  2.3875 -1.1483
  161MPD2    N1 2463   4.028   3.547   0.994 -0.6402 -0.1668  0.4567
  161MPD2    H7 2464   4.067   3.638   1.018  1.5144 -0.8393 -0.4963
  162TMC2    C1 2465   1.764   1.330   1.288  0.3423 -0.7414  0.0595
  162TMC2    C2 2466   1.641   1.384   1.277  0.0693  0.2563  0.3484
  162TMC2    C3 2467   1.602   1.474   1.369  0.3474 -0.5545  0.8513
  162TMC2    C4 2468   1.853   1.367   1.385  0.7035 -0.3469 -0.6264
  162TMC2    C5 2469   1.812   1.463   1.476 -0.2212  0.4482 -0.1300
  162TMC2    C6 2470   1.681   1.510   1.475  0.2892 -0.1431 -0.1843
  162TMC2     C 2471   1.798   1.219   1.209 -0.1841 -0.3211  0.0789
  162TMC2     O 2472   1.732   1.209   1.106 -0.0083 -0.5489  0.0990
  162TMC2     H 2473   1.571   1.353   1.200 -0.3225  1.4570  0.2140
  162TMC2    H1 2474   1.948   1.315   1.394  1.8243  1.5239 -1.5971
  162TMC2    H2 2475   1.647   1.570   1.559 -1.0169 -0.2076 -0.6630
  162TMC2    C7 2476   1.917   1.549   1.537  0.0422 -0.6947  0.4474
  162TMC2    C8 2477   1.469   1.530   1.362  0.3439  0.2522 -0.7291
  162TMC2    O1 2478   1.883   1.664   1.575  0.7325  0.0791  0.2828
  162TMC2    O2 2479   1.399   1.546   1.262  0.1694 -0.1682 -1.1049
  162TMC2    O5 2480   1.420   1.501   1.482 -0.2806 -0.3059  0.1338
  162TMC2    H5 2481   1.482   1.447   1.536  1.0977  0.8134 -0.3315
  163MPD2     C 2482   2.010   0.754   1.116  0.9046 -0.0624  0.4054
  163MPD2    C1 2483   1.920   0.833   1.042  0.2389 -0.9853  0.1931
  163MPD2    C2 2484   1.868   0.948   1.094 -0.0371  0.4172 -0.1769
  163MPD2    C3 2485   1.921   0.994   1.214 -0.1041  0.5817  0.6600
  163MPD2    C4 2486   1.997   0.911   1.293 -0.8467 -0.3344 -0.0346
  163MPD2    C5 2487   2.042   0.793   1.242  0.0492  0.1610 -0.8083
  163MPD2     H 2488   1.789   1.002   1.043 -0.8555  1.2441  1.9572
  163MPD2    H1 2489   2.018   0.943   1.394 -2.1038  0.9836 -0.1842
  163MPD2    H2 2490   2.037   0.653   1.086 -0.1295  0.0347 -0.8438
  163MPD2    H3 2491   2.104   0.731   1.305  2.0152  2.1500 -0.7796
  163MPD2     N 2492   1.879   1.122   1.270 -0.2908  0.1246 -0.9844
  163MPD2    H5 2493   1.916   1.138   1.363 -0.3755 -0.7404 -0.8058
  163MPD2    N1 2494   1.886   0.778   0.916  0.5552  0.0708 -0.1578
  163MPD2    H7 2495   1.936   0.699   0.877  0.7933 -0.0389  0.3732
  164TCq2    C1 2496   1.418   0.312  10.525  0.5444  0.1498  0.4853
  164TCq2    O2 2497   1.296   0.306  10.494  0.1740 -0.0261  0.4440
  164TCq2    C2 2498   1.466   0.436  10.588 -0.0256  0.0697  0.9260
  164TCq2    C3 2499   1.602   0.449  10.624 -0.0190 -0.1274  0.0195
  164TCq2    C4 2500   1.648   0.574  10.666 -0.3111 -0.0502 -0.1477
  164TCq2    C5 2501   1.573   0.676  10.692  0.6963 -0.0067 -0.5867
  164TCq2    C6 2502   1.437   0.658  10.666 -0.5009 -0.0475 -0.2672
  164TCq2    C7 2503   1.382   0.539  10.614  0.1493  0.0133  0.3018
  164TCq2    C8 2504   1.345   0.756  10.706 -0.3216 -0.2558 -0.1806
  164TCq2    O4 2505   1.240   0.770  10.645  0.0039 -0.4046  0.2648
  164TCq2    C9 2506   1.794   0.588  10.670 -0.4170 -0.2236 -0.5235
  164TCq2    O5 2507   1.863   0.485  10.692  0.0921  0.2685  0.1812
  164TCq2    O6 2508   1.842   0.702  10.680 -0.6555  0.2107 -0.9114
  164TCq2    H2 2509   1.684   0.383  10.596 -0.5602 -0.3193 -1.1049
  164TCq2    H3 2510   1.599   0.777  10.722 -0.0492  0.5275 -1.7623
  164TCq2    H4 2511   1.278   0.536  10.585  0.0718  1.4122  0.4509
  165MPD2     C 2512   2.902   3.481   1.042  0.1864 -0.2524  0.1567
  165MPD2    C1 2513   2.998   3.394   1.092  1.0785 -0.3220 -0.1074
  165MPD2    C2 2514   3.087   3.442   1.183 -1.0374  0.0661  0.1451
  165MPD2    C3 2515   3.095   3.573   1.217 -0.9559 -0.1676  0.6366
  165MPD2    C4 2516   3.010   3.659   1.148 -0.3274  0.1071  0.0618
  165MPD2    C5 2517   2.906   3.609   1.074 -0.3884 -0.8344  0.1364
  165MPD2     H 2518   3.158   3.368   1.220 -0.3346  0.3658 -0.6157
  165MPD2    H1 2519   3.019   3.764   1.174  2.5189  0.1092 -1.0128
  165MPD2    H2 2520   2.824   3.455   0.972 -0.5282 -0.9550  1.2176
  165MPD2    H3 2521   2.840   3.681   1.026  1.0733 -0.8824 -1.9365
  165MPD2     N 2522   3.204   3.629   1.290  0.0181 -0.3653  0.7144
  165MPD2    H5 2523   3.205   3.730   1.294  2.2638 -0.2525 -2.0514
  165MPD2    N1 2524   2.995   3.250   1.065 -0.6624 -0.3861  0.1344
  165MPD2    H7 2525   2.916   3.208   1.016  0.1198 -2.0893  0.3025
  166TCq2    C1 2526   3.301   3.556   1.365 -0.0817  0.9940 -0.5127
  166TCq2    O2 2527   3.299   3.437   1.396  0.3654 -0.6501 -0.0749
  166TCq2    C2 2528   3.416   3.629   1.421  0.1245  0.4382 -0.5453
  166TCq2    C3 2529   3.450   3.757   1.383  0.2409 -0.1497 -0.1139
  166TCq2    C4 2530   3.561   3.810   1.443  0.6351 -0.4990  0.2115
  166TCq2    C5 2531   3.632   3.747   1.548  0.1739  0.0806  0.2382
  166TCq2    C6 2532   3.598   3.619   1.576 -0.3721 -0.7493 -0.4298
  166TCq2    C7 2533   3.490   3.560   1.511  0.1969  0.8849  0.3268
  166TCq2    C8 2534   3.702   3.531   1.632 -0.0327  0.0441  0.6804
  166TCq2    O4 2535   3.822   3.550   1.603  1.4434 -0.1387 -0.3503
  166TCq2    C9 2536   3.592   3.942   1.407 -0.1818 -0.3289  0.6673
  166TCq2    O5 2537   3.708   3.970   1.444 -0.5776  0.4718  0.2315
  166TCq2    O6 2538   3.503   4.026   1.371 -0.7718  0.0524  0.3257
  166TCq2    H2 2539   3.405   3.808   1.299  0.6705  3.2663  1.7286
  166TCq2    H3 2540   3.721   3.795   1.588  0.0872 -0.0950  0.6469
  166TCq2    H4 2541   3.472   3.454   1.527  0.5102  1.2004  2.8187
  167TMC2    C1 2542   1.564   0.110  12.991 -0.3615 -0.0373  0.7586
  167TMC2    C2 2543   1.558   0.247  13.013  0.4977  0.0991  0.5038
  167TMC2    C3 2544   1.435   0.301  13.014 -1.0455  0.4248 -0.1098
  167TMC2    C4 2545   1.448   0.034  12.965 -0.5370  0.0076 -0.7280
  167TMC2    C5 2546   1.326   0.093  12.961  0.1487 -0.0893 -0.2835
  167TMC2    C6 2547   1.321   0.226  12.992 -0.7826 -0.0861 -0.2077
  167TMC2     C 2548   1.683   0.041  12.952  0.3306 -0.2338  0.1386
  167TMC2     O 2549   1.696   4.644  12.951 -0.2474 -0.2322 -0.3947
  167TMC2     H 2550   1.644   0.312  13.023  1.1343 -0.6501 -0.1559
  167TMC2    H1 2551   1.459   4.655  12.938 -0.1539 -0.8750  2.8993
  167TMC2    H2 2552   1.227   0.279  12.992 -1.3580 -1.1019  0.0773
  167TMC2    C7 2553   1.207   0.036  12.893  0.2418  0.2069 -0.0970
  167TMC2    C8 2554   1.425   0.438  13.042  0.6523  0.2957 -0.3771
  167TMC2    O1 2555   1.091   0.065  12.934 -0.2280 -0.0709  0.0328
  167TMC2    O2 2556   1.320   0.496  13.018 -0.0501  0.3187  0.0762
  167TMC2    O5 2557   1.532   0.484  13.112  0.2325  0.1500  0.4958
  167TMC2    H5 2558   1.574   0.407  13.156 -0.5593  0.2226  1.3821
  168MPD2     C 2559   1.932   4.701  12.791  0.6041  0.7208 -0.0656
  168MPD2    C1 2560   1.898   0.104  12.842 -0.3609  0.7475  0.3477
  168MPD2    C2 2561   1.985   0.207  12.808 -0.0081  0.8040  0.3223
  168MPD2    C3 2562   2.094   0.195  12.720 -0.6449 -0.1209  0.5684
  168MPD2    C4 2563   2.121   0.071  12.677 -0.6802 -1.0016 -0.4158
  168MPD2    C5 2564   2.048   4.682  12.717  1.1513 -0.4518 -0.7608
  168MPD2     H 2565   1.968   0.300  12.860 -0.3169 -0.4408  2.4441
  168MPD2    H1 2566   2.205   0.056  12.611 -0.7893  3.5112 -1.5714
  168MPD2    H2 2567   1.878   4.610  12.818  0.1544  0.6633 -1.1728
  168MPD2    H3 2568   2.073   4.583  12.680  0.0399 -0.4156 -1.6146
  168MPD2     N 2569   2.171   0.305  12.666  0.4922  1.1769  0.3461
  168MPD2    H5 2570   2.260   0.279  12.624  0.3808  1.2050  0.0948
  168MPD2    N1 2571   1.781   0.131  12.921  0.7109  0.5927  0.3631
  168MPD2    H7 2572   1.759   0.222  12.960  2.0849  1.5410 -1.1203
  169MPD1     C 2573   4.636   3.357   9.448  0.4536 -0.4375 -0.0850
  169MPD1    C1 2574   4.660   3.460   9.534 -0.9933  0.1850  1.0893
  169MPD1    C2 2575   4.568   3.563   9.547 -0.4929  0.3833 -0.1567
  169MPD1    C3 2576   4.446   3.561   9.481  0.6975  0.4016 -0.1612
  169MPD1    C4 2577   4.423   3.455   9.406  0.2307 -0.3853  0.1665
  169MPD1    C5 2578   4.510   3.353   9.391  0.2779 -0.0552  0.4567
  169MPD1     H 2579   4.585   3.644   9.617 -0.7309 -0.5051  0.9344
  169MPD1    H1 2580   4.334   3.443   9.345 -1.6333 -0.2947  2.8336
  169MPD1    H2 2581   4.708   3.278   9.431  0.5465 -0.9890  2.8587
  169MPD1    H3 2582   4.486   3.271   9.324  2.5594 -0.2937 -0.0628
  169MPD1     N 2583   4.355   3.665   9.508  0.5276  0.1937  0.0395
  169MPD1    H5 2584   4.375   3.742   9.572 -1.4332 -0.3712  1.3375
  169MPD1    N1 2585   0.058   3.465   9.602  0.1191  0.0342 -0.5829
  169MPD1    H6 2586   0.099   3.372   9.603  0.7831  0.3167 -1.6429
  169MPD1    H7 2587   0.048   3.490   9.700  0.4419  0.4781 -0.6602
  170MPD1     C 2588   2.384   3.089  12.851  0.7761  0.7439  0.1442
  170MPD1    C1 2589   2.258   3.135  12.850 -0.7117 -0.2340 -0.0723
  170MPD1    C2 2590   2.203   3.148  12.980 -0.6104  0.6993  0.7082
  170MPD1    C3 2591   2.286   3.148  13.099 -0.6535  0.3175 -0.0392
  170MPD1    C4 2592   2.422   3.112  13.082  0.0999  0.2259 -0.3265
  170MPD1    C5 2593   2.460   3.069  12.958  0.0010  0.4406 -0.3285
  170MPD1     H 2594   2.097   3.167  12.993 -0.7339  0.4144  0.1122
  170MPD1    H1 2595   2.495   3.092  13.160  2.4823  1.7597 -2.1989
  170MPD1    H2 2596   2.435   3.056  12.761 -1.0555  0.3651 -0.7578
  170MPD1    H3 2597   2.561   3.033  12.939  0.2698  0.6919  0.5881
  170MPD1     N 2598   2.236   3.185  13.225  0.1885 -0.0937 -0.1206
  170MPD1    H5 2599   2.136   3.203  13.223 -0.1622 -2.1133 -0.9544
  170MPD1    N1 2600   2.183   3.144  12.734  0.2941  0.1765 -0.0847
  170MPD1    H6 2601   2.229   3.170  12.648 -1.2989  1.4463 -0.5599
  170MPD1    H7 2602   2.107   3.211  12.745 -0.1676 -0.4870  0.8099
  171MPD1     C 2603   0.782   4.002  15.327  0.0766  0.1744 -0.4891
  171MPD1    C1 2604   0.734   3.872  15.321  0.0743 -0.1171  0.3436
  171MPD1    C2 2605   0.782   3.779  15.413 -0.4437  0.5783 -1.0531
  171MPD1    C3 2606   0.881   3.815  15.503 -0.0554  0.0360  0.3219
  171MPD1    C4 2607   0.930   3.946  15.506  0.3572  0.9845 -0.2713
  171MPD1    C5 2608   0.887   4.034  15.414 -0.2733  0.3664 -0.1318
  171MPD1     H 2609   0.736   3.681  15.417  0.1518  0.4087  1.8784
  171MPD1    H1 2610   1.007   3.981  15.574 -0.5137 -0.5949  1.4967
  171MPD1    H2 2611   0.753   4.085  15.264 -2.6132 -1.1612 -0.9903
  171MPD1    H3 2612   0.915   4.137  15.433  0.6186  0.1648 -0.3529
  171MPD1     N 2613   0.946   3.720  15.585  0.6385 -0.3615 -0.4297
  171MPD1    H5 2614   1.026   3.755  15.637 -0.6661  0.7870  0.8103
  171MPD1    N1 2615   0.623   3.832  15.233  0.2920  0.5812  0.3748
  171MPD1    H6 2616   0.622   3.887  15.147 -0.1178 -2.3774 -1.5059
  171MPD1    H7 2617   0.609   3.733  15.216 -0.4622  0.8662 -0.7402
  172MPD1     C 2618   0.103   2.675   0.391  0.2365 -0.1648  0.0244
  172MPD1    C1 2619   0.022   2.782   0.366 -0.4980  0.4131 -0.3139
  172MPD1    C2 2620   0.057   2.914   0.390 -0.0029  0.3858  0.5358
  172MPD1    C3 2621   0.188   2.937   0.432 -0.0880 -0.0199  0.0878
  172MPD1    C4 2622   0.269   2.827   0.456  0.1297 -0.1024 -0.2247
  172MPD1    C5 2623   0.223   2.701   0.436  0.5706 -0.8449 -0.9606
  172MPD1     H 2624   4.712   2.994   0.368  0.9050  0.8181 -0.7570
  172MPD1    H1 2625   0.369   2.838   0.495 -0.7596 -0.5109  2.1764
  172MPD1    H2 2626   0.079   2.572   0.368  1.4111 -0.1623 -1.2264
  172MPD1    H3 2627   0.291   2.617   0.448  2.1212  0.3450 -1.4582
  172MPD1     N 2628   0.242   3.063   0.451  0.0696 -0.1441 -0.5352
  172MPD1    H5 2629   0.334   3.066   0.493 -0.1020 -0.4136 -0.1400
  172MPD1    N1 2630   4.625   2.760   0.304  0.1142  0.0583  0.5773
  172MPD1    H6 2631   4.550   2.828   0.308 -0.9351 -1.0665  0.2628
  172MPD1    H7 2632   4.588   2.667   0.326 -1.7061  0.5286 -0.4880
  173MPD1     C 2633   1.357   4.021  14.285 -0.3997 -0.6499  0.1164
  173MPD1    C1 2634   1.249   3.963  14.347 -0.2683  0.3674 -0.2104
  173MPD1    C2 2635   1.276   3.841  14.408 -0.3295 -0.3390 -0.2402
  173MPD1    C3 2636   1.392   3.768  14.388 -1.1447 -0.4302 -0.2752
  173MPD1    C4 2637   1.489   3.822  14.304 -1.1115  0.1754  0.2354
  173MPD1    C5 2638   1.472   3.954  14.261 -0.4968  0.8811 -0.4980
  173MPD1     H 2639   1.204   3.804  14.480 -1.2439 -0.8295 -1.4107
  173MPD1    H1 2640   1.575   3.770  14.263 -1.3191  0.8952 -1.1142
  173MPD1    H2 2641   1.352   4.127  14.260  2.0855 -1.1404 -2.4649
  173MPD1    H3 2642   1.556   4.003  14.214 -2.5622  3.5191 -1.3963
  173MPD1     N 2643   1.417   3.635  14.437 -0.4507 -0.2488 -1.1001
  173MPD1    H5 2644   1.506   3.590  14.416  0.9584  0.6295  2.9398
  173MPD1    N1 2645   1.132   4.039  14.373 -0.1025  0.1822 -0.0347
  173MPD1    H6 2646   1.049   3.987  14.401  0.1390 -0.1194  0.1288
  173MPD1    H7 2647   1.106   4.116  14.312 -1.0777 -0.3003 -0.2158
  174MPD1     C 2648   2.035   3.094  14.207 -0.1139 -0.8740  0.5228
  174MPD1    C1 2649   1.980   3.010  14.302  0.1054 -0.4380  0.7828
  174MPD1    C2 2650   1.854   3.051  14.353 -0.7274  0.5305  0.0405
  174MPD1    C3 2651   1.782   3.161  14.307 -0.1417  0.0101 -0.0515
  174MPD1    C4 2652   1.844   3.237  14.208  0.2861  0.0800 -0.0377
  174MPD1    C5 2653   1.968   3.207  14.165 -0.6529  0.3782  0.1532
  174MPD1     H 2654   1.808   2.991  14.430  0.5587 -0.6971 -0.1388
  174MPD1    H1 2655   1.791   3.323  14.169 -1.5952 -1.1017 -0.0729
  174MPD1    H2 2656   2.127   3.076  14.154 -0.3241  0.0676 -0.1762
  174MPD1    H3 2657   2.015   3.271  14.091  1.2976 -2.2717 -0.9275
  174MPD1     N 2658   1.663   3.215  14.358 -0.2726  0.5518  0.1013
  174MPD1    H5 2659   1.633   3.300  14.311  3.6392  2.1967  0.6052
  174MPD1    N1 2660   2.067   2.926  14.376 -0.5127 -0.1741  0.2137
  174MPD1    H6 2661   2.143   2.899  14.314 -0.6123 -1.5400  0.6897
  174MPD1    H7 2662   2.020   2.843  14.412 -0.7711 -0.0332  0.2007
  175MPD1     C 2663   3.625   3.812  15.870 -0.5692 -0.2977 -0.1968
  175MPD1    C1 2664   3.618   3.799  16.005 -0.2444  0.2755 -0.3543
  175MPD1    C2 2665   3.715   3.866  16.078 -0.2551  0.2217 -0.1643
  175MPD1    C3 2666   3.831   3.918  16.022  0.7751 -0.0019  0.2404
  175MPD1    C4 2667   3.837   3.915  15.885  0.0865 -0.7737 -0.7712
  175MPD1    C5 2668   3.737   3.866  15.813 -0.0806  0.1594  0.4033
  175MPD1     H 2669   3.703   3.859  16.185 -1.3221 -2.1318 -0.4510
  175MPD1    H1 2670   3.928   3.948  15.836  2.4387 -1.5943  3.0511
  175MPD1    H2 2671   3.542   3.776  15.810  0.4994  0.4182 -2.1037
  175MPD1    H3 2672   3.757   3.861  15.706 -1.8301  0.5772  0.0427
  175MPD1     N 2673   3.943   3.975  16.082  0.2320 -0.1834  0.0741
  175MPD1    H5 2674   4.019   4.003  16.021 -1.2356 -2.6510 -2.8822
  175MPD1    N1 2675   3.500   3.754  16.068 -0.4432 -0.0187 -0.1128
  175MPD1    H6 2676   3.440   3.700  16.005 -2.0516  2.4518 -0.7070
  175MPD1    H7 2677   3.525   3.696  16.148 -0.0752 -1.1269 -1.0290
  176MPD1     C 2678   0.677   1.259  17.316  0.0397 -0.1205  1.0111
  176MPD1    C1 2679   0.782   1.256  17.229 -0.5462 -0.8003  0.4565
  176MPD1    C2 2680   0.850   1.374  17.202  0.2495 -0.0253  0.2819
  176MPD1    C3 2681   0.821   1.500  17.261  0.5865  0.1328 -0.4064
  176MPD1    C4 2682   0.716   1.493  17.350  0.1884 -0.1377  0.0694
  176MPD1    C5 2683   0.640   1.374  17.374  0.8006 -0.2059 -0.4547
  176MPD1     H 2684   0.924   1.387  17.124 -0.5005  0.8192 -0.2792
  176MPD1    H1 2685   0.675   1.581  17.399 -1.2788 -1.2316  0.8189
  176MPD1    H2 2686   0.618   1.170  17.331 -1.0143  0.4065  0.0304
  176MPD1    H3 2687   0.553   1.383  17.438  0.5812 -2.2617 -0.4618
  176MPD1     N 2688   0.897   1.617  17.239  0.6131  0.4468  0.3167
  176MPD1    H5 2689   0.977   1.617  17.177 -1.2297  0.5472 -2.0308
  176MPD1    N1 2690   0.806   1.146  17.147 -0.1895 -0.1142  0.1301
  176MPD1    H6 2691   0.788   1.057  17.194  0.5263 -0.8017 -0.8882
  176MPD1    H7 2692   0.900   1.142  17.107 -0.1395 -1.3096  0.3432
  177MPD1     C 2693   0.044   1.447  10.090 -0.0963 -0.5770 -0.6397
  177MPD1    C1 2694   4.687   1.499   9.996 -1.1372  0.7815  0.1956
  177MPD1    C2 2695   4.608   1.414   9.921  0.0137 -0.6951  0.1769
  177MPD1    C3 2696   4.611   1.281   9.940 -0.1398 -0.6829 -0.9924
  177MPD1    C4 2697   4.689   1.225  10.038 -0.0163  0.5027  0.1186
  177MPD1    C5 2698   0.051   1.312  10.099  0.2458 -0.6553 -0.3194
  177MPD1     H 2699   4.547   1.455   9.842 -0.5210  0.1978  1.0626
  177MPD1    H1 2700   4.690   1.119  10.059  2.0270  0.4985 -0.0446
  177MPD1    H2 2701   0.123   1.501  10.140 -1.5280  0.8549  0.1003
  177MPD1    H3 2702   0.117   1.271  10.175  1.1565  0.4663 -0.5014
  177MPD1     N 2703   4.515   1.199   9.877 -0.3814  0.1022 -0.2231
  177MPD1    H5 2704   4.439   1.246   9.829 -0.7452 -1.8285 -1.4916
  177MPD1    N1 2705   4.674   1.637   9.987 -0.0322 -0.0180 -0.1514
  177MPD1    H6 2706   4.627   1.661   9.900  1.9758  1.7672 -0.7398
  177MPD1    H7 2707   0.044   1.671   9.998 -0.5910  1.6402 -0.4494
  178MPD1     C 2708   2.390   1.717   0.237  0.2258  0.5848 -0.7716
  178MPD1    C1 2709   2.500   1.794   0.214 -0.5934  0.2079  0.4574
  178MPD1    C2 2710   2.515   1.856   0.086  0.2060 -0.0801  0.2752
  178MPD1    C3 2711   2.413   1.850  17.696  0.0774  0.8514 -0.1345
  178MPD1    C4 2712   2.304   1.773   0.018  0.0758 -0.5234 -0.1559
  178MPD1    C5 2713   2.290   1.714   0.139  0.4496 -0.3696 -0.0004
  178MPD1     H 2714   2.612   1.900   0.070  0.2151 -0.4610 -0.7157
  178MPD1    H1 2715   2.232   1.759  17.640 -0.6480  0.4099  0.3287
  178MPD1    H2 2716   2.379   1.672   0.335  2.5612  0.5446 -0.5133
  178MPD1    H3 2717   2.196   1.662   0.158 -0.5791  2.0373  1.5307
  178MPD1     N 2718   2.418   1.916  17.566 -0.3114  0.4683 -0.2288
  178MPD1    H5 2719   2.341   1.910  17.501 -1.0907  1.0097  0.6419
  178MPD1    N1 2720   2.603   1.800   0.307 -0.2843 -0.1170  0.1017
  178MPD1    H6 2721   2.573   1.796   0.404  0.7419  0.7165  0.4635
  178MPD1    H7 2722   2.668   1.875   0.283  1.3388 -1.5703 -0.1099
  179MPD1     C 2723   2.021   0.609  15.527 -0.7517 -0.9483 -0.3122
  179MPD1    C1 2724   2.006   0.641  15.660 -0.5578 -0.2041 -0.9761
  179MPD1    C2 2725   1.925   0.567  15.735 -0.2079  0.4887 -0.0881
  179MPD1    C3 2726   1.851   0.467  15.670 -0.7338  0.7159 -0.6936
  179MPD1    C4 2727   1.845   0.454  15.536  0.0625  0.1732  0.0473
  179MPD1    C5 2728   1.932   0.538  15.461  0.1688  0.3879  1.1368
  179MPD1     H 2729   1.914   0.590  15.841 -0.2452  0.0769 -0.0024
  179MPD1    H1 2730   1.777   0.384  15.487 -0.8159 -0.2977  1.9436
  179MPD1    H2 2731   2.092   0.652  15.457  2.6605 -1.4627  2.8046
  179MPD1    H3 2732   1.939   0.520  15.355  1.5413 -2.6372  1.7363
  179MPD1     N 2733   1.766   0.375  15.746  0.4797 -0.3743  0.0759
  179MPD1    H5 2734   1.712   0.307  15.693  0.1854 -0.8856  1.0342
  179MPD1    N1 2735   2.094   0.729  15.720 -0.5210 -0.0299 -0.0028
  179MPD1    H6 2736   2.104   0.811  15.661  0.1463 -0.1568 -0.0656
  179MPD1    H7 2737   2.062   0.766  15.809  1.5073 -0.6063  0.9650
  180MPD1     C 2738   1.967   1.665  15.265 -0.0113  0.1185 -0.4162
  180MPD1    C1 2739   2.068   1.654  15.168  0.4458 -0.4381  0.3910
  180MPD1    C2 2740   2.028   1.638  15.036 -0.1330  0.3248 -0.0518
  180MPD1    C3 2741   1.892   1.616  15.005  0.0352  0.0164  0.3052
  180MPD1    C4 2742   1.795   1.619  15.102 -1.2012  0.0054  0.5806
  180MPD1    C5 2743   1.837   1.637  15.232 -0.2950  0.3476  0.3771
  180MPD1     H 2744   2.099   1.657  14.956  1.9888  1.5466  2.1390
  180MPD1    H1 2745   1.691   1.599  15.081 -1.7912  3.5646  0.1029
  180MPD1    H2 2746   2.009   1.701  15.358 -3.5800  0.5198  1.0261
  180MPD1    H3 2747   1.758   1.641  15.306  2.6237  2.9538  3.3907
  180MPD1     N 2748   1.856   1.595  14.871  0.3688  0.8655 -0.0415
  180MPD1    H5 2749   1.934   1.597  14.805  1.5508  0.6654  1.3460
  180MPD1    N1 2750   2.201   1.699  15.200 -0.4776 -0.2548  0.3525
  180MPD1    H6 2751   2.222   1.671  15.296 -2.7873 -1.3473  0.5611
  180MPD1    H7 2752   2.264   1.642  15.145 -0.2418 -0.9645  1.3537
  181MPD1     C 2753   2.827   3.060  10.014 -0.1919 -0.6645 -0.9463
  181MPD1    C1 2754   2.920   3.163   9.980 -0.0257  0.5980 -0.1547
  181MPD1    C2 2755   3.024   3.124   9.903  0.4180  1.0168 -0.2675
  181MPD1    C3 2756   3.069   2.991   9.887 -0.1667 -1.0238 -0.7401
  181MPD1    C4 2757   2.981   2.894   9.932 -0.1134 -0.2326  0.1087
  181MPD1    C5 2758   2.863   2.930   9.996 -0.4002  0.1012 -0.2458
  181MPD1     H 2759   3.083   3.206   9.863  1.3177 -0.8204 -2.7683
  181MPD1    H1 2760   2.992   2.786   9.921 -3.1102 -0.2985 -2.3202
  181MPD1    H2 2761   2.729   3.075  10.058 -1.3506  0.4873 -3.9244
  181MPD1    H3 2762   2.798   2.853  10.036 -3.4064  1.8175 -1.8418
  181MPD1     N 2763   3.191   2.951   9.819  0.1060  0.1965  0.1855
  181MPD1    H5 2764   3.197   2.852   9.797  3.6846 -0.2249  3.0683
  181MPD1    N1 2765   2.888   3.299  10.008  0.1115 -0.0211  0.4027
  181MPD1    H6 2766   2.965   3.359  10.037  0.1431  0.8211 -1.4537
  181MPD1    H7 2767   2.811   3.310  10.074 -1.8351  0.7952 -1.9891
  182MPD1     C 2768   0.269   2.016   1.577 -0.3854 -0.4306  0.1252
  182MPD1    C1 2769   0.291   1.989   1.446  0.2383 -0.0297  0.4484
  182MPD1    C2 2770   0.223   2.065   1.356 -0.4467  0.0530  0.1991
  182MPD1    C3 2771   0.131   2.163   1.398 -0.9833  0.6344  0.6266
  182MPD1    C4 2772   0.111   2.190   1.532 -0.5270 -0.4452 -0.1199
  182MPD1    C5 2773   0.178   2.114   1.625  0.3837 -0.2086 -0.2378
  182MPD1     H 2774   0.259   2.058   1.254  0.0568 -1.2815  0.4605
  182MPD1    H1 2775   0.038   2.258   1.574  1.3282  1.6532 -0.3047
  182MPD1    H2 2776   0.320   1.960   1.654 -1.5313 -1.0846  0.3990
  182MPD1    H3 2777   0.168   2.128   1.732  1.0456  4.8303 -0.8183
  182MPD1     N 2778   0.065   2.245   1.309  0.8888 -0.1537 -0.1544
  182MPD1    H5 2779   4.722   2.300   1.360  1.4500  0.0510  0.3879
  182MPD1    N1 2780   0.392   1.898   1.408 -0.2982  0.3816 -0.2331
  182MPD1    H6 2781   0.410   1.832   1.482 -1.1258  0.0266 -0.3511
  182MPD1    H7 2782   0.346   1.840   1.338 -0.6518  0.9848 -0.5098
  183MPD1     C 2783   3.037   1.257   9.117  0.5658  0.7556  0.4950
  183MPD1    C1 2784   3.097   1.347   9.198 -0.1028 -0.8796  0.0503
  183MPD1    C2 2785   3.078   1.480   9.168 -0.5173  0.3043 -0.3233
  183MPD1    C3 2786   3.000   1.524   9.065 -0.5645 -0.1811  0.1827
  183MPD1    C4 2787   2.935   1.433   8.986  0.7830 -0.1944  0.3993
  183MPD1    C5 2788   2.960   1.306   9.014 -0.3437  0.3595  0.3379
  183MPD1     H 2789   3.139   1.550   9.223 -1.0669  1.8691 -1.6968
  183MPD1    H1 2790   2.873   1.453   8.899 -0.9736 -0.3104  1.6243
  183MPD1    H2 2791   3.050   1.150   9.122 -0.7140  0.5603 -0.5685
  183MPD1    H3 2792   2.908   1.231   8.955 -1.3460  0.6053  0.9144
  183MPD1     N 2793   3.011   1.661   9.037 -0.6289  0.2957 -0.2102
  183MPD1    H5 2794   3.060   1.713   9.109 -0.2835  1.5195 -1.3295
  183MPD1    N1 2795   3.194   1.306   9.291  0.2545 -0.5049  0.0039
  183MPD1    H6 2796   3.209   1.373   9.367 -1.3462  1.3880 -1.3621
  183MPD1    H7 2797   3.163   1.224   9.342 -0.4001 -0.5601 -0.4882
  184MPD1     C 2798   3.533   4.487   9.170  0.0902  0.0689  0.5856
  184MPD1    C1 2799   3.668   4.508   9.144  0.2506 -0.2228 -0.8091
  184MPD1    C2 2800   3.729   4.625   9.198 -0.2005  0.0722  0.0558
  184MPD1    C3 2801   3.661   4.699   9.292 -0.5635  0.2687 -0.1434
  184MPD1    C4 2802   3.532   4.662   9.332  0.1763  0.4160  0.1783
  184MPD1    C5 2803   3.465   4.562   9.267 -0.1904 -0.0923  0.4823
  184MPD1     H 2804   3.824   4.656   9.156 -0.7671  3.0720  1.0166
  184MPD1    H1 2805   3.479   4.718   9.408  1.1991  2.2246 -0.4437
  184MPD1    H2 2806   3.493   4.398   9.124  1.7318 -1.1905  1.5936
  184MPD1    H3 2807   3.364   4.537   9.297 -0.6231  0.2172 -0.6997
  184MPD1     N 2808   3.708   0.092   9.351 -0.6657  0.5559 -0.1854
  184MPD1    H5 2809   3.645   0.141   9.414  1.0446 -0.8888  2.6647
  184MPD1    N1 2810   3.723   4.448   9.029  0.0206 -0.1087  0.4870
  184MPD1    H6 2811   3.699   4.350   9.023  0.5649 -0.1954 -0.2822
  184MPD1    H7 2812   3.821   4.468   9.008 -0.2113  0.1110 -0.3970
  185MPD1     C 2813   4.268   1.052   9.301 -0.4230 -0.7094  0.1240
  185MPD1    C1 2814   4.270   0.947   9.211 -0.7992 -0.6043  0.5948
  185MPD1    C2 2815   4.188   0.834   9.235  0.0918  0.1400  0.4948
  185MPD1    C3 2816   4.123   0.827   9.362 -0.0061  0.2694 -1.2357
  185MPD1    C4 2817   4.130   0.928   9.452  0.7227 -0.4937  0.0077
  185MPD1    C5 2818   4.199   1.046   9.424 -0.0696 -0.1940 -0.3089
  185MPD1     H 2819   4.184   0.748   9.169  0.8463  1.4291 -1.2446
  185MPD1    H1 2820   4.080   0.921   9.548 -1.5803  0.1739 -1.1499
  185MPD1    H2 2821   4.330   1.141   9.294 -0.1192 -1.0404 -1.4832
  185MPD1    H3 2822   4.199   1.130   9.492  0.9237  0.0214 -0.5654
  185MPD1     N 2823   4.059   0.712   9.402  0.2344  0.1169  0.0322
  185MPD1    H5 2824   4.025   0.700   9.497  0.9060 -1.0471  0.1288
  185MPD1    N1 2825   4.331   0.955   9.085 -0.5880  0.0426 -0.2427
  185MPD1    H6 2826   4.343   0.859   9.052  0.0344  0.4057 -1.0751
  185MPD1    H7 2827   4.423   0.997   9.085 -1.0043  0.9606  0.7392
  186MPD1     C 2828   2.918   4.699  15.973  0.2410 -0.3334 -0.3496
  186MPD1    C1 2829   2.863   4.668  16.099 -0.0928  0.1604 -0.2965
  186MPD1    C2 2830   2.800   0.048  16.166 -0.4137  0.2772  0.0098
  186MPD1    C3 2831   2.773   0.176  16.112  0.5130 -0.1015  0.0820
  186MPD1    C4 2832   2.822   0.195  15.983  0.3052  0.4207  0.5985
  186MPD1    C5 2833   2.901   0.098  15.925 -0.3702 -0.6224  0.7033
  186MPD1     H 2834   2.757   0.033  16.264  3.3711 -0.2070  1.5709
  186MPD1    H1 2835   2.808   0.283  15.922 -3.0513 -0.2318  0.3995
  186MPD1    H2 2836   2.974   4.627  15.915  2.8427  2.8053 -1.7511
  186MPD1    H3 2837   2.950   0.127  15.833  0.4692  1.3341  1.7644
  186MPD1     N 2838   2.704   0.282  16.178  0.3309 -0.4956 -0.3564
  186MPD1    H5 2839   2.684   0.370  16.131  0.9152 -0.2974 -0.2284
  186MPD1    N1 2840   2.888   4.553  16.176  0.0884  0.6221 -0.1916
  186MPD1    H6 2841   2.820   4.536  16.249  2.1487  1.9065  2.0473
  186MPD1    H7 2842   2.895   4.472  16.115 -1.9788 -0.3242  0.8459
  187MPD1     C 2843   1.566   2.435   0.146 -0.1162 -0.3499 -0.5484
  187MPD1    C1 2844   1.436   2.400   0.107 -0.6309  0.4470  0.4597
  187MPD1    C2 2845   1.399   2.435  17.681 -0.6325  0.6372 -0.1384
  187MPD1    C3 2846   1.494   2.479  17.587  0.1520 -0.1317  1.1109
  187MPD1    C4 2847   1.614   2.519  17.637  0.6111 -0.7850 -0.5546
  187MPD1    C5 2848   1.648   2.505   0.062 -0.0756 -0.6934  1.2906
  187MPD1     H 2849   1.300   2.418  17.639 -0.8059 -1.7041  1.2439
  187MPD1    H1 2850   1.683   2.574  17.574 -0.3699  1.3586  0.2467
  187MPD1    H2 2851   1.599   2.414   0.247 -1.9445 -2.0132 -0.2902
  187MPD1    H3 2852   1.743   2.535   0.103  1.4233  0.2587 -2.8934
  187MPD1     N 2853   1.443   2.508  17.457 -0.0847 -0.0912 -0.4267
  187MPD1    H5 2854   1.503   2.567  17.399 -2.1203 -0.6747 -3.1008
  187MPD1    N1 2855   1.345   2.338   0.195  0.0907  0.1320  0.9199
  187MPD1    H6 2856   1.275   2.293   0.137 -0.4703  1.1555  0.8134
  187MPD1    H7 2857   1.381   2.267   0.259  1.5298  1.2931  1.3903
  188MPD1     C 2858   1.623   2.513   9.902  0.5068 -0.3598  0.4224
  188MPD1    C1 2859   1.602   2.444   9.787  0.9045 -0.4043 -0.5816
  188MPD1    C2 2860   1.506   2.342   9.786  0.1760  0.2768 -0.1251
  188MPD1    C3 2861   1.456   2.292   9.902 -0.0336  0.1944  0.0976
  188MPD1    C4 2862   1.495   2.356  10.015 -0.4104  0.4307  0.6707
  188MPD1    C5 2863   1.568   2.471  10.016  0.0776 -0.3082  0.2579
  188MPD1     H 2864   1.486   2.288   9.694  0.2011  0.3681 -0.1846
  188MPD1    H1 2865   1.455   2.312  10.106 -1.3867 -1.1664 -0.5263
  188MPD1    H2 2866   1.703   2.586   9.899  1.2169 -1.1384  0.6373
  188MPD1    H3 2867   1.588   2.527  10.107 -1.5893 -1.5098  1.3562
  188MPD1     N 2868   1.371   2.186   9.914 -0.6145  0.2129 -0.5389
  188MPD1    H5 2869   1.351   2.147  10.006  1.2847 -2.1249 -1.1220
  188MPD1    N1 2870   1.645   2.494   9.664  0.2950 -0.1802 -0.1009
  188MPD1    H6 2871   1.655   2.412   9.603  3.2130  0.3839 -0.3923
  188MPD1    H7 2872   1.730   2.550   9.655  2.2901 -3.3568 -1.1599
  189MPD1     C 2873   3.480   2.699   0.147  0.0482 -0.7382 -0.1819
  189MPD1    C1 2874   3.394   2.606   0.203 -0.6476  0.0286  0.3995
  189MPD1    C2 2875   3.258   2.633   0.217 -0.5668 -0.2345  0.0782
  189MPD1    C3 2876   3.207   2.749   0.165  0.1728  0.1920  0.6942
  189MPD1    C4 2877   3.290   2.835   0.096 -0.7773  0.7618 -0.8943
  189MPD1    C5 2878   3.429   2.816   0.099  0.4371 -0.3944  0.2593
  189MPD1     H 2879   3.200   2.557   0.268 -1.1490  0.3005  0.2201
  189MPD1    H1 2880   3.257   2.930   0.056 -0.0309  1.1833 -0.5184
  189MPD1    H2 2881   3.587   2.684   0.141 -0.3721 -3.0316 -1.6631
  189MPD1    H3 2882   3.505   2.889   0.071  0.4915 -0.5579 -0.0203
  189MPD1     N 2883   3.068   2.774   0.192 -0.8471  0.4611  0.6869
  189MPD1    H5 2884   3.016   2.701   0.239  0.2794  0.1741  1.5015
  189MPD1    N1 2885   3.452   2.490   0.261  0.3585  0.2817 -0.0534
  189MPD1    H6 2886   3.392   2.422   0.308  0.8122  0.3224  0.5891
  189MPD1    H7 2887   3.546   2.458   0.241  0.1866 -0.8111  0.8827
  190MPD1     C 2888   1.391   1.265  15.404  0.4266  0.3424  0.0050
  190MPD1    C1 2889   1.431   1.285  15.538 -0.7906  0.2681 -0.0302
  190MPD1    C2 2890   1.567   1.301  15.566 -0.3653 -0.3958 -0.1641
  190MPD1    C3 2891   1.659   1.320  15.466 -0.2792  0.1570 -0.4084
  190MPD1    C4 2892   1.614   1.301  15.334  0.2543 -0.3219 -0.2391
  190MPD1    C5 2893   1.483   1.272  15.300 -0.2576 -0.6783 -0.0708
  190MPD1     H 2894   1.598   1.300  15.670  1.2044  1.7188 -0.5911
  190MPD1    H1 2895   1.682   1.306  15.249 -1.6593 -1.2375 -1.8322
  190MPD1    H2 2896   1.290   1.233  15.379  1.7884 -2.5304 -1.7774
  190MPD1    H3 2897   1.459   1.267  15.195 -3.2475  0.4764  0.5667
  190MPD1     N 2898   1.796   1.341  15.499  0.0567  0.2905 -0.9461
  190MPD1    H5 2899   1.814   1.345  15.599 -0.0484  3.2083 -1.0439
  190MPD1    N1 2900   1.339   1.250  15.640  0.2776  0.7691 -0.1146
  190MPD1    H6 2901   1.347   1.306  15.724 -4.8512 -0.2901  1.0821
  190MPD1    H7 2902   1.244   1.266  15.607 -0.2797 -1.0227  0.6119
  191MPD1     C 2903   1.030   2.927  12.779 -0.5341  0.3972 -0.3464
  191MPD1    C1 2904   1.109   3.006  12.693 -0.2923  0.3060  0.0834
  191MPD1    C2 2905   1.044   3.116  12.637  0.1075  0.5844  0.4045
  191MPD1    C3 2906   0.912   3.146  12.667  0.0065 -0.5573 -0.3041
  191MPD1    C4 2907   0.843   3.070  12.752  0.7035 -0.3604  0.2472
  191MPD1    C5 2908   0.897   2.956  12.803  0.5807  0.0262 -0.5196
  191MPD1     H 2909   1.109   3.178  12.576 -0.1567  0.6418  0.1828
  191MPD1    H1 2910   0.740   3.095  12.773  1.1606  2.5332 -0.9599
  191MPD1    H2 2911   1.068   2.834  12.821  0.0097  1.6258  1.8710
  191MPD1    H3 2912   0.836   2.894  12.868  0.3371  0.2855 -0.4960
  191MPD1     N 2913   0.850   3.257  12.602 -0.0546 -0.3188  0.2264
  191MPD1    H5 2914   0.907   3.312  12.540  1.3344  0.7906  2.4923
  191MPD1    N1 2915   1.235   2.969  12.643  0.0296  0.2505 -0.2071
  191MPD1    H6 2916   1.294   3.049  12.621  1.1640 -0.5734 -0.1501
  191MPD1    H7 2917   1.282   2.905  12.708 -0.3543 -0.0355 -0.2103
  192MPD1     C 2918   4.596   3.596  12.599  0.4848 -0.1357 -0.0281
  192MPD1    C1 2919   4.674   3.707  12.564  0.1194  0.4337  0.1479
  192MPD1    C2 2920   0.083   3.697  12.543  0.0071 -0.1334  0.0331
  192MPD1    C3 2921   0.145   3.574  12.556 -0.1950 -0.7612 -0.1877
  192MPD1    C4 2922   0.071   3.461  12.593 -0.0430  0.0326  0.2495
  192MPD1    C5 2923   4.661   3.474  12.600 -0.2535  0.3825 -0.0505
  192MPD1     H 2924   0.139   3.782  12.504  0.1659 -0.3000 -0.1036
  192MPD1    H1 2925   0.120   3.365  12.606 -1.7886 -0.8120  0.6857
  192MPD1    H2 2926   4.493   3.604  12.630  1.0586  1.2419  1.4785
  192MPD1    H3 2927   4.607   3.388  12.639 -0.8443  0.8215  0.1068
  192MPD1     N 2928   0.288   3.552  12.538  0.0110 -0.1216 -0.0352
  192MPD1    H5 2929   0.315   3.455  12.545 -0.0344 -0.1311  0.0020
  192MPD1    N1 2930   4.616   3.830  12.550  0.0032 -0.3522  0.1518
  192MPD1    H6 2931   4.578   3.862  12.640  0.5515  2.0840 -0.4866
  192MPD1    H7 2932   4.690   3.896  12.528  1.4504 -1.2413  2.3036
  193MPD1     C 2933   0.681   3.796  16.200 -0.2084 -0.9490 -0.3661
  193MPD1    C1 2934   0.653   3.883  16.301  0.2883 -1.0395  0.5246
  193MPD1    C2 2935   0.732   3.880  16.413 -0.2447  0.1640  0.3493
  193MPD1    C3 2936   0.844   3.796  16.418 -0.4358 -0.3599  0.1014
  193MPD1    C4 2937   0.872   3.709  16.314 -0.1732  0.2080  0.7254
  193MPD1    C5 2938   0.784   3.709  16.211  0.1548 -0.5870 -1.0700
  193MPD1     H 2939   0.695   3.930  16.502  1.6065  0.1856  1.1070
  193MPD1    H1 2940   0.944   3.628  16.318 -0.1765  0.1593 -0.2279
  193MPD1    H2 2941   0.623   3.790  16.110  0.7942 -2.3617 -0.9203
  193MPD1    H3 2942   0.806   3.642  16.128 -1.0149  0.2106 -2.0237
  193MPD1     N 2943   0.930   3.797  16.532 -0.2590  0.1089 -0.9932
  193MPD1    H5 2944   1.002   3.725  16.533  0.2724  0.6335 -0.9557
  193MPD1    N1 2945   0.523   3.946  16.303  0.5690 -0.0117 -0.2685
  193MPD1    H6 2946   0.522   4.025  16.367 -3.6549 -0.9314  0.7815
  193MPD1    H7 2947   0.491   3.971  16.210  0.3769 -1.6216 -0.6299
  194MPD1     C 2948   4.217   1.508  17.192  0.1193 -0.2826  0.3031
  194MPD1    C1 2949   4.305   1.441  17.112  0.0632 -0.0025 -0.4547
  194MPD1    C2 2950   4.391   1.345  17.178 -0.1590 -0.1761  0.4811
  194MPD1    C3 2951   4.392   1.331  17.318  0.7066  0.2841  0.3712
  194MPD1    C4 2952   4.311   1.413  17.392 -0.7922  0.2116  0.3939
  194MPD1    C5 2953   4.224   1.498  17.327  0.5912  0.0826  0.4272
  194MPD1     H 2954   4.460   1.285  17.119 -0.3406  0.5806 -0.5066
  194MPD1    H1 2955   4.306   1.408  17.500 -0.6016 -0.0982  0.3869
  194MPD1    H2 2956   4.142   1.578  17.155  0.0829  1.1642  3.1361
  194MPD1    H3 2957   4.156   1.556  17.389 -2.0925 -0.3082 -2.1298
  194MPD1     N 2958   4.470   1.239  17.389 -1.1034  0.3017 -0.0655
  194MPD1    H5 2959   4.454   1.238  17.489  1.0994 -2.1893  0.2730
  194MPD1    N1 2960   4.292   1.437  16.973  0.3190 -0.2213 -0.3922
  194MPD1    H6 2961   4.272   1.530  16.936  1.1378  0.2432  0.3320
  194MPD1    H7 2962   4.377   1.397  16.933  0.6715 -0.1611  0.2985
  195MPD1     C 2963   0.363   3.545  17.578  0.3250  0.2570  0.6365
  195MPD1    C1 2964   0.367   3.498   0.012  0.4337 -0.0211  0.2710
  195MPD1    C2 2965   0.445   3.387   0.043 -0.2624 -0.4454  0.3090
  195MPD1    C3 2966   0.522   3.331  17.647  0.2313 -0.4289 -0.3363
  195MPD1    C4 2967   0.524   3.378  17.516  0.3632  0.2374 -0.3037
  195MPD1    C5 2968   0.436   3.480  17.487 -0.1930  0.0341  0.4384
  195MPD1     H 2969   0.449   3.348   0.144 -1.2474 -2.6708 -0.5277
  195MPD1    H1 2970   0.575   3.327  17.435  1.5810  1.1329 -0.1000
  195MPD1    H2 2971   0.311   3.634  17.547  2.4839  1.6086  0.9102
  195MPD1    H3 2972   0.425   3.508  17.383  0.0841 -0.6786  0.2155
  195MPD1     N 2973   0.582   3.210  17.661  0.2211  0.1120 -0.4820
  195MPD1    H5 2974   0.625   3.175  17.576 -0.1942 -1.8126  0.1048
  195MPD1    N1 2975   0.315   3.589   0.105 -0.4768  0.1347 -0.1490
  195MPD1    H6 2976   0.241   3.648   0.068 -2.6838 -1.5437  1.5472
  195MPD1    H7 2977   0.300   3.564   0.202 -0.5038  1.3230  0.1461
  196MPD1     C 2978   0.007   1.623   0.189  0.2998  0.4692 -0.6376
  196MPD1    C1 2979   0.111   1.712   0.186  0.2346 -0.0963 -0.0553
  196MPD1    C2 2980   0.196   1.711   0.288 -0.3134 -0.3173  0.0869
  196MPD1    C3 2981   0.177   1.637   0.397  0.2628 -0.1094  0.0422
  196MPD1    C4 2982   0.084   1.540   0.397 -0.1505  0.2925  0.1784
  196MPD1    C5 2983   0.002   1.535   0.288 -0.2181  0.1890 -0.9591
  196MPD1     H 2984   0.272   1.789   0.292  0.5729 -1.1689 -0.1151
  196MPD1    H1 2985   0.068   1.464   0.472 -1.9812  1.0894  0.5892
  196MPD1    H2 2986   4.656   1.614   0.111  1.2201 -2.9641 -1.1447
  196MPD1    H3 2987   4.656   1.453   0.295  0.9841 -0.7304  0.3842
  196MPD1     N 2988   0.260   1.649   0.513  0.6674 -0.3165  0.7038
  196MPD1    H5 2989   0.257   1.580   0.587 -0.1493 -1.9204 -0.8274
  196MPD1    N1 2990   0.148   1.786   0.072 -0.1475  0.0503  0.0452
  196MPD1    H6 2991   0.182   1.881   0.090  3.2881 -0.6211 -2.7808
  196MPD1    H7 2992   0.075   1.788   0.002 -0.7121  1.1433  0.6647
  197MPD1     C 2993   4.225   3.530  17.437  1.3812 -0.5335 -0.0050
  197MPD1    C1 2994   4.232   3.654  17.496 -0.5854  0.4209 -0.1764
  197MPD1    C2 2995   4.319   3.749  17.447  0.4562  0.9949 -0.0463
  197MPD1    C3 2996   4.391   3.721  17.336  0.0346 -0.6299  0.1818
  197MPD1    C4 2997   4.367   3.600  17.272  1.1145  0.1099 -0.5170
  197MPD1    C5 2998   4.290   3.501  17.321  0.0038 -0.1825 -0.3486
  197MPD1     H 2999   4.322   3.843  17.501 -1.0859  0.6157  0.6989
  197MPD1    H1 3000   4.404   3.590  17.170  0.2314 -2.7185 -0.5652
  197MPD1    H2 3001   4.163   3.452  17.479  0.8862  0.2866  0.8026
  197MPD1    H3 3002   4.283   3.407  17.268 -0.2776 -0.3003 -0.0999
  197MPD1     N 3003   4.472   3.808  17.263 -0.7066  0.3835  0.1329
  197MPD1    H5 3004   4.510   3.780  17.173 -0.1675  2.8579 -0.4132
  197MPD1    N1 3005   4.144   3.678  17.602 -0.0088  0.3517  0.4069
  197MPD1    H6 3006   4.098   3.769  17.601 -0.6413  0.0338  0.7315
  197MPD1    H7 3007   4.068   3.611  17.607 -0.1687  0.5300  0.3826
  198MPD1     C 3008   1.517   2.424  15.623 -0.0446 -0.0602  0.0553
  198MPD1    C1 3009   1.644   2.375  15.599  0.3380  0.4171 -0.1848
  198MPD1    C2 3010   1.736   2.405  15.695  0.3447  0.0882 -0.4962
  198MPD1    C3 3011   1.708   2.459  15.817 -0.6526  0.7505 -0.0510
  198MPD1    C4 3012   1.572   2.477  15.852  0.1952  0.0392 -0.4423
  198MPD1    C5 3013   1.479   2.472  15.746  0.5804 -0.3132 -0.6063
  198MPD1     H 3014   1.839   2.372  15.682 -0.7421 -2.6266 -2.1020
  198MPD1    H1 3015   1.538   2.517  15.947 -1.4164 -3.0968  0.3083
  198MPD1    H2 3016   1.444   2.431  15.542 -0.7822 -2.2613  0.5383
  198MPD1    H3 3017   1.377   2.505  15.758  1.2189  1.2702  0.5297
  198MPD1     N 3018   1.818   2.488  15.904 -0.1690  0.1607  0.3080
  198MPD1    H5 3019   1.911   2.479  15.863 -1.3200  0.9772 -2.4644
  198MPD1    N1 3020   1.677   2.331  15.472 -0.1224  0.1529 -0.2351
  198MPD1    H6 3021   1.745   2.256  15.483 -0.3809  0.1586  1.4025
  198MPD1    H7 3022   1.590   2.291  15.438 -0.0591 -0.9809  0.9403
  199MPD1     C 3023   3.632   2.556   9.222  1.2907  0.0726 -0.3329
  199MPD1    C1 3024   3.506   2.549   9.283 -0.0681 -0.2106 -0.2991
  199MPD1    C2 3025   3.431   2.668   9.310  0.4576 -0.0380 -0.3655
  199MPD1    C3 3026   3.496   2.789   9.290  0.3512 -0.5127  0.0372
  199MPD1    C4 3027   3.617   2.793   9.228  0.9332  0.9356  0.0568
  199MPD1    C5 3028   3.689   2.682   9.197  0.2499 -0.0035 -0.3398
  199MPD1     H 3029   3.332   2.662   9.355  1.5561  0.5673  2.1195
  199MPD1    H1 3030   3.670   2.886   9.215  2.7558  0.0321  1.0838
  199MPD1    H2 3031   3.688   2.474   9.181  1.2367 -0.5521  0.8291
  199MPD1    H3 3032   3.783   2.692   9.144 -0.4926  2.6204 -1.1680
  199MPD1     N 3033   3.438   2.918   9.315  0.5501  0.0201  0.5697
  199MPD1    H5 3034   3.487   3.004   9.290  0.1537 -0.0095 -0.3097
  199MPD1    N1 3035   3.445   2.426   9.293  0.1334  0.2419  0.5056
  199MPD1    H6 3036   3.514   2.351   9.297  0.7879  0.7286 -1.3682
  199MPD1    H7 3037   3.389   2.424   9.378 -0.5033 -0.8201  0.0587
  200MPD1     C 3038   2.619   3.678  15.370 -0.5868  0.1096 -0.0117
  200MPD1    C1 3039   2.558   3.618  15.266  0.6680 -0.2409  0.0319
  200MPD1    C2 3040   2.605   3.658  15.138 -0.0658 -0.0405  0.2524
  200MPD1    C3 3041   2.700   3.753  15.119 -0.3629 -0.2629 -0.1405
  200MPD1    C4 3042   2.761   3.807  15.229 -0.6347 -1.1303 -0.2212
  200MPD1    C5 3043   2.720   3.774  15.357  0.0661  0.3940 -0.4381
  200MPD1     H 3044   2.559   3.616  15.050 -0.8875 -1.9434  1.5865
  200MPD1    H1 3045   2.844   3.877  15.222 -2.6358  1.1823 -0.8195
  200MPD1    H2 3046   2.587   3.651  15.471 -0.2759 -2.9582 -0.7302
  200MPD1    H3 3047   2.760   3.833  15.438  0.3849 -0.6870  0.1878
  200MPD1     N 3048   2.728   3.770  14.982  0.6157 -0.0832 -0.5301
  200MPD1    H5 3049   2.674   3.703  14.928 -0.7090 -1.2225  2.1534
  200MPD1    N1 3050   2.485   3.504  15.293  0.2802  0.5152 -0.0163
  200MPD1    H6 3051   2.425   3.468  15.219  1.8761 -0.0126 -1.0608
  200MPD1    H7 3052   2.438   3.496  15.383  0.2694 -1.1848 -0.1632
  201MPD1     C 3053   0.073   2.444  11.765 -0.1134 -0.6498  0.0925
  201MPD1    C1 3054   0.194   2.383  11.792  0.3831  0.2828  0.6816
  201MPD1    C2 3055   0.255   2.414  11.913 -0.0530  0.5230 -0.6153
  201MPD1    C3 3056   0.211   2.519  11.995  0.2522  0.3745 -0.0569
  201MPD1    C4 3057   0.098   2.592  11.952 -0.0401  0.2717 -0.5901
  201MPD1    C5 3058   0.026   2.551  11.843 -0.1421  0.5172 -0.2702
  201MPD1     H 3059   0.348   2.363  11.936 -0.2534  1.1083  1.4876
  201MPD1    H1 3060   0.050   2.667  12.014  0.0986 -0.4659  0.4117
  201MPD1    H2 3061   0.014   2.419  11.678 -1.7512 -0.8182  1.2442
  201MPD1    H3 3062   4.665   2.602  11.801  1.4142  0.9105 -3.0182
  201MPD1     N 3063   0.281   2.535  12.118  0.4999  0.2631  0.1190
  201MPD1    H5 3064   0.343   2.456  12.134 -0.7184 -1.0834 -1.8025
  201MPD1    N1 3065   0.227   2.261  11.710  0.2764 -0.6165 -0.2207
  201MPD1    H6 3066   0.181   2.246  11.620  0.9674 -1.1807 -0.4886
  201MPD1    H7 3067   0.329   2.262  11.699  0.4378  2.2308  1.5765
  202MPD1     C 3068   3.416   1.054   9.048  0.0096 -0.1294 -0.4986
  202MPD1    C1 3069   3.517   0.993   9.118 -0.4472 -0.2806 -0.2159
  202MPD1    C2 3070   3.593   1.080   9.193  0.1075  0.5156  0.2850
  202MPD1    C3 3071   3.617   1.217   9.155  0.4687  0.1147  0.6791
  202MPD1    C4 3072   3.527   1.267   9.063 -0.1606 -0.2556 -0.3832
  202MPD1    C5 3073   3.424   1.188   9.019 -0.6371  0.1980  0.0933
  202MPD1     H 3074   3.660   1.040   9.268  0.6911  2.1448  0.6407
  202MPD1    H1 3075   3.529   1.369   9.026  1.6057 -1.1033 -2.6095
  202MPD1    H2 3076   3.328   1.005   9.008 -0.5637  1.1773 -0.8448
  202MPD1    H3 3077   3.341   1.229   8.962  1.7318  2.6233 -1.6439
  202MPD1     N 3078   3.711   1.302   9.210 -0.6124 -0.1679 -0.6699
  202MPD1    H5 3079   3.702   1.402   9.194 -2.4381  0.0177  1.4100
  202MPD1    N1 3080   3.489   0.864   9.153 -0.9573 -0.0937 -0.5326
  202MPD1    H6 3081   3.451   0.814   9.073 -2.2438 -2.0204  1.2894
  202MPD1    H7 3082   3.578   0.820   9.178 -0.8366  0.8504  0.7238
  203MPD1     C 3083   3.056   3.488  12.253  0.0205 -0.2154  0.1694
  203MPD1    C1 3084   3.080   3.380  12.175 -0.3631 -0.2325 -0.0450
  203MPD1    C2 3085   3.200   3.312  12.190  0.4204  0.7106 -0.0877
  203MPD1    C3 3086   3.298   3.360  12.277 -1.1622 -0.1328  0.8142
  203MPD1    C4 3087   3.274   3.481  12.338  0.0122 -0.6564 -0.6925
  203MPD1    C5 3088   3.149   3.541  12.337  0.1971  0.5137  0.4631
  203MPD1     H 3089   3.220   3.221  12.134  0.9637 -0.2581  1.6850
  203MPD1    H1 3090   3.353   3.525  12.397 -0.9703  0.3186 -0.1159
  203MPD1    H2 3091   2.967   3.547  12.233 -0.6742 -1.8304 -1.4821
  203MPD1    H3 3092   3.130   3.635  12.387 -2.2635 -0.2992  1.0415
  203MPD1     N 3093   3.421   3.291  12.298  0.1161  1.0646 -0.3205
  203MPD1    H5 3094   3.441   3.211  12.239  0.2664  1.1586 -0.3972
  203MPD1    N1 3095   2.971   3.329  12.107 -0.0906 -0.0042  1.1450
  203MPD1    H6 3096   2.999   3.281  12.022 -0.9025 -0.2342  1.0089
  203MPD1    H7 3097   2.908   3.399  12.071 -0.8654  0.0590  2.6135
  204MPD1     C 3098   3.401   4.508   0.451  0.4499 -0.3866 -0.4706
  204MPD1    C1 3099   3.305   4.431   0.407 -0.0901 -0.7912 -0.1215
  204MPD1    C2 3100   3.305   4.376   0.281 -0.2478  0.0892 -0.9418
  204MPD1    C3 3101   3.405   4.414   0.191  0.4140  0.3581  0.1662
  204MPD1    C4 3102   3.489   4.519   0.233  0.4664  0.7282  0.0686
  204MPD1    C5 3103   3.497   4.550   0.365  0.0977 -0.0961  0.1443
  204MPD1     H 3104   3.237   4.296   0.257  0.5799 -1.3227  1.4195
  204MPD1    H1 3105   3.567   4.561   0.171 -0.0525  0.9604 -0.4243
  204MPD1    H2 3106   3.400   4.544   0.553 -0.9628  1.8149 -1.2669
  204MPD1    H3 3107   3.579   4.612   0.398  0.4309  0.1647 -1.1862
  204MPD1     N 3108   3.393   4.352   0.066  0.1180 -0.7939  0.8996
  204MPD1    H5 3109   3.318   4.284   0.056  0.5767 -0.8375 -2.0710
  204MPD1    N1 3110   3.204   4.392   0.500  0.6301  0.0965  0.2772
  204MPD1    H6 3111   3.115   4.355   0.468  0.0802 -0.0953  2.0231
  204MPD1    H7 3112   3.194   4.467   0.568  1.3441  1.3151 -0.9705
  205MPD1     C 3113   4.064   3.025  16.639  0.1595  0.6613 -0.0959
  205MPD1    C1 3114   4.054   3.152  16.694 -0.0313 -0.3240  0.4966
  205MPD1    C2 3115   3.959   3.171  16.792 -0.0808 -0.2400 -0.2631
  205MPD1    C3 3116   3.888   3.067  16.849 -0.0757 -0.2333  0.2823
  205MPD1    C4 3117   3.908   2.942  16.794  0.2402  0.5576  0.4437
  205MPD1    C5 3118   3.988   2.924  16.685 -0.1071 -0.1501  0.4485
  205MPD1     H 3119   3.953   3.270  16.836  0.5478 -0.3336  0.0335
  205MPD1    H1 3120   3.864   2.854  16.839 -0.0241 -0.0784 -1.0725
  205MPD1    H2 3121   4.135   2.998  16.561 -0.7628  3.3819 -1.8642
  205MPD1    H3 3122   3.998   2.828  16.635  1.8455  0.3602 -0.1337
  205MPD1     N 3123   3.806   3.082  16.964  0.5703  0.6899  0.0257
  205MPD1    H5 3124   3.752   3.005  17.000 -1.3796  1.1144 -1.9617
  205MPD1    N1 3125   4.131   3.262  16.653  0.2774 -0.7945 -0.0251
  205MPD1    H6 3126   4.142   3.339  16.719 -0.7451 -0.2270 -0.5284
  205MPD1    H7 3127   4.223   3.232  16.621  1.0268  0.2859  1.0796
  206MPD1     C 3128   4.087   1.282  16.704  0.1210  0.4100 -0.6320
  206MPD1    C1 3129   3.962   1.340  16.705 -0.1369  0.1008 -0.7842
  206MPD1    C2 3130   3.878   1.308  16.605  0.1100 -0.3083 -0.0426
  206MPD1    C3 3131   3.905   1.205  16.512  0.0673 -1.1175 -0.9564
  206MPD1    C4 3132   4.032   1.151  16.509 -1.0164 -0.0613  0.3141
  206MPD1    C5 3133   4.121   1.184  16.611  0.6301 -0.5964  0.5290
  206MPD1     H 3134   3.789   1.370  16.600  0.4030  0.0425 -0.8719
  206MPD1    H1 3135   4.068   1.080  16.435 -0.8509 -1.0467  1.3376
  206MPD1    H2 3136   4.167   1.312  16.772  0.0290 -3.4727  1.1418
  206MPD1    H3 3137   4.213   1.128  16.609  0.6517 -0.5428 -0.1073
  206MPD1     N 3138   3.812   1.145  16.420 -0.4356 -0.2330  0.2404
  206MPD1    H5 3139   3.839   1.055  16.384  0.0551  0.1574 -0.3586
  206MPD1    N1 3140   3.927   1.451  16.786 -0.4451  0.4763  0.2997
  206MPD1    H6 3141   3.826   1.453  16.802 -0.4698  0.7612  0.1028
  206MPD1    H7 3142   3.975   1.457  16.875  0.5958  1.1550 -0.3068
  207MPD1     C 3143   0.667   3.657   9.547  0.0554 -0.3421  0.2792
  207MPD1    C1 3144   0.632   3.545   9.621 -0.5213 -0.1153  0.4934
  207MPD1    C2 3145   0.713   3.518   9.728  0.6686  0.2667  0.8714
  207MPD1    C3 3146   0.824   3.591   9.761 -0.3020  0.3948  0.4868
  207MPD1    C4 3147   0.840   3.709   9.697 -0.2348  0.2435  0.1635
  207MPD1    C5 3148   0.775   3.731   9.578  0.1232  0.1131 -0.0372
  207MPD1     H 3149   0.697   3.427   9.785 -0.1006 -0.4719 -0.5165
  207MPD1    H1 3150   0.922   3.774   9.723  0.4927 -0.5272 -0.1898
  207MPD1    H2 3151   0.605   3.685   9.463 -0.3976 -1.0475  0.3843
  207MPD1    H3 3152   0.791   3.817   9.515  1.3969 -0.1085 -0.0125
  207MPD1     N 3153   0.917   3.565   9.867 -0.5385  0.7365  1.2534
  207MPD1    H5 3154   0.998   3.623   9.884  1.1676 -1.3655  0.3014
  207MPD1    N1 3155   0.529   3.456   9.574  0.2458  0.3175  0.5681
  207MPD1    H6 3156   0.504   3.402   9.657 -0.5922 -2.0548 -1.2304
  207MPD1    H7 3157   0.447   3.506   9.542  0.5170  1.7282  2.0727
  208MPD1     C 3158   0.112   3.112  17.552  0.5233  0.0749 -0.7192
  208MPD1    C1 3159   0.088   3.098  17.689  0.4215  0.2827 -0.2061
  208MPD1    C2 3160   0.022   2.983   0.026 -1.1241  0.2735  0.3664
  208MPD1    C3 3161   4.715   2.879  17.637 -0.1676 -0.6700 -0.0596
  208MPD1    C4 3162   0.030   2.896  17.509  0.2628 -0.3784 -0.7677
  208MPD1    C5 3163   0.076   3.017  17.465  0.4154  0.3724  0.1549
  208MPD1     H 3164   4.715   2.986   0.130  1.0233  0.5605  1.0003
  208MPD1    H1 3165   0.003   2.831  17.427 -0.6453 -0.5569 -0.3199
  208MPD1    H2 3166   0.136   3.208  17.508  2.1856  0.1700  0.3968
  208MPD1    H3 3167   0.080   3.031  17.358  1.0595  0.7578  0.2307
  208MPD1     N 3168   4.641   2.762  17.676 -0.0374  0.7968 -0.4753
  208MPD1    H5 3169   4.620   2.760   0.073  1.2690 -1.2888 -0.2485
  208MPD1    N1 3170   0.107   3.207   0.068  0.5863 -0.4432 -0.2761
  208MPD1    H6 3171   0.193   3.256   0.045  0.9384 -1.1405 -0.4191
  208MPD1    H7 3172   0.108   3.188   0.168  2.0342  0.6189 -0.0958
  209MPD1     C 3173   1.439   1.982  10.353  0.4947 -0.7670  0.3035
  209MPD1    C1 3174   1.346   2.070  10.303  0.2903  0.1536 -0.0314
  209MPD1    C2 3175   1.302   2.175  10.387  0.3847  0.4713 -0.1444
  209MPD1    C3 3176   1.345   2.191  10.512 -0.2495  0.1131  0.1557
  209MPD1    C4 3177   1.433   2.097  10.565  0.5566  0.3046  0.3699
  209MPD1    C5 3178   1.472   1.992  10.483 -0.1245 -0.3956  0.7557
  209MPD1     H 3179   1.241   2.250  10.336  1.1012  0.3859 -1.1363
  209MPD1    H1 3180   1.459   2.101  10.670  1.3181  1.1858  0.1497
  209MPD1    H2 3181   1.463   1.892  10.297 -0.3731 -0.8161  0.0129
  209MPD1    H3 3182   1.537   1.915  10.524  2.1169  1.9859  1.6590
  209MPD1     N 3183   1.294   2.301  10.583 -0.0297  0.5260  0.0861
  209MPD1    H5 3184   1.228   2.358  10.532 -1.4211 -0.3367  0.9107
  209MPD1    N1 3185   1.301   2.044  10.178 -0.9698 -0.8727 -0.2482
  209MPD1    H6 3186   1.216   2.095  10.157 -0.6994 -1.0056 -1.6947
  209MPD1    H7 3187   1.293   1.945  10.156  2.0788 -0.9557 -0.9413
  210MPD1     C 3188   1.013   3.032  11.373 -0.0203  0.2272 -0.0582
  210MPD1    C1 3189   0.997   2.899  11.387 -0.7234  0.5129  0.1782
  210MPD1    C2 3190   1.037   2.818  11.284 -0.1711  0.0853  0.6105
  210MPD1    C3 3191   1.104   2.870  11.175 -0.0314 -0.3546  0.6478
  210MPD1    C4 3192   1.109   3.002  11.158  0.1015 -0.1803  0.3369
  210MPD1    C5 3193   1.063   3.084  11.254  0.8182 -0.1226  0.2656
  210MPD1     H 3194   1.047   2.710  11.296  2.6367  0.1395 -1.4961
  210MPD1    H1 3195   1.159   3.048  11.073 -1.0039 -0.6431 -0.5555
  210MPD1    H2 3196   0.985   3.105  11.447 -1.0491 -0.4465  0.2085
  210MPD1    H3 3197   1.088   3.189  11.251  0.7311 -0.0452  2.6567
  210MPD1     N 3198   1.142   2.795  11.066  0.0366 -0.2102  0.0640
  210MPD1    H5 3199   1.193   2.843  10.992 -0.3425  0.0520 -0.0269
  210MPD1    N1 3200   0.939   2.845  11.506  0.1468 -0.2307 -0.5264
  210MPD1    H6 3201   0.888   2.761  11.480  1.6975 -1.8774  1.8594
  210MPD1    H7 3202   0.858   2.904  11.526 -0.9227 -1.9055  0.0593
  211MPD1     C 3203   4.281   3.196  16.066  0.4267  0.5386  0.4026
  211MPD1    C1 3204   4.317   3.255  16.180 -0.1132 -0.2434 -0.2338
  211MPD1    C2 3205   4.215   3.273  16.278  0.3398  0.6428 -0.3442
  211MPD1    C3 3206   4.086   3.229  16.258  0.0333 -0.5991  0.5716
  211MPD1    C4 3207   4.051   3.192  16.133 -0.1980 -0.8111  0.4420
  211MPD1    C5 3208   4.150   3.164  16.039 -0.6593 -0.0559 -0.1505
  211MPD1     H 3209   4.250   3.311  16.373  1.4711 -0.5309 -0.2980
  211MPD1    H1 3210   3.952   3.156  16.107 -0.1272 -0.4309 -0.3618
  211MPD1    H2 3211   4.358   3.167  15.996 -1.3798 -2.9243 -0.1634
  211MPD1    H3 3212   4.128   3.128  15.939 -1.6986  1.2100 -0.3716
  211MPD1     N 3213   3.998   3.244  16.368 -1.0120 -0.0601  0.3525
  211MPD1    H5 3214   4.039   3.272  16.457  0.6805 -1.0346 -0.1226
  211MPD1    N1 3215   4.451   3.275  16.212 -0.4248 -0.3130  0.3299
  211MPD1    H6 3216   4.516   3.302  16.138 -0.9503 -1.9485 -0.7167
  211MPD1    H7 3217   4.461   3.325  16.300 -1.0339  2.4308 -1.1604
  212MPD1     C 3218   3.036   1.614  15.939  0.4392 -0.3634 -0.0088
  212MPD1    C1 3219   2.923   1.577  16.013 -0.1597  0.0787  0.6898
  212MPD1    C2 3220   2.933   1.539  16.142  0.0417  0.4346  0.5045
  212MPD1    C3 3221   3.054   1.561  16.210 -0.1700  0.5157  0.1155
  212MPD1    C4 3222   3.163   1.599  16.137  0.2436  0.3178 -0.0204
  212MPD1    C5 3223   3.161   1.620  16.001 -0.3276 -0.3478 -0.6087
  212MPD1     H 3224   2.843   1.507  16.194  0.2435 -3.3322 -1.4321
  212MPD1    H1 3225   3.256   1.616  16.190  0.7632  3.2510 -1.8420
  212MPD1    H2 3226   3.036   1.609  15.830 -1.1673  1.6772 -0.0878
  212MPD1    H3 3227   3.249   1.655  15.949 -1.4088  0.9685 -1.5416
  212MPD1     N 3228   3.071   1.531  16.350 -0.0399  0.2242  0.3410
  212MPD1    H5 3229   3.165   1.549  16.383  0.4435 -0.4006 -0.6911
  212MPD1    N1 3230   2.806   1.548  15.950 -0.5725  0.2303 -0.3737
  212MPD1    H6 3231   2.777   1.604  15.870  0.5289 -1.2915 -1.8431
  212MPD1    H7 3232   2.724   1.559  16.010 -0.4266 -3.5822  0.5235
  213MPD1     C 3233   1.613   1.596  15.706 -0.0523  0.1643 -0.1162
  213MPD1    C1 3234   1.625   1.656  15.579  0.1740 -0.2004  0.5582
  213MPD1    C2 3235   1.519   1.716  15.534 -0.3517 -0.7905  0.1423
  213MPD1    C3 3236   1.395   1.691  15.578 -0.3856 -0.2112  0.1763
  213MPD1    C4 3237   1.378   1.612  15.691  0.8104 -0.4405  1.0671
  213MPD1    C5 3238   1.488   1.555  15.751  0.2812 -0.2052 -0.2343
  213MPD1     H 3239   1.533   1.791  15.457  0.5860 -0.8739  0.2279
  213MPD1    H1 3240   1.279   1.580  15.720  0.4517 -1.1306 -0.9009
  213MPD1    H2 3241   1.701   1.558  15.755 -0.2306  0.8188  0.7073
  213MPD1    H3 3242   1.479   1.500  15.844  0.6215 -1.1371 -0.7462
  213MPD1     N 3243   1.302   1.758  15.491  0.0416  0.0283  0.1638
  213MPD1    H5 3244   1.342   1.810  15.413 -1.1461  0.3400 -0.2288
  213MPD1    N1 3245   1.754   1.707  15.552 -0.0487  0.0382  0.2514
  213MPD1    H6 3246   1.763   1.750  15.460  0.1521 -1.4923 -0.4494
  213MPD1    H7 3247   1.841   1.657  15.570  0.6603  0.7798 -1.0761
  214MPD1     C 3248   0.442   1.506  15.034  0.2025  0.4845  0.1247
  214MPD1    C1 3249   0.448   1.647  15.024  0.2061  0.2577  0.6303
  214MPD1    C2 3250   0.554   1.711  15.085  0.5393 -0.5407 -1.1962
  214MPD1    C3 3251   0.640   1.640  15.170 -0.3189  0.6813  0.2511
  214MPD1    C4 3252   0.629   1.503  15.178 -0.5422  0.4608 -0.0962
  214MPD1    C5 3253   0.525   1.439  15.118  0.0549 -0.3454  0.3700
  214MPD1     H 3254   0.561   1.819  15.073  0.0123 -0.1628  1.9093
  214MPD1    H1 3255   0.705   1.444  15.227  1.4491  2.7020 -0.5358
  214MPD1    H2 3256   0.367   1.444  14.987  0.9079 -1.4079  1.5182
  214MPD1    H3 3257   0.502   1.333  15.121 -0.8334 -0.1087  1.7591
  214MPD1     N 3258   0.752   1.703  15.234  0.0964 -0.3100  0.0027
  214MPD1    H5 3259   0.812   1.640  15.287 -0.6278 -1.5563 -0.6491
  214MPD1    N1 3260   0.369   1.709  14.928  0.3483  0.1649  0.2496
  214MPD1    H6 3261   0.275   1.669  14.926  0.4286  0.0240 -1.2098
  214MPD1    H7 3262   0.359   1.805  14.959 -1.5664 -0.1971  0.7341
  215MPD1     C 3263   4.663   3.229  10.927  0.4263  0.3725  0.1383
  215MPD1    C1 3264   4.710   3.303  11.031 -0.2406 -1.0067  0.2664
  215MPD1    C2 3265   0.127   3.313  11.037 -0.2765 -0.1267  0.4676
  215MPD1    C3 3266   0.213   3.250  10.947  0.7311  0.9161  0.2512
  215MPD1    C4 3267   0.156   3.176  10.843  0.1862  0.5266 -0.1854
  215MPD1    C5 3268   0.022   3.159  10.838 -0.2669 -0.5768  0.9062
  215MPD1     H 3269   0.162   3.384  11.110  1.8745 -2.9980  2.2168
  215MPD1    H1 3270   0.218   3.124  10.771  0.0482  0.6936 -0.4251
  215MPD1    H2 3271   4.559   3.210  10.903  1.3063 -2.3056 -1.5431
  215MPD1    H3 3272   4.705   3.100  10.757 -0.6018  2.1728 -0.9288
  215MPD1     N 3273   0.354   3.277  10.955 -0.3188 -0.0792 -0.0430
  215MPD1    H5 3274   0.390   3.327  11.036 -0.0391 -2.5109  1.3627
  215MPD1    N1 3275   4.633   3.381  11.111 -0.2361 -0.6388 -0.1678
  215MPD1    H6 3276   4.670   3.387  11.206  1.2834  0.9499 -0.8671
  215MPD1    H7 3277   4.546   3.329  11.124 -2.6264  3.2520 -0.7751
  216MPD1     C 3278   2.522   0.698   0.970  0.2157  0.0281 -0.1483
  216MPD1    C1 3279   2.512   0.640   0.845 -0.2603 -0.0042  0.2470
  216MPD1    C2 3280   2.624   0.587   0.789 -0.0483  0.0846  0.5841
  216MPD1    C3 3281   2.746   0.617   0.837 -0.5653 -0.3091  0.4149
  216MPD1    C4 3282   2.752   0.687   0.957  0.6702 -0.1159  0.0487
  216MPD1    C5 3283   2.640   0.712   1.031 -0.2438 -0.0118  0.7213
  216MPD1     H 3284   2.617   0.526   0.699 -0.6612  0.4954  0.3499
  216MPD1    H1 3285   2.848   0.710   1.001  0.9292 -0.2369 -0.4413
  216MPD1    H2 3286   2.438   0.703   1.039  1.0605 -1.0210  0.9788
  216MPD1    H3 3287   2.646   0.753   1.131 -0.9519 -0.1366  0.8111
  216MPD1     N 3288   2.855   0.566   0.763 -0.0238  0.1542 -0.1359
  216MPD1    H5 3289   2.839   0.513   0.677 -1.0076  2.2125 -1.2323
  216MPD1    N1 3290   2.381   0.608   0.800 -0.2171  0.0652 -0.0296
  216MPD1    H6 3291   2.312   0.672   0.837  0.2893  0.4143  0.3075
  216MPD1    H7 3292   2.376   0.624   0.700 -0.0149  0.0761 -0.0386
  217MPD1     C 3293   2.147   1.367   8.893 -0.0959  0.4409  0.3759
  217MPD1    C1 3294   2.217   1.248   8.907 -0.2290  0.0618 -0.2589
  217MPD1    C2 3295   2.319   1.248   9.000  0.4329  0.1425  0.4871
  217MPD1    C3 3296   2.361   1.361   9.066  0.5260 -0.0214  0.2099
  217MPD1    C4 3297   2.290   1.480   9.050 -0.1146 -0.0373  0.8401
  217MPD1    C5 3298   2.177   1.478   8.970  0.4045  0.0917  0.0023
  217MPD1     H 3299   2.366   1.153   9.022 -1.9596 -1.3493 -0.8393
  217MPD1    H1 3300   2.310   1.567   9.112 -2.7894  0.7365  0.6611
  217MPD1    H2 3301   2.061   1.376   8.828  1.6167 -0.0250 -1.9554
  217MPD1    H3 3302   2.109   1.562   8.958  1.2659  0.7665 -0.1077
  217MPD1     N 3303   2.472   1.374   9.148 -0.5434 -0.0061  0.1673
  217MPD1    H5 3304   2.494   1.468   9.178  0.1374 -1.0753  3.0316
  217MPD1    N1 3305   2.155   1.133   8.858  0.2507  0.1553 -0.1028
  217MPD1    H6 3306   2.106   1.163   8.774 -3.1901 -4.1553  0.4300
  217MPD1    H7 3307   2.225   1.061   8.842  0.0468  0.3258 -1.8454
  218MPD1     C 3308   0.522   3.454  12.099 -0.3031 -0.1356 -0.2550
  218MPD1    C1 3309   0.605   3.500  12.001 -0.1119  0.7132 -0.0189
  218MPD1    C2 3310   0.741   3.483  12.022 -0.0708  1.0120  0.0581
  218MPD1    C3 3311   0.794   3.418  12.136 -0.0679 -0.9455  0.3421
  218MPD1    C4 3312   0.701   3.367  12.224  0.2302 -0.4222  0.1237
  218MPD1    C5 3313   0.572   3.388  12.209  0.2282 -0.1548  0.2673
  218MPD1     H 3314   0.815   3.516  11.949  2.6721 -0.4359  2.1839
  218MPD1    H1 3315   0.734   3.305  12.307 -1.2113  1.6995  2.2815
  218MPD1    H2 3316   0.415   3.469  12.095 -0.4358 -1.3584 -1.3628
  218MPD1    H3 3317   0.503   3.368  12.290  0.0244  2.4890  0.7424
  218MPD1     N 3318   0.935   3.397  12.147 -0.2441 -0.0817 -0.6933
  218MPD1    H5 3319   0.996   3.453  12.088 -0.1696  2.9072  2.2206
  218MPD1    N1 3320   0.567   3.584  11.897 -0.2142  0.3542  0.6204
  218MPD1    H6 3321   0.626   3.559  11.818 -0.7885 -0.8707  0.5816
  218MPD1    H7 3322   0.470   3.558  11.882  0.5071 -1.0584 -1.5793
  219MPD1     C 3323   1.540   2.954  11.483  0.0113  0.0193 -0.0888
  219MPD1    C1 3324   1.404   2.949  11.510  0.2037 -0.7380 -0.4304
  219MPD1    C2 3325   1.357   3.000  11.626  0.5066 -0.0894 -0.3606
  219MPD1    C3 3326   1.446   3.060  11.709 -0.8067  0.1177 -0.2370
  219MPD1    C4 3327   1.579   3.069  11.677  0.9193 -0.1184 -0.3460
  219MPD1    C5 3328   1.627   3.012  11.565  0.8464 -0.1611  0.2779
  219MPD1     H 3329   1.254   2.982  11.655 -0.4884 -0.5554 -4.1714
  219MPD1    H1 3330   1.648   3.130  11.734  1.1391 -0.7380  0.0537
  219MPD1    H2 3331   1.579   2.896  11.401  0.3852  0.8129 -0.4694
  219MPD1    H3 3332   1.730   3.018  11.534  0.6029  0.1265 -0.4770
  219MPD1     N 3333   1.415   3.111  11.840  0.4616  0.8215  0.2318
  219MPD1    H5 3334   1.499   3.123  11.897  1.4181 -1.6751 -0.6473
  219MPD1    N1 3335   1.325   2.857  11.436  0.3222 -0.1537  0.4401
  219MPD1    H6 3336   1.369   2.822  11.351 -0.3675 -0.4448  0.2009
  219MPD1    H7 3337   1.230   2.891  11.418 -0.7018 -2.1488  2.0107
  220MPD1     C 3338   0.704   4.574   9.629  0.0669  0.2160 -0.0112
  220MPD1    C1 3339   0.816   4.524   9.701  0.8109  0.4072 -0.6773
  220MPD1    C2 3340   0.800   4.407   9.774  0.2807 -0.6324  0.4248
  220MPD1    C3 3341   0.678   4.335   9.769  0.0262 -0.0635  0.9867
  220MPD1    C4 3342   0.568   4.392   9.700 -0.0127 -0.0058 -0.1163
  220MPD1    C5 3343   0.583   4.510   9.633 -0.0352  0.2033 -0.7665
  220MPD1     H 3344   0.867   4.379   9.854 -0.6546  0.8012  1.6969
  220MPD1    H1 3345   0.478   4.337   9.677 -0.7067  1.3089 -0.5481
  220MPD1    H2 3346   0.712   4.671   9.581 -2.1207 -1.0069 -2.8893
  220MPD1    H3 3347   0.500   4.539   9.571  0.4989  3.1776 -0.0846
  220MPD1     N 3348   0.671   4.215   9.839 -0.7794  0.0217  0.2755
  220MPD1    H5 3349   0.755   4.186   9.887 -0.0082 -2.5636 -2.6398
  220MPD1    N1 3350   0.931   4.606   9.712  0.1182 -0.9220 -0.1937
  220MPD1    H6 3351   1.017   4.552   9.724  0.3297 -0.4654  0.3347
  220MPD1    H7 3352   0.945   4.663   9.629 -0.9967 -1.4218 -0.7255
  221MPD1     C 3353   2.731   2.396  16.347  0.5249  1.0715 -0.5994
  221MPD1    C1 3354   2.817   2.484  16.405 -0.3862  0.3838 -0.0715
  221MPD1    C2 3355   2.950   2.487  16.370  0.2076 -0.2266  0.1276
  221MPD1    C3 3356   2.997   2.393  16.279 -0.0357  0.1134 -0.4486
  221MPD1    C4 3357   2.909   2.316  16.204  0.0968 -0.2442  0.4126
  221MPD1    C5 3358   2.778   2.316  16.242  0.0939 -0.0635  0.6438
  221MPD1     H 3359   3.016   2.559  16.417 -2.1433  1.6990  0.4628
  221MPD1    H1 3360   2.942   2.242  16.132  0.8621 -0.2056  0.7257
  221MPD1    H2 3361   2.626   2.413  16.368  0.1398 -1.1951 -0.6576
  221MPD1    H3 3362   2.699   2.270  16.183  1.1560  0.3901 -1.1336
  221MPD1     N 3363   3.137   2.397  16.236 -0.4617  0.1430 -0.6036
  221MPD1    H5 3364   3.159   2.334  16.159  0.3908  0.2080 -0.4107
  221MPD1    N1 3365   2.765   2.581  16.485  0.8219  0.0522  0.4604
  221MPD1    H6 3366   2.673   2.567  16.527  1.3082  0.8205  1.7832
  221MPD1    H7 3367   2.831   2.626  16.548  0.5099  0.8797  0.2021
  222MPD1     C 3368   3.589   1.776  16.031 -0.4838 -0.6251  0.6003
  222MPD1    C1 3369   3.527   1.669  16.087  0.3249 -0.2577  0.0327
  222MPD1    C2 3370   3.481   1.681  16.222  0.1255  0.2865 -0.1116
  222MPD1    C3 3371   3.476   1.804  16.290  1.1547 -0.3473 -0.8514
  222MPD1    C4 3372   3.542   1.903  16.231  0.3908  0.1976 -0.4797
  222MPD1    C5 3373   3.598   1.892  16.108  0.4719  0.7643 -0.1287
  222MPD1     H 3374   3.456   1.591  16.277 -1.8361 -0.5761 -2.4602
  222MPD1    H1 3375   3.550   1.996  16.285  0.4737 -0.6161  0.9149
  222MPD1    H2 3376   3.633   1.769  15.933 -0.6403  1.1324  0.4051
  222MPD1    H3 3377   3.643   1.980  16.065  0.8282 -0.3459 -2.0254
  222MPD1     N 3378   3.433   1.817  16.425 -0.2740  0.3103 -0.4222
  222MPD1    H5 3379   3.453   1.906  16.470 -0.6978 -0.4827  1.3437
  222MPD1    N1 3380   3.544   1.538  16.038 -0.6379 -0.0399  0.2787
  222MPD1    H6 3381   3.538   1.540  15.936 -1.1793 -1.6700  0.2651
  222MPD1    H7 3382   3.478   1.467  16.069  0.1545 -0.9940 -0.2083
  223MPD1     C 3383   2.438   1.720  16.642 -0.4376 -0.7109 -0.0766
  223MPD1    C1 3384   2.501   1.709  16.524 -0.4569  0.0134  0.9576
  223MPD1    C2 3385   2.634   1.734  16.520  0.8968  0.8858 -0.0898
  223MPD1    C3 3386   2.710   1.759  16.636 -0.0923 -0.3727  0.0537
  223MPD1    C4 3387   2.638   1.763  16.752 -0.0631  0.2595  0.2755
  223MPD1    C5 3388   2.502   1.754  16.756 -0.4992  0.8417  0.4113
  223MPD1     H 3389   2.688   1.732  16.427 -1.0704 -1.4956 -1.1665
  223MPD1    H1 3390   2.680   1.791  16.849 -1.8141  1.3709  0.7040
  223MPD1    H2 3391   2.332   1.703  16.657 -0.7438  2.5178  1.3049
  223MPD1    H3 3392   2.456   1.769  16.853 -0.9931  2.0840 -0.0141
  223MPD1     N 3393   2.851   1.777  16.624 -0.1555 -0.2738  0.3395
  223MPD1    H5 3394   2.885   1.791  16.529 -0.6129 -0.0187  0.2137
  223MPD1    N1 3395   2.423   1.679  16.408 -0.0731  0.3001  0.0571
  223MPD1    H6 3396   2.484   1.634  16.341  0.4963  2.6559 -1.0393
  223MPD1    H7 3397   2.333   1.632  16.418 -0.0375 -0.2391 -2.1944
  224MPD1     C 3398   2.727   2.098   9.177  0.0387 -0.1357 -0.2633
  224MPD1    C1 3399   2.752   1.973   9.226 -0.0377  0.4137 -0.1735
  224MPD1    C2 3400   2.881   1.942   9.251 -0.0497  0.2313  0.0914
  224MPD1    C3 3401   2.981   2.036   9.262 -0.4578 -0.1131 -0.1179
  224MPD1    C4 3402   2.946   2.167   9.247 -0.5964  0.3676  0.4198
  224MPD1    C5 3403   2.819   2.192   9.197 -0.0475 -0.0989  0.4470
  224MPD1     H 3404   2.906   1.840   9.279 -0.2134  0.3380  0.6287
  224MPD1    H1 3405   3.008   2.253   9.268  1.6107 -1.2807  0.6251
  224MPD1    H2 3406   2.643   2.109   9.110  0.0420  2.1591  0.1017
  224MPD1    H3 3407   2.794   2.293   9.166  0.4772 -0.0621  0.1435
  224MPD1     N 3408   3.107   2.006   9.313  0.3941  0.5169 -0.2908
  224MPD1    H5 3409   3.162   2.082   9.354 -0.8448  1.2236  0.0491
  224MPD1    N1 3410   2.659   1.872   9.197 -0.6477  0.3471  0.7899
  224MPD1    H6 3411   2.564   1.907   9.207 -1.2225 -0.9192 -0.3103
  224MPD1    H7 3412   2.685   1.787   9.247 -0.4160  1.2688  2.2194
  225MPD1     C 3413   0.585   4.182  12.590 -0.4999  0.3963  0.0143
  225MPD1    C1 3414   0.514   4.064  12.589 -0.1700  0.4935  0.8561
  225MPD1    C2 3415   0.383   4.076  12.541  0.9223 -0.0230  0.3507
  225MPD1    C3 3416   0.344   4.193  12.470 -0.2092 -0.5260  0.7076
  225MPD1    C4 3417   0.436   4.293  12.463  0.4358 -0.3016 -0.3365
  225MPD1    C5 3418   0.547   4.298  12.532 -0.4686  0.4054  0.3989
  225MPD1     H 3419   0.311   3.995  12.540 -0.7171  1.4563 -1.5186
  225MPD1    H1 3420   0.409   4.384  12.411 -0.4978  0.0064  0.6892
  225MPD1    H2 3421   0.676   4.180  12.649  0.6956  1.2939 -1.8112
  225MPD1    H3 3422   0.611   4.386  12.528  1.1219 -0.9159 -3.6138
  225MPD1     N 3423   0.217   4.210  12.410  0.1623 -0.6362  0.6965
  225MPD1    H5 3424   0.212   4.299  12.361 -2.3597 -1.3116 -0.2693
  225MPD1    N1 3425   0.553   3.953  12.664 -0.2383  0.0683  0.0727
  225MPD1    H6 3426   0.653   3.941  12.677  0.2264  2.9844 -0.8403
  225MPD1    H7 3427   0.511   3.866  12.633  1.8756 -0.3327 -1.6080
  226MPD1     C 3428   3.120   3.013   9.060 -0.7895 -0.0826 -0.7103
  226MPD1    C1 3429   3.077   2.888   9.099  0.2864 -0.3803  0.5773
  226MPD1    C2 3430   2.941   2.857   9.089  0.0373  0.5098  0.1599
  226MPD1    C3 3431   2.850   2.962   9.062 -0.2077 -0.7193 -0.1485
  226MPD1    C4 3432   2.898   3.095   9.056  0.8580  0.0713  0.3270
  226MPD1    C5 3433   3.033   3.117   9.043  0.1416 -0.2451 -0.7348
  226MPD1     H 3434   2.916   2.751   9.092  0.8940  0.3012 -0.2573
  226MPD1    H1 3435   2.827   3.177   9.057 -1.6337 -2.0814 -0.8647
  226MPD1    H2 3436   3.227   3.032   9.063 -0.4593 -1.7359 -2.1723
  226MPD1    H3 3437   3.066   3.218   9.021 -2.5425  0.8034  0.0491
  226MPD1     N 3438   2.711   2.929   9.053  0.0397  0.2687  0.1550
  226MPD1    H5 3439   2.687   2.831   9.068 -1.3088  0.4926 -0.5301
  226MPD1    N1 3440   3.177   2.789   9.108  0.6439  0.7675 -0.3444
  226MPD1    H6 3441   3.152   2.710   9.168 -0.0011  3.8409  3.4020
  226MPD1    H7 3442   3.269   2.826   9.134  0.5014  1.9845 -1.6140
  227MPD1     C 3443   1.619   3.127   9.137 -0.0430  0.3959  0.1362
  227MPD1    C1 3444   1.642   2.992   9.118  0.3682 -0.5234 -0.0003
  227MPD1    C2 3445   1.769   2.940   9.088  1.1934  0.4223 -0.1106
  227MPD1    C3 3446   1.878   3.027   9.100 -1.0188  0.0627  0.3612
  227MPD1    C4 3447   1.859   3.158   9.135  0.1839  0.6464  1.1036
  227MPD1    C5 3448   1.728   3.209   9.152 -1.1514 -0.1748  0.0429
  227MPD1     H 3449   1.797   2.837   9.068 -0.7397 -0.3764  1.3779
  227MPD1    H1 3450   1.940   3.231   9.131  0.7971 -0.0911  0.1976
  227MPD1    H2 3451   1.518   3.165   9.150 -0.5996 -0.7954 -0.6721
  227MPD1    H3 3452   1.710   3.312   9.184  3.2523  0.4997  0.3010
  227MPD1     N 3453   2.007   2.968   9.073  0.2926 -0.3067 -0.3715
  227MPD1    H5 3454   2.007   2.871   9.045  0.6944 -0.1872 -0.7829
  227MPD1    N1 3455   1.532   2.915   9.089 -0.3423 -0.2049 -0.1503
  227MPD1    H6 3456   1.543   2.814   9.101  0.2696 -0.1429 -0.1971
  227MPD1    H7 3457   1.443   2.946   9.128  1.2926  2.7355  1.2501
  228MPD1     C 3458   2.750   1.936  12.427  0.7531 -0.1844  0.5303
  228MPD1    C1 3459   2.640   1.947  12.345  0.5889  0.5935  0.0991
  228MPD1    C2 3460   2.524   1.893  12.395  0.1687  0.5309  0.3121
  228MPD1    C3 3461   2.525   1.830  12.517  0.3449 -1.1764 -0.0593
  228MPD1    C4 3462   2.633   1.828  12.605 -0.3332 -0.1519  0.2055
  228MPD1    C5 3463   2.750   1.882  12.558  0.1853  0.0433  0.2301
  228MPD1     H 3464   2.438   1.880  12.331  0.3361  3.2143 -0.4603
  228MPD1    H1 3465   2.624   1.798  12.708  1.3893 -0.6702  0.2016
  228MPD1    H2 3466   2.841   1.983  12.392  0.0191  0.0692 -1.0632
  228MPD1    H3 3467   2.835   1.882  12.626 -0.5605 -0.4350  1.1472
  228MPD1     N 3468   2.399   1.779  12.541 -0.6385  0.1125  0.0190
  228MPD1    H5 3469   2.323   1.807  12.481 -0.8872 -0.5463  0.0254
  228MPD1    N1 3470   2.663   1.989  12.216  0.7149 -0.4162 -0.4581
  228MPD1    H6 3471   2.741   2.051  12.197  0.6288 -0.5105 -1.1301
  228MPD1    H7 3472   2.576   2.025  12.176  0.2530  1.0056  1.8432
  229MPD1     C 3473   1.787   0.506  14.096 -0.3367  0.1414 -0.1218
  229MPD1    C1 3474   1.921   0.476  14.086  0.2768  0.1354  0.0826
  229MPD1    C2 3475   1.983   0.403  14.182  0.1494 -0.5239  0.9937
  229MPD1    C3 3476   1.906   0.321  14.266  0.2568  0.3714 -0.1668
  229MPD1    C4 3477   1.771   0.334  14.266  0.6861 -1.0140 -0.3585
  229MPD1    C5 3478   1.717   0.427  14.182 -0.4298  0.4828  0.0379
  229MPD1     H 3479   2.091   0.393  14.186  0.1611 -0.5944  0.4906
  229MPD1    H1 3480   1.703   0.279  14.330  1.2830 -2.6843 -1.1384
  229MPD1    H2 3481   1.742   0.587  14.039 -0.1229 -1.5428 -2.6960
  229MPD1    H3 3482   1.611   0.450  14.184 -0.6945 -0.6824 -0.4041
  229MPD1     N 3483   1.960   0.230  14.355 -0.5551 -0.3995  0.2821
  229MPD1    H5 3484   1.897   0.201  14.429 -0.1472 -0.2741  0.6718
  229MPD1    N1 3485   2.003   0.561  14.011 -0.5942  0.0729  0.0736
  229MPD1    H6 3486   1.956   0.585  13.924 -0.0521  2.2855  0.3973
  229MPD1    H7 3487   2.096   0.523  13.990 -0.8115  0.7348 -2.1140
  230MPD1     C 3488   2.271   0.268  15.293 -0.1406 -0.3331  0.2752
  230MPD1    C1 3489   2.321   0.146  15.264 -0.0445 -0.5780 -0.2872
  230MPD1    C2 3490   2.290   0.092  15.145  0.2459  1.1366  0.3041
  230MPD1    C3 3491   2.210   0.161  15.050  0.1116 -0.1960 -0.5805
  230MPD1    C4 3492   2.156   0.284  15.089 -0.2253  0.5739 -0.5037
  230MPD1    C5 3493   2.189   0.335  15.209  0.0228 -0.4026 -0.1698
  230MPD1     H 3494   2.323   4.717  15.121  1.7695  2.3087 -2.6055
  230MPD1    H1 3495   2.083   0.339  15.031 -1.2063 -1.7760 -1.5145
  230MPD1    H2 3496   2.293   0.316  15.387 -0.4065  0.3131  0.0086
  230MPD1    H3 3497   2.147   0.428  15.247  1.7269  0.4268 -0.3379
  230MPD1     N 3498   2.190   0.104  14.923  0.0011 -1.0060 -0.0564
  230MPD1    H5 3499   2.246   0.020  14.910 -0.3458 -1.1550 -0.5959
  230MPD1    N1 3500   2.373   0.070  15.368 -0.4249 -0.8429  0.2343
  230MPD1    H6 3501   2.427   0.130  15.429 -0.5762  1.0524 -1.5033
  230MPD1    H7 3502   2.432   4.721  15.332  1.4649 -0.2386  2.0994
  231MPD1     C 3503   0.238   1.974  15.226 -0.4304  0.3306  0.2179
  231MPD1    C1 3504   0.256   2.000  15.090  0.0958 -0.1785 -0.0370
  231MPD1    C2 3505   0.371   2.066  15.047 -0.3257 -0.4131  0.6253
  231MPD1    C3 3506   0.458   2.127  15.131  0.0645 -0.3135 -0.0399
  231MPD1    C4 3507   0.435   2.111  15.265 -0.1178 -0.2708 -0.1638
  231MPD1    C5 3508   0.321   2.048  15.306  0.5540 -0.1078 -0.6553
  231MPD1     H 3509   0.388   2.074  14.941  1.3532  1.7612  1.0552
  231MPD1    H1 3510   0.505   2.139  15.343 -1.2599  1.2296  0.3208
  231MPD1    H2 3511   0.164   1.909  15.271  0.6796  0.4066  2.1467
  231MPD1    H3 3512   0.308   2.036  15.413 -1.3759  1.9264 -0.6703
  231MPD1     N 3513   0.571   2.193  15.085 -0.2118 -0.2469 -0.2276
  231MPD1    H5 3514   0.571   2.205  14.984 -0.1203 -1.3280 -0.3558
  231MPD1    N1 3515   0.177   1.932  14.998  0.0146  0.2342 -0.2836
  231MPD1    H6 3516   0.179   1.986  14.911  1.9783 -0.8365 -0.9051
  231MPD1    H7 3517   0.080   1.925  15.029  0.4976 -3.2779  0.4280
  232MPD1     C 3518   2.277   3.945   0.331  0.9329  0.0531 -0.0040
  232MPD1    C1 3519   2.139   3.926   0.333  0.1770  0.3371  0.9083
  232MPD1    C2 3520   2.059   4.033   0.366  0.3599 -0.5570  0.1392
  232MPD1    C3 3521   2.110   4.153   0.407  0.1966  0.2692  0.5736
  232MPD1    C4 3522   2.245   4.167   0.421  0.0546  0.4954 -0.3569
  232MPD1    C5 3523   2.333   4.067   0.370 -0.0062  0.4459  0.3206
  232MPD1     H 3524   1.953   4.017   0.348  0.5713 -0.7586 -0.9625
  232MPD1    H1 3525   2.289   4.260   0.455 -2.5974  0.4899  3.0912
  232MPD1    H2 3526   2.340   3.869   0.287  1.5264  0.8848 -0.5780
  232MPD1    H3 3527   2.440   4.079   0.380 -0.1794  2.4657 -0.1699
  232MPD1     N 3528   2.027   4.267   0.391  0.5752 -0.0781  0.3235
  232MPD1    H5 3529   1.936   4.239   0.356  0.1877 -0.3150  1.5294
  232MPD1    N1 3530   2.083   3.802   0.281  0.1218 -0.4764 -0.3305
  232MPD1    H6 3531   1.992   3.779   0.320  0.4824 -2.5119 -0.6751
  232MPD1    H7 3532   2.143   3.722   0.301  0.8641 -0.2365 -1.5811
  233MPD1     C 3533   3.430   3.132   1.579 -0.4744  0.6247  0.0497
  233MPD1    C1 3534   3.428   3.023   1.675 -1.4516  0.3247  0.2748
  233MPD1    C2 3535   3.546   2.959   1.707  0.8010 -1.4724 -0.1507
  233MPD1    C3 3536   3.666   3.002   1.660 -0.1646  0.3074  0.1771
  233MPD1    C4 3537   3.669   3.104   1.562  0.0327  0.0694 -0.2764
  233MPD1    C5 3538   3.550   3.162   1.523  0.1487 -0.3456 -0.0833
  233MPD1     H 3539   3.545   2.881   1.782  0.7592 -0.1697  1.2015
  233MPD1    H1 3540   3.757   3.142   1.513 -0.0769 -0.8677 -1.1984
  233MPD1    H2 3541   3.344   3.194   1.553 -2.7759 -2.3086  0.6991
  233MPD1    H3 3542   3.550   3.247   1.456 -2.0328  1.1352  1.7443
  233MPD1     N 3543   3.784   2.947   1.700 -0.0331 -0.0979 -0.7078
  233MPD1    H5 3544   3.857   2.997   1.650 -0.7159 -0.0055 -1.6210
  233MPD1    N1 3545   3.308   2.972   1.723  0.1217 -0.2607 -0.1335
  233MPD1    H6 3546   3.221   3.020   1.701 -0.5796 -0.2883  2.6682
  233MPD1    H7 3547   3.306   2.950   1.822  0.9142  1.3917  0.2447
  234MPD1     C 3548   3.592   0.322   8.964  0.4930  0.0920  0.2479
  234MPD1    C1 3549   3.489   0.308   9.047  0.4358 -0.6026  0.8824
  234MPD1    C2 3550   3.484   0.399   9.155  0.4266 -0.6612  0.2715
  234MPD1    C3 3551   3.594   0.479   9.189  0.9226  0.0046  0.0398
  234MPD1    C4 3552   3.705   0.482   9.112 -0.0220 -0.4871 -0.1559
  234MPD1    C5 3553   3.698   0.396   9.003  0.0955 -0.7457 -0.1488
  234MPD1     H 3554   3.393   0.414   9.212 -0.0549  0.2569 -0.7520
  234MPD1    H1 3555   3.799   0.532   9.130  0.3052  0.0150 -3.2375
  234MPD1    H2 3556   3.583   0.294   8.859 -2.0822 -2.1418  1.0889
  234MPD1    H3 3557   3.781   0.397   8.933  0.5361 -0.2720  0.3773
  234MPD1     N 3558   3.578   0.561   9.301  0.5205 -0.2921  0.1475
  234MPD1    H5 3559   3.489   0.559   9.351  1.6214 -1.8493  2.0504
  234MPD1    N1 3560   3.376   0.237   9.014 -0.2607 -0.1832 -0.4063
  234MPD1    H6 3561   3.404   0.151   8.967 -0.2698  0.4682 -1.6062
  234MPD1    H7 3562   3.328   0.208   9.100 -0.9826 -1.4633 -1.2443
  235MPD1     C 3563   0.730   4.571  10.146 -0.7692  0.2114  0.2871
  235MPD1    C1 3564   0.646   4.467  10.160  0.0100 -0.8028  0.2393
  235MPD1    C2 3565   0.517   4.464  10.108  0.3090 -0.2208  0.4782
  235MPD1    C3 3566   0.473   4.569  10.026  0.2521 -0.4591  0.2762
  235MPD1    C4 3567   0.568   4.667   9.995 -0.2409  1.1507 -0.5325
  235MPD1    C5 3568   0.693   4.669  10.058 -1.0811 -0.2108  0.7664
  235MPD1     H 3569   0.452   4.382  10.137 -1.5361  0.3347 -2.0393
  235MPD1    H1 3570   0.545   0.022   9.925  1.0656 -0.1500 -2.4534
  235MPD1    H2 3571   0.826   4.574  10.196 -0.7224  1.6163  0.1146
  235MPD1    H3 3572   0.763   0.025  10.039 -0.7172 -0.8977 -0.8535
  235MPD1     N 3573   0.349   4.555   9.963  0.0708 -0.7470 -0.3440
  235MPD1    H5 3574   0.301   4.467   9.980  0.5595 -0.4980  2.3163
  235MPD1    N1 3575   0.678   4.362  10.245 -0.3940  0.0567 -0.1240
  235MPD1    H6 3576   0.621   4.285  10.212  0.6249 -0.0431 -1.6487
  235MPD1    H7 3577   0.773   4.325  10.238 -0.5827 -0.7597  1.6291
  236MPD1     C 3578   0.010   0.335   9.719  0.0266 -0.2720 -0.5078
  236MPD1    C1 3579   4.716   0.293   9.849 -0.3854 -0.3337 -0.6463
  236MPD1    C2 3580   0.096   0.292   9.937  0.1510 -0.3702  0.1816
  236MPD1    C3 3581   0.224   0.333   9.894  0.5510  0.4321 -0.4882
  236MPD1    C4 3582   0.241   0.372   9.764 -0.2968  0.1211 -0.0073
  236MPD1    C5 3583   0.134   0.363   9.674  0.2299 -0.5794 -0.0334
  236MPD1     H 3584   0.080   0.255  10.038 -0.4777 -1.2338 -0.2343
  236MPD1    H1 3585   0.337   0.410   9.731 -0.6418 -1.0438 -2.3263
  236MPD1    H2 3586   4.652   0.334   9.650 -0.3705 -0.4712 -0.0268
  236MPD1    H3 3587   0.161   0.382   9.571  1.3795  1.4205  0.6493
  236MPD1     N 3588   0.348   0.311   9.963  0.0623  0.5754 -0.8040
  236MPD1    H5 3589   0.430   0.343   9.913  1.2898 -0.4417  0.5716
  236MPD1    N1 3590   4.586   0.257   9.886 -0.8655 -0.1461 -0.6095
  236MPD1    H6 3591   4.515   0.284   9.819 -2.1360  1.8749  1.5718
  236MPD1    H7 3592   4.552   0.310   9.966  0.5157  0.6901 -0.5872
  237MPD1     C 3593   0.685   3.113  14.643  0.5683 -0.0653 -0.2604
  237MPD1    C1 3594   0.703   3.057  14.766  1.0118  0.0046  0.2805
  237MPD1    C2 3595   0.612   3.063  14.867 -0.0841  0.5665  0.0136
  237MPD1    C3 3596   0.502   3.146  14.852  0.1774 -0.2614 -0.1647
  237MPD1    C4 3597   0.491   3.213  14.735 -0.4197 -0.4172  0.1693
  237MPD1    C5 3598   0.580   3.203  14.634  0.3228 -0.4671 -0.0950
  237MPD1     H 3599   0.621   2.997  14.953 -3.6318  1.0765  0.7757
  237MPD1    H1 3600   0.403   3.274  14.719  1.3285  1.3258 -2.8419
  237MPD1    H2 3601   0.759   3.134  14.566 -0.4680 -0.8524 -1.4572
  237MPD1    H3 3602   0.570   3.278  14.556 -1.8075 -2.7774 -2.0573
  237MPD1     N 3603   0.399   3.166  14.943  0.1394  0.2770  0.5394
  237MPD1    H5 3604   0.331   3.236  14.915 -0.3196 -1.6747 -3.2663
  237MPD1    N1 3605   0.825   2.983  14.783 -0.3024 -0.3992  0.3981
  237MPD1    H6 3606   0.859   2.982  14.879  0.8431  0.2695 -0.0027
  237MPD1    H7 3607   0.902   2.996  14.717  0.8931  1.9160  2.2381
  238MPD1     C 3608   2.630   1.661  15.077  0.3753  0.1333 -0.0835
  238MPD1    C1 3609   2.658   1.778  15.013 -0.2330 -0.7332 -0.3932
  238MPD1    C2 3610   2.565   1.830  14.923  0.2319 -0.3328  0.3144
  238MPD1    C3 3611   2.436   1.777  14.912  0.6671  0.4249 -0.7226
  238MPD1    C4 3612   2.416   1.655  14.973  0.2061 -0.2666 -0.3011
  238MPD1    C5 3613   2.509   1.598  15.058 -0.2039 -1.0916 -0.5490
  238MPD1     H 3614   2.585   1.921  14.867  0.8977 -1.7350 -1.7359
  238MPD1    H1 3615   2.325   1.599  14.958 -0.4562  1.0484 -1.2915
  238MPD1    H2 3616   2.697   1.600  15.135  2.3530  0.0754 -2.4275
  238MPD1    H3 3617   2.486   1.499  15.093  1.2334 -1.0714  0.4592
  238MPD1     N 3618   2.344   1.830  14.823  0.8620  0.0300  0.5793
  238MPD1    H5 3619   2.277   1.760  14.792  1.1219 -0.4889  1.1737
  238MPD1    N1 3620   2.791   1.821  15.027 -0.3535 -0.4685  0.4205
  238MPD1    H6 3621   2.797   1.917  14.992 -0.2684 -0.8602 -0.6533
  238MPD1    H7 3622   2.836   1.817  15.118  0.4314 -2.3886 -0.0675
  239MPD1     C 3623   2.448   3.136  15.131 -0.3210  0.4571 -0.5776
  239MPD1    C1 3624   2.518   3.068  15.033  1.2686  1.1180  0.0678
  239MPD1    C2 3625   2.493   3.115  14.903  0.2175 -0.3336 -0.3877
  239MPD1    C3 3626   2.416   3.220  14.872  0.4672  0.9281  0.3596
  239MPD1    C4 3627   2.349   3.286  14.973  0.4797  0.5141  0.3296
  239MPD1    C5 3628   2.352   3.231  15.098  0.0670 -0.0017 -0.2505
  239MPD1     H 3629   2.555   3.073  14.824  1.2935  1.5302 -0.5325
  239MPD1    H1 3630   2.277   3.366  14.958 -0.7261 -0.4532  0.9647
  239MPD1    H2 3631   2.453   3.097  15.232  0.9869 -0.3980 -0.9692
  239MPD1    H3 3632   2.298   3.272  15.182 -0.3594 -1.5044  0.1906
  239MPD1     N 3633   2.402   3.274  14.743 -0.2845 -0.2594 -0.0178
  239MPD1    H5 3634   2.370   3.370  14.736 -0.4904 -0.2056  1.7168
  239MPD1    N1 3635   2.592   2.949  15.067  0.0577  0.1429 -0.2873
  239MPD1    H6 3636   2.666   2.935  14.998 -0.0590 -1.4795 -0.0976
  239MPD1    H7 3637   2.640   2.959  15.156  1.2218 -0.5722 -0.8308
  240MPD1     C 3638   1.686   2.766  13.986  0.1481  0.1376 -0.6459
  240MPD1    C1 3639   1.663   2.630  13.981  0.0078  0.7167 -1.0177
  240MPD1    C2 3640   1.663   2.567  14.101 -0.1922  0.0312 -0.6840
  240MPD1    C3 3641   1.696   2.622  14.222  0.0376 -0.5450  0.1016
  240MPD1    C4 3642   1.743   2.746  14.216  0.0835 -0.0886  0.7457
  240MPD1    C5 3643   1.734   2.818  14.103 -1.1230  0.0127 -0.0010
  240MPD1     H 3644   1.631   2.463  14.106 -0.0462  0.0415  0.5492
  240MPD1    H1 3645   1.765   2.792  14.311  1.4424  1.2165 -0.2115
  240MPD1    H2 3646   1.668   2.826  13.897  0.4262  0.7887 -0.2592
  240MPD1    H3 3647   1.745   2.925  14.117 -0.0188 -0.1827  0.5521
  240MPD1     N 3648   1.695   2.552  14.347  0.1038 -0.5386  0.3353
  240MPD1    H5 3649   1.649   2.462  14.343  1.2667 -1.0031 -2.7054
  240MPD1    N1 3650   1.598   2.567  13.870 -0.2407 -0.0106 -0.0556
  240MPD1    H6 3651   1.611   2.467  13.863  1.1933  0.0382  1.7521
  240MPD1    H7 3652   1.592   2.616  13.781  1.3676  0.1400 -0.0802
  241MPD1     C 3653   1.733   2.800  15.320 -0.5867 -0.4179 -0.4716
  241MPD1    C1 3654   1.664   2.682  15.310 -0.8551 -0.2828  0.5092
  241MPD1    C2 3655   1.679   2.607  15.194  0.2322 -0.4017  0.8308
  241MPD1    C3 3656   1.751   2.652  15.081  0.1229  0.6864  0.0654
  241MPD1    C4 3657   1.821   2.766  15.093 -0.9269 -0.5183 -0.4698
  241MPD1    C5 3658   1.811   2.837  15.206  0.2444  0.0040 -0.3727
  241MPD1     H 3659   1.621   2.518  15.173  0.2740 -0.4354  0.8585
  241MPD1    H1 3660   1.885   2.798  15.011 -0.5840 -0.8697 -0.3395
  241MPD1    H2 3661   1.736   2.859  15.410  0.6118 -1.5735  0.2469
  241MPD1    H3 3662   1.869   2.927  15.221  1.2660 -0.5075 -1.2265
  241MPD1     N 3663   1.759   2.575  14.962  0.1557 -0.1562  0.2064
  241MPD1    H5 3664   1.807   2.623  14.887  0.4254  2.2260  1.8946
  241MPD1    N1 3665   1.576   2.643  15.412 -0.2965 -0.1848 -0.1873
  241MPD1    H6 3666   1.586   2.709  15.490  0.9175 -2.4898  1.6021
  241MPD1    H7 3667   1.604   2.550  15.442  0.6489 -0.0887 -0.7742
  242MPD1     C 3668   1.491   0.454  16.110 -0.2475  0.4095 -0.0060
  242MPD1    C1 3669   1.432   0.444  15.988  0.3166 -0.5550  0.8058
  242MPD1    C2 3670   1.464   0.525  15.884 -0.3320  0.0212 -0.0073
  242MPD1    C3 3671   1.555   0.627  15.904  0.6950 -0.0200  0.4928
  242MPD1    C4 3672   1.621   0.640  16.033 -0.4808 -0.1439 -0.1983
  242MPD1    C5 3673   1.594   0.550  16.133  0.3401  0.3107  0.1041
  242MPD1     H 3674   1.401   0.527  15.796  0.4881 -2.4603 -0.6334
  242MPD1    H1 3675   1.690   0.721  16.052 -0.6801 -0.4600  1.8655
  242MPD1    H2 3676   1.456   0.392  16.192  0.0475 -0.1482 -0.2980
  242MPD1    H3 3677   1.641   0.571  16.228  2.0789  2.0736 -1.1633
  242MPD1     N 3678   1.590   0.719  15.805  0.5338  0.1014 -0.9309
  242MPD1    H5 3679   1.649   0.797  15.834  0.3867 -0.4467  0.8584
  242MPD1    N1 3680   1.310   0.371  15.987 -0.3292 -0.0000  0.4092
  242MPD1    H6 3681   1.301   0.320  15.900  0.4106 -0.8590  0.8291
  242MPD1    H7 3682   1.310   0.307  16.066 -0.3578  0.3567  0.6979
  243MPD1     C 3683   2.472   0.257   0.428  0.0020  0.7567  0.2111
  243MPD1    C1 3684   2.365   0.197   0.353  0.1427  0.4899  0.5156
  243MPD1    C2 3685   2.382   0.070   0.300 -0.1326  0.1229 -1.1715
  243MPD1    C3 3686   2.488   4.722   0.337  0.1545 -0.0590 -0.1744
  243MPD1    C4 3687   2.586   0.050   0.421 -0.7217  0.4170  0.4723
  243MPD1    C5 3688   2.575   0.175   0.466 -0.7979 -0.2436 -0.8312
  243MPD1     H 3689   2.304   0.023   0.242  0.6943 -1.3375 -1.1111
  243MPD1    H1 3690   2.676   4.717   0.440 -0.3232  1.1647  0.8660
  243MPD1    H2 3691   2.478   0.357   0.468 -0.6221  0.9685 -0.2182
  243MPD1    H3 3692   2.657   0.213   0.526 -1.5018 -1.5982  1.0175
  243MPD1     N 3693   2.492   4.600   0.273  0.6216 -0.2589 -0.7327
  243MPD1    H5 3694   2.409   4.569   0.223  1.0170 -2.3515 -0.1069
  243MPD1    N1 3695   2.254   0.279   0.320 -0.7098 -0.0560  0.0783
  243MPD1    H6 3696   2.223   0.346   0.391 -2.9982  0.2019 -1.1767
  243MPD1    H7 3697   2.175   0.224   0.289  0.6280 -2.8369  1.5332
  244MPD1     C 3698   1.818   4.263  17.694  0.0307 -0.1428  0.2342
  244MPD1    C1 3699   1.873   4.379   0.045 -0.6813  1.2274  0.1391
  244MPD1    C2 3700   2.008   4.395   0.063  0.0333  0.3089  0.1411
  244MPD1    C3 3701   2.090   4.285   0.043  0.3631 -0.3555  0.0216
  244MPD1    C4 3702   2.038   4.161   0.012  0.5747 -0.0604 -0.5580
  244MPD1    C5 3703   1.902   4.153  17.683  0.4403 -0.1837 -0.1623
  244MPD1     H 3704   2.055   4.487   0.096  0.1961  0.1645  0.3101
  244MPD1    H1 3705   2.094   4.068   0.009  1.3519  0.4467 -1.9358
  244MPD1    H2 3706   1.713   4.252  17.669  0.0940 -0.6286  0.1737
  244MPD1    H3 3707   1.867   4.051  17.672 -1.6667  0.3180  2.0411
  244MPD1     N 3708   2.229   4.305   0.055 -0.3611 -0.7263 -0.0466
  244MPD1    H5 3709   2.258   4.398   0.084 -0.4831 -0.6650 -0.1186
  244MPD1    N1 3710   1.787   4.492   0.051  0.5520 -0.0286 -0.3037
  244MPD1    H6 3711   1.803   4.562   0.122 -0.3556  0.6387 -0.7579
  244MPD1    H7 3712   1.697   4.450   0.075  0.8695 -0.5844 -0.0901
  245MPD1     C 3713   4.498   0.007  13.537  0.2358 -0.6352  0.0433
  245MPD1    C1 3714   4.512   0.110  13.625  0.6766  0.9743  0.0136
  245MPD1    C2 3715   4.631   0.174  13.632  0.0258  0.3739  0.2167
  245MPD1    C3 3716   0.016   0.113  13.572  0.0258 -0.0305  0.2660
  245MPD1    C4 3717   0.003   0.002  13.489  0.6741 -0.4630 -0.1220
  245MPD1    C5 3718   4.605   4.677  13.469  0.8366 -0.2393  0.1502
  245MPD1     H 3719   4.636   0.259  13.699  0.9013 -0.2323  0.9178
  245MPD1    H1 3720   0.082   4.684  13.428  1.8486  0.8666  0.4667
  245MPD1    H2 3721   4.398   4.695  13.518  0.5742 -0.6414 -1.6471
  245MPD1    H3 3722   4.582   4.602  13.394 -0.5834  0.9331 -0.6043
  245MPD1     N 3723   0.143   0.167  13.587 -0.0831  0.0804 -0.0683
  245MPD1    H5 3724   0.143   0.257  13.634 -0.3847  0.2251 -0.3440
  245MPD1    N1 3725   4.400   0.164  13.697  0.1664 -0.2429 -0.1584
  245MPD1    H6 3726   4.427   0.226  13.774  0.5053  0.3667 -0.7678
  245MPD1    H7 3727   4.343   0.089  13.735 -0.9297  0.6930  0.0195
  246MPD1     C 3728   1.369   2.111   8.681 -0.1819 -0.0009 -0.3906
  246MPD1    C1 3729   1.411   2.052   8.564 -0.0852  0.9564  0.3250
  246MPD1    C2 3730   1.360   1.930   8.524 -0.1410  0.9189  0.4147
  246MPD1    C3 3731   1.278   1.864   8.613  0.5712 -0.8917  0.4405
  246MPD1    C4 3732   1.237   1.925   8.734 -0.4134 -0.4768  0.1681
  246MPD1    C5 3733   1.278   2.052   8.766 -0.3289  0.0933  0.1548
  246MPD1     H 3734   1.391   1.891   8.428  1.0572  1.6724  0.5067
  246MPD1    H1 3735   1.157   1.884   8.794  0.4696 -0.5512  1.3074
  246MPD1    H2 3736   1.409   2.211   8.688 -0.7675  0.1769  0.3791
  246MPD1    H3 3737   1.250   2.108   8.854 -0.9235 -0.1796  0.1431
  246MPD1     N 3738   1.234   1.735   8.578  0.0948 -0.3915  0.3099
  246MPD1    H5 3739   1.276   1.698   8.494 -0.0446 -0.0278  0.0792
  246MPD1    N1 3740   1.481   2.126   8.465  0.0447  0.2357 -0.3184
  246MPD1    H6 3741   1.543   2.066   8.411  1.9866 -0.6751  2.9488
  246MPD1    H7 3742   1.523   2.208   8.508  0.2856  0.4198 -0.9126
  247MPD1     C 3743   4.454   3.823  15.634 -0.3802 -0.2109 -0.3888
  247MPD1    C1 3744   4.522   3.820  15.751 -0.0751  0.5810 -0.1364
  247MPD1    C2 3745   4.656   3.839  15.753 -0.1012 -0.1285  0.5339
  247MPD1    C3 3746   0.002   3.844  15.635 -0.4295  0.3543 -0.4777
  247MPD1    C4 3747   4.663   3.843  15.513 -0.5177  1.1621  0.0034
  247MPD1    C5 3748   4.522   3.839  15.520  0.2425 -0.2109 -0.1630
  247MPD1     H 3749   4.700   3.861  15.849  0.5941 -1.3637  0.5047
  247MPD1    H1 3750   4.713   3.851  15.417  2.1158 -2.3436  1.0928
  247MPD1    H2 3751   4.346   3.822  15.637 -0.3795  0.4625  0.1382
  247MPD1    H3 3752   4.471   3.865  15.428 -0.5856 -0.1350  0.3201
  247MPD1     N 3753   0.137   3.877  15.628 -0.1189 -0.3465  0.2729
  247MPD1    H5 3754   0.174   3.911  15.540 -1.1465  0.3901  0.1291
  247MPD1    N1 3755   4.443   3.824  15.871 -0.2939 -0.4582 -0.6663
  247MPD1    H6 3756   4.356   3.773  15.875  0.4369 -1.6044  0.4871
  247MPD1    H7 3757   4.508   3.802  15.946  0.1125  0.3033 -0.7899
  248MPD1     C 3758   1.009   0.128  17.063 -0.2432 -0.2205 -0.3264
  248MPD1    C1 3759   1.007   0.262  17.105  0.0363 -0.0612  0.4302
  248MPD1    C2 3760   1.000   0.286  17.243  0.0021  0.2927  0.2530
  248MPD1    C3 3761   0.985   0.185  17.338  0.4829 -0.4662  0.1438
  248MPD1    C4 3762   0.973   0.060  17.291 -1.2482  0.4018 -0.7943
  248MPD1    C5 3763   0.990   0.031  17.158  0.4663  0.3343  0.0648
  248MPD1     H 3764   1.010   0.390  17.274  0.4768  0.3073  0.0546
  248MPD1    H1 3765   0.973   4.706  17.366  0.7989  0.8101 -0.3597
  248MPD1    H2 3766   1.031   0.101  16.961 -0.3373  1.4774 -0.7878
  248MPD1    H3 3767   0.988   4.654  17.121 -1.4658 -0.2138  1.6822
  248MPD1     N 3768   0.976   0.231  17.477 -0.1743 -0.2486  0.6574
  248MPD1    H5 3769   0.999   0.328  17.494  0.8468 -0.4574  0.4954
  248MPD1    N1 3770   1.061   0.359  17.020  0.0244 -0.0489  0.6072
  248MPD1    H6 3771   1.037   0.457  17.037 -0.6242 -0.3085  1.1997
  248MPD1    H7 3772   1.014   0.351  16.930 -1.7156 -0.5059  1.5587
  249MPD1     C 3773   1.311   3.403   9.625 -0.3804 -0.2671 -0.0827
  249MPD1    C1 3774   1.176   3.388   9.657  0.1577  0.3227  0.0249
  249MPD1    C2 3775   1.139   3.276   9.738 -0.4428 -1.0043  0.2568
  249MPD1    C3 3776   1.236   3.195   9.801  0.1032 -0.0907  0.5939
  249MPD1    C4 3777   1.366   3.224   9.787 -0.0554  0.5866 -0.1125
  249MPD1    C5 3778   1.397   3.318   9.693 -0.1463 -0.6439 -0.3330
  249MPD1     H 3779   1.036   3.251   9.757 -0.1624 -0.5735  2.3634
  249MPD1    H1 3780   1.445   3.156   9.816  0.2404  0.7039 -0.6391
  249MPD1    H2 3781   1.350   3.463   9.544  1.4389  0.1989  1.1329
  249MPD1    H3 3782   1.500   3.327   9.659  0.3563  0.5871  1.4898
  249MPD1     N 3783   1.192   3.083   9.880 -0.1550 -0.8104  0.2477
  249MPD1    H5 3784   1.094   3.060   9.894 -0.8452  0.8120 -1.9902
  249MPD1    N1 3785   1.082   3.454   9.581 -0.3433  0.0703  0.3622
  249MPD1    H6 3786   1.106   3.550   9.555 -0.0405 -0.3539 -0.8917
  249MPD1    H7 3787   0.988   3.450   9.619 -0.5952 -0.8575 -0.3762
  250MPD2     C 3788   2.757   3.895  13.370  0.8389  0.2799  0.9112
  250MPD2    C1 3789   2.718   3.926  13.238  0.0599  0.2203 -0.8112
  250MPD2    C2 3790   2.658   3.827  13.162 -0.4818  0.3271  0.0495
  250MPD2    C3 3791   2.642   3.695  13.212  0.2225 -0.3481 -0.0759
  250MPD2    C4 3792   2.687   3.666  13.342 -0.3524  0.1891 -0.0930
  250MPD2    C5 3793   2.731   3.771  13.421  0.0478  0.3200 -0.0445
  250MPD2     H 3794   2.608   3.843  13.067 -3.0907 -0.1165  1.3449
  250MPD2    H1 3795   2.668   3.572  13.393 -0.3399  0.1147 -0.2271
  250MPD2    H2 3796   2.799   3.969  13.437 -0.2733 -1.1342  3.1668
  250MPD2    H3 3797   2.754   3.754  13.526 -1.4333 -1.2706  0.0194
  250MPD2     N 3798   2.602   3.587  13.138  0.3989 -0.4472 -0.3993
  250MPD2    H5 3799   2.606   3.496  13.183 -0.1239 -1.7470 -3.0298
  250MPD2    N1 3800   2.750   4.057  13.182  0.1496 -0.0183  0.6401
  250MPD2    H7 3801   2.785   4.125  13.249 -0.6226  1.1083 -0.1017
  251TMC3    C1 3802   2.848   4.193  13.026  0.7465 -0.9056  0.4195
  251TMC3    C2 3803   2.887   4.272  13.129  0.2691  0.0139 -0.4681
  251TMC3    C3 3804   3.014   4.317  13.135  0.6331 -0.1562 -0.0011
  251TMC3    C4 3805   2.942   4.166  12.930  0.0878  0.4546  0.4982
  251TMC3    C5 3806   3.073   4.206  12.941  0.0706  0.2745  0.5215
  251TMC3    C6 3807   3.111   4.282  13.046 -0.8846 -0.3439  0.0875
  251TMC3     C 3808   2.752   4.089  13.046 -0.4767  0.1650 -0.4969
  251TMC3     O 3809   2.716   4.019  12.953  0.0271  0.3907  0.5498
  251TMC3     H 3810   2.820   4.292  13.212  1.4208 -0.8632  0.6720
  251TMC3    H1 3811   2.917   4.092  12.856 -0.8013  0.2751  0.9831
  251TMC3    H2 3812   3.209   4.328  13.043 -1.1865  0.3158  0.2859
  251TMC3    C7 3813   3.184   4.122  12.884 -0.0117 -0.4396 -0.0378
  251TMC3    C8 3814   3.054   4.421  13.230  0.0078 -0.7239 -0.1525
  251TMC3    O1 3815   3.297   4.166  12.892  0.1479 -0.4046  0.0480
  251TMC3    O2 3816   2.963   4.496  13.266 -0.4505 -0.1781 -0.1897
  252TMC3    C1 3817   4.159   3.793   9.481 -0.2216 -0.6765 -0.1865
  252TMC3    C2 3818   4.226   3.904   9.496 -0.2194  0.3154 -0.0072
  252TMC3    C3 3819   4.161   4.013   9.540  0.1286  0.2400  0.5969
  252TMC3    C4 3820   4.024   3.784   9.500  0.0447 -0.0650  0.6151
  252TMC3    C5 3821   3.958   3.896   9.544  0.0765 -0.1678  0.1931
  252TMC3    C6 3822   4.019   4.022   9.566 -0.1707  0.5669  0.5607
  252TMC3     C 3823   4.223   3.668   9.463 -0.0353  0.5388 -0.5081
  252TMC3     O 3824   4.153   3.589   9.397 -0.1026 -0.0979  0.0213
  252TMC3     H 3825   4.332   3.913   9.476  0.2652 -1.6719  1.5889
  252TMC3    H1 3826   3.962   3.697   9.481 -1.1476  0.5817  1.5639
  252TMC3    H2 3827   3.967   4.115   9.587  0.0069  1.1636 -1.5534
  252TMC3    C7 3828   3.831   3.884   9.613  0.0906  0.3105  0.7366
  252TMC3    C8 3829   4.240   4.131   9.557  0.4052 -0.2597  0.2125
  252TMC3    O1 3830   3.798   3.965   9.698  0.4591  0.3233 -0.5621
  252TMC3    O2 3831   4.342   4.139   9.490 -0.4437 -0.4341  0.1299
  253MPD2     C 3832   0.098   3.737  15.104  1.0327  0.0158 -0.0954
  253MPD2    C1 3833   4.692   3.713  15.128 -0.7974 -0.3773  0.7633
  253MPD2    C2 3834   4.657   3.630  15.231  0.1214  0.0028 -1.3590
  253MPD2    C3 3835   0.019   3.581  15.327 -0.3514 -0.3152  0.9204
  253MPD2    C4 3836   0.152   3.629  15.313  1.0617  0.8284 -0.3158
  253MPD2    C5 3837   0.190   3.692  15.196  0.3268 -0.0487  0.2952
  253MPD2     H 3838   4.552   3.602  15.231  0.4731 -1.2465  1.8353
  253MPD2    H1 3839   0.233   3.595  15.376 -0.6902 -4.5412 -0.9378
  253MPD2    H2 3840   0.139   3.798  15.025  0.5089  0.8295  0.2661
  253MPD2    H3 3841   0.291   3.724  15.177 -0.0651  0.5775 -0.7013
  253MPD2     N 3842   4.710   3.503  15.446 -0.7126 -0.3737  0.2949
  253MPD2    H5 3843   0.057   3.506  15.517 -0.4770 -3.8930  0.2323
  253MPD2    N1 3844   4.588   3.747  15.038  0.2854  0.4687 -0.1779
  253MPD2    H7 3845   4.493   3.713  15.046  0.3269  0.3901 -0.0226
  254TMC3    C1 3846   4.562   3.441  15.619  0.1330 -0.8820 -0.5386
  254TMC3    C2 3847   4.425   3.444  15.652  0.0862  0.5702  0.5292
  254TMC3    C3 3848   4.399   3.451  15.790 -0.3203  0.1703  0.6728
  254TMC3    C4 3849   4.659   3.429  15.717  0.3044 -0.0776 -0.0163
  254TMC3    C5 3850   4.617   3.427  15.848 -0.4996 -0.6626 -0.1360
  254TMC3    C6 3851   4.489   3.436  15.891  0.0897 -0.6566 -0.8279
  254TMC3     C 3852   4.588   3.452  15.475 -0.2014 -0.2864  0.0390
  254TMC3     O 3853   4.494   3.434  15.401 -0.3888  0.5252 -0.0578
  254TMC3     H 3854   4.352   3.478  15.580  0.1757 -0.2459  0.0487
  254TMC3    H1 3855   0.035   3.413  15.683  0.0270  0.8000 -1.2879
  254TMC3    H2 3856   4.466   3.445  15.997 -0.4675  0.7597 -1.0689
  254TMC3    C7 3857   4.716   3.409  15.948 -0.2715 -0.6853 -0.4922
  254TMC3    C8 3858   4.266   3.487  15.823 -0.1038  0.1690  0.4187
  254TMC3    O1 3859   4.666   3.369  16.055  0.2924 -0.2110  0.2663
  254TMC3    O2 3860   4.188   3.506  15.732 -0.0322 -0.1840 -0.2912
  255MPD2     C 3861   2.006   1.282   9.757 -0.0181 -0.3823 -0.2933
  255MPD2    C1 3862   2.067   1.408   9.777 -0.2696 -0.2166 -0.2898
  255MPD2    C2 3863   2.186   1.412   9.855  0.0520  0.1140 -0.4202
  255MPD2    C3 3864   2.241   1.295   9.905 -0.1434 -0.1878  0.3460
  255MPD2    C4 3865   2.180   1.174   9.881  0.2851 -0.4088  0.1796
  255MPD2    C5 3866   2.068   1.167   9.806 -0.4061 -0.0123 -0.0027
  255MPD2     H 3867   2.235   1.505   9.882  1.3634 -1.1568  1.5806
  255MPD2    H1 3868   2.215   1.078   9.916 -1.8511 -1.8875 -1.7077
  255MPD2    H2 3869   1.912   1.271   9.705 -0.7791 -0.9561  1.1940
  255MPD2    H3 3870   2.028   1.070   9.781  0.7087 -0.5586  0.3654
  255MPD2     N 3871   2.357   1.303   9.984  0.1404 -0.5876  0.0114
  255MPD2    H5 3872   2.404   1.392   9.996 -1.8065  0.2338  1.4216
  255MPD2    N1 3873   2.001   1.521   9.727  0.0302 -0.2919 -1.0808
  255MPD2    H7 3874   1.910   1.492   9.692 -0.8317  0.2646  0.6829
  256TMC3    C1 3875   1.928   1.746   9.693  0.0038 -0.1909 -0.2305
  256TMC3    C2 3876   1.964   1.837   9.593 -0.0547  0.4846 -0.4591
  256TMC3    C3 3877   1.892   1.844   9.476  0.3136 -0.5470 -0.2815
  256TMC3    C4 3878   1.813   1.679   9.680  0.4075  0.1748  0.1415
  256TMC3    C5 3879   1.748   1.678   9.562 -0.0382  0.2794 -0.7850
  256TMC3    C6 3880   1.791   1.756   9.455 -0.0037  0.4451  0.7865
  256TMC3     C 3881   2.038   1.655   9.733  0.1379 -0.1164 -0.6318
  256TMC3     O 3882   2.142   1.704   9.771  0.0197 -0.1130 -0.0363
  256TMC3     H 3883   2.054   1.895   9.612  1.3940 -2.2920  1.1069
  256TMC3    H1 3884   1.775   1.621   9.764  2.2178 -2.7968 -1.0728
  256TMC3    H2 3885   1.730   1.763   9.365  0.6617 -0.1430  0.2861
  256TMC3    C7 3886   1.705   1.542   9.538 -0.2437  0.8042 -0.2363
  256TMC3    C8 3887   1.934   1.934   9.370 -0.3503 -0.3267  0.4532
  256TMC3    O1 3888   1.761   1.458   9.610 -0.1192 -0.1586 -0.3595
  256TMC3    O2 3889   1.873   1.954   9.267 -0.5487  0.9152  0.0553
  257MPD2     C 3890   1.889   3.946  13.198  0.3794  0.3920  0.2813
  257MPD2    C1 3891   1.872   3.842  13.110 -0.2563  0.1863 -0.0959
  257MPD2    C2 3892   1.899   3.716  13.157 -0.3618  0.8279 -1.2579
  257MPD2    C3 3893   1.940   3.692  13.285 -0.7613 -0.1885 -0.2906
  257MPD2    C4 3894   1.976   3.803  13.359  0.1250  0.3855  0.5188
  257MPD2    C5 3895   1.945   3.929  13.321 -0.4014 -0.3292  0.6457
  257MPD2     H 3896   1.871   3.632  13.095  2.2726 -0.5194 -0.6207
  257MPD2    H1 3897   2.029   3.802  13.453  1.9797  0.4272 -0.5199
  257MPD2    H2 3898   1.863   4.045  13.165 -1.2159  0.3411  1.4222
  257MPD2    H3 3899   1.965   4.018  13.379 -0.6792  0.3876 -0.3705
  257MPD2     N 3900   1.964   3.560  13.334 -0.0848  0.0216 -0.0699
  257MPD2    H5 3901   1.951   3.481  13.273 -0.0373  0.2020 -0.3152
  257MPD2    N1 3902   1.825   3.867  12.979 -0.2872 -0.0607 -0.2629
  257MPD2    H7 3903   1.821   3.961  12.941 -2.1046 -0.9679 -2.3082
  258TMC3    C1 3904   2.029   3.388  13.484  0.0520 -0.0561  0.0161
  258TMC3    C2 3905   2.133   3.344  13.397  0.2171 -0.4629  0.3257
  258TMC3    C3 3906   2.209   3.232  13.437 -0.3699 -0.5839  0.3163
  258TMC3    C4 3907   2.029   3.327  13.610  0.3705 -0.1635  0.4160
  258TMC3    C5 3908   2.112   3.220  13.643 -0.6677 -0.1197  0.4224
  258TMC3    C6 3909   2.195   3.164  13.550  0.3969 -0.4236  0.2352
  258TMC3     C 3910   1.985   3.524  13.467  0.2061  0.1527 -0.3072
  258TMC3     O 3911   1.964   3.597  13.561 -0.1128 -0.0462  0.5237
  258TMC3     H 3912   2.146   3.400  13.305 -0.1967 -0.4752  0.2584
  258TMC3    H1 3913   1.967   3.375  13.685  0.4738 -0.4331  0.6729
  258TMC3    H2 3914   2.264   3.083  13.572  1.7764  1.0649  1.3454
  258TMC3    C7 3915   2.090   3.137  13.754 -0.4233  0.5650  0.3056
  258TMC3    C8 3916   2.299   3.177  13.344  0.0896  0.0792 -0.1056
  258TMC3    O1 3917   1.976   3.113  13.782 -0.7902 -0.2841 -0.0205
  258TMC3    O2 3918   2.409   3.132  13.372 -0.0888  0.3470 -0.2621
  259MPD2     C 3919   1.561   0.857   1.277  0.1066 -0.6043  0.3773
  259MPD2    C1 3920   1.580   0.728   1.249 -0.4705  0.2398 -0.1695
  259MPD2    C2 3921   1.546   0.687   1.121  0.7476  0.3727 -0.6558
  259MPD2    C3 3922   1.494   0.776   1.026 -0.1731 -0.0965  0.0664
  259MPD2    C4 3923   1.466   0.906   1.061 -0.0203  0.0308 -0.2718
  259MPD2    C5 3924   1.510   0.947   1.188  0.4771 -0.4890  0.2297
  259MPD2     H 3925   1.561   0.586   1.083 -0.6952 -0.1153  0.0845
  259MPD2    H1 3926   1.426   0.975   0.988 -2.8385  0.6290  1.7975
  259MPD2    H2 3927   1.591   0.897   1.373 -0.1742  0.2112  0.1215
  259MPD2    H3 3928   1.505   1.053   1.207  1.2313  0.0958 -2.8335
  259MPD2     N 3929   1.455   0.723   0.896  0.2781 -0.7254 -0.2380
  259MPD2    H5 3930   1.469   0.625   0.872 -1.1519 -0.7368 -0.9807
  259MPD2    N1 3931   1.646   0.645   1.338  0.6333 -0.3651  0.3186
  259MPD2    H7 3932   1.685   0.699   1.415  4.5787  0.0739 -1.9653
  260TMC3    C1 3933   1.370   0.720   0.677  0.1413 -0.7610 -0.2679
  260TMC3    C2 3934   1.400   0.753   0.546  0.6265  0.4349 -1.4109
  260TMC3    C3 3935   1.354   0.669   0.442  0.4191  0.2276 -0.0670
  260TMC3    C4 3936   1.299   0.603   0.705  0.2992 -0.6245 -0.3890
  260TMC3    C5 3937   1.256   0.528   0.591  0.7490 -0.2293 -0.2296
  260TMC3    C6 3938   1.286   0.555   0.464  0.0132 -0.0768  0.8485
  260TMC3     C 3939   1.421   0.797   0.786 -0.7699  0.4786 -0.1532
  260TMC3     O 3940   1.444   0.915   0.761 -0.0371  0.0750 -0.1714
  260TMC3     H 3941   1.476   0.828   0.528  1.4680 -0.2000 -0.5031
  260TMC3    H1 3942   1.282   0.564   0.805  2.5215 -0.2345  0.1444
  260TMC3    H2 3943   1.246   0.499   0.380 -0.6522  0.7426  0.6257
  260TMC3    C7 3944   1.276   0.388   0.610 -0.1143  0.2559 -0.3215
  260TMC3    C8 3945   1.453   0.668   0.338 -0.5046  0.1230 -0.6041
  260TMC3    O1 3946   1.320   0.327   0.516 -0.0430  0.2749 -0.0614
  260TMC3    O2 3947   1.500   0.774   0.294 -0.2115  0.3637  0.0510
  261MPD2     C 3948   2.227   3.521  12.398  0.2358 -1.5004 -0.8133
  261MPD2    C1 3949   2.328   3.589  12.457 -0.4965 -0.1390 -0.2602
  261MPD2    C2 3950   2.359   3.712  12.411 -0.5718  0.5609  0.1855
  261MPD2    C3 3951   2.297   3.771  12.310 -0.1934  0.8334 -0.4206
  261MPD2    C4 3952   2.196   3.702  12.239 -0.2100 -0.2439  0.4132
  261MPD2    C5 3953   2.155   3.582  12.295  0.2445  0.0519 -0.5619
  261MPD2     H 3954   2.442   3.769  12.452 -0.8190  0.8138  0.3341
  261MPD2    H1 3955   2.139   3.741  12.156 -1.8728 -1.4747  0.9733
  261MPD2    H2 3956   2.204   3.420  12.429 -1.2663 -0.6248  0.9821
  261MPD2    H3 3957   2.071   3.525  12.257 -1.1327 -0.3178  3.0622
  261MPD2     N 3958   2.321   3.905  12.284 -0.0167 -0.4548 -0.2130
  261MPD2    H5 3959   2.387   3.949  12.346 -2.8008  2.6276  0.5597
  261MPD2    N1 3960   2.403   3.544  12.568 -0.3547 -0.2569 -0.1957
  261MPD2    H7 3961   2.466   3.608  12.616 -1.6658 -0.2557  1.5327
  262TMC3    C1 3962   2.329   4.111  12.183  0.6982 -0.3428 -0.7187
  262TMC3    C2 3963   2.250   4.212  12.129  0.4448 -0.0777 -0.3522
  262TMC3    C3 3964   2.306   4.276  12.019  0.3638  0.4197 -0.1654
  262TMC3    C4 3965   2.450   4.078  12.122  0.7099 -0.5112  0.5447
  262TMC3    C5 3966   2.492   4.152  12.016  0.0411 -0.3798 -0.7763
  262TMC3    C6 3967   2.423   4.249  11.962  0.7694  0.5651 -0.0068
  262TMC3     C 3968   2.260   3.985  12.196 -0.0176 -0.5626  0.1222
  262TMC3     O 3969   2.158   3.974  12.131  0.5298  0.3935  0.0169
  262TMC3     H 3970   2.152   4.231  12.174  0.0219  0.0095 -1.3216
  262TMC3    H1 3971   2.508   3.993  12.157 -0.5093  0.0386  3.9341
  262TMC3    H2 3972   2.444   4.291  11.864  0.5976 -0.8732 -0.6499
  262TMC3    C7 3973   2.590   4.100  11.926 -0.1973  0.1259 -0.3459
  262TMC3    C8 3974   2.243   4.394  11.963  0.2060 -0.3860  0.4061
  262TMC3    O1 3975   2.705   4.084  11.962  0.0221 -0.0665 -0.0769
  262TMC3    O2 3976   2.292   4.432  11.855  0.2631  0.2037  0.1297
  263MPD2     C 3977   3.183   2.732  10.923 -0.2219 -0.5204  0.4084
  263MPD2    C1 3978   3.264   2.826  10.996 -0.3827 -0.3124  0.0075
  263MPD2    C2 3979   3.287   2.945  10.936  0.3911 -0.3131  0.1693
  263MPD2    C3 3980   3.242   2.982  10.812 -0.6923  0.0627  0.0781
  263MPD2    C4 3981   3.164   2.885  10.742 -0.1046  0.8978  0.1714
  263MPD2    C5 3982   3.132   2.763  10.800 -0.1305 -0.0683 -0.3812
  263MPD2     H 3983   3.347   3.023  10.982 -1.1582 -0.1360  1.8885
  263MPD2    H1 3984   3.125   2.910  10.644  1.1491  0.4215 -0.4587
  263MPD2    H2 3985   3.160   2.637  10.969 -2.3869  0.6773  1.8135
  263MPD2    H3 3986   3.072   2.691  10.747  0.9045  0.0299 -1.6878
  263MPD2     N 3987   3.270   3.106  10.758  0.3130  0.0687  0.1838
  263MPD2    H5 3988   3.309   3.184  10.810 -1.8646  0.7872  0.7325
  263MPD2    N1 3989   3.343   2.795  11.109  0.5972 -0.0818 -0.5538
  263MPD2    H7 3990   3.370   2.699  11.129  1.4707  0.2299 -0.2570
  264TMC3    C1 3991   3.345   3.258  10.581 -0.1714 -0.4993  0.7098
  264TMC3    C2 3992   3.320   3.358  10.667  0.3475  0.2887  0.2757
  264TMC3    C3 3993   3.332   3.483  10.613 -1.0752 -0.7526 -1.0466
  264TMC3    C4 3994   3.394   3.280  10.449 -0.4276 -0.1704  0.1659
  264TMC3    C5 3995   3.405   3.404  10.403 -0.1377 -0.5990  1.2248
  264TMC3    C6 3996   3.365   3.500  10.483 -0.0320  0.1353  0.7923
  264TMC3     C 3997   3.294   3.118  10.620 -0.2282  0.3417 -0.8438
  264TMC3     O 3998   3.283   3.034  10.528 -0.7012  0.1016  0.2695
  264TMC3     H 3999   3.281   3.346  10.767 -1.6529  0.7273 -0.4578
  264TMC3    H1 4000   3.425   3.201  10.380  2.4980  0.0045  1.2845
  264TMC3    H2 4001   3.368   3.604  10.450  0.3845 -0.0057  0.3913
  264TMC3    C7 4002   3.541   3.435  10.348 -0.3191 -0.1896 -0.6947
  264TMC3    C8 4003   3.383   3.590  10.706 -0.2033  0.5591 -0.1914
  264TMC3    O1 4004   3.591   3.353  10.276 -0.6564  0.0398 -0.0091
  264TMC3    O2 4005   3.475   3.652  10.656  0.3356 -0.3943 -0.2276
  265MPD2     C 4006   1.138   2.893  15.675  0.3345  0.8079  0.1073
  265MPD2    C1 4007   1.138   3.009  15.590  0.0013 -0.3393 -0.5133
  265MPD2    C2 4008   1.206   2.996  15.474  0.9911 -0.2941 -0.4559
  265MPD2    C3 4009   1.253   2.874  15.438  0.3731  0.7923 -0.2154
  265MPD2    C4 4010   1.246   2.764  15.520  0.2337  0.3732  0.0165
  265MPD2    C5 4011   1.196   2.784  15.645 -0.1718  0.1156 -0.5465
  265MPD2     H 4012   1.227   3.081  15.410 -0.3352 -0.1369 -0.6923
  265MPD2    H1 4013   1.264   2.664  15.484  1.1707  0.3287  0.6008
  265MPD2    H2 4014   1.101   2.880  15.776 -1.2239  0.6942 -0.4820
  265MPD2    H3 4015   1.180   2.696  15.707 -0.2608  0.2641 -0.3609
  265MPD2     N 4016   1.324   2.858  15.317  0.2267 -0.3618 -0.6166
  265MPD2    H5 4017   1.361   2.764  15.300 -2.2933 -1.7458  1.5686
  265MPD2    N1 4018   1.080   3.134  15.624  0.0447  0.2177  0.0746
  265MPD2    H7 4019   1.111   3.209  15.563 -0.8087  1.9629  1.7774
  266TMC3    C1 4020   1.004   3.301  15.773 -0.0618 -0.4213 -0.0116
  266TMC3    C2 4021   1.033   3.352  15.897 -0.4822  0.2191 -0.5031
  266TMC3    C3 4022   1.023   3.490  15.914 -1.0413  0.0620 -0.4347
  266TMC3    C4 4023   0.982   3.378  15.663  0.3669  0.0028 -0.4332
  266TMC3    C5 4024   0.980   3.511  15.679 -0.0697 -0.0690  0.1052
  266TMC3    C6 4025   1.000   3.568  15.805 -0.2287  0.2901  0.1745
  266TMC3     C 4026   1.021   3.158  15.748 -0.2280 -0.2983 -0.7208
  266TMC3     O 4027   0.992   3.084  15.843 -0.0300 -0.2507 -0.5393
  266TMC3     H 4028   1.062   3.284  15.976  2.2375  0.7137 -1.0743
  266TMC3    H1 4029   0.941   3.337  15.572  1.9230 -3.3662  0.3599
  266TMC3    H2 4030   0.996   3.676  15.813  1.0586  0.3226  0.2738
  266TMC3    C7 4031   0.897   3.586  15.591 -0.2525  0.0051  0.0536
  266TMC3    C8 4032   1.086   3.540  16.033  0.1720 -0.7590 -0.7358
  266TMC3    O1 4033   0.796   3.530  15.549 -0.4180 -0.0204 -0.2934
  266TMC3    O2 4034   1.104   3.463  16.125  0.2100  0.0469 -0.1411
  267MPD2     C 4035   3.804   0.873   0.496  0.1241  0.4204 -0.3150
  267MPD2    C1 4036   3.815   0.750   0.556  0.5920  0.5808 -0.1574
  267MPD2    C2 4037   3.701   0.677   0.583  0.2394  0.1374  0.0633
  267MPD2    C3 4038   3.571   0.728   0.563 -0.2940 -0.0331  0.2772
  267MPD2    C4 4039   3.567   0.852   0.506  0.3575  0.0223  0.3918
  267MPD2    C5 4040   3.681   0.926   0.473  0.2518 -0.8353  0.0197
  267MPD2     H 4041   3.713   0.599   0.657 -0.0114  0.1707  0.1401
  267MPD2    H1 4042   3.473   0.905   0.499  0.2504 -0.1832  0.2924
  267MPD2    H2 4043   3.888   0.941   0.489  0.0903  0.5308  0.3472
  267MPD2    H3 4044   3.670   1.028   0.437 -0.4211 -0.2453  1.9052
  267MPD2     N 4045   3.455   0.663   0.595  0.3881 -0.1154  0.3650
  267MPD2    H5 4046   3.374   0.724   0.588  2.0705  2.1554  0.6831
  267MPD2    N1 4047   3.945   0.717   0.612  0.1934 -0.4484 -0.2329
  267MPD2    H7 4048   4.013   0.792   0.599  2.0529 -2.2592 -1.0484
  268TMC3    C1 4049   4.116   0.627   0.743 -0.2044  0.6846 -0.6298
  268TMC3    C2 4050   4.199   0.735   0.714  0.2526  0.5244  0.3620
  268TMC3    C3 4051   4.320   0.739   0.779  0.7029  0.1423  0.1416
  268TMC3    C4 4052   4.159   0.529   0.827 -0.4207  0.3909  0.6764
  268TMC3    C5 4053   4.279   0.536   0.881 -0.3284 -0.2419 -0.1087
  268TMC3    C6 4054   4.362   0.638   0.864  0.3042 -0.9845 -0.4936
  268TMC3     C 4055   3.976   0.613   0.693  0.2809  0.5669  0.2182
  268TMC3     O 4056   3.920   0.502   0.693  0.3709 -0.6076  0.0721
  268TMC3     H 4057   4.172   0.819   0.651 -1.7977  0.7241  1.5348
  268TMC3    H1 4058   4.089   0.448   0.844  0.4207 -0.3472  0.6119
  268TMC3    H2 4059   4.455   0.627   0.920 -0.6319 -0.7404  1.1067
  268TMC3    C7 4060   4.301   0.456   0.997  0.5336 -0.5727 -0.0326
  268TMC3    C8 4061   4.427   0.829   0.734  0.3849  0.7011  0.2325
  268TMC3    O1 4062   4.416   0.436   1.033  0.3940  0.3904  0.6073
  268TMC3    O2 4063   4.522   0.839   0.813  0.3464  0.0092 -0.6424
  269MPD2     C 4064   3.806   3.659  15.464 -0.1649 -0.4066 -0.1859
  269MPD2    C1 4065   3.674   3.683  15.507 -0.3675  0.0996  0.4979
  269MPD2    C2 4066   3.625   3.814  15.495  0.1108 -0.8724  0.3557
  269MPD2    C3 4067   3.701   3.906  15.430  1.0384  0.0742 -0.1827
  269MPD2    C4 4068   3.835   3.885  15.407  0.3642  0.8260  0.5180
  269MPD2    C5 4069   3.882   3.764  15.422  0.7745  0.2763  0.5105
  269MPD2     H 4070   3.525   3.835  15.531 -1.0498 -0.0407 -3.3220
  269MPD2    H1 4071   3.898   3.961  15.363  0.5067  0.0308 -0.6499
  269MPD2    H2 4072   3.841   3.558  15.483 -0.2658 -0.2195  0.9956
  269MPD2    H3 4073   3.990   3.753  15.412  0.5708 -0.5066 -0.8267
  269MPD2     N 4074   3.648   4.028  15.392 -0.4669 -0.5612  0.0039
  269MPD2    H5 4075   3.549   4.045  15.410  0.1242  0.9652  1.8407
  269MPD2    N1 4076   3.599   3.572  15.558  0.2306 -0.7891 -0.1250
  269MPD2    H7 4077   3.649   3.485  15.568 -2.1897 -2.1072  0.5772
  270TMC3    C1 4078   3.428   3.443  15.627 -0.5375  0.4913  1.0077
  270TMC3    C2 4079   3.301   3.413  15.596  0.1105  0.1679 -0.2124
  270TMC3    C3 4080   3.243   3.303  15.651 -0.2596 -0.6127 -0.0057
  270TMC3    C4 4081   3.503   3.367  15.714  0.3636 -0.2575  0.2433
  270TMC3    C5 4082   3.437   3.257  15.766 -0.1821 -0.3842 -0.9025
  270TMC3    C6 4083   3.306   3.231  15.752 -0.1495  0.3843  0.4023
  270TMC3     C 4084   3.470   3.572  15.583  0.3595 -0.4307  0.2770
  270TMC3     O 4085   3.391   3.662  15.577 -0.1180 -0.2080  0.6002
  270TMC3     H 4086   3.256   3.450  15.504 -0.5898 -0.1350  0.0030
  270TMC3    H1 4087   3.596   3.408  15.750  0.3068 -1.0437  1.2975
  270TMC3    H2 4088   3.260   3.140  15.786  0.2119  0.1774  0.3361
  270TMC3    C7 4089   3.533   3.144  15.798 -0.1470  0.9267  0.0072
  270TMC3    C8 4090   3.162   3.221  15.563  0.0525  0.3089  0.3577
  270TMC3    O1 4091   3.650   3.165  15.771  0.1074  0.3499  0.0285
  270TMC3    O2 4092   3.075   3.151  15.616 -0.5015  0.2497 -0.0652
  271MPD2     C 4093   2.674   3.766  13.918 -0.5409  0.6236  0.3203
  271MPD2    C1 4094   2.615   3.706  14.024  0.8040  0.2857  0.0839
  271MPD2    C2 4095   2.482   3.712  14.066 -0.2916 -0.7349 -0.5207
  271MPD2    C3 4096   2.398   3.783  13.986 -0.3438 -0.1672  0.2856
  271MPD2    C4 4097   2.457   3.857  13.885  0.3338 -0.3290  0.2852
  271MPD2    C5 4098   2.590   3.851  13.855  0.4686 -0.0869 -0.3187
  271MPD2     H 4099   2.435   3.650  14.141 -0.3686  0.6846  0.6140
  271MPD2    H1 4100   2.390   3.915  13.823 -0.3761 -3.6658 -2.0588
  271MPD2    H2 4101   2.777   3.753  13.887  0.1072  0.7701  2.3919
  271MPD2    H3 4102   2.622   3.904  13.766  0.5835  0.6148  0.1342
  271MPD2     N 4103   2.259   3.787  13.998 -0.1394 -0.2067  0.0198
  271MPD2    H5 4104   2.213   3.862  13.948 -0.6278 -0.2493  0.4042
  271MPD2    N1 4105   2.690   3.607  14.107 -0.1155 -0.1113  0.1282
  271MPD2    H7 4106   2.636   3.574  14.187 -0.4414  0.1173  0.0047
  272TMC3    C1 4107   2.827   3.426  14.158  0.5384  0.2962 -0.0912
  272TMC3    C2 4108   2.951   3.365  14.135  0.6269  0.0798 -0.3658
  272TMC3    C3 4109   3.018   3.315  14.243  0.4303  0.6950  0.2399
  272TMC3    C4 4110   2.770   3.422  14.284 -0.3789 -0.9850  0.1793
  272TMC3    C5 4111   2.846   3.374  14.385  0.2892  1.5547 -0.1983
  272TMC3    C6 4112   2.972   3.316  14.373 -0.0103  0.0824 -0.0760
  272TMC3     C 4113   2.809   3.547  14.074  0.1288 -0.2229 -0.2062
  272TMC3     O 4114   2.884   3.574  13.984  0.6210 -0.5895 -0.2102
  272TMC3     H 4115   2.998   3.381  14.038 -0.6918 -1.3597 -1.2477
  272TMC3    H1 4116   2.677   3.471  14.313 -1.3896 -2.0421 -1.2958
  272TMC3    H2 4117   3.036   3.287  14.456 -1.1243 -0.2749  0.6674
  272TMC3    C7 4118   2.787   3.365  14.520  0.2869  0.2127 -0.3839
  272TMC3    C8 4119   3.163   3.305  14.220  0.0492  0.0110 -0.0918
  272TMC3    O1 4120   2.667   3.381  14.532  0.3982  0.1140  0.0930
  272TMC3    O2 4121   3.195   3.370  14.119  0.2617 -0.0143 -0.3422
  273MPD2     C 4122   4.049   1.581  11.472  0.5271  0.7984  0.3822
  273MPD2    C1 4123   4.086   1.719  11.451 -0.1929 -0.1789  0.0033
  273MPD2    C2 4124   4.036   1.786  11.341 -0.1135  0.5167  0.5317
  273MPD2    C3 4125   3.957   1.716  11.246  0.3257 -0.0565 -0.3032
  273MPD2    C4 4126   3.906   1.592  11.282  0.0712 -0.2238  0.2031
  273MPD2    C5 4127   3.956   1.528  11.390 -0.0951 -0.5709 -0.5721
  273MPD2     H 4128   4.054   1.892  11.326 -1.3249  0.4411 -1.4192
  273MPD2    H1 4129   3.826   1.542  11.228 -0.0827  0.9973 -0.7145
  273MPD2    H2 4130   4.083   1.533  11.563  0.3143 -1.2091 -0.5963
  273MPD2    H3 4131   3.924   1.426  11.403  2.1319 -1.1869  0.0138
  273MPD2     N 4132   3.914   1.791  11.133 -0.3615  0.3151 -0.4197
  273MPD2    H5 4133   3.956   1.883  11.118  2.7054 -0.8848  0.8484
  273MPD2    N1 4134   4.196   1.766  11.531 -0.3463  0.8671  0.6045
  273MPD2    H7 4135   4.239   1.697  11.591 -0.5511  1.2471  1.1843
  274TMC3    C1 4136   3.781   1.844  10.945 -0.0262 -0.3159  0.6935
  274TMC3    C2 4137   3.667   1.834  10.878  0.5528  0.0519  0.3322
  274TMC3    C3 4138   3.622   1.944  10.806 -0.1047 -0.3785  0.5015
  274TMC3    C4 4139   3.861   1.957  10.927 -0.2592  0.5771 -0.5763
  274TMC3    C5 4140   3.812   2.060  10.849  0.2620 -0.1903 -0.0043
  274TMC3    C6 4141   3.688   2.057  10.788  0.3459 -0.1161  0.1129
  274TMC3     C 4142   3.814   1.753  11.048  0.3324 -0.5200  0.4961
  274TMC3     O 4143   3.747   1.652  11.053 -0.3957  0.2143  0.4076
  274TMC3     H 4144   3.593   1.757  10.898  1.5312 -1.1061 -0.5213
  274TMC3    H1 4145   3.954   1.986  10.973 -0.0011 -0.5387 -0.3847
  274TMC3    H2 4146   3.642   2.154  10.771 -0.4261 -0.5227 -0.0686
  274TMC3    C7 4147   3.841   2.193  10.899 -0.2735 -0.4322  0.2669
  274TMC3    C8 4148   3.483   1.950  10.762  0.2960 -0.1508  0.6425
  274TMC3    O1 4149   3.887   2.205  11.007 -0.0125 -0.2634  0.0767
  274TMC3    O2 4150   3.433   2.063  10.763 -0.2309 -0.1599 -0.7540
  275MPD2     C 4151   3.924   4.722  14.083  0.0644  0.2824 -0.3176
  275MPD2    C1 4152   3.906   4.667  14.212  0.0878 -0.7927 -0.1774
  275MPD2    C2 4153   3.787   4.604  14.249  0.5192 -0.5238 -0.5515
  275MPD2    C3 4154   3.689   4.588  14.153  0.0448  0.2135  0.2145
  275MPD2    C4 4155   3.711   4.644  14.027  0.2482 -0.4093  0.0968
  275MPD2    C5 4156   3.825   4.697  13.989 -0.5677 -0.9004  0.2509
  275MPD2     H 4157   3.789   4.570  14.352 -1.5111 -0.4013 -0.4786
  275MPD2    H1 4158   3.628   4.632  13.958 -0.8750  0.6723  1.2712
  275MPD2    H2 4159   4.016   0.036  14.041 -0.0808  0.1591 -0.7515
  275MPD2    H3 4160   3.839   4.723  13.885 -1.8272  1.3658  0.6373
  275MPD2     N 4161   3.558   4.532  14.184  0.5095 -0.3869 -0.0150
  275MPD2    H5 4162   3.493   4.516  14.109  1.4153 -1.1893 -0.6312
  275MPD2    N1 4163   4.000   4.692  14.315 -0.8306  0.5371  0.5586
  275MPD2    H7 4164   3.971   4.657  14.405  1.3483 -3.4595 -0.2704
  276TMC3    C1 4165   4.153   0.087  14.442  0.4170 -0.3402  0.5604
  276TMC3    C2 4166   4.074   0.085  14.551  0.3496  0.7084 -0.5644
  276TMC3    C3 4167   4.129   0.114  14.668  0.5275  0.7695 -0.2481
  276TMC3    C4 4168   4.282   0.136  14.446 -0.3819  0.0095 -0.2730
  276TMC3    C5 4169   4.340   0.167  14.567 -0.1214 -0.5247 -0.2197
  276TMC3    C6 4170   4.261   0.152  14.677  0.4496 -0.4069  0.9856
  276TMC3     C 4171   4.111   0.052  14.310 -0.1577 -0.2638 -0.2143
  276TMC3     O 4172   4.161   0.116  14.222  0.0748 -0.1264 -0.0520
  276TMC3     H 4173   3.972   0.047  14.549 -0.2797  2.5084 -2.1640
  276TMC3    H1 4174   4.339   0.142  14.354 -0.4410 -0.4496 -0.3414
  276TMC3    H2 4175   4.290   0.172  14.779  1.1958  1.0181  0.4981
  276TMC3    C7 4176   4.480   0.165  14.591 -0.2517  0.1638 -0.8071
  276TMC3    C8 4177   4.066   0.050  14.787  0.6893  0.5209  0.7242
  276TMC3    O1 4178   4.515   0.232  14.690 -0.2635  0.5367 -0.4464
  276TMC3    O2 4179   4.052   0.126  14.883  0.2523 -0.1964  0.3140
  277MPD2     C 4180   1.245   3.192  12.957  0.7421 -0.4048  0.5362
  277MPD2    C1 4181   1.112   3.196  12.993  0.1294  0.1473  0.8355
  277MPD2    C2 4182   1.072   3.090  13.067  0.0567 -0.8927 -0.6692
  277MPD2    C3 4183   1.155   3.000  13.129 -0.3412  0.0326 -0.5853
  277MPD2    C4 4184   1.289   2.989  13.093 -0.5320  0.0382 -0.3935
  277MPD2    C5 4185   1.333   3.098  13.018  0.1023  0.5265  0.3920
  277MPD2     H 4186   0.968   3.071  13.094 -0.0023  1.5674  0.7897
  277MPD2    H1 4187   1.356   2.910  13.126  0.6849  2.3522  2.6899
  277MPD2    H2 4188   1.292   3.265  12.892 -1.2601 -0.5325 -1.0138
  277MPD2    H3 4189   1.437   3.098  12.988  0.0142 -1.6110  0.0890
  277MPD2     N 4190   1.096   2.913  13.225  0.4826  0.0243  0.5709
  277MPD2    H5 4191   0.998   2.930  13.245  0.3186  1.0541 -1.1467
  277MPD2    N1 4192   1.026   3.303  12.955  0.3005 -0.9936 -0.1831
  277MPD2    H7 4193   1.056   3.378  12.892  0.8619  0.6550  2.0440
  278TMC3    C1 4194   1.050   2.748  13.369 -0.8946 -0.0715 -0.1028
  278TMC3    C2 4195   0.925   2.747  13.313  0.5659 -0.4276  1.0513
  278TMC3    C3 4196   0.815   2.738  13.389 -1.1556 -0.1247  0.4258
  278TMC3    C4 4197   1.055   2.772  13.510  0.0835  0.4613 -0.2448
  278TMC3    C5 4198   0.941   2.789  13.580  0.1675  0.7700  0.1100
  278TMC3    C6 4199   0.822   2.761  13.524 -1.1115 -0.3665 -0.8275
  278TMC3     C 4200   1.157   2.816  13.296  0.3919  0.4849 -0.3309
  278TMC3     O 4201   1.277   2.789  13.311  0.7188  0.0591  0.2256
  278TMC3     H 4202   0.922   2.744  13.204 -1.8230 -1.5424  1.1465
  278TMC3    H1 4203   1.148   2.783  13.565  2.0837  0.5303 -3.6547
  278TMC3    H2 4204   0.728   2.762  13.580 -0.6323 -0.6647 -0.0152
  278TMC3    C7 4205   0.934   2.897  13.678  0.4806  0.5306  0.5277
  278TMC3    C8 4206   0.694   2.775  13.327  0.0605  0.2487 -0.4395
  278TMC3    O1 4207   1.035   2.917  13.737 -0.2145 -0.0621 -0.4688
  278TMC3    O2 4208   0.623   2.844  13.398 -0.4578  0.1235 -0.2309
  279MPD2     C 4209   0.867   3.194   0.338  0.1130  0.5009  0.2292
  279MPD2    C1 4210   0.802   3.312   0.337 -0.5395 -0.1816 -0.3550
  279MPD2    C2 4211   0.830   3.403   0.236 -0.6562 -0.4926 -0.1159
  279MPD2    C3 4212   0.926   3.376   0.143 -0.1741 -0.5344 -1.1037
  279MPD2    C4 4213   0.994   3.257   0.146 -0.1978  0.3267 -0.1069
  279MPD2    C5 4214   0.958   3.165   0.240  0.6669  0.5446 -0.5849
  279MPD2     H 4215   0.776   3.496   0.230 -0.8496 -0.4335  2.6647
  279MPD2    H1 4216   1.062   3.229   0.066  0.9067  1.4326  0.4329
  279MPD2    H2 4217   0.839   3.116   0.409  0.1698 -0.8096 -1.2021
  279MPD2    H3 4218   1.011   3.070   0.243 -2.4780 -1.0769  4.5223
  279MPD2     N 4219   0.941   3.472   0.040 -0.4401  0.2193  0.8125
  279MPD2    H5 4220   0.886   3.557   0.046 -2.6477 -1.0624 -0.9499
  279MPD2    N1 4221   0.695   3.331   0.425 -0.4993 -1.0907  0.3069
  279MPD2    H7 4222   0.673   3.242   0.469  0.3005  0.8687  4.6793
  280TMC3    C1 4223   0.480   3.415   0.490 -0.4332  0.1296  0.4689
  280TMC3    C2 4224   0.407   3.303   0.460 -0.6419 -0.2436  0.0320
  280TMC3    C3 4225   0.268   3.299   0.470  0.5916 -0.1151 -0.8061
  280TMC3    C4 4226   0.414   3.530   0.525 -0.2072 -0.5847 -0.2007
  280TMC3    C5 4227   0.278   3.517   0.553  0.7438  0.0012 -0.4641
  280TMC3    C6 4228   0.208   3.408   0.526  0.2974 -0.2457 -0.6747
  280TMC3     C 4229   0.611   3.441   0.435  0.6819 -1.2411  1.0035
  280TMC3     O 4230   0.621   3.555   0.392  0.3903  0.5715  0.6547
  280TMC3     H 4231   0.450   3.222   0.403 -1.0139 -0.3086 -0.1578
  280TMC3    H1 4232   0.459   3.625   0.553  1.2817 -1.6300  1.0004
  280TMC3    H2 4233   0.106   3.400   0.563  0.5228  0.8291  0.1475
  280TMC3    C7 4234   0.215   3.644   0.598 -0.0279 -0.1158  0.1271
  280TMC3    C8 4235   0.189   3.187   0.430 -0.7310  0.1196 -0.0536
  280TMC3    O1 4236   0.282   3.729   0.655  0.2818  0.2553  0.9365
  280TMC3    O2 4237   0.079   3.208   0.386  0.1019 -0.0130 -0.0100
  281TMC3    C1 4238   3.936   3.812  13.066  0.1953  0.0974  0.5786
  281TMC3    C2 4239   3.860   3.847  12.961  0.2743  0.4900 -0.3466
  281TMC3    C3 4240   3.779   3.759  12.899 -0.3305  0.2844  0.1308
  281TMC3    C4 4241   3.924   3.685  13.118 -0.2616 -0.2896  0.2855
  281TMC3    C5 4242   3.837   3.600  13.059 -0.2460 -0.7796 -1.0111
  281TMC3    C6 4243   3.759   3.639  12.955  0.2756 -0.2707 -0.4775
  281TMC3     C 4244   3.960   3.913  13.169 -0.3763 -0.4027 -0.7214
  281TMC3     O 4245   4.024   3.882  13.270 -0.3817 -0.2695  0.1405
  281TMC3     H 4246   3.872   3.944  12.914  1.6543  0.4112 -0.1387
  281TMC3    H1 4247   3.985   3.647  13.200  1.4508 -1.5703 -1.5664
  281TMC3    H2 4248   3.697   3.567  12.903 -1.1925 -0.4158  1.4729
  281TMC3    C7 4249   3.811   3.466  13.107 -0.1990  0.4728 -0.4800
  281TMC3    C8 4250   3.654   3.824  12.859 -0.2816 -0.1915 -0.0122
  281TMC3    O1 4251   3.764   3.392  13.022 -0.5252  0.6748 -0.3675
  281TMC3    O2 4252   3.644   3.946  12.868  0.3173  0.1642  0.2228
  282MPD2     C 4253   1.292   0.492  15.229 -0.3190  0.2215  0.3677
  282MPD2    C1 4254   1.162   0.536  15.210 -0.0812  0.5953  0.2407
  282MPD2    C2 4255   1.103   0.552  15.084 -0.4396 -0.5970 -0.3162
  282MPD2    C3 4256   1.162   0.506  14.974 -0.0919  0.6902 -0.0883
  282MPD2    C4 4257   1.295   0.456  14.987  0.1673  0.5688 -0.2634
  282MPD2    C5 4258   1.354   0.454  15.113  0.0729  1.0459 -0.1855
  282MPD2     H 4259   1.009   0.605  15.087 -0.7630 -1.1523 -0.7089
  282MPD2    H1 4260   1.348   0.421  14.899  0.0788 -1.3205  0.4286
  282MPD2    H2 4261   1.338   0.483  15.326 -0.0853  1.3043  0.3665
  282MPD2    H3 4262   1.445   0.399  15.135 -1.4411 -1.4559 -0.1561
  282MPD2     N 4263   1.091   0.526  14.858  0.3733 -0.5840  0.3722
  282MPD2    H5 4264   1.007   0.583  14.860  1.4762  1.0758 -1.3197
  282MPD2    N1 4265   1.080   0.580  15.318 -0.3283 -0.4200 -0.2055
  282MPD2    H7 4266   1.001   0.641  15.295  0.0740  1.1060  2.4676
  283TMC3    C1 4267   0.956   0.563  15.518 -0.1172  0.3046  0.5148
  283TMC3    C2 4268   0.892   0.684  15.495 -0.6027  1.1481 -0.2227
  283TMC3    C3 4269   0.778   0.704  15.562  0.2647 -1.0563 -0.4669
  283TMC3    C4 4270   0.918   0.471  15.617 -0.3453 -0.1213  0.5526
  283TMC3    C5 4271   0.798   0.503  15.679 -0.2761  0.1445  0.5305
  283TMC3    C6 4272   0.732   0.618  15.659  0.1802  0.1578  0.4309
  283TMC3     C 4273   1.076   0.530  15.445 -0.9723 -0.1348 -0.1491
  283TMC3     O 4274   1.153   0.448  15.491 -0.4730 -0.1159 -0.1582
  283TMC3     H 4275   0.941   0.760  15.435  1.4074  0.2083  0.2248
  283TMC3    H1 4276   0.967   0.377  15.639 -0.1417 -0.2813 -0.5664
  283TMC3    H2 4277   0.650   0.656  15.719 -1.8509 -1.1703 -1.4881
  283TMC3    C7 4278   0.728   0.400  15.751  0.6365 -0.3552 -0.1408
  283TMC3    C8 4279   0.711   0.838  15.561  0.3135 -0.1039 -0.2627
  283TMC3    O1 4280   0.697   0.430  15.863  0.2994 -0.3799 -0.1281
  283TMC3    O2 4281   0.654   0.872  15.662 -0.0145  0.4753  0.2481
  284MPD2     C 4282   3.320   0.201  11.354  0.5004  0.0176 -0.0574
  284MPD2    C1 4283   3.406   0.095  11.381 -0.6596  0.0289 -0.6522
  284MPD2    C2 4284   3.357   4.698  11.426  0.0002 -0.8454 -0.0176
  284MPD2    C3 4285   3.222   4.690  11.464  0.3393 -0.7902  0.1044
  284MPD2    C4 4286   3.138   0.072  11.443 -0.0742 -0.3155  0.8098
  284MPD2    C5 4287   3.181   0.186  11.386  0.6651 -0.2067 -0.8677
  284MPD2     H 4288   3.426   4.616  11.445  3.4184  1.6744 -1.4717
  284MPD2    H1 4289   3.037   0.060  11.480 -0.8113  0.5893 -0.9430
  284MPD2    H2 4290   3.347   0.301  11.324  0.6769  0.4676  1.6050
  284MPD2    H3 4291   3.118   0.274  11.377  0.1807 -0.5139 -0.4633
  284MPD2     N 4292   3.170   4.590  11.547  0.4747  0.0026  0.1312
  284MPD2    H5 4293   3.095   4.628  11.603  0.4293 -1.3929  1.0022
  284MPD2    N1 4294   3.549   0.109  11.398  0.1158  0.1180  0.3726
  284MPD2    H7 4295   3.606   0.026  11.416  1.4386  0.6884 -1.1366
  285TMC3    C1 4296   3.738   0.208  11.487  0.3304 -0.4987  0.8222
  285TMC3    C2 4297   3.763   0.083  11.525 -0.1393 -0.6116 -0.3441
  285TMC3    C3 4298   3.891   0.045  11.539  0.8387 -0.0801  0.6018
  285TMC3    C4 4299   3.837   0.305  11.483 -0.4642 -0.2891  0.2717
  285TMC3    C5 4300   3.959   0.263  11.519  0.0728 -0.8091  0.6263
  285TMC3    C6 4301   3.994   0.129  11.538 -0.5495  0.5237  0.0391
  285TMC3     C 4302   3.614   0.228  11.420  0.2814 -0.0562 -0.0439
  285TMC3     O 4303   3.576   0.342  11.400 -0.6880  0.2033  0.0501
  285TMC3     H 4304   3.691   0.003  11.541 -0.8254  0.2544  0.8990
  285TMC3    H1 4305   3.822   0.412  11.482 -2.3960 -0.5867 -3.7238
  285TMC3    H2 4306   4.097   0.098  11.537 -0.1306  1.8286  1.7580
  285TMC3    C7 4307   4.063   0.370  11.537 -0.1010  0.5619 -0.5996
  285TMC3    C8 4308   3.913   4.627  11.522  0.0886  0.0258 -0.7471
  285TMC3    O1 4309   4.034   0.478  11.494 -0.0786 -0.6619  0.7337
  285TMC3    O2 4310   3.827   4.545  11.491 -0.3617 -0.1109 -0.3688
  286MPD2     C 4311   4.582   2.518   1.964 -0.6669 -0.2779 -0.4028
  286MPD2    C1 4312   4.619   2.613   1.876 -0.1141  0.6790 -0.5652
  286MPD2    C2 4313   0.013   2.599   1.809  0.6581  0.0609  0.0058
  286MPD2    C3 4314   0.094   2.481   1.818  0.4026  0.8888  0.5393
  286MPD2    C4 4315   0.060   2.389   1.915 -0.2718 -0.9688 -0.2258
  286MPD2    C5 4316   4.672   2.416   1.990 -0.3619 -0.7153 -0.1568
  286MPD2     H 4317   0.040   2.674   1.735 -0.2018  2.9616  2.6543
  286MPD2    H1 4318   0.126   2.304   1.929 -0.4835 -1.7580 -3.9385
  286MPD2    H2 4319   4.489   2.523   2.018 -0.6803  0.8469 -0.5360
  286MPD2    H3 4320   4.644   2.343   2.065 -0.2706 -0.7690 -0.1749
  286MPD2     N 4321   0.205   2.452   1.735  0.1561  0.0959 -0.1359
  286MPD2    H5 4322   0.258   2.375   1.775 -2.2627 -1.2871  0.4424
  286MPD2    N1 4323   4.547   2.737   1.856 -0.4622 -0.3417  0.9502
  286MPD2    H7 4324   4.579   2.796   1.779 -1.3085 -0.9339  0.1454
  287TMC3    C1 4325   0.345   2.484   1.540  0.5580 -0.4006  0.4315
  287TMC3    C2 4326   0.341   2.489   1.401  0.6649  0.2568 -0.1808
  287TMC3    C3 4327   0.432   2.423   1.328 -0.8006  0.2501  0.8072
  287TMC3    C4 4328   0.435   2.392   1.595 -0.5647  0.5680 -0.4067
  287TMC3    C5 4329   0.520   2.317   1.517 -0.3170 -0.5816 -0.1141
  287TMC3    C6 4330   0.521   2.333   1.382 -1.2972  0.2367 -0.4506
  287TMC3     C 4331   0.227   2.522   1.610  0.4842 -0.5184  0.1792
  287TMC3     O 4332   0.144   2.589   1.550  0.1269 -0.1276 -0.0665
  287TMC3     H 4333   0.268   2.555   1.355  2.2742  1.4824 -0.9597
  287TMC3    H1 4334   0.441   2.385   1.703  2.9203  1.0250 -0.5501
  287TMC3    H2 4335   0.596   2.285   1.321 -0.1027  1.4784  0.0427
  287TMC3    C7 4336   0.634   2.264   1.589 -0.3390  0.2314  0.2125
  287TMC3    C8 4337   0.411   2.423   1.184  0.3136  0.6337  0.5776
  287TMC3    O1 4338   0.642   2.296   1.708  0.0958 -0.4231 -0.5444
  287TMC3    O2 4339   0.482   2.337   1.132 -0.0952 -0.0250 -0.2764
  288TMC3    C1 4340   1.453   3.221  14.479 -0.3795 -0.5650 -0.0918
  288TMC3    C2 4341   1.393   3.163  14.584  0.0533  0.0526  0.0749
  288TMC3    C3 4342   1.314   3.240  14.664 -0.2028  0.2278 -0.0506
  288TMC3    C4 4343   1.450   3.356  14.458 -0.3665 -0.1294  0.1480
  288TMC3    C5 4344   1.367   3.432  14.545  0.1440  0.1018 -0.1576
  288TMC3    C6 4345   1.294   3.374  14.633  0.0959 -0.6311  0.0938
  288TMC3     C 4346   1.585   3.152  14.454  0.7838 -0.6692 -0.4711
  288TMC3     O 4347   1.607   3.044  14.505  0.4742 -0.0087  0.6315
  288TMC3     H 4348   1.414   3.061  14.614  1.1437  0.2501 -0.0061
  288TMC3    H1 4349   1.491   3.409  14.373  0.3768  0.8819  1.1447
  288TMC3    H2 4350   1.224   3.426  14.696  0.8873  2.7759 -1.8339
  288TMC3    C7 4351   1.323   3.560  14.505  0.6636 -0.5883 -0.2322
  288TMC3    C8 4352   1.281   3.195  14.795 -0.7226  0.9380  0.2129
  288TMC3    O1 4353   1.210   3.583  14.546 -0.8788 -0.7328 -0.3327
  288TMC3    O2 4354   1.324   3.258  14.886  0.0949 -0.8013 -0.1065
  289MPD2     C 4355   1.382   1.892  14.690  0.2665  0.5799  0.0586
  289MPD2    C1 4356   1.433   1.975  14.597  0.3540 -0.4622 -0.8602
  289MPD2    C2 4357   1.387   1.965  14.463  0.5555 -0.2829  0.5400
  289MPD2    C3 4358   1.288   1.873  14.431  0.3932  0.2959 -0.1371
  289MPD2    C4 4359   1.238   1.793  14.529 -0.2465 -0.1550 -0.9888
  289MPD2    C5 4360   1.289   1.797  14.657  0.1815 -1.1699  0.4686
  289MPD2     H 4361   1.418   2.036  14.388  0.4194 -0.3997  0.3738
  289MPD2    H1 4362   1.164   1.716  14.513 -1.5019  0.7680  0.4619
  289MPD2    H2 4363   1.400   1.895  14.797  1.4469 -3.0633 -0.0204
  289MPD2    H3 4364   1.248   1.736  14.737  2.0760 -1.5928  1.0995
  289MPD2     N 4365   1.248   1.841  14.304 -0.5003  0.4280 -0.6100
  289MPD2    H5 4366   1.172   1.773  14.297 -1.6855  1.5042  1.7388
  289MPD2    N1 4367   1.535   2.071  14.637 -0.3526 -0.7237 -0.0356
  289MPD2    H7 4368   1.565   2.074  14.734  1.6071 -0.1616 -0.6484
  290TMC3    C1 4369   1.216   1.886  14.076 -0.4692  0.4988 -1.2448
  290TMC3    C2 4370   1.208   2.004  14.005  0.2676 -0.6484  0.8368
  290TMC3    C3 4371   1.100   2.029  13.923  0.1590 -0.1682 -0.2456
  290TMC3    C4 4372   1.131   1.780  14.057  0.5819 -0.2462  0.6784
  290TMC3    C5 4373   1.034   1.806  13.957 -0.5714  0.5251 -0.4568
  290TMC3    C6 4374   1.013   1.928  13.899 -0.4780  0.3442 -0.4373
  290TMC3     C 4375   1.307   1.896  14.191 -0.3170 -0.1699  0.3963
  290TMC3     O 4376   1.415   1.957  14.187  0.1934 -0.4953  0.3180
  290TMC3     H 4377   1.275   2.085  14.029  0.8970 -0.7790 -0.4661
  290TMC3    H1 4378   1.150   1.678  14.088  1.2310 -1.0901 -2.5327
  290TMC3    H2 4379   0.926   1.928  13.834 -0.1081  2.5104 -0.9131
  290TMC3    C7 4380   0.941   1.700  13.924 -0.9085 -0.8398 -0.8900
  290TMC3    C8 4381   1.058   2.173  13.937  0.3355  0.4827  0.5286
  290TMC3    O1 4382   0.876   1.708  13.823  0.0853 -0.0147  0.1362
  290TMC3    O2 4383   1.122   2.247  14.012 -0.7669 -0.4983  0.0305
  291MPD2     C 4384   0.270   2.333   0.144 -0.2754 -0.3987  0.3388
  291MPD2    C1 4385   0.398   2.311   0.146 -0.5291 -0.0543 -0.0380
  291MPD2    C2 4386   0.487   2.419   0.149 -0.2903 -0.6495  0.3985
  291MPD2    C3 4387   0.444   2.546   0.134 -0.0170 -0.0954 -0.0061
  291MPD2    C4 4388   0.305   2.564   0.135 -0.4647 -0.0506 -0.0605
  291MPD2    C5 4389   0.225   2.458   0.133 -0.3321 -0.3711  0.3527
  291MPD2     H 4390   0.593   2.395   0.149 -0.2840 -0.6239 -0.2431
  291MPD2    H1 4391   0.266   2.664   0.140  0.3190  0.3164 -1.5070
  291MPD2    H2 4392   0.202   2.249   0.150  2.1211 -2.3332  0.2445
  291MPD2    H3 4393   0.118   2.477   0.130 -0.4102 -1.0612 -1.6881
  291MPD2     N 4394   0.530   2.656   0.145  0.5088  0.6685  0.2048
  291MPD2    H5 4395   0.476   2.742   0.132 -0.1758  0.1422 -0.4264
  291MPD2    N1 4396   0.458   2.186   0.158 -0.5898 -0.4318  0.4240
  291MPD2    H7 4397   0.555   2.184   0.190  0.5335 -1.8471 -2.9982
  292TMC3    C1 4398   0.493   1.963   0.179 -0.9715 -0.0719 -0.3933
  292TMC3    C2 4399   0.587   1.980   0.270  0.1124  0.3089 -0.1839
  292TMC3    C3 4400   0.678   1.877   0.290 -0.5375 -0.0491  0.1737
  292TMC3    C4 4401   0.468   1.845   0.118  0.3837 -0.0194 -0.3093
  292TMC3    C5 4402   0.547   1.743   0.150 -0.8332  0.6707 -0.6420
  292TMC3    C6 4403   0.654   1.758   0.237 -0.3554  0.0240  0.2618
  292TMC3     C 4404   0.396   2.069   0.164  0.0494 -0.0698  0.8617
  292TMC3     O 4405   0.293   2.037   0.106 -0.2183  0.2343  0.1764
  292TMC3     H 4406   0.592   2.074   0.324  0.4113 -1.4425  2.8331
  292TMC3    H1 4407   0.393   1.840   0.040  0.1252 -0.8036 -0.0058
  292TMC3    H2 4408   0.726   1.679   0.248 -1.0432 -0.7786 -1.0392
  292TMC3    C7 4409   0.528   1.622   0.073  0.3643 -0.6300 -0.2285
  292TMC3    C8 4410   0.759   1.882   0.413 -0.2388  1.2295  0.0571
  292TMC3    O1 4411   0.634   1.558   0.064  0.1346  0.2352  0.3954
  292TMC3    O2 4412   0.779   1.994   0.454 -0.2539 -0.0865  0.0636
  293MPD2     C 4413   2.096   3.760  12.616 -0.0438  0.6553  0.1907
  293MPD2    C1 4414   2.050   3.649  12.691 -0.0610  0.5442  0.3584
  293MPD2    C2 4415   2.090   3.627  12.821 -0.1067 -0.2374 -0.7203
  293MPD2    C3 4416   2.176   3.723  12.875 -0.2073 -0.6279 -0.4465
  293MPD2    C4 4417   2.217   3.829  12.802 -0.4751 -0.5346  0.7466
  293MPD2    C5 4418   2.177   3.851  12.675 -0.5769 -0.4205 -0.3458
  293MPD2     H 4419   2.046   3.546  12.878  2.0824 -0.2530  0.9377
  293MPD2    H1 4420   2.280   3.906  12.846 -1.9650 -0.8883  3.4928
  293MPD2    H2 4421   2.072   3.781  12.513  0.2051  0.0724  0.0155
  293MPD2    H3 4422   2.216   3.942  12.632  1.6603 -0.9179  0.6649
  293MPD2     N 4423   2.210   3.717  13.011 -0.2158 -0.0898  0.6297
  293MPD2    H5 4424   2.188   3.630  13.058 -2.2870 -0.0176 -0.1965
  293MPD2    N1 4425   1.971   3.559  12.625 -0.8765 -0.2966 -0.0593
  293MPD2    H7 4426   1.927   3.587  12.537 -1.2925  0.6245  0.4378
  294TMC3    C1 4427   1.858   3.367  12.572 -0.2544 -0.0625  0.4884
  294TMC3    C2 4428   1.887   3.241  12.537  0.8228  0.2427 -0.8045
  294TMC3    C3 4429   1.850   3.182  12.423  0.2790  0.7504  0.0096
  294TMC3    C4 4430   1.774   3.434  12.487  0.7001  0.7712 -0.0342
  294TMC3    C5 4431   1.734   3.377  12.368 -0.0645  0.0866  0.3946
  294TMC3    C6 4432   1.776   3.250  12.330 -0.2552  0.2906 -1.0592
  294TMC3     C 4433   1.946   3.431  12.662 -0.3121  0.4156  0.4194
  294TMC3     O 4434   1.999   3.361  12.751  0.2684 -1.0675 -0.0237
  294TMC3     H 4435   1.954   3.187  12.603 -0.4547 -0.3048  0.0231
  294TMC3    H1 4436   1.744   3.534  12.516  0.7622  0.7946 -0.0518
  294TMC3    H2 4437   1.739   3.207  12.237  0.9426 -1.3704 -0.7617
  294TMC3    C7 4438   1.647   3.466  12.295  0.2032 -0.6060  0.8154
  294TMC3    C8 4439   1.883   3.035  12.398 -0.7299  0.2044  0.2511
  294TMC3    O1 4440   1.584   3.549  12.358 -0.0501  0.4667 -0.3709
  294TMC3    O2 4441   1.973   2.981  12.460 -0.0565 -0.2071  0.0628
  295MPD2     C 4442   3.115   2.241   0.039  0.2150  0.0009 -0.8460
  295MPD2    C1 4443   3.244   2.278   0.034  0.0828 -0.3036  0.1256
  295MPD2    C2 4444   3.326   2.222   0.129  0.0489 -0.6936 -0.6135
  295MPD2    C3 4445   3.273   2.159   0.242 -0.0940  0.1278  0.7552
  295MPD2    C4 4446   3.136   2.117   0.239  0.7157 -0.3727  0.4640
  295MPD2    C5 4447   3.067   2.158   0.131  0.6073 -0.0997 -0.0323
  295MPD2     H 4448   3.432   2.244   0.124  0.0622 -1.0276 -2.0340
  295MPD2    H1 4449   3.079   2.068   0.317 -0.6169 -0.7331 -0.7357
  295MPD2    H2 4450   3.051   2.282  17.663 -2.2702 -1.5523  0.4247
  295MPD2    H3 4451   2.961   2.135   0.129 -0.3967  4.3481  2.6375
  295MPD2     N 4452   3.351   2.115   0.354 -0.7761  0.3173 -0.5235
  295MPD2    H5 4453   3.303   2.061   0.426  0.5375 -0.6760 -0.3882
  295MPD2    N1 4454   3.299   2.369  17.642  0.3485 -0.2793 -0.0445
  295MPD2    H7 4455   3.399   2.386  17.641  0.2591  0.2269 -0.5157
  296TMC3    C1 4456   3.528   2.094   0.515 -0.2651  0.3478 -0.7840
  296TMC3    C2 4457   3.440   2.096   0.623  0.5185  0.2061  0.4350
  296TMC3    C3 4458   3.475   2.039   0.739  0.3158 -0.2489  0.4874
  296TMC3    C4 4459   3.653   2.039   0.533  0.5133 -0.2645  0.5514
  296TMC3    C5 4460   3.685   1.974   0.654 -0.6150 -0.0327  0.0353
  296TMC3    C6 4461   3.593   1.976   0.764  0.3652 -0.2232  0.0867
  296TMC3     C 4462   3.486   2.123   0.376 -0.2922 -0.3674  0.3459
  296TMC3     O 4463   3.569   2.147   0.285 -0.4767 -0.3848  0.2456
  296TMC3     H 4464   3.337   2.129   0.610  0.4831 -0.8778 -2.1658
  296TMC3    H1 4465   3.713   2.018   0.445 -0.2694 -2.0305  0.4513
  296TMC3    H2 4466   3.613   1.946   0.866  2.2341 -2.5657 -0.9541
  296TMC3    C7 4467   3.794   1.876   0.649  0.1705  0.3139 -0.4499
  296TMC3    C8 4468   3.404   2.083   0.854  0.8607  0.4034  0.5496
  296TMC3    O1 4469   3.875   1.891   0.558  0.1114  0.0111 -0.2534
  296TMC3    O2 4470   3.405   2.005   0.948  0.1283 -0.2895 -0.0484
  297MPD2     C 4471   4.698   3.918  16.120 -0.2731  0.1695  0.0706
  297MPD2    C1 4472   4.668   4.057  16.112 -0.2298 -0.2744 -0.2049
  297MPD2    C2 4473   0.050   4.144  16.102 -0.0607 -0.3533  0.0855
  297MPD2    C3 4474   0.180   4.093  16.090  0.2383 -0.0934 -0.3412
  297MPD2    C4 4475   0.207   3.961  16.062 -0.1775 -0.2248 -0.0903
  297MPD2    C5 4476   0.103   3.878  16.099  0.0756  0.0858 -0.7007
  297MPD2     H 4477   0.024   4.248  16.089  1.0830 -0.4232 -2.9807
  297MPD2    H1 4478   0.305   3.915  16.048 -0.2943 -0.7135  0.6668
  297MPD2    H2 4479   4.628   3.840  16.149  0.1232  0.8418  2.8464
  297MPD2    H3 4480   0.129   3.773  16.104  0.9043  0.3468  0.3593
  297MPD2     N 4481   0.283   4.194  16.085 -0.2247  0.0319 -0.0783
  297MPD2    H5 4482   0.265   4.291  16.104  0.9453  0.3416 -0.5032
  297MPD2    N1 4483   4.533   4.099  16.123 -0.1013  0.0882  0.3782
  297MPD2    H7 4484   4.521   4.200  16.121  0.3347  0.0495 -3.4312
  298TMC3    C1 4485   4.304   4.087  16.200 -0.7140  0.5652 -0.0328
  298TMC3    C2 4486   4.186   4.027  16.182  0.2963  0.2776  0.1439
  298TMC3    C3 4487   4.075   4.075  16.251 -0.2486  0.4394  0.3364
  298TMC3    C4 4488   4.324   4.192  16.287  0.3035  0.3500 -0.3171
  298TMC3    C5 4489   4.210   4.241  16.345 -0.0860 -0.0253  0.8175
  298TMC3    C6 4490   4.087   4.180  16.346 -0.0968 -0.4167 -0.2976
  298TMC3     C 4491   4.429   4.015  16.156  0.6025 -0.1811  0.1678
  298TMC3     O 4492   4.423   3.892  16.174  0.3501  0.9419 -0.1418
  298TMC3     H 4493   4.177   3.945  16.111  2.2090  1.2301 -1.2078
  298TMC3    H1 4494   4.424   4.222  16.317 -0.4793  1.1764  1.4977
  298TMC3    H2 4495   4.000   4.210  16.402 -1.0709 -0.8833 -1.5595
  298TMC3    C7 4496   4.227   4.346  16.447 -0.1790 -0.0021  0.3259
  298TMC3    C8 4497   3.945   4.020  16.215  0.6314 -0.3841  0.7368
  298TMC3    O1 4498   4.335   4.369  16.500  0.4295 -0.2623  0.3727
  298TMC3    O2 4499   3.869   3.995  16.308 -0.7230 -0.5174  0.5083
  299MPD2     C 4500   0.351   3.558  10.357  0.4025 -0.4531 -0.4647
  299MPD2    C1 4501   0.386   3.697  10.348 -0.3329 -0.4973  0.0292
  299MPD2    C2 4502   0.296   3.789  10.296  0.1568  0.5121  0.2522
  299MPD2    C3 4503   0.176   3.738  10.250  0.2954  1.1270 -0.0052
  299MPD2    C4 4504   0.145   3.605  10.259  0.1052  0.5230  0.5921
  299MPD2    C5 4505   0.233   3.519  10.313 -0.1568 -0.0403  1.0208
  299MPD2     H 4506   0.309   3.897  10.295 -0.9788  0.6351 -0.8378
  299MPD2    H1 4507   0.049   3.560  10.236 -0.0606  1.0320  0.2759
  299MPD2    H2 4508   0.423   3.487  10.396 -1.3827 -0.6508  2.3959
  299MPD2    H3 4509   0.199   3.417  10.323  0.3501 -0.3594 -0.5323
  299MPD2     N 4510   0.082   3.823  10.181  0.9148  0.5776  0.0832
  299MPD2    H5 4511   4.715   3.785  10.162  1.9100 -0.9735 -1.5941
  299MPD2    N1 4512   0.507   3.738  10.403  0.5028  0.5551  0.4386
  299MPD2    H7 4513   0.558   3.664  10.450 -0.2868 -0.3316 -0.0940
  300TMC3    C1 4514   4.681   4.005  10.111 -0.5289 -0.4238 -0.3389
  300TMC3    C2 4515   4.671   4.132  10.161 -0.5705  0.0664  0.1117
  300TMC3    C3 4516   4.550   4.157  10.227 -0.3005 -0.6547  0.4295
  300TMC3    C4 4517   4.581   3.912  10.126  0.6170 -0.0680 -0.1527
  300TMC3    C5 4518   4.475   3.938  10.204 -0.7758 -0.2700 -0.3689
  300TMC3    C6 4519   4.458   4.064  10.260  0.4245 -0.6200 -0.3843
  300TMC3     C 4520   0.086   3.956  10.154 -0.0937 -0.4493 -0.2751
  300TMC3     O 4521   0.173   4.040  10.179 -0.1947  0.0751  0.0456
  300TMC3     H 4522   0.025   4.203  10.145  0.6802 -1.5586 -0.9305
  300TMC3    H1 4523   4.592   3.824  10.064 -0.1153 -0.0672 -0.2881
  300TMC3    H2 4524   4.391   4.088  10.341  1.6205 -0.2274  0.4857
  300TMC3    C7 4525   4.451   3.821  10.286 -0.2799  0.1839  0.0600
  300TMC3    C8 4526   4.552   4.289  10.284  0.3420  0.0295 -0.2944
  300TMC3    O1 4527   4.496   3.713  10.251  0.2880  0.1885 -0.5409
  300TMC3    O2 4528   4.662   4.336  10.317 -0.3606 -0.2564  0.1038
  301MPD2     C 4529   3.932   0.027   0.660 -0.2622 -0.1525  0.8940
  301MPD2    C1 4530   3.813   0.005   0.726  0.5716 -0.3095 -0.6242
  301MPD2    C2 4531   3.765   4.599   0.711 -0.4160 -0.1638  0.2783
  301MPD2    C3 4532   3.810   4.512   0.616 -0.0934 -0.7562 -0.5038
  301MPD2    C4 4533   3.926   4.540   0.549 -0.2509  0.1182 -0.8256
  301MPD2    C5 4534   3.994   4.657   0.578  0.8899 -0.3015 -0.1083
  301MPD2     H 4535   3.668   4.586   0.757 -0.0669 -1.5207  0.6273
  301MPD2    H1 4536   3.966   4.470   0.476  0.7816  0.6186 -0.7508
  301MPD2    H2 4537   3.989   0.120   0.662 -0.7077  0.1770 -2.4131
  301MPD2    H3 4538   4.078   4.697   0.521  0.8900 -1.2184 -0.7506
  301MPD2     N 4539   3.756   4.385   0.591  0.4395  0.1132 -0.0325
  301MPD2    H5 4540   3.801   4.333   0.517  0.2790  0.4858 -0.3914
  301MPD2    N1 4541   3.746   0.093   0.814 -0.2555 -0.2184 -0.2593
  301MPD2    H7 4542   3.650   0.073   0.838 -0.2080 -0.1949 -0.0530
  302TMC3    C1 4543   3.598   4.209   0.612  0.3553  0.5273 -0.4153
  302TMC3    C2 4544   3.685   4.109   0.630 -0.1542  0.2984  0.8271
  302TMC3    C3 4545   3.642   3.979   0.633 -0.1385  0.0881 -0.6516
  302TMC3    C4 4546   3.467   4.188   0.605  0.5825 -0.1993 -0.9204
  302TMC3    C5 4547   3.425   4.057   0.611 -0.2529  0.9669  0.0212
  302TMC3    C6 4548   3.509   3.951   0.618  0.3542 -0.3620  0.3777
  302TMC3     C 4549   3.638   4.342   0.643  0.0577 -0.6968 -0.1029
  302TMC3     O 4550   3.563   4.394   0.728 -0.5320  0.0869  0.2008
  302TMC3     H 4551   3.779   4.147   0.668  0.3723 -2.2699  2.0766
  302TMC3    H1 4552   3.396   4.270   0.599  0.2235 -0.4759 -0.4569
  302TMC3    H2 4553   3.479   3.847   0.611 -0.2286 -0.0036 -2.3061
  302TMC3    C7 4554   3.302   4.032   0.683  0.2915 -0.2339 -0.2037
  302TMC3    C8 4555   3.718   3.894   0.715 -0.7238  0.2119 -0.2123
  302TMC3    O1 4556   3.303   3.923   0.735 -0.2591  0.1697  0.3005
  302TMC3    O2 4557   3.773   3.951   0.810 -1.0112 -0.1038 -0.1594
  303MPD2     C 4558   2.764   2.451  10.124 -0.5760 -0.1979  0.1020
  303MPD2    C1 4559   2.668   2.359  10.084 -0.5244 -0.4110 -0.1482
  303MPD2    C2 4560   2.588   2.385   9.975 -1.0020  0.9662  0.4555
  303MPD2    C3 4561   2.617   2.493   9.899  0.2411  0.3079  0.1511
  303MPD2    C4 4562   2.718   2.580   9.935  0.5879  0.3126 -0.5851
  303MPD2    C5 4563   2.789   2.562  10.051 -1.3921  0.1862  0.4830
  303MPD2     H 4564   2.515   2.312   9.943 -0.4383 -0.3843  2.2406
  303MPD2    H1 4565   2.744   2.662   9.870 -2.2721 -1.8593 -4.4525
  303MPD2    H2 4566   2.825   2.443  10.214 -1.1081 -1.1037  0.3837
  303MPD2    H3 4567   2.868   2.632  10.076 -2.1853  0.7667  1.3761
  303MPD2     N 4568   2.544   2.531   9.787 -0.7070 -0.2484 -0.4391
  303MPD2    H5 4569   2.583   2.601   9.724 -0.9054 -0.0609 -0.3520
  303MPD2    N1 4570   2.648   2.240  10.165  0.3147 -0.0021 -0.1591
  303MPD2    H7 4571   2.706   2.235  10.249  0.3437 -0.4237 -0.2054
  304TMC3    C1 4572   2.561   2.049  10.265 -0.5145  0.3067 -0.0771
  304TMC3    C2 4573   2.574   2.111  10.387  0.5210 -0.1628  0.1436
  304TMC3    C3 4574   2.524   2.049  10.498 -0.1948  0.0375 -0.4694
  304TMC3    C4 4575   2.526   1.918  10.254 -0.2571  0.1031 -0.0433
  304TMC3    C5 4576   2.483   1.857  10.365 -0.0199 -0.3305 -0.1676
  304TMC3    C6 4577   2.481   1.924  10.484 -0.2595  0.0509 -0.1974
  304TMC3     C 4578   2.573   2.132  10.147  0.1476 -0.3700 -0.0739
  304TMC3     O 4579   2.509   2.103  10.048 -0.2445  0.6017  0.3589
  304TMC3     H 4580   2.588   2.219  10.387 -0.9809  0.0327  0.0774
  304TMC3    H1 4581   2.515   1.870  10.157 -0.7332 -1.0055  0.5748
  304TMC3    H2 4582   2.425   1.879  10.564 -0.8325  2.3353  0.6918
  304TMC3    C7 4583   2.356   1.797  10.343 -0.9307 -0.8348  0.7777
  304TMC3    C8 4584   2.424   2.138  10.560 -0.1187 -0.6190  0.4755
  304TMC3    O1 4585   2.262   1.848  10.396 -0.1560 -0.4264 -0.2719
  304TMC3    O2 4586   2.452   2.247  10.602 -0.8871 -0.0192 -0.0490
  305MPD2     C 4587   1.330   0.136  14.273  0.2679 -0.5157  0.2434
  305MPD2    C1 4588   1.349   0.272  14.249  0.0493 -0.6346  0.3686
  305MPD2    C2 4589   1.371   0.307  14.121  0.5118  0.2036  0.4252
  305MPD2    C3 4590   1.362   0.222  14.017 -0.2238  0.2602 -0.3046
  305MPD2    C4 4591   1.340   0.091  14.044 -0.2549  0.7191 -0.4001
  305MPD2    C5 4592   1.336   0.048  14.173  0.3794  0.3070 -0.0994
  305MPD2     H 4593   1.384   0.410  14.089  0.2763  0.6684  1.7989
  305MPD2    H1 4594   1.327   0.021  13.963  2.1081 -0.6335  0.3764
  305MPD2    H2 4595   1.329   0.099  14.375  0.3297  1.9841  1.1681
  305MPD2    H3 4596   1.317   4.667  14.185  0.7325  0.2371 -0.1478
  305MPD2     N 4597   1.377   0.254  13.876 -0.1459 -0.0537 -0.0468
  305MPD2    H5 4598   1.356   0.186  13.804  0.2622 -0.3838  0.1476
  305MPD2    N1 4599   1.348   0.365  14.358  0.3905  0.3419  0.6878
  305MPD2    H7 4600   1.349   0.323  14.450  0.8854 -0.5072  0.2973
  306TMC3    C1 4601   1.401   0.579  14.452  0.1955 -0.8733  0.0343
  306TMC3    C2 4602   1.520   0.537  14.508 -0.7954 -0.0687  0.1678
  306TMC3    C3 4603   1.589   0.621  14.594 -0.1327  0.1897  0.3103
  306TMC3    C4 4604   1.340   0.696  14.485 -0.3700 -0.3785  0.6687
  306TMC3    C5 4605   1.399   0.774  14.580 -0.3174  0.0756  0.1629
  306TMC3    C6 4606   1.530   0.742  14.631 -0.2906 -0.3562  0.2704
  306TMC3     C 4607   1.341   0.504  14.345 -0.4369  0.1141  0.9094
  306TMC3     O 4608   1.311   0.566  14.244  0.4925 -0.5646  0.5589
  306TMC3     H 4609   1.559   0.437  14.489  0.1511  0.4330 -0.5327
  306TMC3    H1 4610   1.254   0.731  14.427 -1.9793  1.0648  3.9421
  306TMC3    H2 4611   1.584   0.822  14.681  0.2577 -0.3765 -0.2953
  306TMC3    C7 4612   1.303   0.838  14.671  0.0303  0.2498 -0.3486
  306TMC3    C8 4613   1.657   0.547  14.694  0.0626  0.1434  0.1216
  306TMC3    O1 4614   1.184   0.831  14.636  0.0007 -0.3911  0.0948
  306TMC3    O2 4615   1.705   0.434  14.671 -0.0151  0.2520 -0.0034
  307MPD2     C 4616   3.930   2.998   0.073  0.5594  0.1811  0.0661
  307MPD2    C1 4617   3.830   3.089   0.099  0.5519  0.1140  0.5983
  307MPD2    C2 4618   3.739   3.060   0.200  0.5288  0.6850  0.2421
  307MPD2    C3 4619   3.731   2.938   0.267  0.3463  0.1466 -0.2884
  307MPD2    C4 4620   3.826   2.839   0.227  0.5900 -0.3718 -0.3553
  307MPD2    C5 4621   3.922   2.871   0.132 -0.2334 -0.2924  0.5061
  307MPD2     H 4622   3.658   3.129   0.221 -0.5895 -0.1197 -1.3634
  307MPD2    H1 4623   3.844   2.747   0.282  0.1088 -1.7024 -2.4171
  307MPD2    H2 4624   4.013   3.008   0.005  1.2401 -0.2230  0.8365
  307MPD2    H3 4625   4.005   2.802   0.119 -0.4820 -0.1509 -1.8161
  307MPD2     N 4626   3.638   2.931   0.372  0.1371  0.3496  0.0272
  307MPD2    H5 4627   3.579   3.013   0.385  0.8270  0.9447 -0.6008
  307MPD2    N1 4628   3.819   3.214   0.042  0.0890 -0.5518  0.3323
  307MPD2    H7 4629   3.750   3.270   0.091 -0.0986  1.3494 -2.1619
  308TMC3    C1 4630   3.290   2.817   0.633  0.5014  0.6884  0.1361
  308TMC3    C2 4631   3.303   2.931   0.709  0.2318  0.4766  0.3968
  308TMC3    C3 4632   3.431   2.988   0.711  0.0925 -0.3898  0.2084
  308TMC3    C4 4633   3.384   2.786   0.546 -0.4640  0.1310 -0.6761
  308TMC3    C5 4634   3.503   2.855   0.540  0.1488 -0.1788 -0.5672
  308TMC3    C6 4635   3.536   2.954   0.626 -0.7104 -0.7073 -0.4153
  308TMC3     C 4636   3.154   2.765   0.602 -0.3805  0.2859 -0.9418
  308TMC3     O 4637   3.142   2.655   0.557  0.3223 -0.0806 -0.0831
  308TMC3     H 4638   3.234   2.948   0.791 -1.2820  0.0595 -0.7964
  308TMC3    H1 4639   3.358   2.703   0.481 -0.2622  0.5988 -1.3490
  308TMC3    H2 4640   3.627   3.012   0.634 -0.9578 -0.1131 -1.8582
  308TMC3    C7 4641   3.612   2.819   0.447 -0.1119  0.5569  0.1252
  308TMC3    C8 4642   3.468   3.102   0.800  0.9863 -0.0526 -0.1216
  308TMC3    O1 4643   3.659   2.706   0.445 -0.2626  0.6496  0.2335
  308TMC3    O2 4644   3.583   3.109   0.835  0.4390 -0.5681 -0.6069
  309MPD2     C 4645   2.820   3.905  17.549 -0.0826  0.2621 -0.2039
  309MPD2    C1 4646   2.776   3.943  17.419  0.0286  0.4289 -0.7659
  309MPD2    C2 4647   2.642   3.947  17.396 -0.0886  0.5427  0.2384
  309MPD2    C3 4648   2.554   3.931  17.508  0.2327 -0.7557  0.1412
  309MPD2    C4 4649   2.598   3.891  17.634 -0.5042 -0.0313  0.0482
  309MPD2    C5 4650   2.736   3.890  17.656 -0.0412  0.5358  0.4162
  309MPD2     H 4651   2.605   3.967  17.296  0.8478  0.5700 -0.0973
  309MPD2    H1 4652   2.540   3.876   0.023  2.4060  2.2845  2.3328
  309MPD2    H2 4653   2.925   3.905  17.573 -0.4542  0.7663  1.4193
  309MPD2    H3 4654   2.772   3.863   0.053 -0.6246  1.1071  0.7858
  309MPD2     N 4655   2.415   3.941  17.501 -0.1668 -0.0088 -0.2610
  309MPD2    H5 4656   2.359   3.923  17.584  0.0422 -0.5174 -0.2312
  309MPD2    N1 4657   2.864   3.972  17.309  0.2259  0.4980 -1.1350
  309MPD2    H7 4658   2.817   3.985  17.220  0.7776  2.6822 -1.1079
  310TMC3    C1 4659   3.056   3.964  17.170  0.6217 -0.1345 -0.5406
  310TMC3    C2 4660   2.974   4.005  17.068  0.4179  0.4837  0.3045
  310TMC3    C3 4661   3.031   3.996  16.944 -0.3623  0.1113 -0.1668
  310TMC3    C4 4662   3.186   3.919  17.160  0.1395  0.3761 -0.0659
  310TMC3    C5 4663   3.239   3.927  17.038  0.7507  0.3826 -0.1877
  310TMC3    C6 4664   3.168   3.968  16.932 -0.0291 -0.0254  0.0337
  310TMC3     C 4665   3.003   3.955  17.308  0.4209 -0.3355 -0.1192
  310TMC3     O 4666   3.072   3.931  17.404  0.2020  0.4790  0.6537
  310TMC3     H 4667   2.868   4.030  17.070 -0.2870 -2.2094 -2.0427
  310TMC3    H1 4668   3.239   3.887  17.249 -0.4731 -2.9068 -0.8816
  310TMC3    H2 4669   3.216   3.940  16.840 -0.8553  0.3438 -0.5096
  310TMC3    C7 4670   3.380   3.892  17.018 -0.2435 -0.2780 -0.4745
  310TMC3    C8 4671   2.961   4.036  16.828  0.0956 -0.0643 -0.3128
  310TMC3    O1 4672   3.420   3.785  17.068 -0.0577 -0.0964 -0.2450
  310TMC3    O2 4673   2.840   4.011  16.818  0.5756 -0.1853  0.4810
  311MPD2     C 4674   0.524   0.236  13.158 -0.3320  0.1445  0.4146
  311MPD2    C1 4675   0.477   0.350  13.097 -0.3970  0.6452 -0.8197
  311MPD2    C2 4676   0.341   0.369  13.124  0.1172  0.5519  0.5376
  311MPD2    C3 4677   0.256   0.283  13.188 -0.4189 -0.3339 -0.3653
  311MPD2    C4 4678   0.307   0.152  13.216 -0.3915  0.3464 -0.4471
  311MPD2    C5 4679   0.438   0.143  13.208  0.3700  0.5318  0.0723
  311MPD2     H 4680   0.307   0.467  13.093  2.9943  0.4585 -2.8844
  311MPD2    H1 4681   0.250   0.069  13.255  0.0153 -0.6460 -1.9898
  311MPD2    H2 4682   0.629   0.210  13.157 -0.3036  0.2715 -0.2521
  311MPD2    H3 4683   0.484   0.056  13.252 -2.3517 -0.5131  0.8200
  311MPD2     N 4684   0.119   0.315  13.206  0.3381  0.3562 -0.1824
  311MPD2    H5 4685   0.096   0.414  13.206 -0.0460  0.2697  0.2839
  311MPD2    N1 4686   0.549   0.447  13.025  0.4988 -0.2993 -0.4673
  311MPD2    H7 4687   0.496   0.524  12.986 -1.0827 -0.5396  1.1983
  312TMC3    C1 4688   4.611   0.300  13.230 -0.0581  0.3097 -0.0708
  312TMC3    C2 4689   4.520   0.268  13.133 -0.6284  0.4682  0.0650
  312TMC3    C3 4690   4.417   0.362  13.112  0.2154 -0.2859  0.1119
  312TMC3    C4 4691   4.600   0.406  13.311  0.0862  1.0040  0.1472
  312TMC3    C5 4692   4.490   0.489  13.290 -0.3648 -0.1861 -0.2972
  312TMC3    C6 4693   4.404   0.475  13.186 -0.2313  1.1150  0.2676
  312TMC3     C 4694   0.008   0.230  13.207 -0.0744  0.5584  0.2029
  312TMC3     O 4695   0.005   0.107  13.186 -0.0709  0.2987  0.3774
  312TMC3     H 4696   4.534   0.173  13.082 -0.0000 -0.1298  1.3568
  312TMC3    H1 4697   4.679   0.425  13.382  1.0785 -0.3586 -0.6089
  312TMC3    H2 4698   4.325   0.548  13.169 -1.1274  0.6587  2.5441
  312TMC3    C7 4699   4.441   0.589  13.388  0.0954 -0.0429  0.1068
  312TMC3    C8 4700   4.314   0.326  13.018  0.2653 -1.2629 -0.7688
  312TMC3    O1 4701   4.343   0.650  13.351 -0.2809 -0.0088  0.4367
  312TMC3    O2 4702   4.210   0.277  13.065 -0.3679 -0.2398 -0.2374
  313MPD2     C 4703   4.042   4.290  10.788 -0.3370  0.2549  0.4366
  313MPD2    C1 4704   3.908   4.255  10.794 -0.6765  0.1750 -0.2139
  313MPD2    C2 4705   3.855   4.179  10.689 -0.5928  0.0946  0.2644
  313MPD2    C3 4706   3.927   4.147  10.578  0.0898 -0.3139 -0.6328
  313MPD2    C4 4707   4.060   4.174  10.576 -0.3369  0.2569 -0.1385
  313MPD2    C5 4708   4.113   4.245  10.682  0.1675  0.2469 -0.0961
  313MPD2     H 4709   3.751   4.151  10.695 -0.9546  1.4919  0.5557
  313MPD2    H1 4710   4.123   4.150  10.491 -0.5272 -1.8932  0.3354
  313MPD2    H2 4711   4.100   4.337  10.866  0.7341 -1.7273  0.8248
  313MPD2    H3 4712   4.219   4.259  10.668  0.3381 -0.4632  0.4979
  313MPD2     N 4713   3.859   4.091  10.468 -0.5671  0.3221  0.5153
  313MPD2    H5 4714   3.763   4.063  10.483 -1.2575  2.3568 -0.0601
  313MPD2    N1 4715   3.822   4.293  10.906 -0.1934 -0.4503 -0.1335
  313MPD2    H7 4716   3.725   4.265  10.903  0.2785 -2.4233  4.1632
  314TMC3    C1 4717   3.761   4.442  11.076  0.0149  0.9028  0.2370
  314TMC3    C2 4718   3.816   4.542  11.162 -0.6047  0.3837  0.6223
  314TMC3    C3 4719   3.763   4.663  11.153 -0.1221  0.2580 -0.4491
  314TMC3    C4 4720   3.648   4.464  11.009  0.4430 -0.2958  0.1259
  314TMC3    C5 4721   3.591   4.584  11.034 -0.3419  0.1194  0.2312
  314TMC3    C6 4722   3.654   4.690  11.081  0.6090 -0.2164  0.0168
  314TMC3     C 4723   3.868   4.376  11.006  0.0636  0.3741  0.1551
  314TMC3     O 4724   3.982   4.408  11.033  0.0099  0.1883 -1.2548
  314TMC3     H 4725   3.895   4.515  11.230 -1.0559 -0.5994  0.7555
  314TMC3    H1 4726   3.598   4.387  10.951  0.1013  0.4099 -0.5167
  314TMC3    H2 4727   3.605   0.061  11.072 -1.3454 -1.2467 -0.2034
  314TMC3    C7 4728   3.521   4.615  10.909 -0.1894 -0.3278 -0.6420
  314TMC3    C8 4729   3.861   0.049  11.149 -0.6636  0.7661  0.6888
  314TMC3    O1 4730   3.413   4.559  10.895 -0.2682  0.1881 -0.2863
  314TMC3    O2 4731   3.816   0.154  11.112 -0.4056 -0.2164  0.1742
  315MPD2     C 4732   3.872   3.262   0.517 -0.4765 -0.2011  0.4581
  315MPD2    C1 4733   3.997   3.303   0.543  0.1380  0.8627  0.0699
  315MPD2    C2 4734   4.046   3.426   0.499  0.2246 -1.1799  0.3759
  315MPD2    C3 4735   3.958   3.512   0.431 -0.0750  0.6405 -0.1183
  315MPD2    C4 4736   3.835   3.466   0.389  0.6962 -0.0386  0.5727
  315MPD2    C5 4737   3.795   3.340   0.432 -0.7175 -0.1218 -0.3665
  315MPD2     H 4738   4.146   3.459   0.524 -0.6154  0.8546  1.0200
  315MPD2    H1 4739   3.755   3.524   0.343  2.2152  0.9439 -0.8252
  315MPD2    H2 4740   3.840   3.160   0.537 -1.6121  0.4201  1.8461
  315MPD2    H3 4741   3.699   3.309   0.392 -0.5879  1.8915 -2.2538
  315MPD2     N 4742   4.009   3.634   0.394 -0.4640  0.3326 -0.3438
  315MPD2    H5 4743   4.109   3.646   0.395 -0.5518  1.2452 -2.3888
  315MPD2    N1 4744   4.101   3.224   0.598  0.2064 -0.0449  0.3708
  315MPD2    H7 4745   4.193   3.265   0.611  0.5215 -0.4823 -0.4979
  316TMC3    C1 4746   4.018   3.856   0.310  0.8231 -0.4401  0.1436
  316TMC3    C2 4747   4.144   3.876   0.360  0.2085  0.3236  1.1048
  316TMC3    C3 4748   4.233   3.934   0.279  0.5531 -0.1755  0.0718
  316TMC3    C4 4749   3.987   3.914   0.190 -0.4220 -0.1832  0.3320
  316TMC3    C5 4750   4.073   3.986   0.113  0.7180 -0.0679 -0.3189
  316TMC3    C6 4751   4.204   3.995   0.162 -0.2407  0.6407  0.6727
  316TMC3     C 4752   3.935   3.740   0.345 -0.5953 -0.6823  0.5678
  316TMC3     O 4753   3.816   3.752   0.323  0.2008  0.8879 -0.4386
  316TMC3     H 4754   4.175   3.816   0.445  0.9811 -0.6716  0.1176
  316TMC3    H1 4755   3.889   3.907   0.143 -0.0329  0.7036 -0.6023
  316TMC3    H2 4756   4.290   4.038   0.112 -1.5219  1.7875 -0.5421
  316TMC3    C7 4757   4.067   3.975  17.673 -0.1340 -0.2995  0.4301
  316TMC3    C8 4758   4.358   3.976   0.345  0.5353  0.0329  1.3143
  316TMC3    O1 4759   3.989   3.894  17.631 -0.2394  0.0323 -0.3842
  316TMC3    O2 4760   4.402   4.087   0.312 -0.1258  0.1715 -0.2569
  317MPD2     C 4761   1.166   2.173  12.408  0.2060  0.2367 -0.0684
  317MPD2    C1 4762   1.249   2.072  12.377 -0.3885  0.6355 -0.9120
  317MPD2    C2 4763   1.343   2.033  12.468 -0.7887 -0.5570  0.4031
  317MPD2    C3 4764   1.347   2.103  12.586 -0.1749 -0.4645  0.4647
  317MPD2    C4 4765   1.254   2.207  12.616 -0.1361  0.7563  0.4840
  317MPD2    C5 4766   1.169   2.246  12.523  0.0351 -0.9688 -0.6372
  317MPD2     H 4767   1.415   1.955  12.447  0.2299  0.5598 -0.2868
  317MPD2    H1 4768   1.254   2.268  12.706  2.9627 -0.0718  1.0598
  317MPD2    H2 4769   1.108   2.219  12.329  3.7195  2.2081 -1.5138
  317MPD2    H3 4770   1.094   2.323  12.533 -1.7767 -2.5462 -2.0602
  317MPD2     N 4771   1.435   2.049  12.679  0.6229  0.3480  0.3933
  317MPD2    H5 4772   1.491   1.968  12.653 -3.2752 -1.4594 -2.4400
  317MPD2    N1 4773   1.247   2.005  12.252  0.9856  0.8171  0.0069
  317MPD2    H7 4774   1.320   1.934  12.248  1.6067  1.4027  0.8336
  318TMC3    C1 4775   1.530   2.013  12.895 -0.3848  0.5004  0.3069
  318TMC3    C2 4776   1.493   1.887  12.891 -0.5649  0.6217 -0.3514
  318TMC3    C3 4777   1.565   1.800  12.976  0.1199  0.1766 -0.5654
  318TMC3    C4 4778   1.638   2.056  12.976 -0.5960 -0.3350  0.4075
  318TMC3    C5 4779   1.713   1.959  13.037 -0.5409  0.3860  0.1569
  318TMC3    C6 4780   1.680   1.826  13.042 -0.2899 -0.2495  0.0236
  318TMC3     C 4781   1.464   2.102  12.804  0.5068 -0.4669 -0.2968
  318TMC3     O 4782   1.436   2.215  12.847 -0.3053 -0.1872  0.1203
  318TMC3     H 4783   1.422   1.842  12.822 -1.0219  0.0022  0.5255
  318TMC3    H1 4784   1.678   2.156  12.960  0.0820 -0.8350 -1.0879
  318TMC3    H2 4785   1.721   1.760  13.117  0.4769  0.0263 -0.1527
  318TMC3    C7 4786   1.831   1.997  13.117  0.9777 -0.2878  0.9215
  318TMC3    C8 4787   1.498   1.672  13.021  0.0089  0.0597 -0.1241
  318TMC3    O1 4788   1.847   2.120  13.134 -0.6143  0.0837 -0.9425
  318TMC3    O2 4789   1.564   1.585  13.079  0.5052 -0.5525 -0.0222
  319MPD2     C 4790   2.092   3.222  16.808 -0.2008  0.3798  0.2192
  319MPD2    C1 4791   2.028   3.125  16.883 -0.4450 -0.4728 -0.1726
  319MPD2    C2 4792   1.920   3.068  16.815 -0.2516  0.6613  0.1194
  319MPD2    C3 4793   1.884   3.085  16.683 -0.1488  0.1903 -0.2351
  319MPD2    C4 4794   1.956   3.176  16.614  0.5982  0.5855 -0.5479
  319MPD2    C5 4795   2.059   3.242  16.678  0.3666 -0.5098 -0.4889
  319MPD2     H 4796   1.860   2.999  16.874  0.1869  1.2998  1.3136
  319MPD2    H1 4797   1.939   3.195  16.509  2.1507 -0.3324 -0.9628
  319MPD2    H2 4798   2.177   3.274  16.852 -0.4516 -0.1759  1.3666
  319MPD2    H3 4799   2.128   3.305  16.622 -0.3529  0.3280 -0.4396
  319MPD2     N 4800   1.776   3.021  16.619 -0.0286 -0.0531  0.1739
  319MPD2    H5 4801   1.761   3.060  16.526 -0.8462 -0.5938  0.0892
  319MPD2    N1 4802   2.050   3.106  17.020 -0.2782 -0.2811 -0.0911
  319MPD2    H7 4803   1.988   3.041  17.068 -0.9730 -0.1766 -0.8549
  320TMC3    C1 4804   1.602   2.879  16.576 -0.3293  0.4751  1.0994
  320TMC3    C2 4805   1.529   2.978  16.519  0.4226  0.4021  0.6964
  320TMC3    C3 4806   1.441   2.944  16.417  0.4696  0.1441 -0.2484
  320TMC3    C4 4807   1.592   2.747  16.540 -0.3268  0.1265  0.6392
  320TMC3    C5 4808   1.505   2.727  16.439 -0.2270 -0.4227 -0.1710
  320TMC3    C6 4809   1.428   2.816  16.377 -0.4508  0.8630  0.2265
  320TMC3     C 4810   1.699   2.921  16.672  0.2537  0.2567 -1.1679
  320TMC3     O 4811   1.687   2.876  16.786 -0.0446 -0.0479  0.3559
  320TMC3     H 4812   1.531   3.077  16.563 -0.6585  0.3535  0.8547
  320TMC3    H1 4813   1.648   2.677  16.599 -2.8783 -1.3973  1.2620
  320TMC3    H2 4814   1.346   2.783  16.315 -0.3623  1.6694 -0.3222
  320TMC3    C7 4815   1.498   2.593  16.386 -0.3087  0.7563  0.1386
  320TMC3    C8 4816   1.396   3.050  16.320 -0.5076 -0.5370  0.1988
  320TMC3    O1 4817   1.414   2.573  16.302 -0.0975 -0.1069  0.1414
  320TMC3    O2 4818   1.410   3.168  16.350 -0.3993  0.6591 -0.5944
  321TMC3    C1 4819   2.119   3.143  17.231  0.1655 -0.0160 -0.4542
  321TMC3    C2 4820   2.183   3.040  17.301  0.8256 -0.1612  0.0061
  321TMC3    C3 4821   2.224   3.071  17.425 -0.3012 -0.0177  0.0142
  321TMC3    C4 4822   2.088   3.268  17.280  0.7253  0.9720 -0.7351
  321TMC3    C5 4823   2.130   3.300  17.404 -0.4323  0.6188  0.2973
  321TMC3    C6 4824   2.196   3.201  17.473 -0.2321 -0.3250 -0.3159
  321TMC3     C 4825   2.151   3.161  17.092  0.0306 -0.3994  0.3988
  321TMC3     O 4826   2.240   3.240  17.072 -0.2326 -0.6016 -0.2949
  321TMC3     H 4827   2.230   2.955  17.252  2.3128  1.6135 -1.6834
  321TMC3    H1 4828   2.062   3.338  17.202  1.6773 -0.2291 -2.1497
  321TMC3    H2 4829   2.222   3.221  17.576  0.1678 -1.2825 -0.2273
  321TMC3    C7 4830   2.225   3.406  17.395 -0.0150 -0.3402  0.0530
  321TMC3    C8 4831   2.352   3.016  17.455  0.2307 -0.1089  0.5824
  321TMC3    O1 4832   2.335   3.370  17.436  0.3761 -0.2712  0.2226
  321TMC3    O2 4833   2.377   2.897  17.427 -0.6938 -0.1509 -0.5767
  322MPD2     C 4834   1.056   4.187  13.156  0.0895 -0.2250 -1.3563
  322MPD2    C1 4835   0.994   4.172  13.277 -0.6533  0.2479  0.1125
  322MPD2    C2 4836   0.964   4.042  13.313  0.2803  0.0435  0.0845
  322MPD2    C3 4837   0.985   3.933  13.228 -0.0365 -0.2991  0.4979
  322MPD2    C4 4838   1.037   3.955  13.100 -0.1546  0.3932  0.2268
  322MPD2    C5 4839   1.071   4.080  13.070 -0.3283 -0.3019 -0.5010
  322MPD2     H 4840   0.937   4.024  13.416 -0.1615  0.0221 -0.0359
  322MPD2    H1 4841   1.069   3.878  13.031 -0.9023 -0.6332  1.0127
  322MPD2    H2 4842   1.083   4.286  13.121  1.6144 -0.0426  0.3336
  322MPD2    H3 4843   1.106   4.110  12.972  1.3224  1.1233  0.5116
  322MPD2     N 4844   0.963   3.805  13.270 -0.2117  0.2488  0.0363
  322MPD2    H5 4845   0.927   3.786  13.363  0.5338  0.1974  0.3126
  322MPD2    N1 4846   0.973   4.285  13.353  0.0311 -0.4736 -0.2041
  322MPD2    H7 4847   1.002   4.378  13.323 -3.4719 -0.1812 -2.5578
  323TMC3    C1 4848   0.886   4.422  13.526 -0.3782 -0.4858  0.6983
  323TMC3    C2 4849   1.000   4.496  13.537 -0.8296  0.0954 -0.2060
  323TMC3    C3 4850   1.023   4.569  13.648  0.6307  0.3255 -0.7842
  323TMC3    C4 4851   0.791   4.422  13.629  0.4654  1.1119 -0.5202
  323TMC3    C5 4852   0.813   4.506  13.736  0.6667 -1.1034  0.5327
  323TMC3    C6 4853   0.925   4.595  13.740  0.1985  0.3857 -0.0193
  323TMC3     C 4854   0.898   4.288  13.467  0.4160  0.3491 -0.4307
  323TMC3     O 4855   0.847   4.195  13.528  0.3659  0.0797 -0.1410
  323TMC3     H 4856   1.073   4.478  13.458  0.5872 -1.4184  1.4296
  323TMC3    H1 4857   0.716   4.344  13.630  1.3374  0.3201  1.6899
  323TMC3    H2 4858   0.941   4.663  13.823  1.5570 -1.1137  0.9429
  323TMC3    C7 4859   0.768   4.462  13.863 -0.2569  0.0124 -0.1119
  323TMC3    C8 4860   1.145   4.651  13.667  0.5584  0.3169  0.7015
  323TMC3    O1 4861   0.756   4.339  13.871 -0.0455 -0.5290 -0.1850
  323TMC3    O2 4862   1.181   4.687  13.780 -0.3496  0.2854  0.3055
  324MPD2     C 4863   2.939   1.359  14.501 -0.0889  0.0325 -0.3752
  324MPD2    C1 4864   2.979   1.463  14.417 -0.3885  0.1583  0.2087
  324MPD2    C2 4865   2.902   1.489  14.313  0.3745 -0.3956  0.1360
  324MPD2    C3 4866   2.787   1.417  14.282 -0.0034 -0.8247 -0.4301
  324MPD2    C4 4867   2.747   1.313  14.355 -0.1904 -0.7126  0.1643
  324MPD2    C5 4868   2.828   1.287  14.469  0.3075  0.5781 -0.0573
  324MPD2     H 4869   2.943   1.554  14.237 -1.8160 -0.8575 -1.4240
  324MPD2    H1 4870   2.647   1.272  14.343 -1.0143  1.3455 -0.0027
  324MPD2    H2 4871   2.983   1.322  14.594 -0.2325 -0.5215 -0.5308
  324MPD2    H3 4872   2.798   1.206  14.535 -0.9050  0.2212 -1.0536
  324MPD2     N 4873   2.710   1.462  14.171 -0.4739  0.1001 -0.2249
  324MPD2    H5 4874   2.636   1.401  14.137 -0.8407  1.0678 -1.1447
  324MPD2    N1 4875   3.106   1.534  14.439 -0.3676 -0.0599 -0.4163
  324MPD2    H7 4876   3.118   1.627  14.401 -0.8744 -0.5882 -1.8623
  325TMC3    C1 4877   2.626   1.619  14.005  0.4291  0.0568 -0.2195
  325TMC3    C2 4878   2.584   1.522  13.922  0.0819 -0.1246  0.9802
  325TMC3    C3 4879   2.474   1.545  13.836 -0.0199 -0.7539  0.7667
  325TMC3    C4 4880   2.584   1.746  13.987  0.2245  0.3381  0.0400
  325TMC3    C5 4881   2.491   1.765  13.894 -0.6915 -0.7238  1.5571
  325TMC3    C6 4882   2.433   1.669  13.825 -0.0415 -0.0749  0.2464
  325TMC3     C 4883   2.720   1.594  14.113  0.0416  0.5385  0.2245
  325TMC3     O 4884   2.782   1.695  14.137  0.4181 -0.9813  0.3314
  325TMC3     H 4885   2.610   1.418  13.939 -0.4032 -0.3284  0.4588
  325TMC3    H1 4886   2.618   1.823  14.055  0.7248  0.1104  0.0535
  325TMC3    H2 4887   2.363   1.702  13.748 -0.8126 -0.0869  0.9467
  325TMC3    C7 4888   2.384   1.854  13.930  0.6630  0.0645  0.7424
  325TMC3    C8 4889   2.391   1.430  13.810  0.3830  0.5153 -0.6413
  325TMC3    O1 4890   2.329   1.924  13.842  0.4573  0.1689 -0.4773
  325TMC3    O2 4891   2.434   1.317  13.835  0.2322 -0.6289  0.3229
  326MPD2     C 4892   3.296   2.340  11.046 -0.1907  0.1423 -0.1693
  326MPD2    C1 4893   3.233   2.348  10.925  0.1861  0.7214 -0.0651
  326MPD2    C2 4894   3.296   2.410  10.824  0.3977  0.0308 -0.0343
  326MPD2    C3 4895   3.414   2.476  10.833  0.5309 -0.4851  0.4341
  326MPD2    C4 4896   3.475   2.475  10.962  0.3766  0.4065  1.0626
  326MPD2    C5 4897   3.412   2.408  11.065  0.3959 -0.0600 -0.6487
  326MPD2     H 4898   3.232   2.424  10.738  0.5979  1.5482  0.0713
  326MPD2    H1 4899   3.566   2.533  10.975 -0.3422  1.7392  0.1711
  326MPD2    H2 4900   3.255   2.289  11.132 -0.3329 -1.7347 -1.3402
  326MPD2    H3 4901   3.452   2.406  11.166  1.2392 -0.4352 -0.9810
  326MPD2     N 4902   3.458   2.575  10.745  0.2361  0.1589  0.2885
  326MPD2    H5 4903   3.527   2.645  10.770  0.6938 -0.3242  0.3833
  326MPD2    N1 4904   3.101   2.304  10.904  0.0466  0.0452 -0.0666
  326MPD2    H7 4905   3.071   2.297  10.808 -0.1217 -0.8629  0.0508
  327TMC3    C1 4906   2.886   2.247  10.951  0.6248 -0.5706 -0.4054
  327TMC3    C2 4907   2.838   2.354  10.885  0.5151 -0.3339  0.4380
  327TMC3    C3 4908   2.768   2.331  10.772  0.7869  0.7821  0.1337
  327TMC3    C4 4909   2.868   2.117  10.905  0.9203  0.7853  0.0407
  327TMC3    C5 4910   2.802   2.105  10.787  0.1630 -0.3061  0.1707
  327TMC3    C6 4911   2.748   2.212  10.722 -0.2674  0.4024  0.7874
  327TMC3     C 4912   3.017   2.275  11.007 -0.5865  0.2171  0.5099
  327TMC3     O 4913   3.029   2.279  11.125 -0.3515 -0.1729  0.4607
  327TMC3     H 4914   2.855   2.458  10.910 -2.2748  0.2055 -0.0121
  327TMC3    H1 4915   2.894   2.028  10.961 -3.4647 -0.0770  0.6649
  327TMC3    H2 4916   2.694   2.195  10.630 -0.7025  1.2532  0.8902
  327TMC3    C7 4917   2.855   1.997  10.709  1.2775  0.3357 -0.0557
  327TMC3    C8 4918   2.772   2.436  10.677  0.3261  0.3797  0.0099
  327TMC3    O1 4919   2.780   1.925  10.640  0.2373 -0.4181 -0.4248
  327TMC3    O2 4920   2.848   2.527  10.699  0.8756 -0.2780 -0.1913
  328MPD2     C 4921   1.554   2.199  17.287  0.0894  0.2020 -0.0187
  328MPD2    C1 4922   1.472   2.111  17.217 -0.1575  0.5384  0.5396
  328MPD2    C2 4923   1.466   2.123  17.081  0.0226  0.2326  0.0773
  328MPD2    C3 4924   1.520   2.231  17.011  0.0016  0.7567 -0.6974
  328MPD2    C4 4925   1.615   2.304  17.078 -0.5479  0.3856  0.2759
  328MPD2    C5 4926   1.620   2.296  17.214  0.0154  0.3315  0.2020
  328MPD2     H 4927   1.404   2.056  17.024 -1.8315  0.2637  2.0102
  328MPD2    H1 4928   1.664   2.387  17.027  0.6280 -1.0937 -1.0184
  328MPD2    H2 4929   1.561   2.193  17.395  0.1082 -0.0687 -0.0343
  328MPD2    H3 4930   1.681   2.370  17.263  0.3264 -0.8085  1.5577
  328MPD2     N 4931   1.493   2.265  16.879  0.7395 -0.2276 -0.3717
  328MPD2    H5 4932   1.528   2.355  16.848  1.3119  0.1153  1.2848
  328MPD2    N1 4933   1.386   2.033  17.302 -0.5840  0.1558 -0.1027
  328MPD2    H7 4934   1.382   2.049  17.402  0.3529 -2.1179  0.2888
  329TMC3    C1 4935   1.185   1.919  17.328 -0.0273  0.3806 -0.1767
  329TMC3    C2 4936   1.123   2.033  17.359 -0.1865  0.2548  0.3866
  329TMC3    C3 4937   0.992   2.061  17.331 -0.2613 -0.3445 -0.3153
  329TMC3    C4 4938   1.101   1.822  17.282 -0.4720 -0.3327 -0.1769
  329TMC3    C5 4939   0.965   1.846  17.273  0.0104 -1.1473 -0.1019
  329TMC3    C6 4940   0.912   1.964  17.290  0.2697 -0.6530  0.1737
  329TMC3     C 4941   1.306   1.939  17.246 -0.1122  0.8569 -0.0194
  329TMC3     O 4942   1.307   1.878  17.139 -0.0639 -0.2276  0.3403
  329TMC3     H 4943   1.184   2.119  17.384 -0.4454  0.0211  1.8475
  329TMC3    H1 4944   1.153   1.729  17.264 -1.1469 -1.1155  1.8793
  329TMC3    H2 4945   0.810   1.982  17.258  0.3437  0.7102  0.7212
  329TMC3    C7 4946   0.863   1.745  17.288 -1.0254 -0.4617  0.2819
  329TMC3    C8 4947   0.947   2.195  17.308  0.3022  0.1240 -0.4825
  329TMC3    O1 4948   0.770   1.790  17.354 -0.1647  0.5273  0.6063
  329TMC3    O2 4949   0.864   2.201  17.219  0.1039 -0.5338 -0.0342
  330TMC3    C1 4950   4.142   1.039   9.894 -0.3065 -0.5714 -0.1174
  330TMC3    C2 4951   4.114   0.912   9.845  0.4871  0.4190 -0.5524
  330TMC3    C3 4952   4.223   0.841   9.802 -0.6273  0.0975 -0.3861
  330TMC3    C4 4953   4.266   1.100   9.890 -0.4560  0.6335 -0.0719
  330TMC3    C5 4954   4.369   1.020   9.849  0.2137  0.6056 -0.3686
  330TMC3    C6 4955   4.349   0.891   9.815 -0.0336  0.1256 -0.9768
  330TMC3     C 4956   4.054   1.092   9.999 -0.1817  0.6276 -0.0269
  330TMC3     O 4957   4.095   1.169  10.085 -0.0669 -0.0333  0.2959
  330TMC3     H 4958   4.013   0.874   9.842  1.2264 -1.7115  1.0971
  330TMC3    H1 4959   4.277   1.206   9.911  0.4452  0.6877 -0.8506
  330TMC3    H2 4960   4.431   0.820   9.809  0.5818  0.7071  0.5451
  330TMC3    C7 4961   4.507   1.060   9.872 -0.2507 -0.2772  0.0296
  330TMC3    C8 4962   4.200   0.714   9.735 -0.0316  0.4498 -0.5686
  330TMC3    O1 4963   4.591   0.973   9.898 -0.2997  0.0076  0.1146
  330TMC3    O2 4964   4.090   0.661   9.743 -0.0015 -0.1670 -0.1046
  331MPD2     C 4965   3.344   1.118  12.114 -0.3021  0.5044 -0.0793
  331MPD2    C1 4966   3.258   1.124  12.005  0.5651  0.2328 -0.0733
  331MPD2    C2 4967   3.120   1.090  12.033  0.5848  0.1750  0.3895
  331MPD2    C3 4968   3.083   1.042  12.157  0.4712 -0.3122  0.1584
  331MPD2    C4 4969   3.182   1.024  12.255 -0.1596  0.2924  0.0493
  331MPD2    C5 4970   3.308   1.054  12.233 -0.2007  0.5775 -0.1615
  331MPD2     H 4971   3.041   1.086  11.959  1.4616 -0.8382 -0.4898
  331MPD2    H1 4972   3.163   0.982  12.353 -0.5970 -1.1959 -0.6699
  331MPD2    H2 4973   3.444   1.153  12.093 -0.0666 -1.2170 -1.8452
  331MPD2    H3 4974   3.380   1.046  12.313 -1.3864  0.1759  0.8630
  331MPD2     N 4975   2.953   0.980  12.168 -0.0013 -0.5268 -0.4791
  331MPD2    H5 4976   2.897   0.979  12.084 -0.4718 -0.6806 -0.1673
  331MPD2    N1 4977   3.312   1.192  11.891  0.1723  0.8154  0.1122
  331MPD2    H7 4978   3.413   1.194  11.884  0.3465 -3.3114  1.3472
  332TMC3    C1 4979   2.796   0.829  12.264  0.1626  0.4415 -0.3835
  332TMC3    C2 4980   2.702   0.855  12.169  0.6732  0.5862 -0.5025
  332TMC3    C3 4981   2.620   0.751  12.137  0.0137 -0.2644  0.8834
  332TMC3    C4 4982   2.800   0.713  12.342 -0.5428 -0.0544  0.2977
  332TMC3    C5 4983   2.700   0.618  12.319  0.2302  0.0798  0.6097
  332TMC3    C6 4984   2.608   0.643  12.220  0.0574  0.5260  0.1501
  332TMC3     C 4985   2.905   0.924  12.291  0.7412  0.4725  0.0976
  332TMC3     O 4986   2.958   0.923  12.400  0.6041 -0.3417 -0.4358
  332TMC3     H 4987   2.695   0.943  12.107 -1.3096  0.0054 -1.1172
  332TMC3    H1 4988   2.879   0.698  12.415 -0.3993  0.0084  0.1555
  332TMC3    H2 4989   2.544   0.560  12.195  0.2625 -0.4744  2.8804
  332TMC3    C7 4990   2.716   0.483  12.373  0.2069  0.5972 -0.3212
  332TMC3    C8 4991   2.520   0.768  12.032 -0.5038 -0.0420 -0.6206
  332TMC3    O1 4992   2.618   0.413  12.372  0.2104 -0.4646 -0.1140
  332TMC3    O2 4993   2.564   0.839  11.939  0.0554 -0.2007  0.3519
  333MPD2     C 4994   2.026   4.614  10.805 -0.4294 -0.1740  0.9105
  333MPD2    C1 4995   2.144   4.538  10.798  0.6927 -0.6372  0.2896
  333MPD2    C2 4996   2.167   4.440  10.895  0.5703  0.1920 -0.3637
  333MPD2    C3 4997   2.077   4.412  10.995  0.1529 -0.2283  1.1673
  333MPD2    C4 4998   1.957   4.481  10.997 -0.1921 -0.5165 -0.5033
  333MPD2    C5 4999   1.939   4.577  10.904  0.3173 -0.1617 -0.1444
  333MPD2     H 5000   2.259   4.383  10.892  1.7702  2.1292 -0.1547
  333MPD2    H1 5001   1.874   4.472  11.067 -1.4220  0.5025 -1.8198
  333MPD2    H2 5002   2.000   4.694  10.737 -2.9939 -1.7928 -0.0060
  333MPD2    H3 5003   1.848   4.636  10.915  0.5038  0.2420 -0.7814
  333MPD2     N 5004   2.119   4.326  11.100 -0.2232 -0.1437  0.4761
  333MPD2    H5 5005   2.211   4.285  11.089  0.2295  0.8318  0.6326
  333MPD2    N1 5006   2.249   4.576  10.709 -0.1194 -0.0314 -0.5627
  333MPD2    H7 5007   2.248   4.664  10.659 -1.1465 -0.3009 -0.9921
  334TMC3    C1 5008   2.473   4.585  10.626  0.0535 -0.0186 -0.4918
  334TMC3    C2 5009   2.587   4.513  10.612 -0.0366  0.0160  0.5492
  334TMC3    C3 5010   2.706   4.580  10.590  0.3162  0.5330  0.0897
  334TMC3    C4 5011   2.466   4.723  10.628 -0.0999 -0.7934 -0.1774
  334TMC3    C5 5012   2.588   0.061  10.609  0.7543 -0.0459  0.2525
  334TMC3    C6 5013   2.702   4.717  10.591  0.5444 -0.6188  0.5591
  334TMC3     C 5014   2.361   4.500  10.678  0.0374 -0.3937 -0.1510
  334TMC3     O 5015   2.365   4.382  10.686  0.4661  0.0947 -0.0919
  334TMC3     H 5016   2.578   4.405  10.619 -0.8642 -0.0378 -1.5117
  334TMC3    H1 5017   2.372   0.051  10.641  0.1275 -0.1597 -1.1137
  334TMC3    H2 5018   2.789   0.056  10.577 -0.1347  0.6551  2.1318
  334TMC3    C7 5019   2.578   0.197  10.589  0.2861 -0.2401 -0.1586
  334TMC3    C8 5020   2.813   4.513  10.522 -0.0596 -0.2917 -0.5145
  334TMC3    O1 5021   2.672   0.267  10.637 -0.5310  0.2203 -0.4476
  334TMC3    O2 5022   2.791   4.397  10.490  0.2759  0.2438  0.1444
  335TMC3    C1 5023   2.502   2.043  17.387 -0.3259  0.2484 -0.4823
  335TMC3    C2 5024   2.420   1.973  17.300 -0.8977  0.5702  0.4261
  335TMC3    C3 5025   2.419   2.024  17.176  0.4691  0.5304 -0.7061
  335TMC3    C4 5026   2.567   2.157  17.361 -0.2638  0.5102 -0.4841
  335TMC3    C5 5027   2.560   2.201  17.231 -0.1479 -0.1540  0.1459
  335TMC3    C6 5028   2.476   2.142  17.136 -0.7273  0.0011 -0.1940
  335TMC3     C 5029   2.523   1.992  17.518  0.3026 -0.4597 -0.5023
  335TMC3     O 5030   2.627   2.020  17.583  0.0079  0.7259 -0.0385
  335TMC3     H 5031   2.370   1.878  17.319  0.6869 -0.0426  1.4617
  335TMC3    H1 5032   2.645   2.195  17.426  1.5876 -0.0094 -2.3999
  335TMC3    H2 5033   2.477   2.167  17.030 -3.0806 -0.0896 -0.2352
  335TMC3    C7 5034   2.640   2.316  17.187  0.2154  0.5331 -0.0221
  335TMC3    C8 5035   2.355   1.944  17.066 -0.6625  0.5080  0.9120
  335TMC3    O1 5036   2.663   2.327  17.069  0.2267  0.0447 -0.1964
  335TMC3    O2 5037   2.333   2.009  16.963  0.0787 -0.4724  0.3613
  336MPD2     C 5038   1.816   4.528  16.405  0.0432  0.1868 -0.3347
  336MPD2    C1 5039   1.812   4.497  16.269  0.4596  0.1182  0.2615
  336MPD2    C2 5040   1.856   4.368  16.230 -0.3477 -0.0528 -0.1173
  336MPD2    C3 5041   1.904   4.275  16.323  0.3002 -0.7700 -0.3534
  336MPD2    C4 5042   1.914   4.319  16.458 -0.7463 -0.1315 -0.1303
  336MPD2    C5 5043   1.863   4.444  16.494  0.1108 -0.1272  0.0457
  336MPD2     H 5044   1.848   4.345  16.125  1.5794  0.9958 -0.4910
  336MPD2    H1 5045   1.955   4.261  16.540 -0.9255  0.5871  0.4651
  336MPD2    H2 5046   1.778   4.625  16.435 -1.2394 -1.1299  2.2598
  336MPD2    H3 5047   1.882   4.477  16.595  2.1653  0.5377 -0.5469
  336MPD2     N 5048   1.945   4.141  16.302 -0.3087  0.0444 -0.4977
  336MPD2    H5 5049   1.979   4.084  16.379 -0.2714  0.6728 -0.0566
  336MPD2    N1 5050   1.749   4.577  16.168  0.0987  0.0758 -0.1209
  336MPD2    H7 5051   1.723   4.543  16.077 -1.5781  0.2923  0.2755
  337TMC3    C1 5052   1.682   0.059  16.071  0.2563 -0.1616  0.1273
  337TMC3    C2 5053   1.572   0.014  16.001  0.6192  0.1377 -0.1935
  337TMC3    C3 5054   1.526   0.089  15.893 -0.6012 -0.2493  0.0727
  337TMC3    C4 5055   1.751   0.171  16.043  0.5520  0.3761  0.2360
  337TMC3    C5 5056   1.703   0.241  15.931  0.2737 -0.2590 -0.1931
  337TMC3    C6 5057   1.593   0.203  15.857 -0.9144 -0.3892 -0.3564
  337TMC3     C 5058   1.742   4.715  16.182  0.2344 -0.2073  0.0672
  337TMC3     O 5059   1.764   0.056  16.282  0.9842  0.6340 -0.4495
  337TMC3     H 5060   1.516   4.662  16.052 -1.1941 -0.1370 -2.6150
  337TMC3    H1 5061   1.836   0.206  16.101 -1.0987  0.6813  2.4719
  337TMC3    H2 5062   1.549   0.274  15.788  1.5386 -1.4532 -3.0162
  337TMC3    C7 5063   1.776   0.356  15.882 -0.1313 -0.0898  0.0965
  337TMC3    C8 5064   1.385   0.063  15.853 -0.0926  0.0728 -0.0032
  337TMC3    O1 5065   1.869   0.393  15.951 -0.0697 -0.0180  0.2051
  337TMC3    O2 5066   1.323   0.000  15.929 -0.6040 -0.2218  0.2159
  338MPD2     C 5067   2.545   3.648   0.974  0.2628  0.6177  0.0050
  338MPD2    C1 5068   2.435   3.657   0.890 -0.4215 -0.9622  0.6409
  338MPD2    C2 5069   2.318   3.693   0.946 -0.0675 -0.3772  0.1571
  338MPD2    C3 5070   2.306   3.725   1.084 -0.4960 -0.0107 -0.5709
  338MPD2    C4 5071   2.413   3.712   1.163 -0.2919  0.1039 -0.1489
  338MPD2    C5 5072   2.533   3.678   1.107  0.3260 -0.4806  0.0488
  338MPD2     H 5073   2.228   3.677   0.887 -2.7405  0.6289  3.9436
  338MPD2    H1 5074   2.404   3.755   1.262  0.8400  0.6768 -0.2963
  338MPD2    H2 5075   2.643   3.621   0.935 -0.6193 -1.0052 -1.1158
  338MPD2    H3 5076   2.623   3.673   1.167 -0.3109  0.5157  1.0851
  338MPD2     N 5077   2.187   3.775   1.129  0.5741 -0.3481 -0.2148
  338MPD2    H5 5078   2.124   3.794   1.051  1.4292  1.1221 -0.5619
  338MPD2    N1 5079   2.441   3.608   0.757 -0.0606  0.2105  0.4757
  338MPD2    H7 5080   2.353   3.616   0.707 -1.3166  0.4585  2.7236
  339TMC3    C1 5081   2.012   3.848   1.271  0.1528  0.3982 -0.5167
  339TMC3    C2 5082   1.923   3.795   1.355  0.1435  0.2257  0.4967
  339TMC3    C3 5083   1.810   3.867   1.363  0.1938 -0.1551  0.0046
  339TMC3    C4 5084   1.994   3.964   1.192  0.6838 -0.4319 -0.7078
  339TMC3    C5 5085   1.875   4.031   1.205  0.5167 -0.3917 -0.4543
  339TMC3    C6 5086   1.780   3.984   1.289 -0.5671 -0.1101  0.4496
  339TMC3     C 5087   2.138   3.774   1.257  0.4132  0.0301  0.7658
  339TMC3     O 5088   2.173   3.721   1.359  0.0545  0.4552  0.0133
  339TMC3     H 5089   1.944   3.697   1.397  1.3537  0.5013  0.5247
  339TMC3    H1 5090   2.069   3.986   1.117  0.9550 -0.7008 -0.5174
  339TMC3    H2 5091   1.681   4.027   1.295 -0.4563 -0.0859  2.0417
  339TMC3    C7 5092   1.842   4.125   1.099  0.1379  0.2091  0.1307
  339TMC3    C8 5093   1.712   3.816   1.456 -0.0683 -0.4160  0.0084
  339TMC3    O1 5094   1.925   4.145   1.017 -0.3545  0.2030 -0.4927
  339TMC3    O2 5095   1.594   3.837   1.423  0.4244 -0.1777 -0.0997
  340MPD2     C 5096   1.527   1.162   9.250  0.6207 -0.2599 -0.2039
  340MPD2    C1 5097   1.614   1.150   9.353  0.3145  0.5134  0.1131
  340MPD2    C2 5098   1.649   1.263   9.418 -0.4565 -0.2646 -0.1355
  340MPD2    C3 5099   1.611   1.388   9.368  0.6698  0.0873  0.1802
  340MPD2    C4 5100   1.525   1.391   9.265 -0.2000  0.9600  0.0462
  340MPD2    C5 5101   1.483   1.280   9.199 -0.1874  0.2178 -0.1265
  340MPD2     H 5102   1.709   1.263   9.508 -0.5938 -3.6404 -0.0290
  340MPD2    H1 5103   1.485   1.482   9.221 -0.3606  0.7365 -0.2695
  340MPD2    H2 5104   1.495   1.068   9.207  0.2072  0.4929 -1.5456
  340MPD2    H3 5105   1.418   1.293   9.114 -0.4230  0.5646  0.1082
  340MPD2     N 5106   1.636   1.517   9.423 -0.1674  0.2651 -0.2761
  340MPD2    H5 5107   1.605   1.602   9.376 -0.7857 -0.2828 -0.8646
  340MPD2    N1 5108   1.642   1.019   9.388  0.3066  0.2704  0.0215
  340MPD2    H7 5109   1.605   0.938   9.339 -1.1093 -1.3469  3.7619
  341TMC3    C1 5110   1.738   0.847   9.514 -0.1534  0.9649  0.2159
  341TMC3    C2 5111   1.631   0.757   9.506 -0.2396  0.2727  0.1667
  341TMC3    C3 5112   1.649   0.622   9.529 -0.1127  0.3709  0.2673
  341TMC3    C4 5113   1.859   0.802   9.550  0.4178 -0.1545  0.1801
  341TMC3    C5 5114   1.873   0.667   9.582  0.5931 -0.4723  0.1839
  341TMC3    C6 5115   1.770   0.573   9.569  0.5324  0.0279 -0.2277
  341TMC3     C 5116   1.728   0.990   9.489  0.1364 -0.3782  0.0124
  341TMC3     O 5117   1.800   1.064   9.548  0.6260  0.3438 -0.1844
  341TMC3     H 5118   1.531   0.789   9.480  0.2206  0.5529 -1.2341
  341TMC3    H1 5119   1.939   0.873   9.571  1.4833 -1.0161 -0.9360
  341TMC3    H2 5120   1.785   0.473   9.606 -0.0201  0.2875  0.7087
  341TMC3    C7 5121   2.000   0.598   9.586  0.7091 -0.3281  0.5119
  341TMC3    C8 5122   1.528   0.545   9.509 -0.3410 -1.0944 -0.9272
  341TMC3    O1 5123   2.007   0.489   9.644  0.5157  0.3754 -0.3258
  341TMC3    O2 5124   1.446   0.577   9.424 -0.0109  0.0035 -0.5758
  342MPD2     C 5125   0.334   0.143   0.157  0.5581  0.7304 -0.2108
  342MPD2    C1 5126   0.410   0.142   0.044  0.0294  0.4977 -0.0970
  342MPD2    C2 5127   0.452   0.265  17.696 -0.1352  1.1975  0.3710
  342MPD2    C3 5128   0.423   0.380   0.062 -0.8653 -0.2000  0.4061
  342MPD2    C4 5129   0.342   0.373   0.169  0.2300  0.2387 -0.2105
  342MPD2    C5 5130   0.303   0.257   0.218  0.5440  0.6678  0.1312
  342MPD2     H 5131   0.528   0.266  17.619 -1.2534 -1.3108 -0.7439
  342MPD2    H1 5132   0.315   0.465   0.220 -0.6974  0.1754 -0.5760
  342MPD2    H2 5133   0.314   0.055   0.219  1.9230  1.4178  1.2143
  342MPD2    H3 5134   0.261   0.256   0.318  1.6140 -3.1321  0.5471
  342MPD2     N 5135   0.463   0.514   0.030 -0.6937 -0.3141  0.3258
  342MPD2    H5 5136   0.426   0.589   0.087  1.5377  1.0996 -0.0697
  342MPD2    N1 5137   0.434   0.024  17.670  0.0910  0.3510  0.4567
  342MPD2    H7 5138   0.494   0.025  17.588  0.5594 -0.2015  0.7912
  343TMC3    C1 5139   0.417   4.528  17.612 -0.2449  0.3309 -0.2547
  343TMC3    C2 5140   0.527   4.529  17.528  0.7858  0.6063 -0.0437
  343TMC3    C3 5141   0.552   4.421  17.457  1.0451  0.4594  0.2236
  343TMC3    C4 5142   0.331   4.419  17.620  0.0476 -0.6573 -0.0437
  343TMC3    C5 5143   0.358   4.315  17.541  0.3512  0.0948  0.5607
  343TMC3    C6 5144   0.468   4.312  17.458  0.0345 -0.5960  0.2706
  343TMC3     C 5145   0.395   4.624   0.011  0.5675 -0.0146 -0.1081
  343TMC3     O 5146   0.336   4.586   0.111  0.0267  0.5769  0.3760
  343TMC3     H 5147   0.590   4.615  17.508  3.1340 -1.4768 -1.5649
  343TMC3    H1 5148   0.239   4.433  17.676 -0.1435  0.8364 -0.7162
  343TMC3    H2 5149   0.489   4.219  17.407 -0.5307 -0.6996  0.2164
  343TMC3    C7 5150   0.283   4.190  17.573 -0.2232 -0.0290 -0.1028
  343TMC3    C8 5151   0.693   4.394  17.437 -0.1998  0.0349 -0.4450
  343TMC3    O1 5152   0.289   4.108  17.483  0.2615  0.0326 -0.4031
  343TMC3    O2 5153   0.771   4.469  17.487 -0.0808  0.0715 -0.0247
  344MPD2     C 5154   1.261   4.084  10.336  0.1020 -0.2936 -0.4524
  344MPD2    C1 5155   1.145   4.160  10.335  0.2765  0.5006 -0.3661
  344MPD2    C2 5156   1.136   4.286  10.273  0.0558 -0.0933  0.1798
  344MPD2    C3 5157   1.252   4.338  10.216  0.4970  0.2277 -0.0560
  344MPD2    C4 5158   1.364   4.263  10.215 -0.5746  0.7452 -0.0687
  344MPD2    C5 5159   1.374   4.143  10.278 -0.4485 -0.2088  0.3003
  344MPD2     H 5160   1.044   4.344  10.281 -0.3048 -0.1357 -3.8580
  344MPD2    H1 5161   1.450   4.291  10.155 -1.1374  2.0655 -0.2524
  344MPD2    H2 5162   1.274   3.983  10.375 -0.6630  0.1347  0.9398
  344MPD2    H3 5163   1.467   4.087  10.272  0.7207  1.4653  3.0068
  344MPD2     N 5164   1.252   4.455  10.141  0.0082 -0.3477  0.2151
  344MPD2    H5 5165   1.326   4.467  10.073 -1.1408 -0.8742 -1.1265
  344MPD2    N1 5166   1.015   4.102  10.390  0.5212  0.1594  0.0923
  344MPD2    H7 5167   0.930   4.158  10.392 -0.3252 -1.1765  0.7913
  345TMC3    C1 5168   1.175   4.649  10.030  0.2558 -0.1474 -1.1993
  345TMC3    C2 5169   1.298   4.710  10.048  0.5564 -0.0341  0.1839
  345TMC3    C3 5170   1.319   0.103   9.979 -0.4045  0.0924  0.3568
  345TMC3    C4 5171   1.068   4.702   9.962 -0.7072  0.1900 -0.2721
  345TMC3    C5 5172   1.094   0.091   9.895 -0.5939  0.2344 -0.0809
  345TMC3    C6 5173   1.220   0.150   9.896  0.1030  0.0991  0.6340
  345TMC3     C 5174   1.151   4.536  10.119  0.2940 -0.5135  0.5708
  345TMC3     O 5175   1.056   4.554  10.191  0.4747  0.0462  0.2720
  345TMC3     H 5176   1.356   4.679  10.134  1.0457 -0.2316 -0.2154
  345TMC3    H1 5177   0.971   4.656   9.950  0.3846 -2.1914 -0.0059
  345TMC3    H2 5178   1.234   0.250   9.858  0.0199  0.5164  1.7187
  345TMC3    C7 5179   0.994   0.186   9.908 -0.4005 -0.1702  0.0225
  345TMC3    C8 5180   1.365   0.212  10.063 -0.3084 -0.9710  0.4878
  345TMC3    O1 5181   1.031   0.293   9.959 -0.4664  0.0194  0.8489
  345TMC3    O2 5182   1.289   0.308  10.072  0.0244 -0.4285 -0.0064
  346MPD2     C 5183   1.220   1.419  14.004 -0.2035 -0.7424  0.0179
  346MPD2    C1 5184   1.336   1.471  13.953 -0.3864 -0.4609  0.4609
  346MPD2    C2 5185   1.441   1.482  14.036 -0.4795 -0.1770 -0.7120
  346MPD2    C3 5186   1.421   1.449  14.171  0.8411  0.9745  0.0175
  346MPD2    C4 5187   1.301   1.405  14.219 -0.5313  0.2574  0.4715
  346MPD2    C5 5188   1.201   1.387  14.135  0.1252 -0.3539  0.0831
  346MPD2     H 5189   1.533   1.524  13.997 -0.9777  0.4539 -1.2065
  346MPD2    H1 5190   1.303   1.372  14.322  2.0597 -0.4100  0.2127
  346MPD2    H2 5191   1.135   1.401  13.939  0.7173  0.8047 -1.6182
  346MPD2    H3 5192   1.104   1.355  14.173 -1.7297  1.1929 -3.3053
  346MPD2     N 5193   1.526   1.468  14.262 -0.6749 -0.6969  0.2028
  346MPD2    H5 5194   1.620   1.485  14.226 -0.3991  0.5090  1.4955
  346MPD2    N1 5195   1.352   1.504  13.819 -0.3178 -0.5233 -0.8924
  346MPD2    H7 5196   1.447   1.534  13.801 -0.6572  1.1993  0.2157
  347TMC3    C1 5197   1.645   1.490  14.472  0.0723 -0.1334  0.0132
  347TMC3    C2 5198   1.751   1.526  14.405  0.1443  0.5416  0.0480
  347TMC3    C3 5199   1.846   1.594  14.479 -0.2796 -0.5245 -0.0448
  347TMC3    C4 5200   1.635   1.501  14.609 -0.0614 -0.1690  0.5980
  347TMC3    C5 5201   1.739   1.558  14.678 -0.2429  0.3828  0.5464
  347TMC3    C6 5202   1.854   1.602  14.612 -0.5481  0.2534 -0.3369
  347TMC3     C 5203   1.517   1.466  14.398  0.1494  0.4652  0.7128
  347TMC3     O 5204   1.420   1.450  14.475 -0.6988  0.3510  0.3510
  347TMC3     H 5205   1.764   1.527  14.297  1.2727  0.4678  0.1792
  347TMC3    H1 5206   1.549   1.473  14.668 -0.9405  0.8794 -0.1727
  347TMC3    H2 5207   1.922   1.669  14.662  0.8029 -2.1436  1.0196
  347TMC3    C7 5208   1.735   1.551  14.822 -0.2375 -0.3134  0.4009
  347TMC3    C8 5209   1.960   1.640  14.407 -0.5005 -1.0045 -0.3165
  347TMC3    O1 5210   1.629   1.524  14.877 -0.5933 -0.4285 -0.8438
  347TMC3    O2 5211   2.069   1.602  14.447 -1.1608  0.3167 -0.0728
  348MPD2     C 5212   4.539   0.789  12.100  0.0653 -0.1393 -0.1349
  348MPD2    C1 5213   4.555   0.923  12.125  0.1006 -0.6154 -0.0717
  348MPD2    C2 5214   4.507   1.012  12.029  0.3298 -0.3464  0.7846
  348MPD2    C3 5215   4.436   0.969  11.920 -0.1514  0.5085  0.0539
  348MPD2    C4 5216   4.413   0.831  11.904 -0.3452  0.5391 -0.4307
  348MPD2    C5 5217   4.465   0.745  11.992  0.3206  0.4906  0.1597
  348MPD2     H 5218   4.545   1.114  12.028  1.3223 -0.7072  1.7600
  348MPD2    H1 5219   4.365   0.793  11.815 -0.5199  0.1951 -0.1894
  348MPD2    H2 5220   4.588   0.716  12.163 -0.7169 -1.7570 -1.4024
  348MPD2    H3 5221   4.440   0.640  11.985  3.9837 -0.2270 -2.3783
  348MPD2     N 5222   4.387   1.052  11.818  0.1056 -0.4706 -0.1420
  348MPD2    H5 5223   4.422   1.147  11.819 -1.2499  0.0316 -0.3386
  348MPD2    N1 5224   4.637   0.981  12.232 -0.2738 -0.1360  0.0087
  348MPD2    H7 5225   4.639   1.083  12.231  2.7279 -0.1951  1.0895
  349TMC3    C1 5226   0.059   0.975  12.422 -0.0722  0.1992  1.2660
  349TMC3    C2 5227   0.127   0.866  12.460  0.3468 -0.1329 -0.0704
  349TMC3    C3 5228   0.251   0.843  12.414  0.5601 -0.2649  0.3519
  349TMC3    C4 5229   0.120   1.066  12.348  0.3139  0.3443  0.3494
  349TMC3    C5 5230   0.236   1.035  12.277  0.5726 -0.3426 -0.2430
  349TMC3    C6 5231   0.306   0.924  12.310 -0.6999  0.5549  0.2287
  349TMC3     C 5232   4.679   0.909  12.344 -0.1721  0.4842 -0.8921
  349TMC3     O 5233   4.654   0.792  12.369 -0.4473 -0.5134  0.4126
  349TMC3     H 5234   0.081   0.803  12.535 -0.4417  1.0395  0.4169
  349TMC3    H1 5235   0.069   1.161  12.339 -2.3395 -0.9840  1.4642
  349TMC3    H2 5236   0.390   0.890  12.250 -0.8462 -0.9940  0.9157
  349TMC3    C7 5237   0.220   1.057  12.129  0.5804  0.8384  0.1454
  349TMC3    C8 5238   0.344   0.757  12.483 -0.1807  1.2243  0.1353
  349TMC3    O1 5239   0.247   0.964  12.057 -0.3909  0.4201  0.5132
  349TMC3    O2 5240   0.295   0.682  12.568 -0.5526  0.0529 -0.0845
  350MPD2     C 5241   3.921   3.352   9.652  0.0970 -0.0250 -0.0606
  350MPD2    C1 5242   3.803   3.344   9.715 -0.4527  0.5247 -0.1119
  350MPD2    C2 5243   3.767   3.446   9.794 -0.1857  0.0413 -0.4730
  350MPD2    C3 5244   3.845   3.551   9.831  0.4559 -0.2075  0.6514
  350MPD2    C4 5245   3.958   3.563   9.756 -0.3384 -0.1213 -0.8065
  350MPD2    C5 5246   3.995   3.468   9.657  0.0677 -0.2570 -0.0450
  350MPD2     H 5247   3.669   3.430   9.839  0.9260 -0.6174  1.7558
  350MPD2    H1 5248   4.022   3.650   9.761  1.3023 -1.3327 -0.7468
  350MPD2    H2 5249   3.967   3.271   9.596 -1.8959 -0.2490 -1.3693
  350MPD2    H3 5250   4.084   3.479   9.595 -0.3109  0.4183 -0.4663
  350MPD2     N 5251   3.794   3.649   9.921 -0.0348  0.6003  0.1977
  350MPD2    H5 5252   3.716   3.617   9.977 -1.4655  2.1667 -0.9186
  350MPD2    N1 5253   3.728   3.227   9.717 -0.2106  0.5276 -0.4869
  350MPD2    H7 5254   3.656   3.215   9.786  0.6530  2.1321  0.6864
  351TMC3    C1 5255   3.629   3.026   9.649 -0.1353  0.5820  0.8011
  351TMC3    C2 5256   3.641   2.894   9.607  0.0757 -0.4516  0.4496
  351TMC3    C3 5257   3.541   2.810   9.641  0.4010 -0.5341 -0.8502
  351TMC3    C4 5258   3.511   3.071   9.704 -0.2314 -0.2543 -0.0024
  351TMC3    C5 5259   3.407   2.982   9.717  0.1779 -0.0496 -0.3262
  351TMC3    C6 5260   3.421   2.854   9.685  0.1418  0.9510  0.7172
  351TMC3     C 5261   3.738   3.127   9.629 -0.5915 -0.1384 -0.2281
  351TMC3     O 5262   3.812   3.107   9.537 -0.4518 -0.4671  0.3003
  351TMC3     H 5263   3.740   2.852   9.589  0.6379  0.5674  1.1490
  351TMC3    H1 5264   3.492   3.176   9.724  0.4231 -0.0257 -0.5904
  351TMC3    H2 5265   3.347   2.777   9.702 -1.2391  1.8543 -1.1735
  351TMC3    C7 5266   3.284   3.035   9.771 -0.2660  0.1539 -0.3512
  351TMC3    C8 5267   3.564   2.665   9.652 -0.7595 -0.8823  0.3024
  351TMC3    O1 5268   3.279   3.157   9.776  0.1955  0.1616 -0.4461
  351TMC3    O2 5269   3.471   2.593   9.680  0.1927 -0.0457  0.1680
  352MPD2     C 5270   3.760   1.098   0.793  0.3750 -0.1352  1.2809
  352MPD2    C1 5271   3.632   1.057   0.811  0.5055  0.4149  0.0257
  352MPD2    C2 5272   3.618   0.927   0.864  0.1435 -0.5011  0.0557
  352MPD2    C3 5273   3.725   0.842   0.895 -0.0403  0.3136  0.0779
  352MPD2    C4 5274   3.849   0.895   0.888 -0.1058 -0.0912  0.1455
  352MPD2    C5 5275   3.866   1.018   0.826  0.3238 -0.2213 -0.0889
  352MPD2     H 5276   3.517   0.887   0.867 -0.6866  1.4001 -2.4435
  352MPD2    H1 5277   3.938   0.841   0.919 -0.6862  0.2511  2.3675
  352MPD2    H2 5278   3.781   1.198   0.756  1.1792 -0.8167 -0.0534
  352MPD2    H3 5279   3.971   1.043   0.819  0.1990 -0.8369 -4.5679
  352MPD2     N 5280   3.708   0.707   0.930  0.6896  0.1063 -0.2242
  352MPD2    H5 5281   3.794   0.658   0.956 -1.0123 -1.7875  1.8155
  352MPD2    N1 5282   3.517   1.137   0.773 -0.1602 -0.5379  0.2880
  352MPD2    H7 5283   3.545   1.232   0.750 -0.2816 -0.9331 -1.4591
  353TMC3    C1 5284   3.583   0.501   0.967  0.0862 -0.0314  0.0656
  353TMC3    C2 5285   3.692   0.424   0.919  0.6734 -0.1559 -0.2656
  353TMC3    C3 5286   3.671   0.290   0.895 -0.2811 -0.3819  0.3099
  353TMC3    C4 5287   3.457   0.446   0.982  0.3644 -0.1099 -0.0918
  353TMC3    C5 5288   3.442   0.315   0.944 -0.3873 -0.0774 -0.7585
  353TMC3    C6 5289   3.545   0.233   0.900  0.3633  0.4422 -0.8146
  353TMC3     C 5290   3.583   0.649   0.952 -0.8439 -0.1274  0.2376
  353TMC3     O 5291   3.473   0.696   0.958  0.6347 -0.1317  0.3403
  353TMC3     H 5292   3.791   0.466   0.922  0.4160  0.3345  1.4797
  353TMC3    H1 5293   3.376   0.506   1.020  0.0898 -1.0002  0.7398
  353TMC3    H2 5294   3.517   0.135   0.862 -2.2178  0.2532  1.6441
  353TMC3    C7 5295   3.312   0.254   0.943 -0.2063  0.1347  1.1089
  353TMC3    C8 5296   3.790   0.210   0.854  1.1066 -0.0330 -0.2915
  353TMC3    O1 5297   3.297   0.142   0.890 -0.3664 -0.3286 -0.0438
  353TMC3    O2 5298   3.905   0.252   0.856  0.0939 -0.3557  0.2490
  354TMC3    C1 5299   4.069   2.440  13.152  0.9798  0.3080 -0.4938
  354TMC3    C2 5300   4.097   2.564  13.112 -0.5837 -0.4296  0.2810
  354TMC3    C3 5301   4.152   2.579  12.984  0.6692  0.0550  0.0657
  354TMC3    C4 5302   4.080   2.333  13.074  0.0777 -0.3795  0.1746
  354TMC3    C5 5303   4.118   2.349  12.949 -0.8224  0.1747  0.4472
  354TMC3    C6 5304   4.168   2.467  12.903 -0.4258  0.5943  0.0031
  354TMC3     C 5305   4.042   2.423  13.296  0.5316  0.1914 -0.2629
  354TMC3     O 5306   3.956   2.342  13.324 -0.2767  0.5787 -0.1872
  354TMC3     H 5307   4.078   2.654  13.169 -1.8469 -0.5811  0.1030
  354TMC3    H1 5308   4.036   2.238  13.099 -0.2077 -1.0950 -2.9816
  354TMC3    H2 5309   4.212   2.477  12.804  1.2208  0.5014  0.7337
  354TMC3    C7 5310   4.046   2.270  12.853 -0.6900 -0.6529 -0.0101
  354TMC3    C8 5311   4.094   2.691  12.912 -0.3527 -0.4557 -0.1440
  354TMC3    O1 5312   4.016   2.154  12.883 -0.1271 -0.5201 -0.1469
  354TMC3    O2 5313   4.068   2.664  12.795  0.0951  0.4133 -0.0224
  355MPD2     C 5314   3.224   3.381  11.715  0.5810  0.7459  0.4354
  355MPD2    C1 5315   3.308   3.396  11.611 -0.6004  0.4077 -0.2799
  355MPD2    C2 5316   3.441   3.380  11.617  0.3989  0.5584 -0.8921
  355MPD2    C3 5317   3.494   3.347  11.744 -0.3489 -0.7136 -0.2811
  355MPD2    C4 5318   3.416   3.351  11.852  0.0956  0.4165  0.1765
  355MPD2    C5 5319   3.283   3.365  11.838 -0.3953  0.0973 -0.7132
  355MPD2     H 5320   3.502   3.385  11.527  0.7690  0.0369 -0.6741
  355MPD2    H1 5321   3.457   3.339  11.952 -0.6148 -1.1989  0.2831
  355MPD2    H2 5322   3.120   3.404  11.693  1.1438  0.1420 -2.8677
  355MPD2    H3 5323   3.223   3.380  11.927  1.2894  0.9216  0.2963
  355MPD2     N 5324   3.632   3.327  11.769  0.6363  0.7184  0.4219
  355MPD2    H5 5325   3.664   3.296  11.860  3.2199 -3.4754 -1.8770
  355MPD2    N1 5326   3.237   3.408  11.484 -0.2497 -0.5724  0.0677
  355MPD2    H7 5327   3.136   3.406  11.492 -0.3479 -0.0018 -1.0275
  356TMC3    C1 5328   3.862   3.343  11.731 -0.4293 -0.5581 -0.3595
  356TMC3    C2 5329   3.961   3.343  11.635  0.1686  0.3023  0.0402
  356TMC3    C3 5330   4.090   3.383  11.667 -0.3301 -0.1157 -0.1086
  356TMC3    C4 5331   3.888   3.400  11.847 -0.7215 -0.3147 -0.3352
  356TMC3    C5 5332   4.018   3.429  11.887  0.4967 -0.7985 -0.2505
  356TMC3    C6 5333   4.115   3.433  11.795  0.5159  0.0674  0.6824
  356TMC3     C 5334   3.730   3.350  11.676  0.4824 -0.1843 -0.4341
  356TMC3     O 5335   3.724   3.382  11.558 -0.4193 -0.2557 -0.4259
  356TMC3     H 5336   3.937   3.304  11.537  1.3200  1.1901 -0.5990
  356TMC3    H1 5337   3.815   3.426  11.923 -1.6081  0.0625 -1.3101
  356TMC3    H2 5338   4.219   3.448  11.817  0.1260  1.0207  1.8515
  356TMC3    C7 5339   4.055   3.454  12.025 -0.1348  0.9129 -0.1503
  356TMC3    C8 5340   4.186   3.398  11.554 -0.1694 -0.1377  0.1598
  356TMC3    O1 5341   3.991   3.394  12.109 -0.3695 -0.1755  0.5724
  356TMC3    O2 5342   4.161   3.339  11.450 -0.6284  0.5445 -0.1063
  357MPD2     C 5343   4.358   2.959   1.101  0.0181 -0.6343 -0.5735
  357MPD2    C1 5344   4.410   2.858   1.181  0.3077  0.4404 -0.5495
  357MPD2    C2 5345   4.359   2.853   1.306 -0.2107 -0.0686  0.6773
  357MPD2    C3 5346   4.253   2.925   1.351  1.1923 -0.0928 -0.4750
  357MPD2    C4 5347   4.211   3.023   1.266 -0.4665  0.4226 -0.4013
  357MPD2    C5 5348   4.264   3.038   1.143 -0.1302 -0.5891 -0.7284
  357MPD2     H 5349   4.398   2.769   1.363  1.5830  0.5805  0.3782
  357MPD2    H1 5350   4.133   3.089   1.301 -0.2658  0.3577  0.1768
  357MPD2    H2 5351   4.408   2.964   1.004  0.0873  2.2278 -0.3631
  357MPD2    H3 5352   4.235   3.124   1.083  2.0029  0.8091  0.2388
  357MPD2     N 5353   4.183   2.896   1.466 -0.1443 -0.3221 -0.3065
  357MPD2    H5 5354   4.092   2.939   1.475  1.0452  2.3361 -0.9278
  357MPD2    N1 5355   4.502   2.769   1.124  0.2605 -0.0129  0.1582
  357MPD2    H7 5356   4.505   2.760   1.022 -2.6156 -1.3639  0.1918
  358TMC3    C1 5357   4.639   2.570   1.103  0.1752 -0.4052 -0.2972
  358TMC3    C2 5358   4.599   2.552   0.969  0.0173  0.5898  0.5277
  358TMC3    C3 5359   4.633   2.435   0.914  0.5556  0.4624 -0.5535
  358TMC3    C4 5360   4.705   2.472   1.173 -0.3987  0.5431 -0.1501
  358TMC3    C5 5361   0.000   2.349   1.111 -0.1007 -0.0652  0.4866
  358TMC3    C6 5362   4.699   2.332   0.980 -0.2125  0.0075 -0.2262
  358TMC3     C 5363   4.571   2.666   1.197 -0.1872  0.6501  0.6715
  358TMC3     O 5364   4.595   2.671   1.316  0.2378 -0.7056 -0.3469
  358TMC3     H 5365   4.538   2.625   0.917 -0.6735 -0.7425 -0.5233
  358TMC3    H1 5366   0.026   2.493   1.269  0.1010  0.8101 -0.4470
  358TMC3    H2 5367   4.708   2.234   0.935 -0.9297  1.0412 -2.6314
  358TMC3    C7 5368   0.071   2.237   1.172  0.0300 -0.3620  0.4840
  358TMC3    C8 5369   4.588   2.408   0.783 -0.0250 -0.6670 -0.4099
  358TMC3    O1 5370   0.126   2.160   1.097  0.1111 -0.1194 -0.3237
  358TMC3    O2 5371   4.570   2.501   0.704  0.3517 -0.1401  0.3528
  359MPD2     C 5372   0.096   1.741  12.129 -0.0774  0.9415 -0.3633
  359MPD2    C1 5373   4.686   1.743  12.088 -0.1104  0.1447 -0.1180
  359MPD2    C2 5374   4.589   1.716  12.185 -0.2955 -0.3602  0.7970
  359MPD2    C3 5375   4.615   1.695  12.318 -0.2886  0.4102  0.8390
  359MPD2    C4 5376   0.022   1.673  12.348 -0.0083 -0.2057  0.5976
  359MPD2    C5 5377   0.126   1.699  12.260  0.3831 -0.1210  0.1415
  359MPD2     H 5378   4.484   1.721  12.158 -0.0915  0.7630  0.2161
  359MPD2    H1 5379   0.050   1.648  12.450 -0.6160 -0.5758  0.6738
  359MPD2    H2 5380   0.185   1.766  12.072  1.1725  0.2740  1.2999
  359MPD2    H3 5381   0.228   1.708  12.295  0.3439 -0.3405  0.3154
  359MPD2     N 5382   4.519   1.686  12.420 -0.3272  0.1269  1.1456
  359MPD2    H5 5383   4.556   1.677  12.514 -0.9586  3.6954  1.7716
  359MPD2    N1 5384   4.664   1.772  11.952  0.4688 -0.5787  0.5050
  359MPD2    H7 5385   0.019   1.807  11.900 -0.6220 -0.6585 -1.2112
  360TMC3    C1 5386   4.523   1.824  11.766  0.8024 -0.2006  0.4738
  360TMC3    C2 5387   4.609   1.925  11.744  0.1184 -0.8440  0.1270
  360TMC3    C3 5388   4.561   2.030  11.665 -0.0738 -0.8171  1.0428
  360TMC3    C4 5389   4.401   1.816  11.706 -0.1637  0.5087 -0.7369
  360TMC3    C5 5390   4.358   1.913  11.624  0.1878  0.9200 -0.0977
  360TMC3    C6 5391   4.439   2.024  11.599  0.3523  0.1096 -0.5097
  360TMC3     C 5392   4.544   1.751  11.888  0.8623  0.0026  1.0077
  360TMC3     O 5393   4.445   1.695  11.933 -0.3804  0.1620 -0.2566
  360TMC3     H 5394   4.700   1.938  11.802 -1.4431  2.5099  1.8276
  360TMC3    H1 5395   4.340   1.728  11.722 -2.1204  2.1107  0.6687
  360TMC3    H2 5396   4.395   2.108  11.548  1.5479  1.6407  0.9645
  360TMC3    C7 5397   4.242   1.895  11.535 -0.0176 -0.7730 -0.6928
  360TMC3    C8 5398   4.652   2.123  11.611  0.2654  0.3334  0.3126
  360TMC3    O1 5399   4.220   1.992  11.463 -0.5887 -0.7194 -0.8225
  360TMC3    O2 5400   4.608   2.228  11.578 -0.3321 -0.6703  0.5092
  361MPD2     C 5401   1.644   0.923  16.816  0.9381  0.7400  0.7651
  361MPD2    C1 5402   1.552   0.821  16.837  0.3509  0.0778  0.0649
  361MPD2    C2 5403   1.582   0.732  16.931  0.8565 -0.3379  0.2334
  361MPD2    C3 5404   1.704   0.731  17.002  0.1786 -0.4679  0.3368
  361MPD2    C4 5405   1.796   0.828  16.972  1.3168  0.2340 -0.0184
  361MPD2    C5 5406   1.773   0.921  16.871  0.0349  0.7511  0.2669
  361MPD2     H 5407   1.510   0.653  16.948 -0.2167  1.2935  3.0565
  361MPD2    H1 5408   1.894   0.827  17.019  0.0024  0.7692  2.7798
  361MPD2    H2 5409   1.635   0.995  16.736 -1.2804 -0.7166 -0.2574
  361MPD2    H3 5410   1.850   0.993  16.846 -0.0150  0.5411 -0.4927
  361MPD2     N 5411   1.744   0.634  17.085  0.3100  0.0052 -0.2332
  361MPD2    H5 5412   1.841   0.641  17.114  0.1605 -1.6540  0.6625
  361MPD2    N1 5413   1.418   0.809  16.788 -0.5222 -0.2579 -0.2586
  361MPD2    H7 5414   1.370   0.727  16.824  0.5583 -1.3183 -1.2521
  362TMC3    C1 5415   1.214   0.874  16.699 -0.3650 -0.0669 -0.2165
  362TMC3    C2 5416   1.136   0.801  16.790 -0.7286  0.5616 -0.2214
  362TMC3    C3 5417   1.000   0.784  16.764 -0.2616 -0.4862  0.3386
  362TMC3    C4 5418   1.163   0.923  16.584 -0.2547 -0.4762  0.7837
  362TMC3    C5 5419   1.026   0.894  16.566 -0.0629  0.1574 -0.2089
  362TMC3    C6 5420   0.941   0.832  16.655 -0.0310  0.0520 -0.4276
  362TMC3     C 5421   1.350   0.902  16.717  0.2281 -0.1304  0.2259
  362TMC3     O 5422   1.394   1.002  16.662  0.1409 -0.1636 -0.0944
  362TMC3     H 5423   1.181   0.769  16.883 -0.6330  0.3558 -0.3389
  362TMC3    H1 5424   1.229   0.967  16.511  0.6382 -1.3441  1.0764
  362TMC3    H2 5425   0.835   0.825  16.637 -0.4792  0.5610  2.0077
  362TMC3    C7 5426   0.968   0.942  16.441 -0.4002 -0.6979  0.1897
  362TMC3    C8 5427   0.917   0.747  16.878  0.9702  0.3551  0.1963
  362TMC3    O1 5428   1.030   1.032  16.382  0.3235  0.1283 -0.1867
  362TMC3    O2 5429   0.947   0.648  16.946  0.4268 -0.2092  0.4713
  363TMC3    C1 5430   2.976   1.866   8.933  0.2097  0.4872 -0.0794
  363TMC3    C2 5431   3.100   1.897   8.973  0.1869 -0.5015 -0.3606
  363TMC3    C3 5432   3.142   2.025   8.960 -0.1350 -0.1457  0.1210
  363TMC3    C4 5433   2.886   1.952   8.881 -0.4449  0.4932 -0.1710
  363TMC3    C5 5434   2.929   2.082   8.871 -0.4515  0.1494  0.5708
  363TMC3    C6 5435   3.059   2.117   8.908 -1.1162  0.2692  0.2322
  363TMC3     C 5436   2.944   1.727   8.928 -0.2607  0.1691  0.7296
  363TMC3     O 5437   2.859   1.683   8.856 -0.8785  0.6808 -0.0893
  363TMC3     H 5438   3.173   1.823   9.004  0.0443  1.3712  4.3112
  363TMC3    H1 5439   2.785   1.918   8.859  0.0732 -0.6223 -0.8244
  363TMC3    H2 5440   3.090   2.221   8.896  2.7398 -0.8508  0.6061
  363TMC3    C7 5441   2.836   2.190   8.853 -0.2236 -0.4276 -0.1400
  363TMC3    C8 5442   3.273   2.073   8.999 -0.4063  0.0035  0.0232
  363TMC3    O1 5443   2.879   2.304   8.862  0.0679 -0.2210  0.0855
  363TMC3    O2 5444   3.277   2.194   9.022 -0.2721 -0.5353  0.5266
  364MPD2     C 5445   2.600   2.727  10.299  0.2959  0.2109 -0.3306
  364MPD2    C1 5446   2.716   2.724  10.361  0.1391 -0.0913 -1.1856
  364MPD2    C2 5447   2.741   2.626  10.460  0.0034  0.3338  0.2532
  364MPD2    C3 5448   2.644   2.529  10.489 -0.0250 -1.0172  0.1907
  364MPD2    C4 5449   2.525   2.540  10.424 -0.3124  0.0917  0.5411
  364MPD2    C5 5450   2.508   2.631  10.325 -0.2664 -0.0745 -0.0375
  364MPD2     H 5451   2.839   2.630  10.506  0.1222 -0.9793  0.0935
  364MPD2    H1 5452   2.440   2.489  10.469 -2.6358  0.9363 -2.8263
  364MPD2    H2 5453   2.580   2.806  10.228 -2.0232  1.6660  1.9578
  364MPD2    H3 5454   2.412   2.645  10.277 -0.9242  1.3050  1.6663
  364MPD2     N 5455   2.665   2.431  10.589  0.1947  1.0380 -0.0282
  364MPD2    H5 5456   2.591   2.365  10.604 -0.8614  1.8277 -1.7111
  364MPD2    N1 5457   2.797   2.833  10.340  0.2307  0.6036  0.6242
  364MPD2    H7 5458   2.755   2.918  10.305  1.7915  0.6751 -1.0556
  365TMC3    C1 5459   3.011   2.943  10.322  0.0964 -0.6182 -0.2134
  365TMC3    C2 5460   3.118   2.919  10.244 -0.5279  0.4885  0.0731
  365TMC3    C3 5461   3.204   3.018  10.207  0.6274  0.2650  0.3909
  365TMC3    C4 5462   2.973   3.078  10.346  0.3177 -0.5745  0.5151
  365TMC3    C5 5463   3.054   3.176  10.302 -0.0379  0.1440 -0.0820
  365TMC3    C6 5464   3.165   3.150  10.228  0.2213  0.2005  0.1460
  365TMC3     C 5465   2.936   2.834  10.368 -0.1391 -0.0113 -0.2019
  365TMC3     O 5466   3.006   2.735  10.378 -0.3629  0.1692  0.5003
  365TMC3     H 5467   3.126   2.820  10.199 -2.1778  0.2638  0.2502
  365TMC3    H1 5468   2.895   3.094  10.419  0.3042 -2.0344  0.8184
  365TMC3    H2 5469   3.241   3.224  10.250 -1.4020  1.5425  1.1754
  365TMC3    C7 5470   3.046   3.299  10.382  0.6237  0.6458  0.1098
  365TMC3    C8 5471   3.331   2.983  10.153  0.2466 -0.8691  0.5939
  365TMC3    O1 5472   3.078   3.402  10.329 -0.4615 -0.0361  0.5554
  365TMC3    O2 5473   3.392   3.078  10.100 -0.1671  0.0805 -0.3236
  366MPD2     C 5474   1.219   3.970  15.257 -0.2712 -0.4426  0.8130
  366MPD2    C1 5475   1.316   3.954  15.354 -0.0229 -0.9331  0.0975
  366MPD2    C2 5476   1.334   3.833  15.415  0.3035  0.0861 -0.2270
  366MPD2    C3 5477   1.247   3.728  15.387  0.1439 -0.6073 -0.3179
  366MPD2    C4 5478   1.143   3.749  15.300  0.1313  0.0544  0.2680
  366MPD2    C5 5479   1.139   3.860  15.226  0.0708 -0.1449  0.6766
  366MPD2     H 5480   1.421   3.819  15.478 -0.0430 -0.0032  0.2307
  366MPD2    H1 5481   1.084   3.667  15.261  2.5399 -0.4478 -2.3481
  366MPD2    H2 5482   1.213   4.061  15.198 -3.5723 -1.7663 -0.9409
  366MPD2    H3 5483   1.062   3.864  15.149  1.4084 -2.3118 -0.7757
  366MPD2     N 5484   1.296   3.602  15.426 -0.1983  0.0824  0.0128
  366MPD2    H5 5485   1.387   3.600  15.470 -0.6128  0.1685  0.8733
  366MPD2    N1 5486   1.414   4.060  15.359  0.0396 -0.2569 -0.3663
  366MPD2    H7 5487   1.410   4.136  15.292 -1.2784  0.2905  0.3377
  367TMC3    C1 5488   1.609   4.169  15.442 -0.0461 -0.5051  0.2604
  367TMC3    C2 5489   1.662   4.222  15.557 -0.3178 -0.0697  0.2980
  367TMC3    C3 5490   1.745   4.328  15.550 -0.0267  0.5383  0.5749
  367TMC3    C4 5491   1.636   4.218  15.317  0.4701 -0.9410  0.4661
  367TMC3    C5 5492   1.717   4.326  15.310 -0.5950 -0.6858 -0.4909
  367TMC3    C6 5493   1.771   4.379  15.421 -0.6720  0.6268  0.4238
  367TMC3     C 5494   1.513   4.063  15.458  0.3217  0.5533 -0.6548
  367TMC3     O 5495   1.507   4.005  15.566 -0.6142 -0.5895  0.2903
  367TMC3     H 5496   1.635   4.182  15.654 -1.2579  2.3206  1.0222
  367TMC3    H1 5497   1.590   4.169  15.231 -0.5811 -0.8624  0.9758
  367TMC3    H2 5498   1.834   4.466  15.411  0.9618 -0.7754 -1.5799
  367TMC3    C7 5499   1.680   4.432  15.211  0.7884  0.0079  0.3232
  367TMC3    C8 5500   1.835   4.340  15.659 -0.4764 -0.1647 -0.7989
  367TMC3    O1 5501   1.658   4.543  15.246 -0.2143  0.3946  0.0627
  367TMC3    O2 5502   1.851   4.242  15.735  0.3869 -0.2723 -0.7091
  368MPD2     C 5503   3.455   0.611  13.283  1.6695  0.0331  0.4927
  368MPD2    C1 5504   3.442   0.668  13.162  0.6632 -0.0624  0.6948
  368MPD2    C2 5505   3.538   0.639  13.065 -0.1965 -0.0982  0.7312
  368MPD2    C3 5506   3.656   0.572  13.093 -0.5780 -0.4028  0.5902
  368MPD2    C4 5507   3.668   0.523  13.218  0.0071 -0.0376  0.6797
  368MPD2    C5 5508   3.572   0.549  13.312  0.5605  1.2619  0.3315
  368MPD2     H 5509   3.536   0.683  12.966 -0.7014  1.2333  1.3313
  368MPD2    H1 5510   3.761   0.471  13.237 -0.5422 -0.1970  2.8593
  368MPD2    H2 5511   3.376   0.641  13.351  2.9041  0.9352  1.4991
  368MPD2    H3 5512   3.577   0.509  13.413  1.3965  1.2547  0.2914
  368MPD2     N 5513   3.776   0.563  13.008  0.6945 -0.7431 -0.1901
  368MPD2    H5 5514   3.862   0.520  13.043  0.4362 -0.5488  0.6829
  368MPD2    N1 5515   3.327   0.739  13.136  0.6131  0.1444  0.3916
  368MPD2    H7 5516   3.257   0.746  13.209  0.3784  0.1549  0.1646
  369TMC3    C1 5517   3.170   0.875  13.029  1.2235  0.0882 -0.0096
  369TMC3    C2 5518   3.161   0.995  12.962  0.0066 -0.2029  0.3987
  369TMC3    C3 5519   3.032   1.035  12.948  0.7507 -0.9540  0.0624
  369TMC3    C4 5520   3.070   0.794  13.072 -0.4233 -0.4602  0.3846
  369TMC3    C5 5521   2.950   0.850  13.060  1.0914 -0.0681  0.7020
  369TMC3    C6 5522   2.927   0.970  13.003  0.6384  0.0596 -0.3373
  369TMC3     C 5523   3.299   0.810  13.019 -0.5229 -0.1822  0.0528
  369TMC3     O 5524   3.379   0.837  12.930  0.7498 -0.2053 -0.5688
  369TMC3     H 5525   3.243   1.056  12.927  0.2192 -0.2721  0.7683
  369TMC3    H1 5526   3.088   0.701  13.124  0.3908 -0.7150 -0.3435
  369TMC3    H2 5527   2.832   1.012  12.974  0.3992 -1.0088 -1.1039
  369TMC3    C7 5528   2.839   0.764  13.092  0.0150 -0.7699 -0.0668
  369TMC3    C8 5529   3.004   1.136  12.845 -0.9148  0.1356 -0.9088
  369TMC3    O1 5530   2.864   0.675  13.173 -0.3032 -0.1870  0.5101
  369TMC3    O2 5531   2.904   1.123  12.775  0.3271 -0.0444 -0.3783
  370TMC3    C1 5532   2.445   1.431  16.080 -0.2937 -0.2816  0.5458
  370TMC3    C2 5533   2.395   1.367  16.186  0.0440  0.3478 -0.2108
  370TMC3    C3 5534   2.358   1.232  16.180 -0.6534  0.0948  0.6977
  370TMC3    C4 5535   2.468   1.366  15.962  0.3048 -0.0210  0.0830
  370TMC3    C5 5536   2.435   1.233  15.962  0.1146 -0.0697  0.4900
  370TMC3    C6 5537   2.395   1.163  16.073  0.1064  0.4268  0.7660
  370TMC3     C 5538   2.518   1.553  16.104  0.2212  0.1409 -0.2424
  370TMC3     O 5539   2.595   1.559  16.203 -0.1370 -0.0550 -0.6303
  370TMC3     H 5540   2.368   1.424  16.274 -1.5000 -0.9217  0.1293
  370TMC3    H1 5541   2.532   1.402  15.883 -1.9557  1.2508 -1.1786
  370TMC3    H2 5542   2.382   1.055  16.069 -0.8843  0.5192  1.6119
  370TMC3    C7 5543   2.498   1.155  15.853  0.3370  0.4606 -1.2235
  370TMC3    C8 5544   2.346   1.158  16.305 -0.3479 -0.5158  0.9464
  370TMC3    O1 5545   2.508   1.199  15.739  0.5294 -0.4532 -0.2574
  370TMC3    O2 5546   2.392   1.048  16.316 -0.1624 -0.2508  0.0457
  371TMC3    C1 5547   3.642   4.274  15.343  0.3299  0.3268  0.0038
  371TMC3    C2 5548   3.550   4.291  15.438 -0.4547 -0.0400  0.7726
  371TMC3    C3 5549   3.477   4.411  15.454  0.1613  0.4460 -1.1872
  371TMC3    C4 5550   3.669   4.373  15.249  0.3766 -0.1482  0.1754
  371TMC3    C5 5551   3.589   4.491  15.263  0.0044  0.2057  0.3913
  371TMC3    C6 5552   3.507   4.510  15.368 -0.1458  0.1055  0.2832
  371TMC3     C 5553   3.708   4.142  15.329  0.1854  0.0710  0.4915
  371TMC3     O 5554   3.807   4.144  15.259 -0.5209  0.2385 -0.2730
  371TMC3     H 5555   3.541   4.206  15.505 -0.4682  0.7225  1.7453
  371TMC3    H1 5556   3.734   4.357  15.164  0.4583  2.1759 -0.1929
  371TMC3    H2 5557   3.443   4.598  15.366  0.5520  0.5890 -0.5314
  371TMC3    C7 5558   3.594   4.597  15.165 -0.9150  0.3165  0.2224
  371TMC3    C8 5559   3.397   4.434  15.574 -1.0195 -0.0363 -0.2707
  371TMC3    O1 5560   3.562   4.711  15.201  0.6754 -0.4804 -0.3316
  371TMC3    O2 5561   3.398   4.335  15.646 -0.0115  0.5281 -0.2468
  372MPD2     C 5562   2.808   1.292  13.170  0.4997  0.4799  0.1464
  372MPD2    C1 5563   2.932   1.271  13.221 -0.0306  0.0492 -0.0592
  372MPD2    C2 5564   2.946   1.157  13.303 -0.0576 -0.1241 -0.0834
  372MPD2    C3 5565   2.845   1.071  13.334  0.2161 -0.0243  0.1551
  372MPD2    C4 5566   2.720   1.104  13.281 -0.4457  0.1693  0.1189
  372MPD2    C5 5567   2.701   1.209  13.199  0.2251  0.7239 -0.7326
  372MPD2     H 5568   3.040   1.138  13.354  1.0102 -0.0987 -2.0724
  372MPD2    H1 5569   2.633   1.040  13.289  1.0680 -1.7386  1.5139
  372MPD2    H2 5570   2.776   1.381  13.117  2.4815  1.1833  0.1435
  372MPD2    H3 5571   2.604   1.231  13.156 -0.0370 -1.1597 -1.1113
  372MPD2     N 5572   2.873   0.956  13.406 -0.1921  0.6318  0.4821
  372MPD2    H5 5573   2.972   0.936  13.419  0.0581 -0.1722 -2.5687
  372MPD2    N1 5574   3.034   1.366  13.219 -0.2057  0.1264 -0.2542
  372MPD2    H7 5575   3.122   1.352  13.267 -1.2187 -0.4595  1.4052
  373TMC3    C1 5576   2.833   0.749  13.502 -0.1114  1.0193  0.4861
  373TMC3    C2 5577   2.789   0.725  13.623 -0.1162 -0.2620 -0.4313
  373TMC3    C3 5578   2.864   0.658  13.711  0.5357  0.8190  0.2616
  373TMC3    C4 5579   2.962   0.718  13.464 -0.0984  0.1948  0.5130
  373TMC3    C5 5580   3.041   0.656  13.553 -0.0577 -0.6619  0.0146
  373TMC3    C6 5581   2.988   0.623  13.676 -0.7074 -0.2334  0.1272
  373TMC3     C 5582   2.777   0.860  13.431 -0.1346  0.2914  0.1371
  373TMC3     O 5583   2.656   0.872  13.428 -0.1031 -0.1629 -0.0913
  373TMC3     H 5584   2.683   0.729  13.649  0.6743  2.2779  2.3240
  373TMC3    H1 5585   2.989   0.730  13.360 -1.1341 -0.9855  0.1014
  373TMC3    H2 5586   3.049   0.563  13.742 -1.0330 -0.1636  0.4914
  373TMC3    C7 5587   3.153   0.583  13.502  0.3358  0.1053 -0.1348
  373TMC3    C8 5588   2.847   0.682  13.856  0.3681  0.5434 -0.0026
  373TMC3    O1 5589   3.176   0.575  13.380 -0.0154 -0.1650 -0.3141
  373TMC3    O2 5590   2.802   0.592  13.923  0.6697 -0.0006  0.1552
  374TMC3    C1 5591   3.846   0.289   9.399  0.4269 -0.2054  0.3160
  374TMC3    C2 5592   3.784   0.322   9.515  0.3235  0.4433 -0.1570
  374TMC3    C3 5593   3.827   0.432   9.578  0.4942  0.0089 -0.1095
  374TMC3    C4 5594   3.945   0.373   9.352  0.0174  0.0030 -0.1861
  374TMC3    C5 5595   3.964   0.495   9.405  0.3588  0.7824 -0.2681
  374TMC3    C6 5596   3.899   0.532   9.522 -0.4078  0.0621  0.2140
  374TMC3     C 5597   3.829   0.160   9.322 -0.3791  0.2838 -0.5485
  374TMC3     O 5598   3.923   0.119   9.255  0.0448  0.1473  0.5414
  374TMC3     H 5599   3.716   0.249   9.558 -0.7066  0.9788 -0.8812
  374TMC3    H1 5600   3.992   0.348   9.257  2.0524  0.7986  0.6106
  374TMC3    H2 5601   3.912   0.625   9.575  0.7750 -0.2124  0.4209
  374TMC3    C7 5602   4.045   0.591   9.334  0.3997 -0.6296 -0.2472
  374TMC3    C8 5603   3.749   0.483   9.684 -0.4547 -0.2027 -0.5993
  374TMC3    O1 5604   4.084   0.559   9.224  0.3585 -0.4794  0.1193
  374TMC3    O2 5605   3.635   0.435   9.689  0.7010 -0.0796 -0.0205
  375MPD2     C 5606   3.863   2.556  16.651 -0.2872  0.2978 -0.2198
  375MPD2    C1 5607   3.761   2.470  16.617  0.2891  0.4422  0.1223
  375MPD2    C2 5608   3.789   2.357  16.539 -0.8373  0.8597 -1.2992
  375MPD2    C3 5609   3.922   2.331  16.505  0.5275  0.0850  0.1384
  375MPD2    C4 5610   4.021   2.418  16.532 -0.6456 -0.3083 -0.5560
  375MPD2    C5 5611   3.994   2.524  16.601  0.3429  0.6703 -0.4607
  375MPD2     H 5612   3.707   2.290  16.514  1.3086 -1.7875 -1.2738
  375MPD2    H1 5613   4.118   2.410  16.486 -0.3483 -1.4464  0.2576
  375MPD2    H2 5614   3.853   2.646  16.711 -2.4401  0.6474 -1.0808
  375MPD2    H3 5615   4.081   2.587  16.614 -0.0261  1.0760  0.0730
  375MPD2     N 5616   3.957   2.218  16.439  0.9690 -0.0118  0.1442
  375MPD2    H5 5617   4.056   2.201  16.427  1.3779  2.1583  0.4358
  375MPD2    N1 5618   3.631   2.490  16.679 -0.1786  0.0521  0.4498
  375MPD2    H7 5619   3.560   2.422  16.653  0.5271  0.0466 -1.5363
  376TMC3    C1 5620   3.943   2.027  16.310  0.1647 -0.1048  0.1014
  376TMC3    C2 5621   4.041   1.956  16.380 -0.2554  0.0827  0.3347
  376TMC3    C3 5622   4.065   1.824  16.352 -0.7565  0.4319 -1.1087
  376TMC3    C4 5623   3.894   1.970  16.192 -0.0216 -0.2669  0.0408
  376TMC3    C5 5624   3.940   1.843  16.157 -0.2722 -0.4729 -0.5598
  376TMC3    C6 5625   4.010   1.761  16.245 -0.0162 -0.2562  0.0551
  376TMC3     C 5626   3.870   2.137  16.371 -0.1705 -0.3561  0.6306
  376TMC3     O 5627   3.754   2.154  16.337  0.1414  0.1133  0.7160
  376TMC3     H 5628   4.079   1.991  16.475 -1.3618 -0.9470  1.1380
  376TMC3    H1 5629   3.828   2.019  16.122  0.0135 -0.3124 -0.0249
  376TMC3    H2 5630   4.041   1.662  16.214 -0.9788 -1.0678  1.6750
  376TMC3    C7 5631   3.940   1.816  16.017  0.0242  0.5216 -0.2163
  376TMC3    C8 5632   4.188   1.760  16.390  0.3217 -0.0438 -0.5059
  376TMC3    O1 5633   3.931   1.908  15.935 -0.2957  0.1285 -0.0024
  376TMC3    O2 5634   4.285   1.834  16.407  0.1989  0.0198 -0.7113
  377MPD2     C 5635   2.020   1.308  12.553 -0.0114  0.3330  0.5452
  377MPD2    C1 5636   1.924   1.348  12.473 -0.2710 -0.1291  0.2461
  377MPD2    C2 5637   1.799   1.373  12.528 -0.0745 -0.3891  0.0843
  377MPD2    C3 5638   1.783   1.354  12.663  0.3222  0.2340  0.0360
  377MPD2    C4 5639   1.887   1.309  12.744  0.0720  0.8530 -1.0235
  377MPD2    C5 5640   2.007   1.286  12.686 -0.5095  0.4406 -0.7412
  377MPD2     H 5641   1.718   1.416  12.470 -0.7885 -1.3594  0.3652
  377MPD2    H1 5642   1.864   1.300  12.850  2.5500  2.9024 -0.3415
  377MPD2    H2 5643   2.120   1.286  12.517 -0.1953 -0.5703  0.5800
  377MPD2    H3 5644   2.095   1.250  12.739 -1.6604 -0.0911  0.8090
  377MPD2     N 5645   1.657   1.370  12.721 -0.2299 -0.1520  0.8606
  377MPD2    H5 5646   1.653   1.344  12.819  2.7317  1.3192  1.3723
  377MPD2    N1 5647   1.956   1.365  12.336 -0.9822  0.0420  0.1389
  377MPD2    H7 5648   2.055   1.361  12.311 -0.8420 -0.8081  0.8194
  378TMC3    C1 5649   1.879   1.413  11.866  0.0825 -0.0175 -0.1828
  378TMC3    C2 5650   1.836   1.409  11.999 -0.2157  0.2380  0.0252
  378TMC3    C3 5651   1.929   1.406  12.099  0.0569 -0.7938  0.7728
  378TMC3    C4 5652   2.011   1.410  11.836  0.8178  0.2963  0.0982
  378TMC3    C5 5653   2.097   1.413  11.944 -0.1871  0.4927 -0.2475
  378TMC3    C6 5654   2.060   1.417  12.078 -0.4003  0.2320  0.1884
  378TMC3     C 5655   1.780   1.386  11.766 -0.2848  0.1241  0.1735
  378TMC3     O 5656   1.671   1.435  11.789  0.1970 -0.3703  0.2542
  378TMC3     H 5657   1.728   1.406  12.009 -0.2816 -0.3847 -0.7998
  378TMC3    H1 5658   2.038   1.413  11.732  2.2566 -1.7116  0.4189
  378TMC3    H2 5659   2.136   1.408  12.155 -1.5372 -0.2362  1.2557
  378TMC3    C7 5660   2.236   1.423  11.909 -0.1604 -0.1990 -0.1836
  378TMC3    C8 5661   1.867   1.398  12.234 -0.6078 -1.0647  0.2508
  378TMC3    O1 5662   2.314   1.458  11.995 -0.4363  0.0328 -0.8208
  378TMC3    O2 5663   1.747   1.424  12.236  0.0809 -0.2399  0.4768
  379MPD2     C 5664   3.003   4.257  16.359 -0.1923 -0.8160 -0.2877
  379MPD2    C1 5665   2.889   4.219  16.427 -0.1465 -0.1652  0.5576
  379MPD2    C2 5666   2.899   4.162  16.558 -0.2879  0.4206 -0.2364
  379MPD2    C3 5667   3.017   4.164  16.625  0.4491 -0.0056 -0.6178
  379MPD2    C4 5668   3.122   4.222  16.557 -0.0808  0.4029  0.2395
  379MPD2    C5 5669   3.123   4.259  16.421  0.4292 -0.2685  0.0229
  379MPD2     H 5670   2.805   4.124  16.597 -1.6227  2.5993 -1.3182
  379MPD2    H1 5671   3.212   4.233  16.616  0.3266  3.4051 -0.9436
  379MPD2    H2 5672   2.990   4.293  16.258  1.7050  0.6218 -0.0309
  379MPD2    H3 5673   3.218   4.286  16.375 -0.8287  0.9569 -1.8701
  379MPD2     N 5674   3.043   4.115  16.753  0.2685 -0.4070  0.2240
  379MPD2    H5 5675   3.136   4.122  16.793  0.1512  1.0076  0.2589
  379MPD2    N1 5676   2.772   4.228  16.345  0.1380  0.4928  0.0757
  379MPD2    H7 5677   2.780   4.243  16.245  1.3682  0.5363  0.1821
  380TMC3    C1 5678   2.548   4.208  16.281 -0.9423 -0.0591 -1.1704
  380TMC3    C2 5679   2.588   4.128  16.177  0.6308  0.2798  0.0513
  380TMC3    C3 5680   2.500   4.117  16.076 -0.3372 -0.5138  0.1274
  380TMC3    C4 5681   2.431   4.277  16.289  0.6274  0.5907  0.4816
  380TMC3    C5 5682   2.344   4.259  16.184  0.0661 -0.0082 -0.7604
  380TMC3    C6 5683   2.381   4.188  16.072 -0.1750  0.1305 -0.1292
  380TMC3     C 5684   2.642   4.214  16.392 -0.3668  0.1687 -0.2958
  380TMC3     O 5685   2.593   4.244  16.500  0.2050 -0.1581  0.1989
  380TMC3     H 5686   2.680   4.070  16.174 -0.4828 -1.5264  0.7908
  380TMC3    H1 5687   2.401   4.335  16.376 -0.9671  3.3114 -1.8819
  380TMC3    H2 5688   2.329   4.198  15.977  0.4066  0.3405 -0.4275
  380TMC3    C7 5689   2.239   4.361  16.169  0.4065  0.5686  0.4102
  380TMC3    C8 5690   2.556   4.083  15.947  1.1352 -0.2595 -0.1373
  380TMC3    O1 5691   2.256   4.455  16.246  0.4837  0.7948  0.2291
  380TMC3    O2 5692   2.671   4.113  15.923 -0.3272 -0.3132 -0.1987
  381TMC3    C1 5693   2.593   0.411  16.334  0.8339  0.0483  0.8621
  381TMC3    C2 5694   2.667   0.518  16.285  1.0808 -0.1031 -0.0084
  381TMC3    C3 5695   2.653   0.644  16.342  0.0979 -0.2994  0.6506
  381TMC3    C4 5696   2.524   0.419  16.451 -0.0089  0.3094 -0.2709
  381TMC3    C5 5697   2.526   0.547  16.517  0.2341  0.1947 -0.5388
  381TMC3    C6 5698   2.574   0.660  16.455 -0.5728  0.0334  0.4299
  381TMC3     C 5699   2.636   0.273  16.300 -0.0249  0.1317  0.1565
  381TMC3     O 5700   2.593   0.181  16.372 -0.1663 -0.0087  0.6896
  381TMC3     H 5701   2.735   0.505  16.201  0.1144 -0.0252 -0.8090
  381TMC3    H1 5702   2.463   0.340  16.493  0.4020 -0.6905 -1.5538
  381TMC3    H2 5703   2.546   0.756  16.498  1.5161  1.4228 -1.2815
  381TMC3    C7 5704   2.514   0.538  16.661 -0.5134  0.7642  0.2747
  381TMC3    C8 5705   2.722   0.756  16.277  0.2347 -0.4836 -0.5649
  381TMC3    O1 5706   2.535   0.420  16.697 -0.2137  0.6633  0.0812
  381TMC3    O2 5707   2.788   0.724  16.182 -0.1979 -0.1965  0.6988
  382MPD2     C 5708   1.319   3.255  16.865 -0.3356  0.1277 -0.0400
  382MPD2    C1 5709   1.333   3.221  17.000 -0.3607  0.1193 -0.0999
  382MPD2    C2 5710   1.324   3.091  17.035 -0.2525  0.3874 -0.3531
  382MPD2    C3 5711   1.316   2.992  16.941  0.0966  0.2495  0.1125
  382MPD2    C4 5712   1.318   3.026  16.806  0.7466  0.5779  0.4589
  382MPD2    C5 5713   1.307   3.157  16.771  0.1489 -0.3796  0.6220
  382MPD2     H 5714   1.329   3.077  17.143 -2.7344 -4.9726 -0.9494
  382MPD2    H1 5715   1.303   2.950  16.731 -1.6383 -0.5123  2.0208
  382MPD2    H2 5716   1.323   3.355  16.825  0.8545  0.0238 -0.1730
  382MPD2    H3 5717   1.293   3.173  16.665 -0.8824  0.7529  0.9269
  382MPD2     N 5718   1.297   2.861  16.984 -0.0817 -0.8479 -0.3125
  382MPD2    H5 5719   1.301   2.784  16.917  1.5145  0.8084 -2.1029
  382MPD2    N1 5720   1.372   3.311  17.100  0.9673  0.0822  0.1483
  382MPD2    H7 5721   1.377   3.273  17.193  1.0338  1.9089  0.8864
  383TMC3    C1 5722   1.302   2.671  17.115  0.0401  0.2152 -0.1933
  383TMC3    C2 5723   1.235   2.588  17.026  0.1515  0.2532  0.1220
  383TMC3    C3 5724   1.216   2.457  17.048 -0.1777 -0.6795  0.0034
  383TMC3    C4 5725   1.336   2.621  17.238  0.5889 -0.5011 -0.3378
  383TMC3    C5 5726   1.322   2.490  17.254 -0.8023 -0.7170 -0.6872
  383TMC3    C6 5727   1.261   2.399  17.166 -0.2725 -0.2470 -0.2426
  383TMC3     C 5728   1.280   2.814  17.109  0.2416 -0.6392 -0.1916
  383TMC3     O 5729   1.243   2.865  17.212 -0.6406  0.0393 -0.2028
  383TMC3     H 5730   1.183   2.639  16.946  1.3240 -1.1211 -1.5196
  383TMC3    H1 5731   1.382   2.690  17.308  0.8034  0.2711 -1.2503
  383TMC3    H2 5732   1.224   2.304  17.204  0.6323 -0.3415  0.3852
  383TMC3    C7 5733   1.351   2.437  17.386 -0.6827  0.5842  0.4359
  383TMC3    C8 5734   1.116   2.388  16.961 -0.3564  0.6620 -1.1918
  383TMC3    O1 5735   1.297   2.334  17.414  0.3279  0.3928 -0.1084
  383TMC3    O2 5736   1.054   2.445  16.872  0.2279  0.4063  0.1641
  384MPD2     C 5737   2.625   4.504  11.833 -0.6190 -0.3879 -0.2619
  384MPD2    C1 5738   2.691   4.478  11.950  0.1225  0.5091 -0.0946
  384MPD2    C2 5739   2.799   4.390  11.950 -0.1965  0.0376  0.2099
  384MPD2    C3 5740   2.851   4.341  11.837  0.2622  0.3009 -0.7663
  384MPD2    C4 5741   2.788   4.370  11.719  0.8909  0.1693  0.7145
  384MPD2    C5 5742   2.681   4.456  11.719  0.3860 -0.2833 -0.7285
  384MPD2     H 5743   2.835   4.374  12.051  1.4659 -1.5068 -0.6153
  384MPD2    H1 5744   2.817   4.335  11.621 -0.6330 -2.0623  1.0710
  384MPD2    H2 5745   2.532   4.561  11.830  0.8820  2.0263 -0.6232
  384MPD2    H3 5746   2.628   4.483  11.629  0.6651  0.5476 -0.6418
  384MPD2     N 5747   2.960   4.249  11.841 -0.2631 -0.1067 -0.2450
  384MPD2    H5 5748   2.995   4.205  11.756 -1.4688 -0.2343 -0.6822
  384MPD2    N1 5749   2.652   4.530  12.073 -0.4545 -0.3904  0.1462
  384MPD2    H7 5750   2.702   4.492  12.153  1.9491  2.7046  0.1030
  385TMC3    C1 5751   3.102   4.097  11.951 -0.4330  1.0400 -0.0696
  385TMC3    C2 5752   3.057   3.990  11.877  0.2500  0.4868 -1.0125
  385TMC3    C3 5753   3.087   3.871  11.921 -0.0552 -0.1864  0.2426
  385TMC3    C4 5754   3.164   4.072  12.067  0.4003  0.0007 -0.3828
  385TMC3    C5 5755   3.174   3.949  12.115  0.2749 -0.4881 -0.2163
  385TMC3    C6 5756   3.134   3.837  12.041 -1.2243  0.5426  0.0554
  385TMC3     C 5757   3.014   4.205  11.955  0.6686 -0.1843  0.6927
  385TMC3     O 5758   3.017   4.252  12.069  0.1589 -0.0666  0.1358
  385TMC3     H 5759   3.009   3.999  11.780  0.9005  1.4690 -1.2437
  385TMC3    H1 5760   3.212   4.150  12.126 -0.8704 -0.8555  1.7745
  385TMC3    H2 5761   3.149   3.735  12.075 -0.1340 -0.2586 -2.8505
  385TMC3    C7 5762   3.140   3.949  12.256 -0.6762  0.2568  0.4034
  385TMC3    C8 5763   3.033   3.763  11.844 -0.1476  0.3025 -0.5231
  385TMC3    O1 5764   3.175   3.848  12.315  0.3913  0.9018 -0.4556
  385TMC3    O2 5765   3.072   3.744  11.733  0.0324  0.1781 -0.2757
  386TMC3    C1 5766   3.325   1.455  11.472  1.0790 -0.1812 -0.0649
  386TMC3    C2 5767   3.279   1.385  11.363 -0.8458  0.2424 -0.3321
  386TMC3    C3 5768   3.151   1.403  11.332  0.1307  0.0582 -0.4345
  386TMC3    C4 5769   3.249   1.545  11.537  0.4461 -0.0122 -0.4852
  386TMC3    C5 5770   3.123   1.578  11.493  0.2947  0.6487 -0.4940
  386TMC3    C6 5771   3.070   1.502  11.389  0.3163 -0.5589  0.6172
  386TMC3     C 5772   3.459   1.424  11.527 -0.3577  0.3538 -0.1061
  386TMC3     O 5773   3.521   1.493  11.607  0.4413 -0.6111 -0.1449
  386TMC3     H 5774   3.341   1.320  11.304  0.9933  0.4839  1.3146
  386TMC3    H1 5775   3.288   1.585  11.630 -0.9530  0.4086 -0.0744
  386TMC3    H2 5776   2.970   1.525  11.353  0.3911 -0.2953  0.5750
  386TMC3    C7 5777   3.037   1.629  11.597 -0.6467 -0.6153 -0.1043
  386TMC3    C8 5778   3.097   1.342  11.212  0.1087 -0.3320 -0.0091
  386TMC3    O1 5779   2.931   1.569  11.615 -0.3941  0.4579 -0.5311
  386TMC3    O2 5780   3.012   1.403  11.152 -0.0481 -0.4403  0.1498
  387MPD2     C 5781   0.701   1.686   9.666 -0.0605  0.3354 -0.7567
  387MPD2    C1 5782   0.747   1.666   9.793  0.5247 -0.0176 -0.4479
  387MPD2    C2 5783   0.741   1.539   9.843  0.0868  0.5091 -0.6723
  387MPD2    C3 5784   0.690   1.441   9.763 -0.2025  0.0491 -0.0187
  387MPD2    C4 5785   0.621   1.459   9.643 -0.2636  0.1206 -0.0466
  387MPD2    C5 5786   0.635   1.585   9.596  0.3355 -0.2672 -0.0237
  387MPD2     H 5787   0.803   1.521   9.930 -1.8622 -0.7393  0.4436
  387MPD2    H1 5788   0.582   1.380   9.581  1.5517  0.0708 -1.1103
  387MPD2    H2 5789   0.701   1.780   9.612  0.2402  0.7627 -0.0213
  387MPD2    H3 5790   0.599   1.606   9.496  0.1516 -3.7945 -0.7228
  387MPD2     N 5791   0.703   1.313   9.826  0.6967  0.9024 -0.3706
  387MPD2    H5 5792   0.754   1.312   9.914  1.8405  1.4249 -1.0324
  387MPD2    N1 5793   0.842   1.751   9.855 -0.3360  0.7878  0.1511
  387MPD2    H7 5794   0.872   1.731   9.950  0.2604  2.3208  0.2902
  388TMC3    C1 5795   1.032   1.881   9.850  0.3098 -0.2197  0.3184
  388TMC3    C2 5796   1.106   1.986   9.807 -0.5943  0.0219  0.1001
  388TMC3    C3 5797   1.236   2.000   9.841 -0.3888  0.0097 -0.0369
  388TMC3    C4 5798   1.093   1.780   9.918  0.3668  0.0555  0.3747
  388TMC3    C5 5799   1.225   1.794   9.953  0.2480 -0.2513 -0.1110
  388TMC3    C6 5800   1.295   1.904   9.920  0.1486  0.0652  0.0362
  388TMC3     C 5801   0.898   1.864   9.799 -0.5394  0.0277 -0.0217
  388TMC3     O 5802   0.859   1.933   9.706 -0.1131  0.6113 -0.0288
  388TMC3     H 5803   1.066   2.068   9.749 -0.3600  0.5127  0.6362
  388TMC3    H1 5804   1.044   1.705   9.979  0.1670  0.1219  0.2943
  388TMC3    H2 5805   1.401   1.903   9.944  0.8260  0.8035 -2.9262
  388TMC3    C7 5806   1.296   1.679   9.991 -0.9445  0.0447  1.2903
  388TMC3    C8 5807   1.300   2.124   9.807 -0.0680 -0.3404  0.5960
  388TMC3    O1 5808   1.390   1.688  10.071  0.4768 -0.4776 -0.1659
  388TMC3    O2 5809   1.274   2.174   9.699  0.0237 -0.2030  0.1217
  389MPD2     C 5810   0.198   4.558  11.479 -0.8589  0.1599  0.5117
  389MPD2    C1 5811   0.097   4.490  11.424  0.6057  0.1822  0.5172
  389MPD2    C2 5812   4.720   4.438  11.504  0.4419  0.3442  0.1287
  389MPD2    C3 5813   4.715   4.460  11.639  0.1675  0.3930  0.2227
  389MPD2    C4 5814   0.086   4.542  11.695  0.0631 -0.1445  0.5817
  389MPD2    C5 5815   0.188   4.586  11.614 -0.0306 -0.0196  0.4526
  389MPD2     H 5816   4.639   4.384  11.456  0.9310 -0.7549  0.5421
  389MPD2    H1 5817   0.079   4.566  11.800 -1.3842  1.0837  0.2093
  389MPD2    H2 5818   0.281   4.597  11.421  0.1515 -1.6834  0.7116
  389MPD2    H3 5819   0.258   4.658  11.653  0.3267 -0.5383  0.7797
  389MPD2     N 5820   4.606   4.401  11.715 -0.1244  0.1152 -0.4276
  389MPD2    H5 5821   4.586   4.433  11.809  1.9400  1.5366 -0.4672
  389MPD2    N1 5822   0.097   4.490  11.282  0.4538 -0.3339 -0.2729
  389MPD2    H7 5823   0.150   4.567  11.242 -1.4967  1.3321  0.3268
  390TMC3    C1 5824   4.410   4.264  11.745  0.3991  0.3758  0.2186
  390TMC3    C2 5825   4.339   4.154  11.713  0.6220 -0.0798 -0.1219
  390TMC3    C3 5826   4.228   4.128  11.778  0.1377 -0.6752  0.6833
  390TMC3    C4 5827   4.370   4.352  11.838  0.9554 -0.6031 -0.4283
  390TMC3    C5 5828   4.248   4.336  11.895  0.3056  0.8886 -0.1008
  390TMC3    C6 5829   4.174   4.229  11.863  0.3264 -0.2947 -0.2217
  390TMC3     C 5830   4.538   4.289  11.674  0.0626 -0.0897 -0.1979
  390TMC3     O 5831   4.572   4.211  11.584  0.0177 -0.0568 -0.2650
  390TMC3     H 5832   4.380   4.086  11.639 -0.8208 -3.0159  1.7631
  390TMC3    H1 5833   4.411   4.452  11.844  1.0890 -0.5696 -1.8616
  390TMC3    H2 5834   4.087   4.195  11.918 -0.2359  2.9264  0.9259
  390TMC3    C7 5835   4.173   4.458  11.903  0.0941  0.1225 -0.3993
  390TMC3    C8 5836   4.136   4.063  11.697  0.4045 -0.7162 -0.2093
  390TMC3    O1 5837   4.229   4.566  11.883 -0.3951  0.5300 -0.0654
  390TMC3    O2 5838   4.158   3.949  11.653 -0.3745  0.0817 -0.0569
  391MPD2     C 5839   3.899   0.829  11.202 -0.4289 -0.8458 -0.0841
  391MPD2    C1 5840   4.006   0.916  11.176  0.0597 -0.0153  0.9189
  391MPD2    C2 5841   4.046   0.932  11.040  0.9360 -0.1359  0.5704
  391MPD2    C3 5842   3.985   0.870  10.941  0.2687  0.4300 -0.0332
  391MPD2    C4 5843   3.871   0.789  10.966  0.9241 -0.1666 -0.2330
  391MPD2    C5 5844   3.826   0.770  11.099 -0.0437 -0.3904 -0.1765
  391MPD2     H 5845   4.133   0.996  11.027  2.1307 -2.3113 -2.4301
  391MPD2    H1 5846   3.801   0.751  10.892  1.4963 -1.9177  0.1152
  391MPD2    H2 5847   3.856   0.819  11.302  0.8022 -1.5814  0.3685
  391MPD2    H3 5848   3.725   0.735  11.114 -0.1398  0.4850  1.3091
  391MPD2     N 5849   4.034   0.894  10.804  0.6978  0.2010  0.2431
  391MPD2    H5 5850   4.108   0.962  10.794 -0.6468  1.7538  0.8322
  391MPD2    N1 5851   4.059   0.986  11.287  0.2138  0.2096 -0.8192
  391MPD2    H7 5852   4.022   0.961  11.379 -0.3927 -1.0207 -1.3974
  392TMC3    C1 5853   4.032   0.891  10.566 -0.6225 -0.2409  0.1857
  392TMC3    C2 5854   4.017   0.817  10.451 -0.0101 -0.0447 -0.0302
  392TMC3    C3 5855   4.082   0.855  10.338  0.2764 -0.0761  0.0440
  392TMC3    C4 5856   4.100   1.014  10.566 -0.7446  0.2414 -0.2642
  392TMC3    C5 5857   4.157   1.051  10.446  0.8285  0.0160  0.5110
  392TMC3    C6 5858   4.145   0.974  10.331 -0.0840 -0.4796 -0.5354
  392TMC3     C 5859   3.991   0.821  10.691 -0.8623  0.5186  0.6418
  392TMC3     O 5860   3.934   0.713  10.685  0.4088  0.3337  0.2839
  392TMC3     H 5861   3.967   0.721  10.461 -0.1739  0.0275 -0.1573
  392TMC3    H1 5862   4.100   1.085  10.648  1.3886 -0.7989  0.6281
  392TMC3    H2 5863   4.199   1.000  10.241  0.4312 -0.3464 -0.1850
  392TMC3    C7 5864   4.226   1.180  10.447 -0.5266  0.2189  0.2142
  392TMC3    C8 5865   4.033   0.804  10.210 -0.0599 -0.0180 -0.0864
  392TMC3    O1 5866   4.239   1.231  10.556 -0.1024  0.0017 -0.1985
  392TMC3    O2 5867   4.101   0.812  10.110 -0.0651 -0.3230  0.1393
  393TMC3    C1 5868   2.730   3.693   9.967 -0.0796 -0.8466  0.2595
  393TMC3    C2 5869   2.599   3.744   9.984 -0.3175  0.0069  0.2301
  393TMC3    C3 5870   2.548   3.766  10.110  0.1419  0.3727  0.3141
  393TMC3    C4 5871   2.816   3.690  10.071 -0.2550 -0.7736  0.7188
  393TMC3    C5 5872   2.758   3.713  10.195 -0.3550  0.0912 -0.6840
  393TMC3    C6 5873   2.631   3.751  10.218 -0.2072  0.4119  1.1008
  393TMC3     C 5874   2.793   3.692   9.837 -0.1834 -0.1878  0.5388
  393TMC3     O 5875   2.913   3.685   9.833  0.3542 -0.3900 -0.4923
  393TMC3     H 5876   2.548   3.781   9.896 -1.6958  0.2944  1.1386
  393TMC3    H1 5877   2.920   3.661  10.062  0.2112  0.9793  0.5912
  393TMC3    H2 5878   2.611   3.782  10.320  1.3432 -0.7444  1.7580
  393TMC3    C7 5879   2.850   3.725  10.312  0.1894 -0.0593 -0.2410
  393TMC3    C8 5880   2.418   3.838  10.122  0.0076  0.5028 -0.1541
  393TMC3    O1 5881   2.800   3.727  10.422  0.0693 -0.1135  0.4939
  393TMC3    O2 5882   2.373   3.885  10.018  0.1303 -0.1547  0.5781
  394TMC3    C1 5883   4.721   4.492  11.072 -0.1327 -0.0776  0.3415
  394TMC3    C2 5884   4.598   4.527  11.029  0.9082 -0.3340  0.1243
  394TMC3    C3 5885   4.590   4.612  10.921  0.1987  0.7258  0.1513
  394TMC3    C4 5886   0.108   4.538  11.008 -0.3199  0.7516 -0.6424
  394TMC3    C5 5887   0.099   4.622  10.899  0.0998 -0.0956 -0.8601
  394TMC3    C6 5888   4.700   4.663  10.859 -0.2769 -0.8181  0.1237
  394TMC3     C 5889   4.723   4.436  11.203 -0.9682  0.5123  0.0726
  394TMC3     O 5890   4.636   4.355  11.239  0.7952 -0.1362  0.2002
  394TMC3     H 5891   4.511   4.485  11.077  0.1740  0.2155 -0.7115
  394TMC3    H1 5892   0.206   4.519  11.050  0.6371  0.7247 -2.9353
  394TMC3    H2 5893   4.680   0.004  10.775  0.7823 -0.7352 -0.0562
  394TMC3    C7 5894   0.213   4.660  10.812  0.7768  0.3102 -0.1475
  394TMC3    C8 5895   4.472   4.595  10.843  0.1029  0.9569  0.5608
  394TMC3    O1 5896   0.178   4.715  10.708  0.3347  0.7329 -0.0035
  394TMC3    O2 5897   4.369   4.572  10.906  0.0552 -0.1495 -0.3985
  395TMC3    C1 5898   0.223   1.784  14.171  0.3682 -0.3712 -0.2757
  395TMC3    C2 5899   0.097   1.833  14.143  0.3070  0.2402 -0.3477
  395TMC3    C3 5900   0.065   1.953  14.193 -0.2934 -0.5628  0.3173
  395TMC3    C4 5901   0.323   1.850  14.238  0.1838 -0.6442  0.2904
  395TMC3    C5 5902   0.286   1.978  14.274  0.2414 -0.0118 -0.5169
  395TMC3    C6 5903   0.159   2.029  14.262  0.5511  0.4282  1.0207
  395TMC3     C 5904   0.213   1.647  14.211  0.3519  0.7212 -0.3516
  395TMC3     O 5905   0.319   1.583  14.200  0.2734  0.4082 -0.2084
  395TMC3     H 5906   0.029   1.776  14.080 -0.5349  0.2508  0.5365
  395TMC3    H1 5907   0.402   1.794  14.286  0.9028  1.4828  1.5866
  395TMC3    H2 5908   0.139   2.129  14.298  1.0027  1.1144 -0.6534
  395TMC3    C7 5909   0.399   2.056  14.325 -0.5316  1.0569  0.1923
  395TMC3    C8 5910   4.655   1.962  14.251 -0.4253 -0.0255  0.0536
  395TMC3    O1 5911   0.372   2.165  14.373  0.4497  0.0532 -0.0504
  395TMC3    O2 5912   4.654   2.042  14.340  0.0905  1.2633 -0.8560
  396MPD2     C 5913   4.572   2.848  17.167  0.0113 -0.2183 -0.8417
  396MPD2    C1 5914   4.708   2.842  17.137  0.3790  0.0239 -0.7801
  396MPD2    C2 5915   0.050   2.941  17.062 -0.0972  0.0598  0.0002
  396MPD2    C3 5916   4.701   3.042  17.009 -0.4171 -0.1409  0.0832
  396MPD2    C4 5917   4.566   3.052  17.026  0.0233  0.6449 -0.2649
  396MPD2    C5 5918   4.504   2.953  17.108  0.3377 -0.9106 -0.2565
  396MPD2     H 5919   0.157   2.937  17.044 -0.2369 -0.3460 -0.7306
  396MPD2    H1 5920   4.502   3.128  16.982  1.4618  0.1005 -3.2358
  396MPD2    H2 5921   4.515   2.778  17.227 -0.7799  3.5155  2.7040
  396MPD2    H3 5922   4.398   2.969  17.124  0.2636 -1.1952 -0.4622
  396MPD2     N 5923   0.044   3.137  16.936 -0.1853  0.4818 -0.5012
  396MPD2    H5 5924   0.140   3.118  16.910  0.5905  1.6195  1.5683
  396MPD2    N1 5925   0.043   2.720  17.175 -0.3352  0.0364  0.3572
  396MPD2    H7 5926   4.708   2.642  17.200  0.8048 -0.7812  0.5755
  397TMC3    C1 5927   0.219   2.568  17.231  0.8462 -0.1696  0.6764
  397TMC3    C2 5928   0.284   2.500  17.131 -0.4805  0.2004 -0.0363
  397TMC3    C3 5929   0.226   2.388  17.070  0.0291  0.0848 -0.5384
  397TMC3    C4 5930   0.121   2.497  17.301  0.2204  0.5187 -0.2636
  397TMC3    C5 5931   0.076   2.378  17.248  0.3364  0.6356  1.2327
  397TMC3    C6 5932   0.123   2.324  17.129  0.1651 -0.1172  0.1625
  397TMC3     C 5933   0.180   2.701  17.186  0.0534  1.4558  0.3779
  397TMC3     O 5934   0.276   2.772  17.140  0.4288 -0.2395 -0.3891
  397TMC3     H 5935   0.368   2.557  17.094 -0.5982 -1.1839 -2.4254
  397TMC3    H1 5936   0.076   2.535  17.392 -2.5080 -2.3582 -0.4288
  397TMC3    H2 5937   0.077   2.234  17.090 -1.0933  0.1597  0.9778
  397TMC3    C7 5938   4.703   2.303  17.317  0.5798  0.8202  0.1424
  397TMC3    C8 5939   0.203   2.401  16.926 -0.3675 -0.1522  0.2137
  397TMC3    O1 5940   4.629   2.241  17.243 -0.4010  0.5023  0.7359
  397TMC3    O2 5941   0.085   2.385  16.891 -0.0486 -0.5069 -0.3411
  398MPD2     C 5942   2.497   3.406   0.128  0.2886  0.7603 -0.4719
  398MPD2    C1 5943   2.616   3.360   0.183  0.0006  0.1013  0.1998
  398MPD2    C2 5944   2.699   3.451   0.241 -0.6098  0.6307  0.7744
  398MPD2    C3 5945   2.665   3.582   0.262 -0.1494 -0.2897  0.3178
  398MPD2    C4 5946   2.560   3.632   0.192 -0.2694  0.0087 -0.6482
  398MPD2    C5 5947   2.476   3.542   0.130 -0.6455 -0.0671  0.0243
  398MPD2     H 5948   2.784   3.402   0.286 -0.9644 -2.2036 -1.6813
  398MPD2    H1 5949   2.541   3.738   0.204  0.2981  0.2549 -1.9166
  398MPD2    H2 5950   2.434   3.343   0.066  0.0078  0.3323  0.2401
  398MPD2    H3 5951   2.389   3.588   0.085 -0.7895  0.8520  1.2332
  398MPD2     N 5952   2.751   3.653   0.352  0.1474 -0.6348 -0.4989
  398MPD2    H5 5953   2.819   3.597   0.402  1.0966  1.7678  0.8727
  398MPD2    N1 5954   2.651   3.222   0.196  0.2670 -0.4237  0.5335
  398MPD2    H7 5955   2.740   3.205   0.240  0.5398 -0.7388 -0.1339
  399TMC3    C1 5956   2.648   2.994   0.171  0.1794 -0.1018 -0.1590
  399TMC3    C2 5957   2.783   2.995   0.173  0.6535 -0.1270  0.0255
  399TMC3    C3 5958   2.860   2.877   0.180  0.3623 -0.3035  0.8908
  399TMC3    C4 5959   2.584   2.870   0.182 -0.3494 -0.6296  1.3207
  399TMC3    C5 5960   2.657   2.760   0.196 -0.2000 -0.2434 -0.0439
  399TMC3    C6 5961   2.795   2.756   0.200 -0.0520 -0.4695  0.1206
  399TMC3     C 5962   2.576   3.119   0.150 -0.6462  0.1249  0.0598
  399TMC3     O 5963   2.459   3.122   0.112  0.0815  0.2390 -0.5070
  399TMC3     H 5964   2.842   3.084   0.153 -0.4851  0.6617  0.1747
  399TMC3    H1 5965   2.476   2.867   0.179 -0.3214 -0.1357 -0.1847
  399TMC3    H2 5966   2.856   2.670   0.225 -0.9120 -0.4323  2.3879
  399TMC3    C7 5967   2.586   2.642   0.228 -0.4032  0.7003  0.5307
  399TMC3    C8 5968   3.001   2.892   0.169  0.2663  0.2304 -0.2522
  399TMC3    O1 5969   2.475   2.667   0.279  0.2569 -0.2079 -0.1304
  399TMC3    O2 5970   3.053   2.997   0.135  0.6108  0.4433 -0.4276
  400TMC3    C1 5971   1.347   2.261  16.688  0.1928  0.4549  0.4382
  400TMC3    C2 5972   1.247   2.189  16.623 -0.9558 -0.3360  0.1490
  400TMC3    C3 5973   1.147   2.258  16.559  0.0953  0.2501 -0.0175
  400TMC3    C4 5974   1.339   2.397  16.689  0.6128 -0.0283  0.3505
  400TMC3    C5 5975   1.249   2.467  16.619  0.1816  0.5496  0.1829
  400TMC3    C6 5976   1.142   2.401  16.554 -0.5466  0.1038  0.0936
  400TMC3     C 5977   1.415   2.191  16.797 -0.1421  0.8618 -0.7727
  400TMC3     O 5978   1.386   2.072  16.807 -0.2172  0.5624  0.2276
  400TMC3     H 5979   1.255   2.081  16.624 -0.5223 -0.3200 -3.0436
  400TMC3    H1 5980   1.418   2.456  16.734 -0.4911  0.7799  1.2009
  400TMC3    H2 5981   1.070   2.464  16.502 -0.0548  1.5133  1.1429
  400TMC3    C7 5982   1.245   2.611  16.629 -0.9601  0.3600 -0.0617
  400TMC3    C8 5983   1.012   2.201  16.544  0.4257 -0.5907  0.1075
  400TMC3    O1 5984   1.287   2.663  16.734 -0.3462 -0.0383  0.2429
  400TMC3    O2 5985   0.923   2.282  16.566 -0.3634  0.0019 -0.2451
  401MPD2     C 5986   0.240   0.796   0.947  0.7082  0.2760  0.4416
  401MPD2    C1 5987   0.374   0.759   0.951  0.0203 -0.1805 -0.7982
  401MPD2    C2 5988   0.406   0.623   0.970  1.0725 -0.6412 -0.3620
  401MPD2    C3 5989   0.299   0.530   0.993 -0.3031  0.3343  0.0986
  401MPD2    C4 5990   0.177   0.578   0.979  0.3177  0.4647 -0.1506
  401MPD2    C5 5991   0.147   0.709   0.964  1.1516 -0.5024  0.0912
  401MPD2     H 5992   0.508   0.591   0.983  0.9373 -0.5154  0.9392
  401MPD2    H1 5993   0.098   0.507   0.998  0.4174  0.5037  0.4081
  401MPD2    H2 5994   0.209   0.900   0.935 -1.0514 -0.3714 -0.5135
  401MPD2    H3 5995   0.042   0.733   0.959  0.8835 -1.3023  2.2166
  401MPD2     N 5996   0.334   0.397   1.017 -0.0550 -0.0101  0.2565
  401MPD2    H5 5997   0.434   0.386   1.010  0.0064  0.4288  0.4529
  401MPD2    N1 5998   0.475   0.855   0.938  0.4716  0.1787 -0.1886
  401MPD2    H7 5999   0.566   0.811   0.934  0.6792  0.5711  0.2393
  402TMC3    C1 6000   0.318   0.170   1.074  0.1205 -0.2936 -0.5970
  402TMC3    C2 6001   0.330   0.098   1.186 -0.0478  0.1206 -0.0532
  402TMC3    C3 6002   0.401   4.705   1.182 -0.3754  0.1005 -0.1721
  402TMC3    C4 6003   0.367   0.129   0.956  0.5621 -0.1662 -0.3776
  402TMC3    C5 6004   0.416   4.724   0.946  0.1903  0.1177  0.8732
  402TMC3    C6 6005   0.437   4.646   1.061 -0.1358  0.0794  0.0238
  402TMC3     C 6006   0.255   0.298   1.071  0.6339  0.2995  0.5871
  402TMC3     O 6007   0.137   0.301   1.104  0.3284  0.7755  0.2910
  402TMC3     H 6008   0.289   0.142   1.276  0.1045  0.3575 -0.1018
  402TMC3    H1 6009   0.354   0.196   0.873 -1.9916 -0.0945  0.0668
  402TMC3    H2 6010   0.486   4.550   1.069  0.9562  0.5262 -1.3590
  402TMC3    C7 6011   0.427   4.656   0.817 -0.9881  0.6868 -0.5451
  402TMC3    C8 6012   0.460   4.649   1.303 -0.9106 -0.3720 -0.5725
  402TMC3    O1 6013   0.406   4.534   0.817  0.2085  0.0393 -0.5348
  402TMC3    O2 6014   0.507   4.534   1.294 -0.2654  0.0975  0.5146
  403MPD2     C 6015   2.491   4.350  13.352 -0.0362 -0.0451  0.3214
  403MPD2    C1 6016   2.510   4.246  13.436 -0.3494  0.3621  0.5004
  403MPD2    C2 6017   2.635   4.231  13.502  0.4242 -0.9027  0.2889
  403MPD2    C3 6018   2.726   4.336  13.499 -0.1702  0.3761  0.4713
  403MPD2    C4 6019   2.697   4.450  13.432  0.3931 -0.6501  0.9686
  403MPD2    C5 6020   2.581   4.455  13.358  0.0484 -0.2906  0.1550
  403MPD2     H 6021   2.669   4.141  13.552  2.0369  0.0514  0.9055
  403MPD2    H1 6022   2.760   4.537  13.422 -0.8523  0.0492 -0.8758
  403MPD2    H2 6023   2.399   4.364  13.296  0.8334  0.8128 -0.9048
  403MPD2    H3 6024   2.559   4.547  13.304  1.5345  0.3890  0.7074
  403MPD2     N 6025   2.849   4.313  13.566  0.2332 -0.2688  0.2130
  403MPD2    H5 6026   2.872   4.218  13.593 -1.1850 -0.0717  2.1591
  403MPD2    N1 6027   2.410   4.150  13.427  0.4367 -0.2925  0.0356
  403MPD2    H7 6028   2.340   4.158  13.354 -0.2710  0.6140  0.8283
  404TMC3    C1 6029   2.363   3.916  13.426  0.0834  0.8959 -0.0337
  404TMC3    C2 6030   2.377   3.798  13.487  0.3161 -0.7946 -0.7554
  404TMC3    C3 6031   2.345   3.681  13.420  0.4785 -0.7200 -0.2193
  404TMC3    C4 6032   2.320   3.926  13.296 -0.2379  0.6570 -0.4283
  404TMC3    C5 6033   2.290   3.814  13.233 -0.0360  0.4115  0.4724
  404TMC3    C6 6034   2.294   3.685  13.288  0.1167  0.4656 -0.1470
  404TMC3     C 6035   2.426   4.032  13.491  0.5143 -0.2696  0.6180
  404TMC3     O 6036   2.482   4.017  13.592  0.5528 -1.1079  0.7103
  404TMC3     H 6037   2.413   3.792  13.589 -1.0530 -1.1718 -0.2985
  404TMC3    H1 6038   2.322   4.019  13.241 -1.6716 -0.1933 -1.9207
  404TMC3    H2 6039   2.263   3.596  13.234 -0.9856  0.8748 -0.1806
  404TMC3    C7 6040   2.244   3.832  13.089  0.0052 -0.2597 -0.4529
  404TMC3    C8 6041   2.395   3.550  13.471 -0.5144  0.5556  0.2411
  404TMC3    O1 6042   2.227   3.950  13.062  0.2911 -0.3065 -0.5608
  404TMC3    O2 6043   2.432   3.457  13.399 -0.4261 -0.0307 -0.0000
  405MPD2     C 6044   2.831   4.439  14.594 -1.1248 -0.3666  0.4052
  405MPD2    C1 6045   2.808   4.317  14.536 -0.2713 -0.5332 -0.2348
  405MPD2    C2 6046   2.721   4.313  14.429 -0.0269  0.4587 -0.1017
  405MPD2    C3 6047   2.664   4.423  14.374 -0.0206 -0.1934  0.2046
  405MPD2    C4 6048   2.684   4.545  14.431  0.4064  0.2199 -0.3951
  405MPD2    C5 6049   2.769   4.553  14.542  0.2723 -0.4421  0.2793
  405MPD2     H 6050   2.691   4.217  14.387  0.0699  0.6994 -0.7180
  405MPD2    H1 6051   2.632   4.635  14.400 -1.1824 -0.9346 -1.1460
  405MPD2    H2 6052   2.894   4.451  14.681 -1.0529  0.5547  0.2189
  405MPD2    H3 6053   2.793   4.648  14.588 -0.9941 -0.5420  1.1466
  405MPD2     N 6054   2.579   4.391  14.270  0.0125  0.0317 -0.0563
  405MPD2    H5 6055   2.570   4.293  14.244 -1.2367  0.3373 -0.8125
  405MPD2    N1 6056   2.870   4.196  14.587 -0.1877 -0.3216 -0.0937
  405MPD2    H7 6057   2.915   4.209  14.677  1.7895  0.4791 -1.1971
  406TMC3    C1 6058   2.137   4.407  14.109 -0.0066  0.5042  0.5457
  406TMC3    C2 6059   2.132   4.273  14.128  0.0464  0.1395  0.2019
  406TMC3    C3 6060   2.234   4.200  14.187 -0.1286 -0.1250 -0.1981
  406TMC3    C4 6061   2.255   4.468  14.133  0.2833 -0.6520  0.5019
  406TMC3    C5 6062   2.364   4.391  14.178 -0.6289  0.6353 -0.2427
  406TMC3    C6 6063   2.357   4.260  14.208 -0.2954 -0.0337 -0.2264
  406TMC3     C 6064   2.021   4.479  14.154 -0.3392  0.4342 -0.1314
  406TMC3     O 6065   1.932   4.494  14.069  0.3126  0.2061 -0.5609
  406TMC3     H 6066   2.040   4.215  14.130 -0.4390  0.9875  2.9083
  406TMC3    H1 6067   2.274   4.575  14.126  1.2251 -0.6626  2.9910
  406TMC3    H2 6068   2.436   4.212  14.265 -0.1182 -1.2638 -1.5164
  406TMC3    C7 6069   2.477   4.472  14.222  0.4031 -0.7987  0.4262
  406TMC3    C8 6070   2.199   4.077  14.262 -0.4760 -0.1924 -0.1982
  406TMC3    O1 6071   2.470   4.595  14.221  0.1318  0.0776 -0.2546
  406TMC3    O2 6072   2.080   4.066  14.293  0.2192  0.6354  0.4237
  407MPD2     C 6073   0.223   0.581   9.389  0.0624  0.0956 -0.4884
  407MPD2    C1 6074   0.328   0.628   9.466 -0.4535 -0.4060  0.4040
  407MPD2    C2 6075   0.291   0.711   9.573  0.1699  0.1308  0.7245
  407MPD2    C3 6076   0.161   0.736   9.607 -0.6434 -0.0952  0.3930
  407MPD2    C4 6077   0.067   0.667   9.536  0.4799 -0.7683 -0.6082
  407MPD2    C5 6078   0.097   0.605   9.423 -0.0918  0.1450 -0.0840
  407MPD2     H 6079   0.377   0.753   9.625  0.6416 -0.2065  0.2203
  407MPD2    H1 6080   4.689   0.685   9.567  1.3111  2.3494  0.3963
  407MPD2    H2 6081   0.239   0.508   9.311  2.4657  1.6002 -1.3881
  407MPD2    H3 6082   0.021   0.559   9.360 -1.7388  0.3175  1.8013
  407MPD2     N 6083   0.129   0.846   9.694  0.0383  0.0828  0.6919
  407MPD2    H5 6084   0.033   0.879   9.699  0.5939  1.7573  0.3967
  407MPD2    N1 6085   0.461   0.600   9.429  0.3273 -0.1877  0.6234
  407MPD2    H7 6086   0.529   0.638   9.494  2.0865 -2.0299 -0.1569
  408TMC3    C1 6087   0.641   0.592   9.289  0.4779 -0.1687  0.2289
  408TMC3    C2 6088   0.723   0.569   9.394 -0.6129 -0.5912  0.2892
  408TMC3    C3 6089   0.837   0.641   9.399 -0.8450  0.1920  0.6157
  408TMC3    C4 6090   0.689   0.651   9.178 -0.3860  0.4880 -0.0477
  408TMC3    C5 6091   0.813   0.716   9.178 -0.4750  0.3069  0.4283
  408TMC3    C6 6092   0.879   0.719   9.297 -0.4391  0.1850 -0.1933
  408TMC3     C 6093   0.503   0.559   9.302 -0.4902 -0.4913 -0.0318
  408TMC3     O 6094   0.442   0.540   9.193 -0.3252  0.0499 -0.5255
  408TMC3     H 6095   0.684   0.512   9.477  0.4755  0.7484  1.7185
  408TMC3    H1 6096   0.624   0.668   9.093  0.0304  1.9313 -0.0643
  408TMC3    H2 6097   0.975   0.770   9.304 -0.7592  0.9640 -1.4348
  408TMC3    C7 6098   0.863   0.796   9.063  0.7526 -0.1012 -0.5438
  408TMC3    C8 6099   0.940   0.595   9.489 -0.3824 -0.2558  0.2863
  408TMC3    O1 6100   0.938   0.892   9.079 -0.0736 -0.0738  0.0412
  408TMC3    O2 6101   0.945   0.474   9.509 -0.1205  0.2630 -0.0552
  409MPD2     C 6102   4.591   1.583  16.728 -0.2070  0.4788  0.4863
  409MPD2    C1 6103   4.721   1.567  16.754  0.3726 -0.0566  0.8471
  409MPD2    C2 6104   0.086   1.670  16.733 -0.6725 -0.1826 -0.1092
  409MPD2    C3 6105   0.031   1.793  16.687  0.2433 -0.2858 -0.5634
  409MPD2    C4 6106   4.621   1.807  16.662  0.2680 -0.9242 -0.3867
  409MPD2    C5 6107   4.544   1.699  16.678  0.0089 -0.2782  0.9570
  409MPD2     H 6108   0.191   1.649  16.745 -0.2588  1.3174 -1.0368
  409MPD2    H1 6109   4.581   1.898  16.619  0.9414 -0.3043  0.3037
  409MPD2    H2 6110   4.517   1.506  16.745 -0.5154  0.5365 -0.6047
  409MPD2    H3 6111   4.438   1.711  16.661 -0.1278 -0.8228  1.4194
  409MPD2     N 6112   0.122   1.898  16.668 -0.0880  0.1165  0.7693
  409MPD2    H5 6113   0.089   1.980  16.618 -1.0030  0.4566  1.9436
  409MPD2    N1 6114   0.053   1.459  16.825 -1.1451  0.3127  0.1098
  409MPD2    H7 6115   0.152   1.455  16.847 -0.4516  3.1947 -2.4214
  410TMC3    C1 6116   0.304   2.033  16.691 -0.0557 -0.6383  0.2666
  410TMC3    C2 6117   0.408   2.077  16.772 -0.4740 -0.6148 -0.6633
  410TMC3    C3 6118   0.484   2.190  16.737  0.2719  0.0943 -0.0953
  410TMC3    C4 6119   0.282   2.096  16.576  0.4501  0.7398 -0.3399
  410TMC3    C5 6120   0.357   2.209  16.540  0.1900  0.3010 -0.1867
  410TMC3    C6 6121   0.457   2.260  16.624  0.2666 -0.2673 -0.0211
  410TMC3     C 6122   0.252   1.900  16.721  0.4188  0.0991  0.7189
  410TMC3     O 6123   0.321   1.834  16.796 -0.2488 -0.4311 -0.3440
  410TMC3     H 6124   0.436   2.019  16.859  0.8261  0.3854 -0.4197
  410TMC3    H1 6125   0.209   2.068  16.500 -0.6637  0.6479  0.7582
  410TMC3    H2 6126   0.514   2.350  16.603  1.9997 -1.2955  0.2558
  410TMC3    C7 6127   0.338   2.267  16.406  0.4175  0.0788 -0.0567
  410TMC3    C8 6128   0.611   2.212  16.792  0.5061  0.2130 -0.1022
  410TMC3    O1 6129   0.244   2.227  16.340  0.0459 -0.0005 -0.2719
  410TMC3    O2 6130   0.646   2.328  16.813 -0.0592 -0.3436  0.1918
  411MPD2     C 6131   0.801   2.493  14.377  0.3913  0.0726 -0.2917
  411MPD2    C1 6132   0.677   2.528  14.323  0.0481 -0.0819  1.0691
  411MPD2    C2 6133   0.622   2.464  14.211 -0.0924  0.6079  1.0148
  411MPD2    C3 6134   0.676   2.345  14.170  0.6928  0.4864 -0.5563
  411MPD2    C4 6135   0.798   2.313  14.221  0.8899  0.2245  0.3716
  411MPD2    C5 6136   0.859   2.387  14.328  0.1846  0.6785  0.3176
  411MPD2     H 6137   0.530   2.501  14.168  1.3922 -0.4461 -3.1079
  411MPD2    H1 6138   0.851   2.222  14.195  0.7893  0.4793 -0.6889
  411MPD2    H2 6139   0.853   2.537  14.461 -2.1462 -0.6183  1.6533
  411MPD2    H3 6140   0.952   2.351  14.371 -0.2829 -1.2111 -0.2364
  411MPD2     N 6141   0.622   2.266  14.068  0.7276  0.1010 -0.1956
  411MPD2    H5 6142   0.674   2.184  14.041  0.9334  0.4935 -1.0016
  411MPD2    N1 6143   0.625   2.644  14.382  0.4191  1.2609  0.1022
  411MPD2    H7 6144   0.665   2.683  14.467 -1.6569 -1.0168  2.1016
  412TMC3    C1 6145   0.474   2.200  13.898  0.5696 -0.4157  0.5909
  412TMC3    C2 6146   0.353   2.205  13.842 -0.4325 -0.1055 -0.0840
  412TMC3    C3 6147   0.334   2.113  13.736 -0.3269 -0.1590  0.3244
  412TMC3    C4 6148   0.577   2.123  13.851  0.3045 -0.3807  0.1968
  412TMC3    C5 6149   0.555   2.039  13.740 -0.1509  0.8399 -0.6600
  412TMC3    C6 6150   0.433   2.031  13.686 -0.7715  0.2243 -0.1647
  412TMC3     C 6151   0.501   2.292  14.003  0.0180  0.1111  0.4122
  412TMC3     O 6152   0.412   2.371  14.038  0.5471  0.3900  0.3372
  412TMC3     H 6153   0.271   2.249  13.897 -0.1989  1.7048 -1.1624
  412TMC3    H1 6154   0.682   2.143  13.867  0.1293  0.8859 -0.2974
  412TMC3    H2 6155   0.417   1.965  13.602 -0.7861  2.9938 -2.3506
  412TMC3    C7 6156   0.645   2.051  13.638 -0.1301 -0.3122  0.2221
  412TMC3    C8 6157   0.255   2.160  13.622 -0.3131  0.3911 -0.0397
  412TMC3    O1 6158   0.767   2.034  13.654 -0.6379 -0.1446  0.1189
  412TMC3    O2 6159   0.292   2.124  13.510 -0.3946  0.6548 -0.1013
  413MPD2     C 6160   2.210   0.998  15.523  0.3645 -0.0666  0.1368
  413MPD2    C1 6161   2.135   0.950  15.423  0.1885 -0.3806  0.0187
  413MPD2    C2 6162   2.195   0.886  15.313  0.8240  0.3466  0.3297
  413MPD2    C3 6163   2.331   0.855  15.322 -0.0949  0.2093  0.5028
  413MPD2    C4 6164   2.404   0.889  15.438 -0.0213  0.0718  0.2463
  413MPD2    C5 6165   2.347   0.971  15.532 -0.8177 -0.0561  0.2185
  413MPD2     H 6166   2.145   0.865  15.220 -0.6948 -1.0592  1.4579
  413MPD2    H1 6167   2.506   0.858  15.452 -0.4121 -1.1038  0.4624
  413MPD2    H2 6168   2.173   1.061  15.602 -3.3834 -1.7571 -0.2540
  413MPD2    H3 6169   2.398   1.028  15.609 -3.6809  1.2168  1.1925
  413MPD2     N 6170   2.378   0.752  15.236 -0.1429  0.0206  0.4417
  413MPD2    H5 6171   2.302   0.714  15.180  0.5891  0.3141 -0.7598
  413MPD2    N1 6172   1.992   0.964  15.423  0.8341 -0.9076 -0.2271
  413MPD2    H7 6173   1.943   0.918  15.347 -0.4875 -0.1415  0.1575
  414TMC3    C1 6174   2.500   0.579  15.148 -0.3608 -0.0006 -0.3990
  414TMC3    C2 6175   2.585   0.472  15.178 -0.2056 -0.1469  0.0080
  414TMC3    C3 6176   2.586   0.367  15.090  0.2237 -0.0311 -0.2005
  414TMC3    C4 6177   2.439   0.586  15.031  0.3760  0.1042  0.1673
  414TMC3    C5 6178   2.443   0.479  14.945 -0.3055  0.0988 -0.5424
  414TMC3    C6 6179   2.501   0.360  14.984  0.4235  0.4579  0.0247
  414TMC3     C 6180   2.503   0.690  15.237  0.7195  0.5251 -0.1611
  414TMC3     O 6181   2.592   0.698  15.324 -0.3166 -0.1325  0.0595
  414TMC3     H 6182   2.635   0.463  15.274  0.4560 -1.5801 -0.4608
  414TMC3    H1 6183   2.407   0.681  14.990 -0.5625  0.0168  0.7025
  414TMC3    H2 6184   2.501   0.274  14.919 -1.6424  0.1985  0.3918
  414TMC3    C7 6185   2.370   0.502  14.816 -0.0930 -0.7737  0.7705
  414TMC3    C8 6186   2.668   0.253  15.117  0.3199 -0.0133  0.3109
  414TMC3    O1 6187   2.281   0.586  14.825  0.0159  0.2533  0.6097
  414TMC3    O2 6188   2.641   0.151  15.061 -0.8530  0.2313  0.5967
  415TMC3    C1 6189   2.375   2.524   9.605  0.4306  0.1120  0.1287
  415TMC3    C2 6190   2.406   2.652   9.569 -0.5463 -0.0880 -0.1182
  415TMC3    C3 6191   2.339   2.710   9.462  0.3183  0.9967  0.6478
  415TMC3    C4 6192   2.281   2.453   9.533  1.0110 -0.5792  0.1857
  415TMC3    C5 6193   2.220   2.518   9.425 -0.0217  1.3253  0.4501
  415TMC3    C6 6194   2.240   2.649   9.383  0.2914 -0.2543 -0.7514
  415TMC3     C 6195   2.430   2.466   9.730 -1.0476  0.6282  0.2272
  415TMC3     O 6196   2.378   2.354   9.760  0.1201  0.8971 -0.3775
  415TMC3     H 6197   2.474   2.706   9.632  1.0695 -1.7435 -0.4449
  415TMC3    H1 6198   2.260   2.350   9.561 -2.9103 -0.0132 -0.6622
  415TMC3    H2 6199   2.177   2.699   9.311 -0.5581  0.6032  0.5786
  415TMC3    C7 6200   2.081   2.469   9.407  0.3694  0.1925  0.6313
  415TMC3    C8 6201   2.373   2.842   9.426 -0.0094  0.1415 -0.3180
  415TMC3    O1 6202   2.022   2.508   9.307  0.1332 -0.5090 -1.1675
  415TMC3    O2 6203   2.282   2.897   9.366  0.3450  0.1154  0.5781
  416MPD2     C 6204   3.846   2.699  10.823  0.0685  0.0565  0.4459
  416MPD2    C1 6205   3.835   2.624  10.942  0.4871 -0.5882  0.6348
  416MPD2    C2 6206   3.843   2.485  10.935  0.5738 -0.3657  0.6690
  416MPD2    C3 6207   3.844   2.417  10.815  0.5718 -0.9042  0.6842
  416MPD2    C4 6208   3.837   2.494  10.699  0.5933  0.1679  0.2740
  416MPD2    C5 6209   3.850   2.633  10.704 -0.5913  0.3613 -0.0714
  416MPD2     H 6210   3.833   2.434  11.030 -0.0442 -2.0775 -0.3184
  416MPD2    H1 6211   3.845   2.438  10.607  0.7236  0.7047 -0.0389
  416MPD2    H2 6212   3.837   2.807  10.824 -3.6864 -0.2630 -1.2913
  416MPD2    H3 6213   3.851   2.684  10.608 -1.8904  1.4205  0.4743
  416MPD2     N 6214   3.834   2.280  10.801 -0.4583 -0.0158  0.0566
  416MPD2    H5 6215   3.827   2.253  10.704 -1.6652 -3.2996  1.0395
  416MPD2    N1 6216   3.810   2.700  11.064  0.4097  0.7116 -0.1223
  416MPD2    H7 6217   3.777   2.794  11.048  0.0472  1.0488  2.6325
  417TMC3    C1 6218   3.700   2.710  11.267  0.1201 -0.7308  0.3644
  417TMC3    C2 6219   3.763   2.779  11.369 -0.3289 -0.0738 -0.8001
  417TMC3    C3 6220   3.685   2.879  11.425 -0.4216 -0.1936  1.0180
  417TMC3    C4 6221   3.587   2.747  11.202  0.1096  0.0305  0.0122
  417TMC3    C5 6222   3.514   2.847  11.262 -0.4230  0.3181 -0.1310
  417TMC3    C6 6223   3.562   2.919  11.370 -0.6230  0.4496 -0.2161
  417TMC3     C 6224   3.805   2.645  11.188  0.2427  0.4998 -0.2923
  417TMC3     O 6225   3.861   2.551  11.240  0.5159  0.2233  0.3741
  417TMC3     H 6226   3.857   2.739  11.406 -1.8475 -0.9843  2.0391
  417TMC3    H1 6227   3.547   2.696  11.115 -0.4439  1.9761 -0.8613
  417TMC3    H2 6228   3.499   2.991  11.421  0.7483  0.7161  1.1074
  417TMC3    C7 6229   3.390   2.893  11.197 -0.4715  0.4193 -0.6806
  417TMC3    C8 6230   3.736   2.942  11.545 -0.4496 -0.8534 -0.0175
  417TMC3    O1 6231   3.349   3.005  11.222 -0.2411 -0.4466  0.2113
  417TMC3    O2 6232   3.655   3.000  11.615  0.3519 -0.0689 -0.1124
  418TMC3    C1 6233   3.099   3.886   0.430  0.3912  0.0241 -0.3893
  418TMC3    C2 6234   2.971   3.897   0.389  0.3539  0.9371 -1.2444
  418TMC3    C3 6235   2.878   3.818   0.442 -0.1238 -0.2970 -0.2511
  418TMC3    C4 6236   3.137   3.793   0.529  0.1020 -0.1514  0.2719
  418TMC3    C5 6237   3.043   3.730   0.600 -0.2803  0.0550  0.0064
  418TMC3    C6 6238   2.914   3.736   0.545 -0.2515 -1.1223  0.8964
  418TMC3     C 6239   3.199   3.964   0.356  0.4701 -0.5123  0.2592
  418TMC3     O 6240   3.164   4.078   0.320 -0.2684 -0.1659  0.0273
  418TMC3     H 6241   2.948   3.969   0.312 -0.9912  0.3316 -1.4239
  418TMC3    H1 6242   3.243   3.784   0.552  0.2816 -1.4294 -1.0538
  418TMC3    H2 6243   2.843   3.660   0.575 -1.1198 -0.5250  0.3673
  418TMC3    C7 6244   3.082   3.620   0.687  0.1258  0.6119  0.4152
  418TMC3    C8 6245   2.760   3.791   0.363 -0.6094 -0.0877  0.2613
  418TMC3    O1 6246   3.008   3.525   0.687 -0.0911  0.6323  0.2601
  418TMC3    O2 6247   2.714   3.881   0.296 -0.2050  0.8159  0.2980
  419MPD2     C 6248   1.700   2.136  12.049  0.2922 -1.0586  0.6735
  419MPD2    C1 6249   1.603   2.215  12.090  0.1479 -0.1637  0.8977
  419MPD2    C2 6250   1.604   2.252  12.221 -0.8014 -0.0967 -1.0589
  419MPD2    C3 6251   1.716   2.224  12.298 -0.6061 -0.0962  0.1762
  419MPD2    C4 6252   1.818   2.141  12.250  0.7169  0.1745 -0.3186
  419MPD2    C5 6253   1.805   2.091  12.123  0.3652  0.1825  0.3994
  419MPD2     H 6254   1.532   2.325  12.255 -0.4981 -1.4987  2.6243
  419MPD2    H1 6255   1.909   2.119  12.304  0.9933 -1.8666 -1.6138
  419MPD2    H2 6256   1.694   2.108  11.945  1.2223 -0.5461  0.4867
  419MPD2    H3 6257   1.875   2.021  12.078 -0.8463 -1.4622  1.0900
  419MPD2     N 6258   1.724   2.293  12.421  0.7834  0.4373 -0.0315
  419MPD2    H5 6259   1.647   2.354  12.446 -1.3568 -1.0038 -3.1338
  419MPD2    N1 6260   1.505   2.275  12.004 -0.8015  0.4132  0.1598
  419MPD2    H7 6261   1.439   2.337  12.049  1.4443  0.6387  3.1224
  420TMC3    C1 6262   1.824   2.407  12.599  0.6704 -0.7723  0.1767
  420TMC3    C2 6263   1.739   2.514  12.586  0.3948 -0.5149 -0.1906
  420TMC3    C3 6264   1.776   2.633  12.653 -0.4388 -0.8535 -0.1572
  420TMC3    C4 6265   1.933   2.416  12.683  0.2620 -0.2396 -0.1590
  420TMC3    C5 6266   1.955   2.529  12.750 -0.6908 -0.3070  0.9819
  420TMC3    C6 6267   1.877   2.645  12.739 -0.4891  0.3927 -0.3012
  420TMC3     C 6268   1.830   2.294  12.507 -0.3210 -0.6780 -1.3852
  420TMC3     O 6269   1.924   2.213  12.513 -1.1550  0.3738  0.1582
  420TMC3     H 6270   1.665   2.525  12.507  1.0611  2.1506 -0.4633
  420TMC3    H1 6271   2.014   2.345  12.686 -0.8099 -1.3256  2.5747
  420TMC3    H2 6272   1.891   2.731  12.804  1.1841  1.8004 -2.4933
  420TMC3    C7 6273   2.036   2.520  12.864  0.4114 -0.6732 -0.2190
  420TMC3    C8 6274   1.698   2.756  12.617  0.7574 -0.4585  0.0493
  420TMC3    O1 6275   2.021   2.413  12.922 -0.3167 -0.1568  0.0358
  420TMC3    O2 6276   1.616   2.754  12.525  0.0811 -0.1498 -0.0841
  421TMC3    C1 6277   3.043   4.355  13.685 -0.1485 -0.0771  0.7446
  421TMC3    C2 6278   3.080   4.435  13.793  0.4299 -0.3819  0.0019
  421TMC3    C3 6279   3.207   4.431  13.834 -0.0332 -0.2973  0.0161
  421TMC3    C4 6280   3.129   4.266  13.628  0.3710  0.5266 -0.0984
  421TMC3    C5 6281   3.254   4.257  13.687  0.0091  0.7209 -0.1681
  421TMC3    C6 6282   3.300   4.339  13.792 -0.4350  0.3170  0.6714
  421TMC3     C 6283   2.936   4.411  13.610 -0.6207 -0.0355 -0.1261
  421TMC3     O 6284   2.914   4.531  13.623  0.1596  0.5858  0.3260
  421TMC3     H 6285   3.001   4.498  13.833 -0.2101 -2.1772  1.5553
  421TMC3    H1 6286   3.083   4.194  13.562  0.4784  1.6918 -1.4429
  421TMC3    H2 6287   3.390   4.319  13.849 -0.1379  0.0264  0.1003
  421TMC3    C7 6288   3.350   4.151  13.654  0.1152  0.0739  0.4832
  421TMC3    C8 6289   3.256   4.517  13.944 -0.3679 -0.7765  0.1097
  421TMC3    O1 6290   3.447   4.135  13.725  0.1419 -0.3341  0.1052
  421TMC3    O2 6291   3.380   4.519  13.952  0.2449  0.4407 -0.2427
  422TMC3    C1 6292   0.938   0.654  12.841 -0.1371  0.1174 -0.1615
  422TMC3    C2 6293   0.867   0.768  12.812  0.4074 -0.0689 -0.4660
  422TMC3    C3 6294   0.733   0.768  12.845 -0.0550 -0.5614  0.2156
  422TMC3    C4 6295   0.877   0.542  12.890 -0.1444  0.4166  0.0205
  422TMC3    C5 6296   0.748   0.553  12.924 -0.3847 -0.5888 -0.5545
  422TMC3    C6 6297   0.674   0.669  12.906  0.0356  0.1167 -0.2358
  422TMC3     C 6298   1.064   0.632  12.783 -0.5546 -0.1572  0.2069
  422TMC3     O 6299   1.123   0.733  12.754  0.4229 -0.7759  0.5539
  422TMC3     H 6300   0.904   0.842  12.742 -1.3834 -0.3462 -1.6899
  422TMC3    H1 6301   0.932   0.454  12.920  1.4130  1.3838 -0.0258
  422TMC3    H2 6302   0.583   0.682  12.963  0.1588  0.8354 -0.2063
  422TMC3    C7 6303   0.689   0.446  13.007 -0.2759 -0.6101  0.2196
  422TMC3    C8 6304   0.664   0.899  12.838 -0.1042 -0.3683 -0.1894
  422TMC3    O1 6305   0.766   0.353  13.035  0.2220  0.5854  0.3511
  422TMC3    O2 6306   0.731   0.994  12.799 -0.3143  0.1137 -0.4539
  423MPD2     C 6307   3.176   1.377   0.141  0.3331  0.1399  0.0042
  423MPD2    C1 6308   3.084   1.320   0.226  0.1053 -0.4701  0.2812
  423MPD2    C2 6309   2.969   1.270   0.173 -0.1493  0.5469  0.2688
  423MPD2    C3 6310   2.938   1.289   0.041  0.1109  0.3751  0.0632
  423MPD2    C4 6311   3.024   1.349  17.655 -0.2626 -0.4705 -0.1418
  423MPD2    C5 6312   3.145   1.392   0.005 -0.4202 -0.2836 -0.3213
  423MPD2     H 6313   2.897   1.213   0.230 -0.2395 -0.4880 -0.9007
  423MPD2    H1 6314   3.001   1.371  17.551  3.1502 -0.0731 -0.8034
  423MPD2    H2 6315   3.269   1.421   0.175  0.2933  0.8307 -0.7526
  423MPD2    H3 6316   3.220   1.418  17.633 -0.1411  1.1439  0.4732
  423MPD2     N 6317   2.814   1.260  17.690  0.0996  0.4042 -0.0198
  423MPD2    H5 6318   2.794   1.293  17.596  1.5221  1.7783  0.1537
  423MPD2    N1 6319   3.101   1.309   0.365 -0.8001  0.2923 -0.5037
  423MPD2    H7 6320   3.027   1.269   0.421  0.2921  0.1568  0.8333
  424TMC3    C1 6321   3.203   1.322   0.576  0.2876  0.8609 -0.1641
  424TMC3    C2 6322   3.310   1.267   0.644  0.0874  0.2430 -0.1713
  424TMC3    C3 6323   3.292   1.216   0.767 -0.5767  0.2329 -0.1439
  424TMC3    C4 6324   3.082   1.330   0.638 -0.1197  0.9681  0.2053
  424TMC3    C5 6325   3.067   1.264   0.756  0.2879  0.5018 -0.4116
  424TMC3    C6 6326   3.169   1.203   0.825  0.5930 -0.0344  0.6101
  424TMC3     C 6327   3.214   1.350   0.430 -0.2830  0.0864  0.4568
  424TMC3     O 6328   3.330   1.343   0.392  0.3864 -0.0314 -0.1493
  424TMC3     H 6329   3.398   1.236   0.590  1.0656  1.4245  0.7661
  424TMC3    H1 6330   3.003   1.390   0.592 -1.4247 -1.5157 -0.7882
  424TMC3    H2 6331   3.154   1.156   0.921 -2.4279  0.9904  0.6671
  424TMC3    C7 6332   2.940   1.290   0.829  0.2999 -0.1123 -0.1346
  424TMC3    C8 6333   3.386   1.110   0.797 -0.2195  0.1839 -0.2163
  424TMC3    O1 6334   2.918   1.412   0.823  0.2696 -0.3187  0.6215
  424TMC3    O2 6335   3.333   0.999   0.818 -0.6132 -0.5495  0.4225
  425MPD2     C 6336   1.246   0.715  17.169  0.0605 -0.3522  0.3473
  425MPD2    C1 6337   1.226   0.628  17.271 -0.5873 -0.4103  0.0725
  425MPD2    C2 6338   1.125   0.653  17.371  0.4090  0.2591 -0.0704
  425MPD2    C3 6339   1.043   0.763  17.352  0.2039  0.5907 -0.2534
  425MPD2    C4 6340   1.052   0.844  17.241  1.3450  0.3882  0.0220
  425MPD2    C5 6341   1.155   0.815  17.157 -0.1064 -0.2976  0.1356
  425MPD2     H 6342   1.099   0.581  17.448 -0.8056 -0.2561 -0.9628
  425MPD2    H1 6343   0.997   0.931  17.207  0.3990  0.2851  1.2798
  425MPD2    H2 6344   1.319   0.693  17.091  0.0501  3.7130 -0.7726
  425MPD2    H3 6345   1.154   0.874  17.066 -0.0763  0.9785  0.9667
  425MPD2     N 6346   0.944   0.772  17.452 -0.3227  0.3492  0.5961
  425MPD2    H5 6347   0.944   0.712  17.534  2.0300 -0.5935 -0.0980
  425MPD2    N1 6348   1.306   0.512  17.281 -0.3461  0.8297 -0.4830
  425MPD2    H7 6349   1.371   0.496  17.205  0.9203  0.6783  0.6290
  426TMC3    C1 6350   1.365   0.286  17.341 -0.2105 -0.5595  0.5020
  426TMC3    C2 6351   1.368   0.244  17.212 -0.0922 -0.5701  0.0217
  426TMC3    C3 6352   1.411   0.115  17.197  0.3027  0.6020 -0.1718
  426TMC3    C4 6353   1.375   0.196  17.443 -0.0753  0.3471  0.2232
  426TMC3    C5 6354   1.418   0.068  17.431  0.3034  0.3955  0.0058
  426TMC3    C6 6355   1.450   0.030  17.302 -0.7500  0.2871  0.0286
  426TMC3     C 6356   1.296   0.412  17.377 -0.5156  0.3984  0.3321
  426TMC3     O 6357   1.243   0.411  17.488 -0.1632 -0.8887  0.1281
  426TMC3     H 6358   1.336   0.303  17.127 -0.3038 -1.1149 -0.2777
  426TMC3    H1 6359   1.360   0.230  17.545  2.9795  1.3118  0.3408
  426TMC3    H2 6360   1.486   4.654  17.286  1.2189  0.5378  2.9656
  426TMC3    C7 6361   1.334   4.696  17.489  0.1430  0.3026 -0.8090
  426TMC3    C8 6362   1.367   0.043  17.078  0.4451  0.7653 -0.5570
  426TMC3    O1 6363   1.313   4.601  17.418  0.8326 -0.8270  0.1807
  426TMC3    O2 6364   1.379   0.087  16.962 -0.1071 -0.2978  0.2351
  427MPD2     C 6365   4.599   2.746  14.565  0.0015 -0.0314  0.1987
  427MPD2    C1 6366   4.542   2.651  14.646  0.3145 -0.6068  0.2079
  427MPD2    C2 6367   4.401   2.658  14.674 -0.5421 -0.1387  0.4433
  427MPD2    C3 6368   4.324   2.764  14.626 -0.2856 -0.2727 -0.2178
  427MPD2    C4 6369   4.383   2.860  14.538  0.2440 -0.1958  0.6656
  427MPD2    C5 6370   4.520   2.849  14.512  0.4792  0.6320 -0.2701
  427MPD2     H 6371   4.353   2.580  14.733 -1.1699 -1.0476 -1.2621
  427MPD2    H1 6372   4.317   2.931  14.489 -0.5511 -1.1861  0.3112
  427MPD2    H2 6373   4.706   2.745  14.554 -0.2337  0.3357 -2.1100
  427MPD2    H3 6374   4.569   2.930  14.459  0.4985  2.7110  2.9507
  427MPD2     N 6375   4.185   2.747  14.639  0.3107  0.3803 -0.0231
  427MPD2    H5 6376   4.152   2.655  14.666  0.5787 -0.2127 -1.7095
  427MPD2    N1 6377   4.616   2.554  14.723 -0.0016 -0.6761 -0.0360
  427MPD2    H7 6378   4.564   2.494  14.787 -0.1527 -2.3782 -1.7739
  428TMC3    C1 6379   0.062   2.418  14.788  0.5312  0.2260 -0.2240
  428TMC3    C2 6380   4.707   2.309  14.815  0.5156  0.2209  0.2563
  428TMC3    C3 6381   4.719   2.243  14.937  0.4552  0.5865 -0.2571
  428TMC3    C4 6382   0.171   2.437  14.869  0.2999  0.1198 -0.4110
  428TMC3    C5 6383   0.185   2.363  14.982  0.0505  0.2091 -0.4255
  428TMC3    C6 6384   0.094   2.269  15.022  1.0184 -0.0987  0.1808
  428TMC3     C 6385   0.020   2.519  14.701  0.2644 -0.0607 -0.0508
  428TMC3     O 6386   0.108   2.581  14.642 -0.2923  0.1180  0.3314
  428TMC3     H 6387   4.627   2.289  14.746  3.0585 -2.6412 -1.8441
  428TMC3    H1 6388   0.215   2.535  14.854 -1.3165  0.7981 -0.7371
  428TMC3    H2 6389   0.100   2.219  15.118 -0.5102 -1.5396 -0.4747
  428TMC3    C7 6390   0.271   2.419  15.080  1.0812  0.2743 -0.3683
  428TMC3    C8 6391   4.632   2.140  14.966  0.3704 -0.6277  0.4996
  428TMC3    O1 6392   0.231   2.407  15.195 -0.5462  0.5211  0.2433
  428TMC3    O2 6393   4.567   2.088  14.880  0.3950  0.2682 -0.6731
  429MPD2     C 6394   0.364   2.646  17.524  0.5376  0.2315 -0.8315
  429MPD2    C1 6395   0.460   2.586  17.437 -0.7643  0.0171  0.5332
  429MPD2    C2 6396   0.558   2.655  17.375 -0.5524 -0.1288 -0.7596
  429MPD2    C3 6397   0.541   2.792  17.379 -0.3659  0.7443 -0.0951
  429MPD2    C4 6398   0.439   2.853  17.448  0.8864 -0.0319 -0.7746
  429MPD2    C5 6399   0.359   2.779  17.524 -0.0805 -0.7669  0.0823
  429MPD2     H 6400   0.626   2.598  17.313  0.8052  1.5577 -0.8057
  429MPD2    H1 6401   0.431   2.961  17.445  0.6541  0.0776  2.8409
  429MPD2    H2 6402   0.279   2.596  17.569  0.5728 -0.6792 -1.7685
  429MPD2    H3 6403   0.281   2.828  17.581 -1.6132 -2.1149 -0.8512
  429MPD2     N 6404   0.630   2.868  17.301  0.1501  0.1729  0.4554
  429MPD2    H5 6405   0.689   2.805  17.247 -1.0018 -0.8822  0.4147
  429MPD2    N1 6406   0.470   2.448  17.428 -0.1880 -0.8520  0.0933
  429MPD2    H7 6407   0.533   2.409  17.359  0.0967  1.3437 -0.8772
  430TMC3    C1 6408   0.751   3.039  17.182  1.0560  0.3867 -0.1915
  430TMC3    C2 6409   0.778   3.170  17.188  0.0816  1.0139  0.3834
  430TMC3    C3 6410   0.885   3.210  17.108  0.9200 -0.4192 -0.5058
  430TMC3    C4 6411   0.818   2.948  17.104 -0.0393  1.2708 -0.3845
  430TMC3    C5 6412   0.920   2.993  17.031  0.1786  0.1501  0.1915
  430TMC3    C6 6413   0.955   3.122  17.029  1.3336  0.0423  0.1402
  430TMC3     C 6414   0.637   3.002  17.282  0.3089  0.2927  0.4019
  430TMC3     O 6415   0.586   3.093  17.347  0.4210 -0.3042  0.0833
  430TMC3     H 6416   0.729   3.237  17.258 -1.5822 -0.1704  0.3688
  430TMC3    H1 6417   0.796   2.842  17.101  2.1644  0.8094 -0.0915
  430TMC3    H2 6418   1.037   3.162  16.969 -0.0195  0.2436 -1.5869
  430TMC3    C7 6419   0.929   2.916  16.906  0.0302 -1.0847 -0.1785
  430TMC3    C8 6420   0.870   3.332  17.027 -0.1894  0.3545  0.2816
  430TMC3    O1 6421   0.926   2.794  16.914 -0.4637 -0.0610 -0.1542
  430TMC3    O2 6422   0.962   3.413  17.026 -0.5923 -0.2269  0.2671
  431MPD2     C 6423   1.876   2.739  12.318 -0.1095 -0.3340 -0.4580
  431MPD2    C1 6424   1.787   2.836  12.280  0.2105 -0.4735  0.4201
  431MPD2    C2 6425   1.677   2.803  12.196  0.1569  0.0991 -0.4577
  431MPD2    C3 6426   1.658   2.673  12.159 -0.0919 -0.1898 -0.6209
  431MPD2    C4 6427   1.741   2.575  12.209 -0.5569  0.3302  0.0204
  431MPD2    C5 6428   1.850   2.611  12.284 -0.4089  0.3629  0.0704
  431MPD2     H 6429   1.607   2.876  12.158  2.3533  1.8933 -1.0798
  431MPD2    H1 6430   1.732   2.471  12.177  0.6321 -0.1803  1.3687
  431MPD2    H2 6431   1.956   2.752  12.390  0.5554 -1.5011 -0.9819
  431MPD2    H3 6432   1.923   2.539  12.318 -0.2641  0.9505  1.0033
  431MPD2     N 6433   1.557   2.631  12.067  0.5061  0.2386  0.3800
  431MPD2    H5 6434   1.564   2.536  12.032 -0.0657  0.2262  0.2894
  431MPD2    N1 6435   1.788   2.973  12.312  0.0294  0.0304  0.1753
  431MPD2    H7 6436   1.710   3.028  12.277 -1.4262 -1.0119  1.7780
  432TMC3    C1 6437   1.426   2.641  11.872 -0.3340  0.2677 -0.5778
  432TMC3    C2 6438   1.478   2.682  11.753 -0.1260  0.0368  0.2960
  432TMC3    C3 6439   1.505   2.583  11.661  0.3300 -0.2624  0.0258
  432TMC3    C4 6440   1.417   2.505  11.905  0.1313  0.3049  0.9174
  432TMC3    C5 6441   1.455   2.413  11.811  0.9248  0.0854 -0.3201
  432TMC3    C6 6442   1.505   2.452  11.693  0.5840  0.8781  0.3076
  432TMC3     C 6443   1.478   2.716  11.987  0.6574  0.4636  0.1348
  432TMC3     O 6444   1.486   2.837  11.982  0.1046 -0.2868 -0.2050
  432TMC3     H 6445   1.492   2.785  11.723 -0.8988  0.5379  1.6523
  432TMC3    H1 6446   1.357   2.486  11.994 -3.5639 -0.5133 -1.7561
  432TMC3    H2 6447   1.537   2.374  11.626  1.1730 -1.5214  3.3484
  432TMC3    C7 6448   1.526   2.294  11.866 -0.0167  0.0967 -0.1722
  432TMC3    C8 6449   1.594   2.616  11.553  0.1849  0.2881 -0.2725
  432TMC3    O1 6450   1.602   2.233  11.791  0.2788 -0.3484 -0.2647
  432TMC3    O2 6451   1.607   2.535  11.462 -0.2704  0.4830  0.1950
  433MPD2     C 6452   0.236   1.400  10.416 -0.3904 -0.2461  0.1444
  433MPD2    C1 6453   0.225   1.308  10.520  1.1054  0.8905 -0.2333
  433MPD2    C2 6454   0.266   1.345  10.648 -0.1619  0.0527  0.5788
  433MPD2    C3 6455   0.313   1.470  10.672 -0.3828  0.2513 -0.2251
  433MPD2    C4 6456   0.337   1.557  10.567  0.1666  0.3515 -0.1171
  433MPD2    C5 6457   0.297   1.517  10.436  0.4921  0.4255  0.3271
  433MPD2     H 6458   0.252   1.273  10.728 -2.6965 -0.4883 -0.3562
  433MPD2    H1 6459   0.386   1.653  10.583 -0.8587  0.7939  0.3728
  433MPD2    H2 6460   0.198   1.378  10.317  1.0099 -0.7226 -0.2838
  433MPD2    H3 6461   0.317   1.575  10.347  1.3485 -1.5104 -0.7299
  433MPD2     N 6462   0.361   1.490  10.806  0.3065  0.1305 -0.0048
  433MPD2    H5 6463   0.354   1.410  10.868 -2.1752 -0.8502 -1.5219
  433MPD2    N1 6464   0.179   1.179  10.487  0.3513  0.1756  0.3544
  433MPD2    H7 6465   0.178   1.157  10.388 -0.5043  3.2640 -0.3332
  434TMC3    C1 6466   0.137   0.958  10.506  0.7377 -0.0211  0.3584
  434TMC3    C2 6467   0.207   0.865  10.583  0.0720 -0.1580 -0.0029
  434TMC3    C3 6468   0.307   0.796  10.525  0.1008 -0.2501  0.4968
  434TMC3    C4 6469   0.161   0.967  10.372 -0.3459 -0.1986 -0.2959
  434TMC3    C5 6470   0.251   0.886  10.314 -0.7086 -0.3699 -0.3074
  434TMC3    C6 6471   0.334   0.803  10.387 -0.1061 -0.3865  0.7602
  434TMC3     C 6472   0.134   1.080  10.575 -0.4746 -1.2830 -0.6345
  434TMC3     O 6473   0.128   1.069  10.698  0.2487 -0.2838 -0.1487
  434TMC3     H 6474   0.185   0.850  10.688  3.5345 -0.7931  0.6440
  434TMC3    H1 6475   0.100   1.029  10.306  0.5170  2.0473  1.0346
  434TMC3    H2 6476   0.416   0.749  10.339 -1.0667 -0.9859 -0.2003
  434TMC3    C7 6477   0.280   0.910  10.173  0.3716  0.2663  0.5099
  434TMC3    C8 6478   0.411   0.754  10.622  0.2817 -0.2723  0.0942
  434TMC3    O1 6479   0.300   1.027  10.139  0.0928  0.4409  0.2033
  434TMC3    O2 6480   0.378   0.722  10.734  0.9256  0.2219  0.3456
  435MPD2     C 6481   2.668   1.317  15.268  0.8622 -0.0172 -0.3452
  435MPD2    C1 6482   2.631   1.301  15.404 -0.3781 -0.3178  0.3805
  435MPD2    C2 6483   2.734   1.265  15.493 -0.0758  1.3094 -0.2366
  435MPD2    C3 6484   2.860   1.241  15.446 -0.1213  0.3843  0.0551
  435MPD2    C4 6485   2.895   1.249  15.312  0.4552  0.1216  0.2024
  435MPD2    C5 6486   2.803   1.300  15.226 -0.5398 -0.8501  0.3563
  435MPD2     H 6487   2.713   1.263  15.599  2.2205  1.7277  0.2079
  435MPD2    H1 6488   2.998   1.248  15.278  0.7604  0.2994  1.1241
  435MPD2    H2 6489   2.599   1.342  15.189  0.3032  0.4523  0.2847
  435MPD2    H3 6490   2.834   1.330  15.127  2.4410 -1.3323  1.1391
  435MPD2     N 6491   2.954   1.180  15.541 -0.1775  0.4601 -0.5447
  435MPD2    H5 6492   2.919   1.158  15.634  1.8354  0.6618  0.2591
  435MPD2    N1 6493   2.498   1.305  15.461 -0.0997  0.2540 -1.0390
  435MPD2    H7 6494   2.497   1.293  15.562  0.6203 -1.0059 -1.1784
  436TMC3    C1 6495   2.164   1.425  15.656 -0.3462  0.0275 -0.3511
  436TMC3    C2 6496   2.277   1.390  15.593  0.5339  0.4494 -0.2124
  436TMC3    C3 6497   2.267   1.365  15.461 -0.5310  0.1994 -0.5686
  436TMC3    C4 6498   2.039   1.415  15.605 -0.2003  0.4195 -0.3136
  436TMC3    C5 6499   2.029   1.379  15.473  0.5053 -0.1926 -0.3450
  436TMC3    C6 6500   2.145   1.361  15.396  0.2403  0.2140  0.6147
  436TMC3     C 6501   2.172   1.480  15.790  0.6007 -0.2839  0.4045
  436TMC3     O 6502   2.279   1.539  15.810 -0.2393  0.7267 -0.6150
  436TMC3     H 6503   2.372   1.404  15.643  0.5980  2.9534 -1.0444
  436TMC3    H1 6504   1.952   1.454  15.655  0.1379  1.1453 -0.2894
  436TMC3    H2 6505   2.130   1.332  15.292  0.4643  0.2752  0.5638
  436TMC3    C7 6506   1.905   1.337  15.416  0.5906  0.0035  0.7270
  436TMC3    C8 6507   2.382   1.324  15.386 -0.7663  0.0737  0.4914
  436TMC3    O1 6508   1.907   1.311  15.297 -0.0021 -0.2986 -0.0107
  436TMC3    O2 6509   2.369   1.335  15.263  0.2283  0.0967  0.2923
  437TMC3    C1 6510   0.686   3.429  12.551  0.1296 -0.3593 -0.1452
  437TMC3    C2 6511   0.552   3.472  12.564  1.0753  0.1283  0.1561
  437TMC3    C3 6512   0.522   3.594  12.517  0.2117  0.0733 -0.4540
  437TMC3    C4 6513   0.782   3.512  12.503 -0.1719  0.5788  0.2015
  437TMC3    C5 6514   0.744   3.628  12.449 -0.0457  0.8451 -0.3625
  437TMC3    C6 6515   0.615   3.678  12.468  0.5524 -0.0146 -0.1425
  437TMC3     C 6516   0.727   3.316  12.632 -0.1628  0.0930  0.4144
  437TMC3     O 6517   0.641   3.277  12.712 -0.2698 -0.0649  0.2131
  437TMC3     H 6518   0.473   3.409  12.604  1.1122 -0.0259 -0.0122
  437TMC3    H1 6519   0.875   3.462  12.476 -0.8790 -0.4470 -0.3412
  437TMC3    H2 6520   0.598   3.779  12.433  0.0906  0.1809  0.6431
  437TMC3    C7 6521   0.841   3.712  12.377 -0.6872  0.4094 -0.3065
  437TMC3    C8 6522   0.394   3.648  12.538  0.7386 -0.4612  0.0507
  437TMC3    O1 6523   0.792   3.797  12.304 -0.4343 -0.1925  0.4562
  437TMC3    O2 6524   0.387   3.768  12.560 -0.5524  0.7357  0.2214
  438MPD2     C 6525   3.879   4.304  16.777 -0.4209 -0.7731  0.1242
  438MPD2    C1 6526   3.888   4.196  16.855  0.5377  0.7219 -0.8440
  438MPD2    C2 6527   3.816   4.194  16.973 -0.0696  0.2609  0.3863
  438MPD2    C3 6528   3.731   4.292  17.012 -0.5683  0.5693 -0.7204
  438MPD2    C4 6529   3.721   4.403  16.930  0.9501 -0.4422  0.1303
  438MPD2    C5 6530   3.795   4.405  16.815 -0.1438  0.7311 -0.4204
  438MPD2     H 6531   3.809   4.102  17.029 -1.5578  0.0231 -0.1703
  438MPD2    H1 6532   3.650   4.479  16.960  0.5764  0.2126 -2.4284
  438MPD2    H2 6533   3.920   4.309  16.677 -1.6288 -0.9464 -0.3751
  438MPD2    H3 6534   3.779   4.489  16.749  0.6520  0.9472 -0.3332
  438MPD2     N 6535   3.664   4.270  17.137  0.0918 -0.1262 -0.2356
  438MPD2    H5 6536   3.700   4.187  17.184 -1.1149 -0.1526  0.6380
  438MPD2    N1 6537   3.952   4.071  16.824 -0.0200  0.5078 -0.3017
  438MPD2    H7 6538   3.947   3.998  16.895  0.5847  1.1636  0.4073
  439TMC3    C1 6539   4.072   3.908  16.715  0.1376  0.3257  0.3306
  439TMC3    C2 6540   4.054   3.836  16.598  0.7711 -0.5490  0.0838
  439TMC3    C3 6541   4.136   3.727  16.572  0.2790 -0.3278  0.8464
  439TMC3    C4 6542   4.168   3.879  16.808 -0.1398  0.6210  0.0270
  439TMC3    C5 6543   4.250   3.770  16.782  0.2092  0.5917 -0.4920
  439TMC3    C6 6544   4.231   3.700  16.665  0.4115  0.3031 -0.6817
  439TMC3     C 6545   4.030   4.041  16.711 -0.4652  0.2661 -0.7082
  439TMC3     O 6546   4.070   4.121  16.624  0.6033  0.9439  0.1997
  439TMC3     H 6547   4.002   3.876  16.512 -0.9461  0.3559  1.5511
  439TMC3    H1 6548   4.188   3.953  16.884  1.0547  0.3492 -0.0221
  439TMC3    H2 6549   4.292   3.613  16.645 -0.4274 -0.3690 -0.3282
  439TMC3    C7 6550   4.370   3.738  16.864 -0.0689 -0.2550 -0.0566
  439TMC3    C8 6551   4.159   3.683  16.439  0.0371  0.4204 -0.3567
  439TMC3    O1 6552   4.368   3.745  16.985 -0.0831  0.4996 -0.3390
  439TMC3    O2 6553   4.276   3.655  16.414 -0.8659 -0.3670 -0.1238
  440MPD2     C 6554   2.416   4.263  14.614 -0.0983  1.2656 -0.0886
  440MPD2    C1 6555   2.456   4.378  14.681 -0.3006 -0.0742 -0.7518
  440MPD2    C2 6556   2.543   4.377  14.789  0.6448 -0.3860 -0.3431
  440MPD2    C3 6557   2.602   4.253  14.829  0.0666  0.5323  0.6425
  440MPD2    C4 6558   2.556   4.143  14.762  0.1381 -0.2915  0.1545
  440MPD2    C5 6559   2.480   4.148  14.648  0.0367  0.2350  0.8843
  440MPD2     H 6560   2.551   4.457  14.861 -1.5847 -1.7967  1.4648
  440MPD2    H1 6561   2.590   4.044  14.791 -0.0020 -0.5978 -0.7461
  440MPD2    H2 6562   2.344   4.254  14.534 -0.6992  0.8645  0.4881
  440MPD2    H3 6563   2.452   4.056  14.598 -1.5093  1.7711 -1.0630
  440MPD2     N 6564   2.685   4.240  14.944  0.6334 -0.2143  0.6122
  440MPD2    H5 6565   2.704   4.146  14.977 -1.6416 -0.7660  0.3831
  440MPD2    N1 6566   2.405   4.504  14.639 -0.1536  0.0036 -0.7746
  440MPD2    H7 6567   2.455   4.587  14.671  0.9678 -0.6623 -0.7951
  441TMC3    C1 6568   2.834   4.305  15.104 -0.2722 -0.5536 -0.3556
  441TMC3    C2 6569   2.949   4.377  15.128  0.2347 -0.5080  0.5252
  441TMC3    C3 6570   2.998   4.372  15.253  0.0355  0.5684  0.4586
  441TMC3    C4 6571   2.775   4.226  15.201  0.7961 -0.5035  0.8283
  441TMC3    C5 6572   2.832   4.229  15.321  0.0521 -0.3583  0.0022
  441TMC3    C6 6573   2.949   4.297  15.351  0.0907  0.3196 -0.5809
  441TMC3     C 6574   2.755   4.344  14.988  0.7789  0.8872  0.2053
  441TMC3     O 6575   2.756   4.461  14.958 -0.3271 -0.4937 -0.6325
  441TMC3     H 6576   2.998   4.443  15.057 -0.9972  0.1213  0.2564
  441TMC3    H1 6577   2.672   4.193  15.194  1.1670 -1.3791 -0.5143
  441TMC3    H2 6578   2.981   4.302  15.454 -0.1998 -1.3853 -0.3950
  441TMC3    C7 6579   2.773   4.160  15.438  0.5985  0.0745 -0.5653
  441TMC3    C8 6580   3.055   4.497  15.301  0.4284 -0.2191  0.2032
  441TMC3    O1 6581   2.825   4.180  15.549 -0.2072  0.0552 -0.3095
  441TMC3    O2 6582   3.101   4.505  15.410  0.5760  0.3835 -0.0861
  442MPD2     C 6583   0.890   0.094  16.621  0.2886  0.1988  0.0323
  442MPD2    C1 6584   0.782   0.021  16.657 -0.4678 -0.5634 -0.3590
  442MPD2    C2 6585   0.729   4.646  16.563  0.3730 -0.1083 -0.1217
  442MPD2    C3 6586   0.795   4.617  16.446 -0.7182  0.2797 -0.6859
  442MPD2    C4 6587   0.910   4.684  16.422  0.6101  0.0758 -0.1516
  442MPD2    C5 6588   0.953   0.064  16.504  0.2143 -0.5116  0.5961
  442MPD2     H 6589   0.630   4.605  16.576  0.4324 -0.4396 -0.6884
  442MPD2    H1 6590   0.968   4.670  16.332  1.0041 -0.0359  0.1216
  442MPD2    H2 6591   0.941   0.168  16.682 -0.4424  0.1947  0.6571
  442MPD2    H3 6592   1.044   0.118  16.481 -1.5400  2.4790  0.7083
  442MPD2     N 6593   0.762   4.530  16.343  0.5309  0.8552 -0.4068
  442MPD2    H5 6594   0.823   4.514  16.264  0.6781 -3.0193  0.4652
  442MPD2    N1 6595   0.703   0.054  16.768 -0.6538 -0.5181  0.2836
  442MPD2    H7 6596   0.624   4.717  16.782 -0.6721 -0.9451 -1.6804
  443TMC3    C1 6597   0.625   0.183  16.954 -0.0857 -0.0620 -0.1399
  443TMC3    C2 6598   0.587   0.316  16.970  0.7526  0.0615 -0.4447
  443TMC3    C3 6599   0.464   0.338  17.025 -0.1443 -0.0678 -0.1972
  443TMC3    C4 6600   0.549   0.081  16.998 -0.5432  0.2633 -0.5231
  443TMC3    C5 6601   0.444   0.115  17.081  0.0217  0.6026  0.2804
  443TMC3    C6 6602   0.391   0.242  17.081 -0.1192 -0.0480 -0.0640
  443TMC3     C 6603   0.722   0.159  16.855 -0.3322 -0.6152 -0.2106
  443TMC3     O 6604   0.799   0.250  16.843 -0.4178 -0.1186 -0.1344
  443TMC3     H 6605   0.639   0.399  16.923  0.1325  1.1654  0.8212
  443TMC3    H1 6606   0.585   4.704  17.009 -1.3117  0.0090 -0.3334
  443TMC3    H2 6607   0.301   0.263  17.137 -0.6200 -3.0750  0.2603
  443TMC3    C7 6608   0.373   4.725  17.132  0.6057 -0.4181  0.0355
  443TMC3    C8 6609   0.422   0.473  17.053 -0.0258 -0.2893  0.6689
  443TMC3    O1 6610   0.373   4.624  17.070 -0.4067 -0.0929 -0.3075
  443TMC3    O2 6611   0.393   0.505  17.167  0.2319 -0.0207 -0.2581
  444MPD2     C 6612   0.959   4.258  17.419  0.1039  0.1870  0.5467
  444MPD2    C1 6613   0.856   4.231  17.332 -0.0942 -0.0700 -0.0439
  444MPD2    C2 6614   0.870   4.131  17.239  0.1994 -0.4386 -0.4681
  444MPD2    C3 6615   0.987   4.063  17.223 -0.6937  0.4616  0.7527
  444MPD2    C4 6616   1.086   4.078  17.318  0.6466  0.9441 -0.7921
  444MPD2    C5 6617   1.069   4.171  17.414  0.4093 -0.5474 -0.2421
  444MPD2     H 6618   0.785   4.107  17.177  0.3303  1.2226 -1.2958
  444MPD2    H1 6619   1.182   4.029  17.307 -0.6181 -1.5022 -1.0764
  444MPD2    H2 6620   0.945   4.319  17.508  4.1942  1.1140  0.5597
  444MPD2    H3 6621   1.150   4.189  17.484 -1.1292  0.6017  1.2427
  444MPD2     N 6622   1.001   3.993  17.102  0.0024 -0.2320 -0.6762
  444MPD2    H5 6623   0.944   4.013  17.021  0.6466  1.2651 -0.7425
  444MPD2    N1 6624   0.723   4.288  17.351  0.1158  0.3262 -0.0029
  444MPD2    H7 6625   0.647   4.246  17.298  0.4105 -0.7604  0.4254
  445TMC3    C1 6626   1.090   3.840  16.939  0.0945  0.1345 -0.1422
  445TMC3    C2 6627   0.999   3.899  16.850 -0.3697 -0.0770  0.0504
  445TMC3    C3 6628   1.035   3.894  16.717  0.7600  0.3107 -0.4798
  445TMC3    C4 6629   1.204   3.776  16.892  0.0260  0.4022  0.1749
  445TMC3    C5 6630   1.227   3.773  16.759 -0.7366 -0.5051 -0.7490
  445TMC3    C6 6631   1.144   3.827  16.668 -0.0084  0.0237 -0.3816
  445TMC3     C 6632   1.107   3.911  17.070 -0.1107  0.6983 -0.3103
  445TMC3     O 6633   1.208   3.876  17.134  0.4659 -0.2602 -0.3221
  445TMC3     H 6634   0.910   3.951  16.883  1.2392  2.8910 -0.3134
  445TMC3    H1 6635   1.291   3.769  16.957 -0.2264  0.4105  0.5130
  445TMC3    H2 6636   1.169   3.848  16.564 -0.5923 -0.4859 -0.6227
  445TMC3    C7 6637   1.361   3.775  16.710  0.3004 -0.2256 -0.6329
  445TMC3    C8 6638   0.922   3.890  16.633 -0.6229 -0.7123  0.4597
  445TMC3    O1 6639   1.389   3.852  16.621 -0.2301  0.0980  0.1769
  445TMC3    O2 6640   0.837   3.975  16.661  0.0862 -0.1804 -0.3679
  446MPD2     C 6641   0.066   0.758  11.187  0.2893  0.1590  0.1242
  446MPD2    C1 6642   0.038   0.780  11.054 -0.3318  0.2150 -0.3117
  446MPD2    C2 6643   0.129   0.847  10.976  0.2997  0.1041 -0.4260
  446MPD2    C3 6644   0.253   0.891  11.033  0.0204 -1.2137 -0.8731
  446MPD2    C4 6645   0.280   0.866  11.167  0.1656 -0.5115 -0.2570
  446MPD2    C5 6646   0.178   0.814  11.243 -0.1324  0.6398  0.1034
  446MPD2     H 6647   0.101   0.862  10.873 -0.6581  1.5998  0.0583
  446MPD2    H1 6648   0.368   0.893  11.225 -0.8454  4.2148 -0.8653
  446MPD2    H2 6649   4.716   0.721  11.256 -0.0990 -0.2572 -0.5237
  446MPD2    H3 6650   0.198   0.811  11.349 -1.9198 -2.7660  0.3432
  446MPD2     N 6651   0.343   0.949  10.939  1.3289 -0.3155 -0.4150
  446MPD2    H5 6652   0.298   0.978  10.854  1.3560 -1.2958 -0.7660
  446MPD2    N1 6653   4.642   0.740  10.993  0.0775 -0.5617 -0.4485
  446MPD2    H7 6654   4.619   0.775  10.900 -0.7197 -0.5327 -0.2356
  447TMC3    C1 6655   0.562   0.997  10.854 -0.5158 -0.3503 -0.1270
  447TMC3    C2 6656   0.504   1.044  10.734  0.2788 -0.4406  0.1111
  447TMC3    C3 6657   0.592   1.105  10.639 -0.0366  0.0945  0.3263
  447TMC3    C4 6658   0.693   1.012  10.875  0.9916 -0.3734  0.2873
  447TMC3    C5 6659   0.771   1.072  10.778 -0.2387 -0.6346 -0.2631
  447TMC3    C6 6660   0.721   1.118  10.660 -0.1565 -0.0600  0.0464
  447TMC3     C 6661   0.480   0.942  10.956 -0.3019  0.2217  0.3772
  447TMC3     O 6662   0.539   0.898  11.057  0.2185  0.1637  0.3898
  447TMC3     H 6663   0.397   1.047  10.713 -0.1312  0.3728  2.4256
  447TMC3    H1 6664   0.744   0.965  10.959  1.1892 -1.1375 -0.2596
  447TMC3    H2 6665   0.786   1.168  10.590 -0.3863 -0.6507 -0.5861
  447TMC3    C7 6666   0.915   1.059  10.778 -0.7931  0.4040  1.0172
  447TMC3    C8 6667   0.534   1.150  10.518 -0.4004  0.4286 -0.0367
  447TMC3    O1 6668   0.974   1.067  10.670  0.3775 -0.3517 -0.1895
  447TMC3    O2 6669   0.455   1.074  10.464 -0.0898  0.0956 -0.1045
  448TMC3    C1 6670   4.601   1.054  17.441  0.6527 -0.2564 -0.0643
  448TMC3    C2 6671   4.611   0.917  17.415  0.2897 -0.2091  0.5267
  448TMC3    C3 6672   4.639   0.830  17.518  1.3073 -0.1584 -0.1118
  448TMC3    C4 6673   4.627   1.108  17.567  0.4918 -0.4872 -0.1501
  448TMC3    C5 6674   4.651   1.017  17.665 -0.5963 -0.6783  0.4180
  448TMC3    C6 6675   4.654   0.886  17.645  0.5490  0.3486  0.7924
  448TMC3     C 6676   4.544   1.140  17.334 -0.2979 -0.0630  0.3829
  448TMC3     O 6677   4.574   1.114  17.219  1.2364  0.1999  0.3444
  448TMC3     H 6678   4.585   0.882  17.315 -0.9010 -3.4417  1.9522
  448TMC3    H1 6679   4.630   1.216  17.580  2.1144 -0.7137  1.4819
  448TMC3    H2 6680   4.657   0.820   0.029 -0.7700 -0.8078 -0.0544
  448TMC3    C7 6681   4.667   1.070   0.099 -0.1217  0.5677 -0.0279
  448TMC3    C8 6682   4.624   0.686  17.506 -0.2213 -0.6982 -0.4513
  448TMC3    O1 6683   4.695   1.190   0.116 -0.2055 -0.1647 -0.0469
  448TMC3    O2 6684   4.573   0.658  17.401  0.0967 -0.1661  0.3281
  449MPD2     C 6685   0.047   4.039  13.056  0.5123 -0.3383  0.1135
  449MPD2    C1 6686   4.693   3.952  13.130 -0.0874  0.7538  0.1726
  449MPD2    C2 6687   0.018   3.914  13.257 -0.1466  0.0125 -0.4426
  449MPD2    C3 6688   0.135   3.952  13.302  0.1774 -0.3492 -0.3645
  449MPD2    C4 6689   0.218   4.040  13.230  0.3374  0.3991  0.0842
  449MPD2    C5 6690   0.172   4.079  13.109  0.4352 -0.1123 -0.2189
  449MPD2     H 6691   4.676   3.871  13.330 -1.3261  1.8262 -0.4467
  449MPD2    H1 6692   0.317   4.058  13.270 -0.1111  0.1874  1.2992
  449MPD2    H2 6693   0.006   4.090  12.969 -1.4061  0.9036  1.7312
  449MPD2    H3 6694   0.230   4.152  13.052 -0.1555  0.3180 -0.2669
  449MPD2     N 6695   0.169   3.902  13.434  0.1329  0.5882  0.3142
  449MPD2    H5 6696   0.108   3.824  13.452  2.0821 -1.0168 -0.0277
  449MPD2    N1 6697   4.568   3.908  13.086  0.2555 -0.2071 -0.1724
  449MPD2    H7 6698   4.505   3.883  13.161  2.0890 -0.8804  1.1613
  450TMC3    C1 6699   4.438   3.775  12.957  0.7358 -0.7361 -0.1684
  450TMC3    C2 6700   4.508   3.661  12.922  0.2195  0.8724 -0.2328
  450TMC3    C3 6701   4.477   3.553  12.991  0.4286  0.3054 -0.2091
  450TMC3    C4 6702   4.345   3.771  13.062  0.4563 -0.5612 -0.0419
  450TMC3    C5 6703   4.310   3.649  13.124 -0.6555  0.2884  0.1729
  450TMC3    C6 6704   4.369   3.534  13.072 -0.3617  0.1976  0.0491
  450TMC3     C 6705   4.525   3.891  12.956  0.2077 -0.7242  0.2362
  450TMC3     O 6706   4.567   3.934  12.852  0.5461 -0.1842 -0.4587
  450TMC3     H 6707   4.573   3.661  12.836  0.2146  0.6625 -0.2355
  450TMC3    H1 6708   4.312   3.867  13.098  2.3329 -0.2907  0.9661
  450TMC3    H2 6709   4.358   3.437  13.119 -0.9655  1.1899  1.9442
  450TMC3    C7 6710   4.348   3.669  13.257  0.2654 -0.6714  0.0419
  450TMC3    C8 6711   4.555   3.444  12.957 -0.5105 -0.7742  0.7410
  450TMC3    O1 6712   4.433   3.758  13.273 -0.0245  0.2789 -0.0477
  450TMC3    O2 6713   4.506   3.339  12.993 -0.2753 -0.1175  0.6616
  451MPD2     C 6714   1.993   3.430   1.194  0.7567 -0.0078 -0.1285
  451MPD2    C1 6715   1.945   3.341   1.288 -0.0490  0.5329 -0.2445
  451MPD2    C2 6716   2.012   3.226   1.325 -0.0374 -0.3358 -0.6954
  451MPD2    C3 6717   2.130   3.191   1.258 -0.1675 -0.1471  0.1717
  451MPD2    C4 6718   2.172   3.278   1.157  0.0876  0.1232 -0.0523
  451MPD2    C5 6719   2.107   3.400   1.136 -0.2962 -0.2779  0.0136
  451MPD2     H 6720   1.950   3.158   1.383  2.2088 -0.7579  1.2051
  451MPD2    H1 6721   2.268   3.269   1.109 -0.4226  0.1463 -1.0883
  451MPD2    H2 6722   1.946   3.519   1.152  1.6357 -0.2668 -1.6466
  451MPD2    H3 6723   2.150   3.458   1.056  0.2681  2.3502  2.2367
  451MPD2     N 6724   2.200   3.070   1.282  0.0282  0.2923 -0.5047
  451MPD2    H5 6725   2.279   3.055   1.222 -0.1742 -0.3039 -0.6179
  451MPD2    N1 6726   1.813   3.362   1.342 -1.0352  0.2522  0.0644
  451MPD2    H7 6727   1.778   3.289   1.403  2.2487 -0.2221  1.4087
  452TMC3    C1 6728   2.243   2.845   1.393  0.4415  0.2131 -0.3413
  452TMC3    C2 6729   2.378   2.870   1.389  0.7070  0.2230 -0.0405
  452TMC3    C3 6730   2.455   2.751   1.392 -0.0368 -0.2115  0.4423
  452TMC3    C4 6731   2.182   2.726   1.393  0.2916 -0.3119  0.3846
  452TMC3    C5 6732   2.258   2.619   1.392 -0.2709  0.4350  0.2676
  452TMC3    C6 6733   2.398   2.629   1.396  0.0359 -0.3458 -0.6739
  452TMC3     C 6734   2.156   2.964   1.369 -0.1495 -0.8488 -0.5559
  452TMC3     O 6735   2.062   2.960   1.445  0.6772  0.4672  0.1236
  452TMC3     H 6736   2.428   2.965   1.376 -0.0451  0.4712 -1.2157
  452TMC3    H1 6737   2.076   2.724   1.415  0.3859  0.9488  0.9793
  452TMC3    H2 6738   2.460   2.540   1.395  0.0732 -0.3376  2.7368
  452TMC3    C7 6739   2.195   2.494   1.334 -0.3668 -0.4042 -0.1872
  452TMC3    C8 6740   2.602   2.749   1.377  0.4733 -1.0706  0.1753
  452TMC3    O1 6741   2.274   2.429   1.261  0.0377  0.1004 -0.7941
  452TMC3    O2 6742   2.657   2.639   1.370 -0.3354 -0.5918 -0.1826
  453TMC3    C1 6743   2.336   0.409  11.662  0.4290 -0.4387 -0.2241
  453TMC3    C2 6744   2.237   0.363  11.741 -0.0059  0.2944 -0.1384
  453TMC3    C3 6745   2.130   0.316  11.664  0.2106  0.5530  0.2214
  453TMC3    C4 6746   2.321   0.415  11.523 -0.8915 -0.1438  0.3943
  453TMC3    C5 6747   2.210   0.377  11.457  0.3596 -0.8873  0.3222
  453TMC3    C6 6748   2.112   0.322  11.535 -0.2008 -0.2803 -0.0203
  453TMC3     C 6749   2.461   0.448  11.719  0.6570 -0.0549 -0.2812
  453TMC3     O 6750   2.537   0.518  11.652  0.0467  0.4230 -0.1250
  453TMC3     H 6751   2.233   0.370  11.849 -3.8229 -1.5697 -0.1535
  453TMC3    H1 6752   2.403   0.459  11.467 -1.8211  0.9860 -0.0944
  453TMC3    H2 6753   2.040   0.254  11.489  0.6655 -0.9923 -0.3217
  453TMC3    C7 6754   2.246   0.305  11.336 -0.0888 -0.0921  0.0030
  453TMC3    C8 6755   2.034   0.229  11.735 -0.1080  0.4901 -0.4097
  453TMC3    O1 6756   2.214   0.187  11.326  0.0128  0.0848 -0.5672
  453TMC3    O2 6757   1.917   0.227  11.697 -0.6649  0.3981 -0.4168
  454MPD2     C 6758   1.605   3.919  16.304 -0.3043 -0.4625 -0.1276
  454MPD2    C1 6759   1.565   3.985  16.194  0.5808 -0.6415 -0.7433
  454MPD2    C2 6760   1.529   4.121  16.192  0.3037  0.0245  0.4137
  454MPD2    C3 6761   1.544   4.195  16.308  0.1421  0.9884 -0.1314
  454MPD2    C4 6762   1.581   4.132  16.428  0.1810 -0.2911 -0.2399
  454MPD2    C5 6763   1.613   3.999  16.418  0.1625  0.3843  0.6887
  454MPD2     H 6764   1.503   4.167  16.098 -0.1631  1.3750  1.1868
  454MPD2    H1 6765   1.590   4.190  16.519  0.7113 -0.8762  0.0889
  454MPD2    H2 6766   1.633   3.817  16.325 -3.3493 -0.7697  2.4096
  454MPD2    H3 6767   1.635   3.953  16.514  2.5523 -1.7919 -0.9016
  454MPD2     N 6768   1.497   4.327  16.319 -0.5861 -0.7288 -0.3059
  454MPD2    H5 6769   1.475   4.345  16.416  1.1682  2.1669 -0.4294
  454MPD2    N1 6770   1.542   3.919  16.072  0.2609 -0.1204  0.3882
  454MPD2    H7 6771   1.509   3.977  15.996  1.6753  0.2684  0.0655
  455TMC3    C1 6772   1.327   4.461  16.263  0.2114 -0.1047  0.5357
  455TMC3    C2 6773   1.325   4.519  16.385  0.3579 -0.3369  0.5985
  455TMC3    C3 6774   1.224   4.488  16.470  0.6920  0.4580  0.0430
  455TMC3    C4 6775   1.230   4.375  16.220  0.0728  0.4618 -0.3153
  455TMC3    C5 6776   1.139   4.330  16.313 -0.0251 -0.3577 -0.9208
  455TMC3    C6 6777   1.130   4.389  16.437  0.3552  0.2661 -0.4281
  455TMC3     C 6778   1.453   4.406  16.217 -0.4510 -0.1639 -0.1218
  455TMC3     O 6779   1.470   4.385  16.098 -0.3403 -0.1475 -0.2025
  455TMC3     H 6780   1.415   4.564  16.425 -0.0652  0.3130  0.8177
  455TMC3    H1 6781   1.255   4.319  16.130  2.3652  0.3658  0.3784
  455TMC3    H2 6782   1.057   4.359  16.512 -1.3480  0.9953 -1.7876
  455TMC3    C7 6783   1.178   4.191  16.349 -0.4113 -0.7624  0.2523
  455TMC3    C8 6784   1.240   4.528  16.606 -0.7239  0.4050 -0.6143
  455TMC3    O1 6785   1.223   4.168  16.463  0.2956 -0.0232 -0.2181
  455TMC3    O2 6786   1.286   4.640  16.623  0.3301 -1.1484  0.0647
  456MPD2     C 6787   3.973   4.600  16.528 -0.2206 -0.6045  0.2906
  456MPD2    C1 6788   4.076   4.513  16.554  0.0608 -0.3379 -0.9305
  456MPD2    C2 6789   4.161   4.533  16.661 -0.3127 -0.1536  1.1373
  456MPD2    C3 6790   4.139   4.638  16.750  0.4128  0.1473 -0.1253
  456MPD2    C4 6791   4.034   4.722  16.732 -0.3220  0.1175 -0.5122
  456MPD2    C5 6792   3.954   4.705  16.618 -0.1780  0.9945  0.0675
  456MPD2     H 6793   4.243   4.466  16.683  0.8822  0.4833 -1.4958
  456MPD2    H1 6794   4.011   0.080  16.797  1.8161 -0.4076  0.9035
  456MPD2    H2 6795   3.900   4.584  16.450  0.9247 -1.5452 -0.5880
  456MPD2    H3 6796   3.879   0.053  16.591 -2.5712 -1.1182  0.9845
  456MPD2     N 6797   4.226   4.646  16.857  0.4871 -0.0235  0.6955
  456MPD2    H5 6798   4.306   4.585  16.869  1.0089  0.7181  0.9467
  456MPD2    N1 6799   4.110   4.417  16.454 -0.7287  1.1121  0.1938
  456MPD2    H7 6800   4.044   4.393  16.381  0.4612 -1.4458 -0.0595
  457TMC3    C1 6801   4.288   0.003  17.076  0.4667 -0.1642 -0.3893
  457TMC3    C2 6802   4.342   0.106  17.141 -0.2560  0.5576 -0.0176
  457TMC3    C3 6803   4.426   0.071  17.253 -0.0965 -0.4580  0.6852
  457TMC3    C4 6804   4.295   4.595  17.121 -0.2819  0.4058  0.0152
  457TMC3    C5 6805   4.363   4.576  17.245  0.9207  0.5872 -0.2901
  457TMC3    C6 6806   4.440   4.673  17.308 -1.0189  0.3996 -0.1732
  457TMC3     C 6807   4.231   0.031  16.945 -0.0256 -0.0629 -0.2448
  457TMC3     O 6808   4.212   0.147  16.918  0.5090  0.3365 -0.6834
  457TMC3     H 6809   4.333   0.206  17.101 -3.5816  0.6944  1.0530
  457TMC3    H1 6810   4.238   4.526  17.060  0.0358  0.7531 -0.6833
  457TMC3    H2 6811   4.501   4.649  17.395  0.0198 -1.1366 -1.3149
  457TMC3    C7 6812   4.345   4.442  17.308 -0.4134  0.6377 -0.0461
  457TMC3    C8 6813   4.479   0.190  17.330  0.3257  0.3225 -0.0725
  457TMC3    O1 6814   4.381   4.434  17.421 -0.2915  0.4741 -0.4503
  457TMC3    O2 6815   4.508   0.290  17.266  0.0482  0.0097 -0.0457
  458MPD2     C 6816   1.282   3.920  12.223 -0.1292  0.7024  0.3557
  458MPD2    C1 6817   1.300   3.859  12.348  0.5729  0.0093  0.0507
  458MPD2    C2 6818   1.198   3.785  12.403 -0.4249  0.2638  0.1200
  458MPD2    C3 6819   1.073   3.775  12.338  0.0298  0.6211  0.1797
  458MPD2    C4 6820   1.056   3.837  12.217  0.2628 -0.1728  0.1021
  458MPD2    C5 6821   1.161   3.903  12.156  0.6247 -0.0436 -0.4982
  458MPD2     H 6822   1.210   3.736  12.500  2.0449 -1.9703 -1.3078
  458MPD2    H1 6823   0.966   3.833  12.157  0.2473  0.2496  0.1007
  458MPD2    H2 6824   1.364   3.976  12.179  1.1821 -1.4498  0.0400
  458MPD2    H3 6825   1.146   3.940  12.055  0.6894  1.7658  0.1596
  458MPD2     N 6826   0.972   3.691  12.406 -0.7129 -0.4284  0.1648
  458MPD2    H5 6827   0.997   3.632  12.485 -0.2943  0.1530  0.4603
  458MPD2    N1 6828   1.429   3.870  12.410  0.1958 -0.0146  0.2449
  458MPD2    H7 6829   1.490   3.943  12.375  1.7034 -2.8567 -2.9390
  459TMC3    C1 6830   1.588   3.849  12.584 -0.3488 -0.7034 -0.2272
  459TMC3    C2 6831   1.657   3.961  12.534 -0.1804  1.0505 -0.3179
  459TMC3    C3 6832   1.770   4.000  12.606  0.5799 -0.2545  0.4101
  459TMC3    C4 6833   1.628   3.795  12.700 -0.1311 -0.0657 -1.2473
  459TMC3    C5 6834   1.741   3.834  12.761 -0.0692 -0.0207 -0.3258
  459TMC3    C6 6835   1.813   3.935  12.719  0.2188  0.4554  0.1082
  459TMC3     C 6836   1.466   3.804  12.528 -0.0495 -0.2805 -0.3015
  459TMC3     O 6837   1.425   3.707  12.586 -0.7412 -0.7952  0.6851
  459TMC3     H 6838   1.655   3.974  12.427  0.3228  0.9721 -0.3354
  459TMC3    H1 6839   1.575   3.717  12.754  2.1378 -0.2389  0.7254
  459TMC3    H2 6840   1.907   3.956  12.769  0.8692 -0.9234 -0.5333
  459TMC3    C7 6841   1.774   3.772  12.884  0.1019 -0.0926 -0.7437
  459TMC3    C8 6842   1.859   4.100  12.556  0.1843  1.0986 -0.5067
  459TMC3    O1 6843   1.742   3.654  12.903  0.1129  0.2243 -0.0678
  459TMC3    O2 6844   1.965   4.105  12.615 -0.6393  0.3978  0.4613
  460MPD2     C 6845   0.591   1.469  10.347  0.4006  0.2316 -0.3989
  460MPD2    C1 6846   0.560   1.333  10.362 -0.5466 -0.2409 -0.1193
  460MPD2    C2 6847   0.501   1.275  10.252  0.4678 -0.0461 -0.1673
  460MPD2    C3 6848   0.467   1.347  10.136  0.2346  0.4591 -0.3592
  460MPD2    C4 6849   0.495   1.480  10.140 -0.7930 -0.0394  0.3191
  460MPD2    C5 6850   0.560   1.538  10.242  0.5248  0.5055  0.1286
  460MPD2     H 6851   0.463   1.174  10.263 -0.7012  0.5236  1.0036
  460MPD2    H1 6852   0.463   1.547  10.060  1.0011  0.2512 -0.1511
  460MPD2    H2 6853   0.637   1.517  10.433 -0.6446  1.4793 -0.5590
  460MPD2    H3 6854   0.598   1.639  10.230  0.9961  0.2777 -0.3160
  460MPD2     N 6855   0.401   1.283  10.027  0.6713  0.5483  0.2025
  460MPD2    H5 6856   0.363   1.189  10.035 -0.8860  1.3177  1.8216
  460MPD2    N1 6857   0.585   1.276  10.488 -0.3609 -0.7034 -0.9103
  460MPD2    H7 6858   0.629   1.336  10.557  1.1213 -2.1983 -0.5364
  461TMC3    C1 6859   0.291   1.270   9.815 -0.3889  0.0241  0.4801
  461TMC3    C2 6860   0.300   1.133   9.831  0.0638  0.3178  0.6099
  461TMC3    C3 6861   0.203   1.055   9.768 -0.6008  0.1661 -0.4499
  461TMC3    C4 6862   0.198   1.325   9.735  0.2197 -0.2271 -0.0128
  461TMC3    C5 6863   0.098   1.246   9.682  0.0258 -0.0223 -0.7284
  461TMC3    C6 6864   0.093   1.107   9.701 -0.1845 -0.1608 -0.7264
  461TMC3     C 6865   0.347   1.354   9.919 -0.4187 -0.2576  0.0463
  461TMC3     O 6866   0.361   1.471   9.885  0.0133 -0.0729 -0.0740
  461TMC3     H 6867   0.392   1.092   9.871 -0.8528  0.3596  2.7752
  461TMC3    H1 6868   0.184   1.432   9.731 -0.9326 -0.3566  0.4776
  461TMC3    H2 6869   0.012   1.052   9.656 -0.7332 -0.5150  0.6897
  461TMC3    C7 6870   4.709   1.304   9.602 -1.3872 -0.5871  0.2067
  461TMC3    C8 6871   0.230   0.914   9.759 -0.8119 -0.5150  0.1846
  461TMC3    O1 6872   4.609   1.234   9.580 -0.3815  0.0571  0.0071
  461TMC3    O2 6873   0.327   0.868   9.819 -0.5607 -0.0897  0.2079
  462TMC3    C1 6874   0.666   3.004   0.066 -0.4413  0.0278  0.2775
  462TMC3    C2 6875   0.773   3.009  17.679  0.5123 -0.5340 -0.0557
  462TMC3    C3 6876   0.859   2.897  17.682  0.0962  0.7265 -0.4670
  462TMC3    C4 6877   0.637   2.895   0.149 -0.1029  0.1797 -1.1700
  462TMC3    C5 6878   0.723   2.791   0.143  0.6004 -0.0270  0.1864
  462TMC3    C6 6879   0.838   2.791   0.068  0.1618  0.9467 -0.6023
  462TMC3     C 6880   0.575   3.122   0.072  0.3315  0.2701  0.2090
  462TMC3     O 6881   0.493   3.130   0.171  0.1387 -0.1669 -0.2463
  462TMC3     H 6882   0.806   3.091  17.616  3.0009  0.4139  2.4906
  462TMC3    H1 6883   0.552   2.904   0.216  0.7473  0.0993 -0.0867
  462TMC3    H2 6884   0.886   2.694   0.060  0.4773  1.2515 -2.4947
  462TMC3    C7 6885   0.670   2.654   0.146  0.5681  0.5714  0.0428
  462TMC3    C8 6886   0.913   2.872  17.549  0.1609 -0.7825  0.3289
  462TMC3    O1 6887   0.746   2.557   0.160  0.1840 -0.4160  0.3603
  462TMC3    O2 6888   0.888   2.949  17.457  0.2232  0.1308  0.4486
  463MPD2     C 6889   3.096   1.423   1.197 -0.5021 -0.0692  0.4344
  463MPD2    C1 6890   3.122   1.309   1.268  0.1015 -0.2336  0.8537
  463MPD2    C2 6891   3.241   1.239   1.245  0.5547 -0.0501  0.6116
  463MPD2    C3 6892   3.329   1.283   1.151  0.1887 -0.6293  0.0460
  463MPD2    C4 6893   3.298   1.389   1.072  0.3557  0.8712  0.2137
  463MPD2    C5 6894   3.187   1.464   1.107 -0.5052  0.3943  0.8391
  463MPD2     H 6895   3.265   1.149   1.302 -2.7767 -0.5310  1.2187
  463MPD2    H1 6896   3.353   1.418   0.983  1.3575 -0.5343  0.3742
  463MPD2    H2 6897   3.008   1.485   1.210  0.3047  0.9440  1.0676
  463MPD2    H3 6898   3.175   1.551   1.043 -0.6152 -0.7024 -0.6407
  463MPD2     N 6899   3.462   1.235   1.135 -0.5470  0.7843  0.5869
  463MPD2    H5 6900   3.518   1.293   1.074  1.1939 -0.2239  1.2200
  463MPD2    N1 6901   3.020   1.250   1.346  0.5732  0.0255  0.7666
  463MPD2    H7 6902   3.039   1.154   1.373 -1.4757 -0.4991  0.2963
  464TMC3    C1 6903   2.796   1.234   1.450 -0.4047  0.2178 -0.3652
  464TMC3    C2 6904   2.695   1.295   1.524  0.3930  0.5098 -0.3518
  464TMC3    C3 6905   2.597   1.217   1.574  0.0791 -0.0833 -0.0402
  464TMC3    C4 6906   2.788   1.105   1.412 -0.7553  0.0223  0.1083
  464TMC3    C5 6907   2.686   1.030   1.469  0.0430  0.2243 -0.1887
  464TMC3    C6 6908   2.596   1.083   1.556 -0.0919  0.0573  0.5670
  464TMC3     C 6909   2.909   1.315   1.408 -0.0134 -0.4256  0.1063
  464TMC3     O 6910   2.882   1.435   1.405  0.3295 -0.2559 -0.0162
  464TMC3     H 6911   2.694   1.403   1.529  1.9175  0.5464 -0.9445
  464TMC3    H1 6912   2.870   1.063   1.356 -0.2641  0.0751  0.7848
  464TMC3    H2 6913   2.533   1.016   1.613  0.6570 -2.9003 -2.0987
  464TMC3    C7 6914   2.674   0.887   1.433  0.2313  0.3313 -1.0902
  464TMC3    C8 6915   2.481   1.271   1.639 -0.0383  1.3008 -0.2121
  464TMC3    O1 6916   2.775   0.843   1.381  0.2279 -0.0319 -0.0311
  464TMC3    O2 6917   2.386   1.195   1.658  0.0675  0.1257 -0.2909
  465MPD2     C 6918   3.004   4.287  17.454 -0.0941  0.2542  0.7630
  465MPD2    C1 6919   2.868   4.293  17.435  0.1371 -0.0808  0.4504
  465MPD2    C2 6920   2.831   4.316  17.297 -1.2245  0.0066 -0.4429
  465MPD2    C3 6921   2.929   4.321  17.199 -0.3120 -0.8024 -0.5845
  465MPD2    C4 6922   3.067   4.323  17.229  0.1388 -0.3508  0.1379
  465MPD2    C5 6923   3.100   4.304  17.360  0.0122 -0.2765 -0.0765
  465MPD2     H 6924   2.729   4.338  17.269 -1.0563  2.0548  0.5168
  465MPD2    H1 6925   3.151   4.318  17.160 -0.5708  2.0177 -0.8868
  465MPD2    H2 6926   3.049   4.270  17.551 -3.4089 -2.4909  1.7952
  465MPD2    H3 6927   3.203   4.309  17.394  0.1241 -1.4924 -0.2602
  465MPD2     N 6928   2.880   4.353  17.070 -0.1426  0.2707  0.8263
  465MPD2    H5 6929   2.778   4.349  17.065 -0.1590  0.4605  1.0411
  465MPD2    N1 6930   2.772   4.288  17.536 -0.7666 -0.4236  0.3356
  465MPD2    H7 6931   2.679   4.308  17.500  0.1653  1.8988 -0.7784
  466TMC3    C1 6932   2.652   4.467  16.810 -0.2406 -0.8744  0.6589
  466TMC3    C2 6933   2.687   4.563  16.713  0.1591 -0.5106 -0.8874
  466TMC3    C3 6934   2.826   4.571  16.699  0.2040  0.2216  0.3292
  466TMC3    C4 6935   2.738   4.374  16.856  0.7539 -0.7697 -0.5739
  466TMC3    C5 6936   2.872   4.388  16.840 -1.2396 -0.1584 -0.5428
  466TMC3    C6 6937   2.918   4.480  16.751  0.0160  0.2857 -0.3383
  466TMC3     C 6938   2.527   4.486  16.883 -0.3400 -0.5976  0.3522
  466TMC3     O 6939   2.526   4.444  16.997  0.5423  0.1721  0.2524
  466TMC3     H 6940   2.620   4.642  16.680 -0.1523 -0.1627  0.5791
  466TMC3    H1 6941   2.703   4.299  16.927  1.3643  0.8109  1.3815
  466TMC3    H2 6942   3.024   4.503  16.743  0.1570  0.3132  1.7292
  466TMC3    C7 6943   2.954   4.385  16.961 -0.0221 -0.1932  0.2045
  466TMC3    C8 6944   2.880   4.683  16.618  0.7976  0.0702 -1.2605
  466TMC3    O1 6945   3.075   4.385  16.941  0.5134 -0.2632  0.0134
  466TMC3    O2 6946   2.982   4.662  16.564  0.0205 -0.2947  0.3150
  467TMC3    C1 6947   3.872   3.327  13.983  0.1075 -0.0732 -0.0170
  467TMC3    C2 6948   3.810   3.409  13.903 -0.4405  0.7360  0.2097
  467TMC3    C3 6949   3.675   3.377  13.870 -0.2253  0.1942  0.6596
  467TMC3    C4 6950   3.811   3.223  14.041  1.1202 -0.0314 -0.0395
  467TMC3    C5 6951   3.673   3.212  14.031  0.4265  1.5348  0.3053
  467TMC3    C6 6952   3.608   3.274  13.929  0.1753 -0.7171  1.0280
  467TMC3     C 6953   4.016   3.308  13.956  0.6207  0.2755 -0.0045
  467TMC3     O 6954   4.092   3.396  13.988 -0.2038 -0.2191  0.3754
  467TMC3     H 6955   3.869   3.488  13.857  2.9646 -1.1986  1.2636
  467TMC3    H1 6956   3.876   3.169  14.109 -0.9662 -1.4772  0.8019
  467TMC3    H2 6957   3.512   3.236  13.895 -0.2858  1.4486 -0.1474
  467TMC3    C7 6958   3.625   3.086  14.088  0.3715 -1.2393 -0.5556
  467TMC3    C8 6959   3.638   3.416  13.738  0.0516  0.0437  0.3400
  467TMC3    O1 6960   3.715   3.017  14.133  0.2659  0.3961  0.3573
  467TMC3    O2 6961   3.666   3.534  13.708 -0.0159 -0.6228 -1.0283
  468MPD2     C 6962   2.406   0.570  10.295  0.1714  0.1910  0.0280
  468MPD2    C1 6963   2.489   0.584  10.402 -0.8205  0.1756  0.5474
  468MPD2    C2 6964   2.521   0.464  10.464  0.0494 -0.0722 -0.0930
  468MPD2    C3 6965   2.470   0.343  10.420  0.2682  0.9622  0.3307
  468MPD2    C4 6966   2.392   0.339  10.303  0.0187 -0.0293 -0.2490
  468MPD2    C5 6967   2.356   0.456  10.245  0.8599  0.4272 -0.5029
  468MPD2     H 6968   2.595   0.463  10.543 -1.1646  0.4092  1.0365
  468MPD2    H1 6969   2.340   0.246  10.284 -0.8932  0.2848  0.6887
  468MPD2    H2 6970   2.369   0.660  10.247  0.4557  0.7806  0.9133
  468MPD2    H3 6971   2.293   0.449  10.156 -1.7578 -0.4718  1.4114
  468MPD2     N 6972   2.486   0.222  10.490  0.0955 -0.0714 -0.1446
  468MPD2    H5 6973   2.440   0.142  10.448 -1.2119 -0.5721  2.2761
  468MPD2    N1 6974   2.543   0.703  10.451  0.5828 -0.5834 -0.2450
  468MPD2    H7 6975   2.590   0.690  10.541  0.2426 -1.8672 -0.2609
  469TMC3    C1 6976   2.593   0.928  10.466 -0.2505 -0.5493 -0.0362
  469TMC3    C2 6977   2.687   0.900  10.564  0.1817  0.1006 -0.5301
  469TMC3    C3 6978   2.745   1.007  10.619 -0.4887  0.1217 -0.1901
  469TMC3    C4 6979   2.550   1.055  10.448 -0.4091 -0.3532  0.0469
  469TMC3    C5 6980   2.601   1.151  10.531 -0.0149 -0.0128 -0.1910
  469TMC3    C6 6981   2.699   1.129  10.621 -0.0298  0.4593 -0.1377
  469TMC3     C 6982   2.533   0.825  10.389  0.4386 -0.3073 -0.5665
  469TMC3     O 6983   2.470   0.862  10.287  0.3857 -0.2625  0.7048
  469TMC3     H 6984   2.729   0.800  10.576  0.9248  0.6741  1.6841
  469TMC3    H1 6985   2.463   1.074  10.386 -0.0088  1.7771  0.1232
  469TMC3    H2 6986   2.750   1.215  10.664 -1.4117  0.1508  2.0820
  469TMC3    C7 6987   2.520   1.271  10.539  0.6071 -0.0656  0.3261
  469TMC3    C8 6988   2.874   0.989  10.688  0.5410 -1.0419 -0.4829
  469TMC3    O1 6989   2.479   1.319  10.433 -0.1380  0.2160 -0.0569
  469TMC3    O2 6990   2.935   0.891  10.648 -0.2255 -0.5070  0.5558
  470TMC3    C1 6991   0.401   1.744   0.671  0.1033  0.2466  0.2145
  470TMC3    C2 6992   0.446   1.859   0.726 -0.2466 -0.2431 -0.1410
  470TMC3    C3 6993   0.499   1.863   0.851 -0.1898  0.6612  0.1438
  470TMC3    C4 6994   0.420   1.622   0.738 -0.4764  0.1618 -0.0027
  470TMC3    C5 6995   0.475   1.633   0.862  0.3384  0.4629 -0.3176
  470TMC3    C6 6996   0.518   1.750   0.921  0.4199  0.0331 -0.3689
  470TMC3     C 6997   0.353   1.750   0.535 -0.4932 -0.2900  0.4456
  470TMC3     O 6998   0.378   1.859   0.478  0.4377  0.4534  0.5456
  470TMC3     H 6999   0.413   1.950   0.677 -1.0892 -0.1203  0.6596
  470TMC3    H1 7000   0.386   1.529   0.693  4.6733 -0.8564 -1.7468
  470TMC3    H2 7001   0.580   1.748   1.010 -0.8854  0.0783  0.5357
  470TMC3    C7 7002   0.461   1.512   0.946 -0.8112  0.3812  0.7302
  470TMC3    C8 7003   0.566   1.981   0.894  0.0389  0.5132 -0.0692
  470TMC3    O1 7004   0.387   1.425   0.910  0.2938  0.3726 -0.0285
  470TMC3    O2 7005   0.608   1.982   1.009 -0.0080  0.1123  0.8562
  471MPD2     C 7006   0.760   3.468  16.565 -1.2199 -0.6357  0.2005
  471MPD2    C1 7007   0.716   3.337  16.587  0.6663 -1.0643 -0.7103
  471MPD2    C2 7008   0.712   3.289  16.713 -0.1887 -0.5321 -0.1687
  471MPD2    C3 7009   0.763   3.360  16.814 -0.1137 -0.1252 -0.1636
  471MPD2    C4 7010   0.811   3.486  16.792  0.1019  0.7725 -0.6321
  471MPD2    C5 7011   0.801   3.541  16.673 -0.3146 -0.3313 -0.4871
  471MPD2     H 7012   0.678   3.188  16.733 -0.5153  0.0403  2.2330
  471MPD2    H1 7013   0.838   3.551  16.874  1.6639 -0.2750 -0.3220
  471MPD2    H2 7014   0.752   3.506  16.463 -1.5879 -0.6031  0.2410
  471MPD2    H3 7015   0.808   3.649  16.679  0.3709 -0.4133  0.1832
  471MPD2     N 7016   0.775   3.300  16.936  0.4015  0.5885 -0.0856
  471MPD2    H5 7017   0.725   3.214  16.955 -0.2369  0.9747 -0.0160
  471MPD2    N1 7018   0.669   3.248  16.493  0.5093  0.9571 -0.2860
  471MPD2    H7 7019   0.641   3.155  16.520  1.9640  0.1574 -1.4991
  472TMC3    C1 7020   0.628   3.170  16.264 -0.4794 -0.3376  0.1185
  472TMC3    C2 7021   0.608   3.204  16.127 -0.1372  0.1286  0.6376
  472TMC3    C3 7022   0.638   3.113  16.027 -0.5441 -0.4211 -0.1278
  472TMC3    C4 7023   0.659   3.037  16.296  0.1108  0.1599 -0.3878
  472TMC3    C5 7024   0.696   2.956  16.191 -0.0193 -0.0011 -0.2141
  472TMC3    C6 7025   0.682   2.989  16.060 -0.6531  0.4746 -0.1752
  472TMC3     C 7026   0.672   3.277  16.353 -0.6305  0.2770  0.6308
  472TMC3     O 7027   0.709   3.381  16.296  0.1539 -0.0842  0.3251
  472TMC3     H 7028   0.582   3.306  16.101  0.1470  0.2817  0.9599
  472TMC3    H1 7029   0.692   3.012  16.396  0.8310 -0.7147 -0.8498
  472TMC3    H2 7030   0.718   2.932  15.976 -1.6380  0.5050 -0.6182
  472TMC3    C7 7031   0.630   2.829  16.218 -0.5149  0.1652  0.0291
  472TMC3    C8 7032   0.543   3.108  15.919  0.4464 -0.2848  0.3889
  472TMC3    O1 7033   0.620   2.804  16.339  0.5260  0.2640  0.1525
  472TMC3    O2 7034   0.584   3.142  15.806  0.5809  0.5413  0.2924
  473MPD2     C 7035   0.918   0.206  13.954  0.2775  0.1550  0.5310
  473MPD2    C1 7036   0.829   0.304  13.926  0.2425  0.3092  1.2656
  473MPD2    C2 7037   0.839   0.415  14.005  1.2108  0.0076 -0.2981
  473MPD2    C3 7038   0.928   0.429  14.107 -0.0788 -0.4257  0.0100
  473MPD2    C4 7039   1.003   0.318  14.143  0.4783  0.1984 -0.6483
  473MPD2    C5 7040   0.997   0.210  14.063 -0.1109 -0.6569 -0.1249
  473MPD2     H 7041   0.783   0.502  13.972  0.7605 -0.6904 -1.3608
  473MPD2    H1 7042   1.074   0.314  14.225 -0.1333  0.9065 -0.0867
  473MPD2    H2 7043   0.921   0.116  13.893  1.0359 -0.5183  1.5732
  473MPD2    H3 7044   1.059   0.124  14.085  1.3703  1.5705  4.3962
  473MPD2     N 7045   0.956   0.555  14.168  0.3429 -0.1640 -0.3035
  473MPD2    H5 7046   1.032   0.559  14.235 -0.4548 -2.0238  0.7044
  473MPD2    N1 7047   0.741   0.310  13.815  0.2300  0.5612  0.2652
  473MPD2    H7 7048   0.711   0.404  13.791  0.3432  0.9495  1.6420
  474TMC3    C1 7049   0.906   0.760  14.251  0.0990 -0.6134 -0.3488
  474TMC3    C2 7050   0.808   0.843  14.278  0.1169  0.7890  0.4281
  474TMC3    C3 7051   0.834   0.975  14.283  0.0636 -0.0532 -0.2356
  474TMC3    C4 7052   1.036   0.800  14.246  0.8267 -0.4795 -0.4726
  474TMC3    C5 7053   1.057   0.927  14.275  0.0760 -0.0333  0.7219
  474TMC3    C6 7054   0.960   1.021  14.287 -0.0736  0.0249 -1.1325
  474TMC3     C 7055   0.870   0.655  14.166 -0.4377 -0.3811 -0.7193
  474TMC3     O 7056   0.760   0.658  14.116 -0.0937  0.4350 -0.3575
  474TMC3     H 7057   0.704   0.813  14.273 -0.1771  1.7535  0.8883
  474TMC3    H1 7058   1.118   0.736  14.217  0.8494 -1.6584  2.1611
  474TMC3    H2 7059   0.988   1.126  14.282 -1.3562  0.3725 -0.9546
  474TMC3    C7 7060   1.192   0.968  14.297  0.0829  0.1970  0.2696
  474TMC3    C8 7061   0.740   1.072  14.222 -0.1644 -0.0962  0.2889
  474TMC3    O1 7062   1.279   0.915  14.233 -0.2983  0.1342  1.0346
  474TMC3    O2 7063   0.653   1.022  14.153 -0.6906  0.1080  0.7188
  475MPD2     C 7064   3.271   3.889  10.553  0.2829 -0.5101  0.6040
  475MPD2    C1 7065   3.308   3.856  10.423 -0.8807  0.4517  0.2730
  475MPD2    C2 7066   3.204   3.807  10.339  0.0759 -0.2596 -0.2043
  475MPD2    C3 7067   3.079   3.800  10.384 -0.3353  0.2006  0.3952
  475MPD2    C4 7068   3.043   3.841  10.503 -0.2784  0.2305  0.1130
  475MPD2    C5 7069   3.140   3.879  10.595 -0.4930 -0.7238  0.0781
  475MPD2     H 7070   3.218   3.763  10.241 -0.6279  2.2805 -1.4589
  475MPD2    H1 7071   2.940   3.859  10.532 -0.7874  0.1947 -1.6272
  475MPD2    H2 7072   3.334   3.925  10.633  1.0828 -0.6042  0.0090
  475MPD2    H3 7073   3.109   3.915  10.692 -1.2643 -1.4286  0.0982
  475MPD2     N 7074   2.981   3.760  10.285  0.2848  0.2631  0.0863
  475MPD2    H5 7075   3.006   3.755  10.187 -1.7521  0.6027 -0.4438
  475MPD2    N1 7076   3.439   3.882  10.374 -0.1110  0.3256  0.5429
  475MPD2    H7 7077   3.511   3.916  10.437  0.6579 -0.7580  0.2628
  476TMC3    C1 7078   3.620   3.887  10.208  0.1917 -0.0889 -0.7022
  476TMC3    C2 7079   3.664   3.828  10.093 -0.3906 -0.0057  0.5382
  476TMC3    C3 7080   3.789   3.852  10.049 -0.5915 -0.2884  0.0848
  476TMC3    C4 7081   3.690   3.976  10.289  0.0732 -0.3949 -0.3299
  476TMC3    C5 7082   3.825   3.990  10.257 -0.1082  0.5875  0.3842
  476TMC3    C6 7083   3.866   3.929  10.134 -0.0029  0.0228 -0.3433
  476TMC3     C 7084   3.481   3.867  10.242 -0.0728 -0.7703  0.2506
  476TMC3     O 7085   3.405   3.850  10.149 -0.5387  0.3874 -0.2874
  476TMC3     H 7086   3.595   3.785  10.021 -2.5791  1.4003  1.7744
  476TMC3    H1 7087   3.656   4.027  10.379 -1.9596 -2.1864 -0.0577
  476TMC3    H2 7088   3.972   3.945  10.114 -0.6174  1.0458 -2.7291
  476TMC3    C7 7089   3.912   4.066  10.344  0.1177  0.1505  0.4598
  476TMC3    C8 7090   3.851   3.777   9.940 -0.0570 -0.0756 -0.0099
  476TMC3    O1 7091   4.022   4.092  10.298  0.0014 -0.3454  0.0511
  476TMC3    O2 7092   3.952   3.827   9.896 -0.1364  0.2800 -0.4809
  477MPD2     C 7093   1.100   0.125  11.310 -0.3096  0.5021  0.1206
  477MPD2    C1 7094   1.078   0.203  11.417  0.0735 -0.3050 -0.0088
  477MPD2    C2 7095   1.130   0.164  11.540 -0.9530 -0.0304  0.5517
  477MPD2    C3 7096   1.203   0.046  11.559 -0.9954 -0.2135 -0.3223
  477MPD2    C4 7097   1.239   4.701  11.440 -0.2738  0.2415  0.1910
  477MPD2    C5 7098   1.184   0.015  11.321 -0.4991  0.1396  0.4490
  477MPD2     H 7099   1.115   0.226  11.628  1.1079 -1.1427  1.6831
  477MPD2    H1 7100   1.286   4.604  11.445 -0.2604  0.1933 -1.0728
  477MPD2    H2 7101   1.072   0.158  11.211  3.1887  1.9439 -0.3991
  477MPD2    H3 7102   1.199   4.681  11.231  2.5462 -0.1201  1.1393
  477MPD2     N 7103   1.234   0.006  11.688 -0.7566  0.1115 -0.0782
  477MPD2    H5 7104   1.195   0.066  11.759 -0.0877  1.4172 -0.8179
  477MPD2    N1 7105   0.999   0.321  11.397  0.4227  0.0686  0.3749
  477MPD2    H7 7106   0.973   0.330  11.299  1.2610  2.2636  0.3644
  478TMC3    C1 7107   0.925   0.537  11.416 -0.2350  0.2857  0.1656
  478TMC3    C2 7108   0.823   0.599  11.479  0.1742  0.2196 -0.1007
  478TMC3    C3 7109   0.742   0.680  11.401  0.0199 -0.9654  0.4397
  478TMC3    C4 7110   0.946   0.542  11.283  0.7711  0.4055  0.7927
  478TMC3    C5 7111   0.859   0.620  11.207 -0.0972  0.0439 -0.0985
  478TMC3    C6 7112   0.754   0.685  11.263 -0.3949 -0.3181 -0.2343
  478TMC3     C 7113   0.978   0.422  11.480  0.0896 -0.7073  0.3224
  478TMC3     O 7114   0.982   0.410  11.603 -0.3337  0.6178  0.0131
  478TMC3     H 7115   0.814   0.596  11.587  1.4171  2.1469  0.0561
  478TMC3    H1 7116   1.041   0.503  11.248 -0.1560 -0.5006 -0.7416
  478TMC3    H2 7117   0.698   0.759  11.208 -0.2135 -0.0729 -0.0933
  478TMC3    C7 7118   0.879   0.631  11.066  0.0630 -0.4640 -0.8594
  478TMC3    C8 7119   0.627   0.739  11.461  0.0161 -0.1921 -0.7280
  478TMC3    O1 7120   0.991   0.591  11.032  0.4981  0.5137 -0.0136
  478TMC3    O2 7121   0.589   0.684  11.562  0.1396 -0.8525 -0.1002
  479MPD2     C 7122   0.567   2.625  15.016  0.1711  0.0579 -0.0469
  479MPD2    C1 7123   0.484   2.548  15.093 -0.0949 -0.5465 -0.0011
  479MPD2    C2 7124   0.504   2.541  15.229  0.6465  0.8889  0.2431
  479MPD2    C3 7125   0.610   2.612  15.290 -0.0401 -0.3234  0.3674
  479MPD2    C4 7126   0.691   2.694  15.212 -0.3335  0.1616  0.1526
  479MPD2    C5 7127   0.671   2.694  15.072  0.3948 -0.2262 -1.0857
  479MPD2     H 7128   0.451   2.462  15.280 -0.9739  1.8941  0.1339
  479MPD2    H1 7129   0.781   2.736  15.254 -0.9270  0.1897  1.4230
  479MPD2    H2 7130   0.555   2.630  14.909 -0.5682  0.4025  0.0530
  479MPD2    H3 7131   0.740   2.746  15.006  2.8563 -2.4458 -0.2781
  479MPD2     N 7132   0.654   2.591  15.423 -0.1295  0.2047  0.8693
  479MPD2    H5 7133   0.749   2.619  15.445  0.1144 -0.5785  0.8078
  479MPD2    N1 7134   0.382   2.481  15.024 -0.3086 -0.5211  0.0599
  479MPD2    H7 7135   0.387   2.490  14.923 -0.9980  0.5720  0.1159
  480TMC3    C1 7136   0.252   2.414  15.600 -0.0861  0.1289  0.1061
  480TMC3    C2 7137   0.172   2.507  15.537  0.2052  0.7953  0.0659
  480TMC3    C3 7138   0.226   2.614  15.467  0.7242 -0.6724  0.8564
  480TMC3    C4 7139   0.386   2.427  15.597  0.1279  0.0991 -0.2424
  480TMC3    C5 7140   0.443   2.525  15.523  0.5822 -0.1219 -0.2330
  480TMC3    C6 7141   0.363   2.624  15.456 -0.0210  0.8884  1.1018
  480TMC3     C 7142   0.204   2.329  15.697  0.7326  0.0989 -0.2615
  480TMC3     O 7143   0.281   2.235  15.727  0.0207 -0.0955  0.2671
  480TMC3     H 7144   0.065   2.506  15.553  0.0534 -0.7642 -1.0865
  480TMC3    H1 7145   0.452   2.357  15.648  0.8558  0.2451 -0.9802
  480TMC3    H2 7146   0.403   2.708  15.400 -1.2164  0.5080 -0.3269
  480TMC3    C7 7147   0.588   2.526  15.524  0.3780 -0.4246 -0.6197
  480TMC3    C8 7148   0.141   2.692  15.373 -0.2220  0.1939  0.3713
  480TMC3    O1 7149   0.644   2.487  15.623  0.5316  0.3950 -0.5774
  480TMC3    O2 7150   0.027   2.711  15.417  0.1581  0.3772 -0.3285
  481MPD2     C 7151   2.352   2.491  14.099 -0.2910  0.5034  0.0419
  481MPD2    C1 7152   2.226   2.434  14.085 -0.5009  0.2114  0.4866
  481MPD2    C2 7153   2.180   2.353  14.190  0.2244  0.1738 -0.6367
  481MPD2    C3 7154   2.242   2.359  14.310 -0.5732  0.2701  0.5345
  481MPD2    C4 7155   2.360   2.425  14.323  0.4011  0.7404  0.5944
  481MPD2    C5 7156   2.415   2.491  14.214  0.8079  0.2430 -0.2590
  481MPD2     H 7157   2.087   2.297  14.186 -0.8964  2.0286 -0.4460
  481MPD2    H1 7158   2.420   2.419  14.413 -0.5253  1.1403  1.2329
  481MPD2    H2 7159   2.394   2.550  14.018  0.2881 -0.5385 -0.4173
  481MPD2    H3 7160   2.512   2.538  14.224  1.2688 -0.5637 -0.8753
  481MPD2     N 7161   2.213   2.272  14.418 -0.7318 -0.3086  0.0040
  481MPD2    H5 7162   2.288   2.261  14.486  0.2432  3.9460 -0.4225
  481MPD2    N1 7163   2.157   2.453  13.966  0.2927 -0.7070  0.2812
  481MPD2    H7 7164   2.204   2.514  13.900 -0.7490 -0.8128 -0.5471
  482TMC3    C1 7165   1.973   2.446  13.817 -0.3186 -0.1612 -0.4044
  482TMC3    C2 7166   1.867   2.372  13.774 -0.4254 -0.1068  0.9287
  482TMC3    C3 7167   1.847   2.364  13.637 -0.2551 -1.0355 -0.6472
  482TMC3    C4 7168   2.040   2.522  13.727 -0.6596 -0.4135  0.1132
  482TMC3    C5 7169   2.006   2.527  13.599 -0.4275  0.6200 -0.1911
  482TMC3    C6 7170   1.909   2.447  13.545  0.7080  0.9721 -0.7360
  482TMC3     C 7171   2.024   2.417  13.946 -0.0134  0.7396 -0.7144
  482TMC3     O 7172   1.941   2.384  14.032  0.0547  0.2887  0.4798
  482TMC3     H 7173   1.818   2.301  13.840 -1.3752 -0.9619 -0.7171
  482TMC3    H1 7174   2.115   2.589  13.769 -1.2516 -1.0160  2.1194
  482TMC3    H2 7175   1.890   2.432  13.439  2.3250  0.2035 -0.9170
  482TMC3    C7 7176   2.060   2.632  13.513  0.5940 -0.3434  1.1130
  482TMC3    C8 7177   1.757   2.261  13.586 -0.2537 -0.0682  0.0929
  482TMC3    O1 7178   2.094   2.742  13.564  0.0137 -0.5998  0.3553
  482TMC3    O2 7179   1.725   2.166  13.663  0.1602 -0.6330 -0.6571
  483TMC3    C1 7180   0.585   1.065   0.930  0.3439  0.3335  0.0837
  483TMC3    C2 7181   0.606   1.167   0.845 -0.1620  0.3460 -0.7665
  483TMC3    C3 7182   0.719   1.247   0.870 -0.9640 -0.5078 -0.1406
  483TMC3    C4 7183   0.676   1.027   1.027 -0.1987 -0.0848 -0.0167
  483TMC3    C5 7184   0.779   1.109   1.058  0.0368 -0.4678 -0.0242
  483TMC3    C6 7185   0.803   1.221   0.976  0.1543 -0.0477  0.0808
  483TMC3     C 7186   0.459   0.993   0.910  0.3160  0.1417  0.2312
  483TMC3     O 7187   0.366   1.052   0.859  0.5977  0.0283 -0.8277
  483TMC3     H 7188   0.543   1.185   0.758  0.9484  0.1204 -1.6145
  483TMC3    H1 7189   0.648   0.951   1.099  1.5955 -1.0884 -0.3550
  483TMC3    H2 7190   0.895   1.278   0.982 -0.5494  1.0566  0.5027
  483TMC3    C7 7191   0.884   1.057   1.133 -0.2193 -0.2606  0.0858
  483TMC3    C8 7192   0.736   1.357   0.779 -0.8739  0.1943 -0.3339
  483TMC3    O1 7193   0.876   0.934   1.146  0.7025 -0.3460 -0.3378
  483TMC3    O2 7194   0.669   1.362   0.677  0.5214  0.0195  0.2448
  484MPD2     C 7195   1.742   4.422  12.409 -0.0459  0.5115  0.0690
  484MPD2    C1 7196   1.833   4.327  12.455  0.2065 -0.0699 -0.2868
  484MPD2    C2 7197   1.972   4.344  12.444  0.4993  0.4658  0.1491
  484MPD2    C3 7198   2.022   4.465  12.388 -0.3161 -0.2319  0.0859
  484MPD2    C4 7199   1.927   4.565  12.365 -0.5108 -0.2711  0.1691
  484MPD2    C5 7200   1.789   4.544  12.378 -0.4299  0.2394 -0.1790
  484MPD2     H 7201   2.038   4.266  12.481  2.4118  0.9893 -2.1429
  484MPD2    H1 7202   1.956   4.660  12.323 -0.9553  0.7749  2.2501
  484MPD2    H2 7203   1.636   4.401  12.410  0.2128 -0.8811 -1.1449
  484MPD2    H3 7204   1.719   4.625  12.361 -1.0923 -0.0471  1.1820
  484MPD2     N 7205   2.156   4.494  12.373  0.1661  0.3732  0.7176
  484MPD2    H5 7206   2.184   4.589  12.352 -1.1965  0.9933  1.7719
  484MPD2    N1 7207   1.782   4.204  12.505  0.2226  0.0250 -0.2420
  484MPD2    H7 7208   1.682   4.191  12.495 -0.2123  2.7862  0.4962
  485TMC3    C1 7209   2.384   4.489  12.378  0.0041  0.2222  1.0212
  485TMC3    C2 7210   2.497   4.438  12.433 -0.5078  0.3409  0.0603
  485TMC3    C3 7211   2.618   4.505  12.408  0.5384  0.1917  0.6391
  485TMC3    C4 7212   2.397   4.586  12.284  0.7155 -0.6877  0.8192
  485TMC3    C5 7213   2.522   4.626  12.246 -0.3418 -0.2874 -0.7843
  485TMC3    C6 7214   2.634   4.600  12.316 -0.6951 -0.3395  0.0201
  485TMC3     C 7215   2.263   4.415  12.404 -0.3139  0.4137 -0.3021
  485TMC3     O 7216   2.271   4.296  12.434 -0.2344 -0.1242  0.9847
  485TMC3     H 7217   2.482   4.353  12.498  1.3700  1.1223  1.5146
  485TMC3    H1 7218   2.313   4.607  12.218  0.3167 -1.2770  1.1405
  485TMC3    H2 7219   2.732   4.645  12.301 -0.9925  0.7198  1.2188
  485TMC3    C7 7220   2.544   4.608  12.102 -0.0411  0.4170 -0.1409
  485TMC3    C8 7221   2.730   4.419  12.397 -0.1953  0.0788 -0.2349
  485TMC3    O1 7222   2.458   4.661  12.031 -0.2848  0.2479 -0.1892
  485TMC3    O2 7223   2.812   4.435  12.306 -0.0036 -0.1607 -0.4679
  486MPD2     C 7224   4.291   3.165  12.607  0.1535  0.2977 -0.6095
  486MPD2    C1 7225   4.233   3.143  12.482 -0.1387 -0.5436 -0.5219
  486MPD2    C2 7226   4.132   3.236  12.439  0.4445 -0.0486  0.0705
  486MPD2    C3 7227   4.098   3.340  12.520  0.0258  0.5245 -0.2959
  486MPD2    C4 7228   4.153   3.353  12.644  0.2672 -0.1383  0.7074
  486MPD2    C5 7229   4.253   3.269  12.686 -0.0191  0.6482 -0.2157
  486MPD2     H 7230   4.087   3.219  12.342  0.0157 -1.3725  0.4961
  486MPD2    H1 7231   4.133   3.436  12.711 -1.9047 -1.7070  1.9841
  486MPD2    H2 7232   4.359   3.093  12.651  0.5762  1.5089  0.7080
  486MPD2    H3 7233   4.306   3.291  12.777  0.5842  0.0791 -0.4288
  486MPD2     N 7234   4.001   3.434  12.475  0.8182 -0.5096 -0.1001
  486MPD2    H5 7235   3.957   3.423  12.384  0.5761 -0.5863  0.0264
  486MPD2    N1 7236   4.273   3.027  12.410 -0.4865  0.1603  0.4209
  486MPD2    H7 7237   4.346   2.970  12.452 -0.3248 -0.8298 -1.1872
  487TMC3    C1 7238   4.264   2.872  12.234 -0.1735 -0.1549  0.2087
  487TMC3    C2 7239   4.166   2.780  12.208  0.0691  0.4328  0.4633
  487TMC3    C3 7240   4.193   2.649  12.204 -0.3049 -0.8476  1.0894
  487TMC3    C4 7241   4.391   2.835  12.254  0.2366  0.3852  0.6591
  487TMC3    C5 7242   4.417   2.702  12.245  0.5493  0.4776 -0.3995
  487TMC3    C6 7243   4.327   2.605  12.222 -0.5521 -0.2967 -0.0104
  487TMC3     C 7244   4.216   2.992  12.289 -0.1179 -0.2234  0.1594
  487TMC3     O 7245   4.123   3.045  12.226 -0.2062 -0.3246  0.8103
  487TMC3     H 7246   4.065   2.806  12.180 -0.0120 -0.4321 -0.0661
  487TMC3    H1 7247   4.465   2.911  12.277  1.9841 -1.8932  2.5968
  487TMC3    H2 7248   4.348   2.502  12.247  1.6762 -0.0089 -0.6934
  487TMC3    C7 7249   4.532   2.653  12.326 -0.5371 -1.1688  0.2023
  487TMC3    C8 7250   4.087   2.578  12.272  0.2760  0.0870  0.4211
  487TMC3    O1 7251   4.572   2.722  12.421  0.0145  0.0752 -0.3644
  487TMC3    O2 7252   4.017   2.645  12.346  0.0344 -0.1709 -0.3095
  488MPD2     C 7253   0.024   4.306  16.430 -0.2245 -0.3584  0.1005
  488MPD2    C1 7254   0.097   4.371  16.527 -0.1292 -0.1378  1.0658
  488MPD2    C2 7255   0.084   4.323  16.653  0.2080  0.2853  0.1145
  488MPD2    C3 7256   4.720   4.225  16.689  0.0803  0.0585 -0.2830
  488MPD2    C4 7257   4.642   4.160  16.592  0.2429  0.7138  0.0475
  488MPD2    C5 7258   4.673   4.200  16.466 -0.4644 -0.3900 -0.3396
  488MPD2     H 7259   0.146   4.367  16.730  0.6448 -2.2522  1.2152
  488MPD2    H1 7260   4.581   4.072  16.611 -0.0980  0.7015 -1.0656
  488MPD2    H2 7261   0.033   4.328  16.324 -0.2602 -2.9516 -0.4273
  488MPD2    H3 7262   4.632   4.154  16.377  0.8589  0.2382 -1.2667
  488MPD2     N 7263   4.710   4.192  16.827 -0.1246  0.3557  0.1363
  488MPD2    H5 7264   0.050   4.236  16.891  0.2093  0.2804 -0.1527
  488MPD2    N1 7265   0.181   4.480  16.500  0.5926  0.2064 -0.2333
  488MPD2    H7 7266   0.220   4.524  16.583 -0.7245  1.1032 -0.0876
  489TMC3    C1 7267   4.685   4.057  17.014 -0.1188 -0.6077 -0.3637
  489TMC3    C2 7268   0.054   4.140  17.067  0.6978  0.1439  0.0933
  489TMC3    C3 7269   0.058   4.149  17.202 -0.1955  1.1759  0.1506
  489TMC3    C4 7270   4.593   3.984  17.088 -0.3082 -0.1262  0.5495
  489TMC3    C5 7271   4.605   3.997  17.224 -0.2526  0.8595  0.1071
  489TMC3    C6 7272   4.698   4.082  17.281 -0.3864 -0.5297 -0.0913
  489TMC3     C 7273   4.645   4.083  16.876 -0.6143 -0.3715 -0.2926
  489TMC3     O 7274   4.544   4.027  16.833 -0.2623 -0.0234 -0.1478
  489TMC3     H 7275   0.119   4.200  17.005 -0.1646 -0.9804 -1.9059
  489TMC3    H1 7276   4.518   3.923  17.038 -0.2707  0.7626 -0.5826
  489TMC3    H2 7277   4.708   4.093  17.389 -0.9650  3.1863 -0.3992
  489TMC3    C7 7278   4.504   3.934  17.313  0.1483  0.2220 -0.5258
  489TMC3    C8 7279   0.144   4.252  17.256  0.2180 -0.4166  0.1991
  489TMC3    O1 7280   4.475   3.987  17.417 -0.4102 -0.0221 -0.5677
  489TMC3    O2 7281   0.243   4.264  17.185  0.1110 -0.0665  0.5008
  490MPD2     C 7282   0.662   4.114   0.078  0.3513  0.7742 -0.8803
  490MPD2    C1 7283   0.786   4.057   0.059 -0.8542 -0.0373  0.3554
  490MPD2    C2 7284   0.885   4.089   0.151  1.5293 -1.1314 -0.1559
  490MPD2    C3 7285   0.867   4.180   0.252 -0.2425 -0.2397  0.3683
  490MPD2    C4 7286   0.745   4.243   0.263  0.0029  0.0731  0.4717
  490MPD2    C5 7287   0.638   4.203   0.179  0.4434 -0.1507 -0.1862
  490MPD2     H 7288   0.983   4.047   0.132  0.5387 -3.6491  0.3350
  490MPD2    H1 7289   0.723   4.302   0.351 -1.1578 -3.7362  2.7606
  490MPD2    H2 7290   0.583   4.086   0.010  0.8023  0.3451 -1.2241
  490MPD2    H3 7291   0.536   4.241   0.179 -0.1039 -1.5982  0.8546
  490MPD2     N 7292   0.967   4.226   0.341 -0.2207  0.5179  1.1712
  490MPD2    H5 7293   0.944   4.313   0.388  1.2222  0.0507  2.7576
  490MPD2    N1 7294   0.808   3.960  17.666  0.2039 -0.2498  0.1315
  490MPD2    H7 7295   0.721   3.917  17.634 -0.2810  2.5369 -2.3065
  491TMC3    C1 7296   0.921   3.788  17.550  0.0663 -0.2721 -0.1718
  491TMC3    C2 7297   0.988   3.675  17.605 -0.1349  0.1466  0.3464
  491TMC3    C3 7298   0.981   3.558  17.538 -0.4034  0.1246  0.1417
  491TMC3    C4 7299   0.830   3.781  17.451  0.0153 -0.1276  0.1309
  491TMC3    C5 7300   0.819   3.659  17.385  0.8843  0.0884  0.6259
  491TMC3    C6 7301   0.892   3.545  17.433 -0.2853 -0.6876  0.0001
  491TMC3     C 7302   0.929   3.916  17.624 -0.2862  0.1387  0.9231
  491TMC3     O 7303   1.045   3.961  17.642  0.4427  0.6288 -0.4280
  491TMC3     H 7304   1.060   3.696  17.683 -2.3024  0.3133  2.2903
  491TMC3    H1 7305   0.782   3.874  17.423  1.5082  0.1691 -1.4310
  491TMC3    H2 7306   0.875   3.446  17.393  0.5626  0.7128 -3.8208
  491TMC3    C7 7307   0.729   3.636  17.275 -0.4989  0.2644 -0.1045
  491TMC3    C8 7308   1.013   3.451  17.625 -0.2291  0.2553 -0.4650
  491TMC3    O1 7309   0.693   3.521  17.250 -0.7474  0.1427 -0.6414
  491TMC3    O2 7310   1.063   3.348  17.577  0.8783 -0.8229 -0.4697
  492MPD2     C 7311   0.925   3.892  11.114 -0.6334 -0.3316  1.5628
  492MPD2    C1 7312   0.834   3.822  11.042  0.0985  0.7552  0.3352
  492MPD2    C2 7313   0.735   3.751  11.104 -0.3065 -0.1768 -0.0070
  492MPD2    C3 7314   0.745   3.729  11.242  0.6226  0.3309 -0.3352
  492MPD2    C4 7315   0.848   3.789  11.311  0.3496  0.8893  0.0339
  492MPD2    C5 7316   0.928   3.876  11.246  0.1941  0.2016 -0.2612
  492MPD2     H 7317   0.654   3.695  11.058  0.9518 -1.0486 -1.1303
  492MPD2    H1 7318   0.871   3.762  11.414  1.2138  0.4708 -0.2595
  492MPD2    H2 7319   1.012   3.939  11.069  0.0890 -0.8602  2.4048
  492MPD2    H3 7320   1.000   3.916  11.316 -0.2002  0.5302 -0.0415
  492MPD2     N 7321   0.647   3.663  11.315  0.0698 -0.4779  0.0037
  492MPD2    H5 7322   0.666   3.659  11.415  1.3782 -0.5117 -0.2475
  492MPD2    N1 7323   0.836   3.834  10.903 -0.5082 -0.0830 -0.8441
  492MPD2    H7 7324   0.904   3.894  10.858 -1.4144  1.3964 -0.2577
  493TMC3    C1 7325   0.774   3.838  10.690  0.1181  0.2299 -0.3912
  493TMC3    C2 7326   0.892   3.892  10.649  0.2875  0.0279 -0.0343
  493TMC3    C3 7327   0.889   3.956  10.528  0.2589 -0.0084  0.6524
  493TMC3    C4 7328   0.661   3.826  10.611 -0.1025 -0.3793 -0.6146
  493TMC3    C5 7329   0.675   3.889  10.491  0.2174  0.9022 -0.1401
  493TMC3    C6 7330   0.775   3.969  10.453 -0.4971  0.5210 -0.4324
  493TMC3     C 7331   0.744   3.786  10.818  0.3089  0.1709 -0.3511
  493TMC3     O 7332   0.647   3.714  10.826  0.0670 -0.1331 -0.3755
  493TMC3     H 7333   0.984   3.885  10.706  0.4019  2.3467  0.0760
  493TMC3    H1 7334   0.563   3.792  10.640  0.4704 -0.5177  1.1778
  493TMC3    H2 7335   0.777   4.014  10.355 -1.5278 -0.2495 -0.7985
  493TMC3    C7 7336   0.560   3.865  10.400 -0.0112 -0.0047  0.7545
  493TMC3    C8 7337   1.021   3.994  10.477 -0.0749  0.1393 -0.0102
  493TMC3    O1 7338   0.553   3.946  10.308  0.2948  0.7006  0.1019
  493TMC3    O2 7339   1.106   3.960  10.555  0.1965  0.8602 -0.0151
  494TMC3    C1 7340   1.830   0.788   0.696 -0.5457 -0.0543  0.0310
  494TMC3    C2 7341   1.846   0.648   0.693 -0.3046 -0.5379  0.4226
  494TMC3    C3 7342   1.883   0.597   0.569  0.6893  0.6268  0.3040
  494TMC3    C4 7343   1.844   0.869   0.583 -0.4699 -0.0554 -0.8464
  494TMC3    C5 7344   1.884   0.809   0.464  0.1599  0.6039  1.2013
  494TMC3    C6 7345   1.901   0.676   0.465  0.1690  0.2220  0.0425
  494TMC3     C 7346   1.820   0.851   0.823  1.1348  0.0362 -0.6837
  494TMC3     O 7347   1.772   0.962   0.826  0.0821 -0.6347  0.4202
  494TMC3     H 7348   1.836   0.586   0.781  2.4578 -1.6235 -0.0231
  494TMC3    H1 7349   1.839   0.977   0.598  1.4384  0.0163 -0.6871
  494TMC3    H2 7350   1.948   0.632   0.378  3.3086 -0.7337  2.2048
  494TMC3    C7 7351   1.890   0.886   0.342 -0.1163 -0.0319 -0.8934
  494TMC3    C8 7352   1.953   0.472   0.567  0.1177 -0.9433 -0.0352
  494TMC3    O1 7353   1.937   0.832   0.243 -0.0469 -0.1925  0.2259
  494TMC3    O2 7354   2.059   0.468   0.501 -0.0311  0.2216  0.1002
  495TMC3    C1 7355   0.483   2.827  14.425 -0.0212 -0.6093 -0.5674
  495TMC3    C2 7356   0.406   2.919  14.355  0.4450  0.0786  0.0191
  495TMC3    C3 7357   0.285   2.961  14.401  0.7809 -0.7703 -0.5983
  495TMC3    C4 7358   0.448   2.789  14.553  0.7069 -0.8104  0.2379
  495TMC3    C5 7359   0.329   2.843  14.601  0.3114 -0.1005  0.3790
  495TMC3    C6 7360   0.244   2.918  14.526  0.9675  0.4308 -0.2882
  495TMC3     C 7361   0.522   2.713  14.339 -0.1139 -0.2801  0.2038
  495TMC3     O 7362   0.461   2.724  14.232  0.5266 -0.3254 -0.0214
  495TMC3     H 7363   0.448   2.947  14.260 -0.8247  0.1909 -0.5088
  495TMC3    H1 7364   0.515   2.724  14.608  0.9858  0.9479  1.9750
  495TMC3    H2 7365   0.138   2.923  14.545  1.3021  2.9216  1.0173
  495TMC3    C7 7366   0.293   2.805  14.734 -0.5830 -0.6112  0.0260
  495TMC3    C8 7367   0.181   2.967  14.305  0.4102  0.2424 -0.5053
  495TMC3    O1 7368   0.363   2.725  14.794 -0.1016  0.4027  0.5529
  495TMC3    O2 7369   0.088   3.040  14.340  0.2491 -0.1709  0.0772
  496MPD2     C 7370   2.561   2.702  15.646  0.6266  0.4555  0.7274
  496MPD2    C1 7371   2.468   2.605  15.637 -0.6535 -0.3987  0.1568
  496MPD2    C2 7372   2.376   2.593  15.739 -0.2090 -0.6631 -0.0976
  496MPD2    C3 7373   2.365   2.682  15.841 -0.3218  0.0252  0.3840
  496MPD2    C4 7374   2.456   2.785  15.842 -0.0447 -0.2657 -0.6449
  496MPD2    C5 7375   2.553   2.791  15.747 -0.1243 -0.3711  0.5109
  496MPD2     H 7376   2.301   2.515  15.735 -0.8379 -0.0074 -1.3035
  496MPD2    H1 7377   2.457   2.863  15.917  1.3334  0.3174 -1.2600
  496MPD2    H2 7378   2.643   2.708  15.575 -1.0219 -0.6115 -1.2859
  496MPD2    H3 7379   2.621   2.875  15.758 -0.0535 -0.2420 -0.8282
  496MPD2     N 7380   2.260   2.673  15.936 -0.0718 -0.0870 -1.0784
  496MPD2    H5 7381   2.200   2.592  15.928  0.9790 -1.1154  1.4436
  496MPD2    N1 7382   2.468   2.534  15.512 -0.3176 -0.5082 -0.3472
  496MPD2    H7 7383   2.536   2.554  15.440  0.2609 -1.4144 -0.0552
  497TMC3    C1 7384   2.110   2.702  16.104 -0.4130 -0.5465 -0.1093
  497TMC3    C2 7385   2.008   2.646  16.034  0.4320  0.0561  0.0540
  497TMC3    C3 7386   1.917   2.579  16.107 -0.2385 -0.0346  0.2152
  497TMC3    C4 7387   2.104   2.714  16.242 -0.3589 -0.3954  1.0120
  497TMC3    C5 7388   2.006   2.653  16.314  0.5601  0.3275  0.2411
  497TMC3    C6 7389   1.908   2.590  16.242 -0.3178  0.0679 -0.4037
  497TMC3     C 7390   2.226   2.757  16.035  0.9516 -0.2606  0.0378
  497TMC3     O 7391   2.271   2.868  16.058  0.1317 -0.1812  0.8148
  497TMC3     H 7392   2.004   2.651  15.926 -0.4222  0.1745  0.0958
  497TMC3    H1 7393   2.194   2.759  16.283  0.3556 -2.2163  1.4718
  497TMC3    H2 7394   1.829   2.545  16.301 -0.7330 -0.5230 -1.4037
  497TMC3    C7 7395   1.986   2.687  16.455 -0.1091  0.1744  0.1639
  497TMC3    C8 7396   1.802   2.528  16.033 -0.3477 -0.4125 -0.7012
  497TMC3    O1 7397   1.901   2.620  16.508 -0.2399 -0.0536 -0.0018
  497TMC3    O2 7398   1.700   2.527  16.103  0.0364  0.7281  0.7146
  498MPD2     C 7399   2.663   3.266   9.356 -0.6309  0.9844  0.6141
  498MPD2    C1 7400   2.735   3.161   9.416 -0.0288 -0.2135 -0.1719
  498MPD2    C2 7401   2.672   3.048   9.463 -0.0676  1.0998  0.2622
  498MPD2    C3 7402   2.542   3.021   9.426  0.4443  0.3943 -0.4572
  498MPD2    C4 7403   2.472   3.122   9.365  0.3845 -0.6061 -0.2116
  498MPD2    C5 7404   2.524   3.246   9.342 -0.4865 -0.0904  0.3345
  498MPD2     H 7405   2.730   2.970   9.511  0.1910  1.0623 -0.1058
  498MPD2    H1 7406   2.371   3.099   9.335  1.0704 -1.5995 -1.7371
  498MPD2    H2 7407   2.706   3.361   9.326  1.5492 -0.2808 -0.3245
  498MPD2    H3 7408   2.463   3.324   9.298 -1.9326 -0.9919  0.7394
  498MPD2     N 7409   2.496   2.888   9.454  0.0183 -0.4138  0.3896
  498MPD2    H5 7410   2.562   2.828   9.502 -0.0999 -1.2446 -0.4947
  498MPD2    N1 7411   2.875   3.168   9.435 -0.0941  0.9829 -0.3008
  498MPD2    H7 7412   2.911   3.091   9.491 -0.0837  0.7297 -0.6609
  499TMC3    C1 7413   3.100   3.231   9.412 -0.0964  0.1323  0.3548
  499TMC3    C2 7414   3.137   3.105   9.379  1.1717  0.1535 -0.0117
  499TMC3    C3 7415   3.267   3.069   9.360  0.5297  0.3980 -0.1708
  499TMC3    C4 7416   3.184   3.329   9.420 -0.1713 -0.2971 -0.9119
  499TMC3    C5 7417   3.316   3.296   9.412  0.3086  0.0229 -0.5249
  499TMC3    C6 7418   3.367   3.168   9.377  0.1870  0.2208 -0.6877
  499TMC3     C 7419   2.958   3.267   9.392  0.8179  0.3288  1.2485
  499TMC3     O 7420   2.935   3.369   9.328  0.2474 -0.2889 -0.4459
  499TMC3     H 7421   3.056   3.034   9.366  2.1203 -0.9379 -0.0028
  499TMC3    H1 7422   3.145   3.429   9.438 -2.4183 -0.9757 -2.0396
  499TMC3    H2 7423   3.473   3.149   9.367  0.0827 -0.5301 -0.3676
  499TMC3    C7 7424   3.416   3.402   9.435 -0.4834  0.1485 -0.2142
  499TMC3    C8 7425   3.304   2.929   9.353  0.2035 -0.0266 -0.3463
  499TMC3    O1 7426   3.527   3.394   9.390  0.1624  0.1856 -0.0721
  499TMC3    O2 7427   3.219   2.845   9.376 -0.6860  0.6665  0.0617
  500MPD2     C 7428   4.493   0.273  10.873 -0.1178  0.4977  0.6948
  500MPD2    C1 7429   4.551   0.268  10.749  0.5383  0.8515 -0.0935
  500MPD2    C2 7430   4.463   0.245  10.644 -0.0938 -0.2312  0.2805
  500MPD2    C3 7431   4.336   0.210  10.662  0.1968  0.4256 -0.0247
  500MPD2    C4 7432   4.276   0.211  10.785 -0.0482 -0.2935 -0.3231
  500MPD2    C5 7433   4.357   0.247  10.892  0.3267 -0.4360 -0.9184
  500MPD2     H 7434   4.514   0.255  10.549 -0.1763  3.2254  0.6044
  500MPD2    H1 7435   4.170   0.191  10.794 -0.2774  0.7433 -0.7133
  500MPD2    H2 7436   4.550   0.293  10.963 -1.7676  5.4402  0.6714
  500MPD2    H3 7437   4.320   0.239  10.994  1.5466 -1.4546 -0.5606
  500MPD2     N 7438   4.266   0.161  10.549  0.7884  0.2653  0.2966
  500MPD2    H5 7439   4.166   0.155  10.566  0.5011  1.0350 -1.1267
  500MPD2    N1 7440   4.689   0.287  10.722 -0.5652 -0.1366 -0.1174
  500MPD2    H7 7441   4.713   0.290  10.624  1.0168 -0.7530  0.2570
  501TMC3    C1 7442   0.193   0.335  10.759  0.2525  0.6244  0.5303
  501TMC3    C2 7443   0.189   0.377  10.632  0.2883 -0.1787  0.4762
  501TMC3    C3 7444   0.306   0.389  10.563  1.1774 -0.9390 -0.3317
  501TMC3    C4 7445   0.310   0.314  10.827 -0.3498 -0.3127 -0.9374
  501TMC3    C5 7446   0.428   0.329  10.755 -0.0815  0.6067  0.9318
  501TMC3    C6 7447   0.427   0.370  10.621  0.2763 -0.6179 -0.3039
  501TMC3     C 7448   0.063   0.296  10.820 -0.3071 -0.1845  0.2576
  501TMC3     O 7449   0.051   0.275  10.939 -0.1512 -0.3870 -0.2667
  501TMC3     H 7450   0.094   0.409  10.591  0.9129 -1.1842 -1.8148
  501TMC3    H1 7451   0.304   0.272  10.926  0.7748  1.1609 -0.2427
  501TMC3    H2 7452   0.518   0.366  10.563  0.4160 -0.1296 -0.1125
  501TMC3    C7 7453   0.548   0.278  10.808 -0.5638 -0.3562 -0.5136
  501TMC3    C8 7454   0.300   0.426  10.427  0.1029  0.1640  0.7267
  501TMC3    O1 7455   0.540   0.231  10.922  0.0046 -0.5043  0.2423
  501TMC3    O2 7456   0.405   0.478  10.396  0.2568 -0.6755 -0.3616
  502TMC3    C1 7457   4.482   3.860  14.872 -0.5189  0.0496 -0.1294
  502TMC3    C2 7458   4.445   3.988  14.853 -0.2175  0.2737 -0.1036
  502TMC3    C3 7459   4.314   4.021  14.887 -0.2545  0.1397 -1.0145
  502TMC3    C4 7460   4.391   3.762  14.888  0.4585  0.5378  0.1078
  502TMC3    C5 7461   4.258   3.797  14.893 -0.2007  0.3128 -1.0774
  502TMC3    C6 7462   4.216   3.924  14.888 -0.5859  0.4133  0.1167
  502TMC3     C 7463   4.606   3.839  14.934 -0.1640 -0.0036  0.1303
  502TMC3     O 7464   4.695   3.918  14.916 -0.3290  0.3205  0.5322
  502TMC3     H 7465   4.522   4.062  14.837 -0.8846  0.6955 -1.3506
  502TMC3    H1 7466   4.413   3.657  14.897  1.2322  0.8250  1.5684
  502TMC3    H2 7467   4.112   3.954  14.889 -0.4411  0.9201 -0.4835
  502TMC3    C7 7468   4.168   3.693  14.938 -0.2273  0.1578  0.5872
  502TMC3    C8 7469   4.264   4.156  14.861 -0.1729 -0.6710  0.0964
  502TMC3    O1 7470   4.222   3.579  14.938  0.1747  0.0553 -0.3008
  502TMC3    O2 7471   4.324   4.227  14.778  0.2039  0.4710 -0.2037
  503MPD2     C 7472   1.670   4.512  17.097 -0.1608 -0.1083 -0.4393
  503MPD2    C1 7473   1.779   4.552  17.168  0.3850 -0.2862 -0.3688
  503MPD2    C2 7474   1.852   4.451  17.223  0.2163 -0.5322 -0.5878
  503MPD2    C3 7475   1.822   4.320  17.218 -0.5285 -0.2584  0.7510
  503MPD2    C4 7476   1.720   4.283  17.139 -0.1189 -0.1752 -0.2711
  503MPD2    C5 7477   1.635   4.378  17.088  0.0096  0.0309  0.0280
  503MPD2     H 7478   1.939   4.478  17.282 -0.9711 -2.6301  2.1096
  503MPD2    H1 7479   1.694   4.180  17.117 -1.0370  0.5880 -2.8526
  503MPD2    H2 7480   1.606   4.583  17.046  1.3777  1.0701 -0.7224
  503MPD2    H3 7481   1.554   4.340  17.028 -1.0105 -0.3227  1.6293
  503MPD2     N 7482   1.908   4.226  17.287  0.1963  0.5715 -0.0738
  503MPD2    H5 7483   1.986   4.255  17.345 -0.3963  1.8547  0.0934
  503MPD2    N1 7484   1.805   4.691  17.193  0.1792  0.2362 -0.2976
  503MPD2    H7 7485   1.856   4.716  17.277 -2.1369  1.5971  0.6964
  504TMC3    C1 7486   1.984   4.006  17.354 -0.1048  0.4471 -0.3740
  504TMC3    C2 7487   1.943   3.881  17.391 -0.4428 -0.7923  0.0349
  504TMC3    C3 7488   2.030   3.807  17.456  0.3823  0.3886  0.3735
  504TMC3    C4 7489   2.113   4.050  17.368 -0.3214  0.1793 -0.0555
  504TMC3    C5 7490   2.206   3.962  17.413  0.2392 -0.3964 -0.4547
  504TMC3    C6 7491   2.161   3.842  17.468  0.6335  0.2712  0.3194
  504TMC3     C 7492   1.882   4.087  17.296  0.6105 -0.1565 -0.6987
  504TMC3     O 7493   1.783   4.027  17.263  0.3520  0.6412 -0.2932
  504TMC3     H 7494   1.841   3.845  17.379 -1.2612  1.3280  0.5759
  504TMC3    H1 7495   2.151   4.147  17.337 -2.2714  0.5875 -1.1622
  504TMC3    H2 7496   2.239   3.767  17.481  0.2003 -0.5516 -1.8755
  504TMC3    C7 7497   2.348   3.991  17.391  0.3504  0.3821  0.1820
  504TMC3    C8 7498   1.977   3.683  17.512  0.5314 -0.2432 -0.3787
  504TMC3    O1 7499   2.387   4.074  17.311  0.3224 -0.2762  0.4998
  504TMC3    O2 7500   1.868   3.646  17.463 -0.0996 -0.7606  0.3522
  505MPD2     C 7501   1.939   2.295  10.454  0.5771  0.3046  1.0456
  505MPD2    C1 7502   1.964   2.173  10.397  0.4957 -0.2612 -0.0742
  505MPD2    C2 7503   2.079   2.111  10.430 -0.0457 -0.1778 -0.6025
  505MPD2    C3 7504   2.183   2.167  10.505  0.2787 -0.1511 -0.2351
  505MPD2    C4 7505   2.152   2.287  10.563 -0.0901  0.0677  0.4095
  505MPD2    C5 7506   2.031   2.355  10.544 -0.4954 -0.1028 -0.0815
  505MPD2     H 7507   2.094   2.013  10.387 -0.1333  0.4002 -1.9355
  505MPD2    H1 7508   2.228   2.339  10.621  0.5022 -1.7715  1.2665
  505MPD2    H2 7509   1.846   2.346  10.432  1.0911  0.9393  0.3264
  505MPD2    H3 7510   2.009   2.452  10.585  2.0340  0.7951 -0.9014
  505MPD2     N 7511   2.300   2.095  10.517 -0.6150  0.4855  0.1021
  505MPD2    H5 7512   2.299   2.007  10.466 -0.2099  0.0947  0.7681
  505MPD2    N1 7513   1.878   2.095  10.317 -0.3284  0.0133 -0.0402
  505MPD2    H7 7514   1.906   1.999  10.303 -2.0308 -0.7744  1.9172
  506TMC3    C1 7515   1.723   2.044  10.141 -0.1760  0.0037  0.5630
  506TMC3    C2 7516   1.689   2.076  10.015  0.7693  0.5446 -0.6161
  506TMC3    C3 7517   1.660   1.973   9.933 -0.3829  0.8850 -0.6703
  506TMC3    C4 7518   1.747   1.910  10.172  0.2484  0.4579 -0.0058
  506TMC3    C5 7519   1.722   1.812  10.084 -0.3426  0.7261 -0.4611
  506TMC3    C6 7520   1.666   1.841   9.963  0.1636  0.0569 -0.0647
  506TMC3     C 7521   1.774   2.144  10.233 -0.7275  0.2798 -1.0663
  506TMC3     O 7522   1.741   2.258  10.209  0.7908  0.1307  0.3493
  506TMC3     H 7523   1.647   2.172   9.987  2.5716  1.7448  0.7529
  506TMC3    H1 7524   1.760   1.886  10.277  0.4388  1.0501  0.1088
  506TMC3    H2 7525   1.646   1.774   9.880 -0.7471 -0.9615  0.9716
  506TMC3    C7 7526   1.801   1.682  10.087  1.3774 -0.1314 -0.5371
  506TMC3    C8 7527   1.668   2.008   9.794 -0.2492  0.6467  0.0768
  506TMC3    O1 7528   1.765   1.584  10.025 -0.0896  0.6350  0.8626
  506TMC3    O2 7529   1.596   1.946   9.716  0.3565 -0.1484 -0.4341
  507TMC3    C1 7530   2.826   3.859  14.788 -0.0657 -0.0106  0.1384
  507TMC3    C2 7531   2.781   3.752  14.718 -0.4710  0.2637  0.4578
  507TMC3    C3 7532   2.808   3.747  14.585  0.9257  0.1379  0.3503
  507TMC3    C4 7533   2.888   3.969  14.731 -0.4259  0.7287  0.2669
  507TMC3    C5 7534   2.908   3.962  14.598  0.2161 -0.1699 -0.7573
  507TMC3    C6 7535   2.893   3.845  14.534 -0.3241 -0.1220 -0.7380
  507TMC3     C 7536   2.798   3.875  14.928 -0.5738  0.5524  0.6474
  507TMC3     O 7537   2.829   3.981  14.976 -0.5232 -0.9236 -0.1528
  507TMC3     H 7538   2.730   3.669  14.766 -4.8031 -0.2930 -5.0910
  507TMC3    H1 7539   2.925   4.055  14.786  1.4534  0.3319 -0.4014
  507TMC3    H2 7540   2.926   3.833  14.432  0.4495  0.5155 -0.5681
  507TMC3    C7 7541   2.868   4.077  14.521  0.2455 -0.2576 -0.0352
  507TMC3    C8 7542   2.696   3.739  14.495 -0.1857 -0.4278  0.1552
  507TMC3    O1 7543   2.857   4.062  14.402 -0.7325  0.3963 -0.0684
  507TMC3    O2 7544   2.712   3.787  14.382 -0.3962  0.2823  0.2327
  508MPD2     C 7545   3.853   1.479  15.877 -0.2312  0.4171 -0.3250
  508MPD2    C1 7546   3.885   1.618  15.871  0.6875 -0.0611 -0.4871
  508MPD2    C2 7547   3.871   1.686  15.756  0.0027 -0.0454  0.4158
  508MPD2    C3 7548   3.825   1.623  15.642  0.3421 -0.0326  0.2208
  508MPD2    C4 7549   3.766   1.495  15.653  0.5867  1.0570 -0.2454
  508MPD2    C5 7550   3.791   1.421  15.771 -0.0578  0.8456 -0.1491
  508MPD2     H 7551   3.914   1.786  15.745  0.4778 -0.2644  0.2639
  508MPD2    H1 7552   3.722   1.448  15.566 -2.2950  0.3092  1.6018
  508MPD2    H2 7553   3.876   1.427  15.970 -0.3957  0.6574 -0.1515
  508MPD2    H3 7554   3.774   1.314  15.770  1.1977  0.6359  0.3871
  508MPD2     N 7555   3.840   1.692  15.518 -0.6850 -0.0633 -0.2493
  508MPD2    H5 7556   3.893   1.778  15.521 -3.1864  1.5017 -1.0245
  508MPD2    N1 7557   3.934   1.675  15.993  0.0909 -0.3336 -0.5256
  508MPD2    H7 7558   3.938   1.615  16.074 -0.5687  0.3950  0.0490
  509TMC3    C1 7559   3.731   1.888  15.104 -0.4117 -0.3678 -0.0811
  509TMC3    C2 7560   3.861   1.916  15.067  0.0354 -0.5952 -0.7828
  509TMC3    C3 7561   3.962   1.871  15.155 -0.1733 -0.0920  0.4785
  509TMC3    C4 7562   3.696   1.805  15.216 -0.7126  0.5929 -0.1919
  509TMC3    C5 7563   3.803   1.766  15.293  0.3150 -0.6133 -0.1845
  509TMC3    C6 7564   3.936   1.808  15.275  0.1691 -0.1003  0.2461
  509TMC3     C 7565   3.641   2.003  15.109  0.1601 -0.1154 -0.6663
  509TMC3     O 7566   3.564   2.010  15.202 -0.4113 -0.8982  0.3037
  509TMC3     H 7567   3.890   1.967  14.975 -2.8828 -1.6791 -2.2979
  509TMC3    H1 7568   3.597   1.771  15.243 -0.5494  0.9937  0.9139
  509TMC3    H2 7569   4.014   1.771  15.340 -1.0907 -2.9912  0.1507
  509TMC3    C7 7570   3.789   1.657  15.394 -0.5600  1.2403  0.5107
  509TMC3    C8 7571   4.078   1.958  15.161 -0.1912 -0.0939  0.2263
  509TMC3    O1 7572   3.697   1.576  15.366 -0.1041 -0.2497  0.7242
  509TMC3    O2 7573   4.125   1.997  15.055  0.4182 -0.6877  0.3393
  510MPD2     C 7574   1.621   3.392  14.767 -0.3462  0.7241  0.3104
  510MPD2    C1 7575   1.690   3.273  14.774 -0.8732  0.2939  0.2528
  510MPD2    C2 7576   1.802   3.253  14.700  0.4625  0.4804 -0.4205
  510MPD2    C3 7577   1.847   3.351  14.618  0.4198  0.3955 -0.0701
  510MPD2    C4 7578   1.775   3.465  14.606 -0.4864 -0.0968 -0.4945
  510MPD2    C5 7579   1.656   3.480  14.675 -0.3568  0.3269 -0.9964
  510MPD2     H 7580   1.852   3.157  14.702  0.7300  0.6075 -1.1879
  510MPD2    H1 7581   1.804   3.545  14.539  2.6258 -2.1001 -1.6018
  510MPD2    H2 7582   1.521   3.402  14.809 -0.5678  1.7589 -0.4528
  510MPD2    H3 7583   1.609   3.578  14.670  0.6236  0.9130  1.2307
  510MPD2     N 7584   1.959   3.326  14.539  0.4217  0.2527  0.2519
  510MPD2    H5 7585   1.997   3.235  14.563 -1.6378 -0.2032  1.8164
  510MPD2    N1 7586   1.630   3.170  14.854 -0.1688 -0.2732  0.7678
  510MPD2    H7 7587   1.541   3.180  14.902 -0.6110 -0.8053  0.0661
  511TMC3    C1 7588   1.566   2.958  14.924 -0.2853  0.2430 -0.2482
  511TMC3    C2 7589   1.526   2.995  15.052  0.1930 -0.3788  0.7586
  511TMC3    C3 7590   1.446   2.914  15.119  0.5142 -0.2222 -0.6383
  511TMC3    C4 7591   1.532   2.845  14.868 -0.0974 -0.3203 -0.0193
  511TMC3    C5 7592   1.437   2.767  14.929 -0.4181 -0.2070 -0.3609
  511TMC3    C6 7593   1.402   2.795  15.062 -0.4981  0.2946  0.8794
  511TMC3     C 7594   1.667   3.038  14.858  0.3765 -0.1953  0.4314
  511TMC3     O 7595   1.766   2.984  14.813 -0.8279  0.7358 -0.3353
  511TMC3     H 7596   1.564   3.086  15.096 -1.6677  1.3908 -1.2642
  511TMC3    H1 7597   1.566   2.824  14.767  0.7795 -3.1858  0.8766
  511TMC3    H2 7598   1.316   2.741  15.099  0.9783 -2.3233  0.4467
  511TMC3    C7 7599   1.388   2.651  14.860  0.8878  0.2448 -0.1012
  511TMC3    C8 7600   1.379   2.960  15.245  0.0200 -0.9367  0.2247
  511TMC3    O1 7601   1.371   2.666  14.739  0.1990  0.2196 -0.8889
  511TMC3    O2 7602   1.414   3.073  15.273 -0.1081 -0.1697  0.0067
  512TMC3    C1 7603   0.367   2.617  12.318 -0.3409  0.4032 -0.5630
  512TMC3    C2 7604   0.359   2.708  12.421  0.2181  0.3163  0.9183
  512TMC3    C3 7605   0.420   2.676  12.541 -0.0628 -0.1506  0.4297
  512TMC3    C4 7606   0.448   2.506  12.323  0.5660  0.6757  0.5991
  512TMC3    C5 7607   0.502   2.479  12.446  0.1912 -0.3944 -0.3058
  512TMC3    C6 7608   0.488   2.559  12.554 -0.2945  0.2069  0.1020
  512TMC3     C 7609   0.271   2.634  12.210  0.4925  1.0639  1.1523
  512TMC3     O 7610   0.208   2.738  12.204  0.4379 -0.4690  0.3959
  512TMC3     H 7611   0.289   2.791  12.417  0.8204  0.8127  0.7254
  512TMC3    H1 7612   0.475   2.459  12.229  0.8855 -0.5768  1.3138
  512TMC3    H2 7613   0.530   2.525  12.648  1.3601  0.7884 -0.4341
  512TMC3    C7 7614   0.595   2.372  12.443  0.4804  0.1206  0.2205
  512TMC3    C8 7615   0.389   2.749  12.661  0.3033 -0.1508  0.3841
  512TMC3    O1 7616   0.672   2.372  12.350  0.1739 -0.2820  0.2512
  512TMC3    O2 7617   0.289   2.814  12.665  0.1499 -0.1465 -0.1444
  513MPD2     C 7618   2.325   2.293  13.369 -0.8043 -0.3621  0.0738
  513MPD2    C1 7619   2.393   2.393  13.310  0.0759  0.5182 -1.4150
  513MPD2    C2 7620   2.427   2.504  13.383 -0.0094  0.2187 -0.4071
  513MPD2    C3 7621   2.401   2.511  13.517  0.4182  0.8987 -0.0513
  513MPD2    C4 7622   2.339   2.405  13.582 -0.1813 -0.1385 -0.0955
  513MPD2    C5 7623   2.304   2.298  13.507  0.8457  0.6869  0.6644
  513MPD2     H 7624   2.466   2.593  13.336  0.7359  0.3618  0.4582
  513MPD2    H1 7625   2.309   2.407  13.687  2.8216  1.8480  0.7143
  513MPD2    H2 7626   2.298   2.204  13.314 -0.8170 -0.0713 -0.3971
  513MPD2    H3 7627   2.259   2.212  13.555 -1.3113  0.7443 -1.2578
  513MPD2     N 7628   2.443   2.633  13.576  0.8352  0.2871 -0.0052
  513MPD2    H5 7629   2.496   2.696  13.517  1.5935 -0.2288  0.1282
  513MPD2    N1 7630   2.422   2.372  13.172 -0.4578 -0.7551 -0.3505
  513MPD2    H7 7631   2.367   2.301  13.123  0.8895 -0.8395 -1.7092
  514TMC3    C1 7632   2.527   2.410  12.964  0.4498 -0.4181 -0.2313
  514TMC3    C2 7633   2.413   2.420  12.889 -0.1556  0.2882  0.1327
  514TMC3    C3 7634   2.427   2.488  12.771 -0.0914 -1.0520  1.0107
  514TMC3    C4 7635   2.647   2.462  12.932 -0.2816  0.5536 -0.0230
  514TMC3    C5 7636   2.660   2.540  12.822 -0.4015  0.2152  0.2038
  514TMC3    C6 7637   2.549   2.548  12.738  0.1039 -0.6523  0.0798
  514TMC3     C 7638   2.516   2.444  13.107  0.2388  0.1562 -0.0392
  514TMC3     O 7639   2.592   2.525  13.147  0.0558 -0.4493  0.1280
  514TMC3     H 7640   2.313   2.388  12.917  0.5861 -3.7118 -1.8265
  514TMC3    H1 7641   2.730   2.426  12.991 -1.8248  1.7353  2.8404
  514TMC3    H2 7642   2.568   2.608  12.649 -0.3198  0.0873  0.4819
  514TMC3    C7 7643   2.714   2.677  12.847  0.8480 -0.0425 -0.3896
  514TMC3    C8 7644   2.329   2.457  12.670 -1.4016 -0.6214  0.2947
  514TMC3    O1 7645   2.747   2.744  12.754 -0.5036  0.0390  0.4414
  514TMC3    O2 7646   2.299   2.341  12.671  0.3858 -0.0152  0.3347
  515MPD2     C 7647   0.849   4.096  14.983  0.1233 -0.5782 -0.1641
  515MPD2    C1 7648   0.764   4.184  14.918  0.2553 -0.4039  0.3099
  515MPD2    C2 7649   0.786   4.318  14.925 -0.2973  0.2705  0.6460
  515MPD2    C3 7650   0.875   4.376  15.011 -0.4315  0.2996  0.2127
  515MPD2    C4 7651   0.957   4.288  15.084 -0.3924 -0.0344 -0.2512
  515MPD2    C5 7652   0.937   4.150  15.071  0.8831  0.9106 -0.5585
  515MPD2     H 7653   0.730   4.389  14.864  1.6691  0.3218 -1.0724
  515MPD2    H1 7654   1.026   4.325  15.159 -0.6088 -0.6652  0.2585
  515MPD2    H2 7655   0.840   3.988  14.975  1.2382 -0.4555 -2.8706
  515MPD2    H3 7656   1.003   4.087  15.130 -0.4044  1.0276  1.0114
  515MPD2     N 7657   0.914   4.511  15.010  0.0337 -0.7320 -0.0156
  515MPD2    H5 7658   0.983   4.529  15.082  0.9917 -1.3688 -0.7833
  515MPD2    N1 7659   0.656   4.139  14.846  0.4493 -0.4633  0.3444
  515MPD2    H7 7660   0.601   4.202  14.789 -0.0285  0.6868  2.0790
  516TMC3    C1 7661   0.496   3.990  14.771 -0.0838  0.0958 -0.4894
  516TMC3    C2 7662   0.487   4.064  14.652  0.0123 -0.0131  0.3526
  516TMC3    C3 7663   0.386   4.031  14.567 -0.2929 -0.2777  0.2020
  516TMC3    C4 7664   0.407   3.894  14.799  0.1267 -0.6174 -0.0492
  516TMC3    C5 7665   0.319   3.858  14.705 -0.3311  0.7622  0.1602
  516TMC3    C6 7666   0.297   3.926  14.585  0.1498 -0.0565  0.4268
  516TMC3     C 7667   0.602   4.014  14.868 -0.1651 -0.5888  0.3878
  516TMC3     O 7668   0.598   3.936  14.963  0.0021  0.5030 -0.1735
  516TMC3     H 7669   0.559   4.137  14.618 -0.5438 -0.8330 -2.6137
  516TMC3    H1 7670   0.415   3.833  14.889  1.3401  0.1884  0.3943
  516TMC3    H2 7671   0.223   3.899  14.510 -0.8610 -2.3430  2.2392
  516TMC3    C7 7672   0.242   3.751  14.746  0.3958  0.7567  0.7006
  516TMC3    C8 7673   0.362   4.111  14.447  0.0694 -0.7490 -0.0568
  516TMC3    O1 7674   0.306   3.665  14.803 -0.1531  0.3166 -0.3982
  516TMC3    O2 7675   0.298   4.059  14.355 -1.0298 -0.0630  0.0698
  517MPD2     C 7676   0.241   1.229  17.599  0.0174 -0.1903 -0.0658
  517MPD2    C1 7677   0.380   1.242  17.622 -0.2996  0.0639  0.3613
  517MPD2    C2 7678   0.439   1.365  17.664 -0.5279 -0.3791  0.4971
  517MPD2    C3 7679   0.355   1.469  17.688 -0.1444  0.6912  0.0568
  517MPD2    C4 7680   0.225   1.457  17.661 -0.1347 -0.2784  0.5170
  517MPD2    C5 7681   0.164   1.340  17.627  0.4330  0.6662  0.4631
  517MPD2     H 7682   0.542   1.359  17.696 -0.1643 -1.8325 -0.9389
  517MPD2    H1 7683   0.152   1.534  17.684 -1.3507 -1.5329  0.9341
  517MPD2    H2 7684   0.182   1.138  17.592 -0.5316 -0.0058  2.3023
  517MPD2    H3 7685   0.056   1.338  17.628  0.4132  1.2147 -0.0859
  517MPD2     N 7686   0.400   1.597   0.037 -0.0846  0.3639  0.0921
  517MPD2    H5 7687   0.327   1.666   0.051 -0.7465 -0.2044 -0.5605
  517MPD2    N1 7688   0.461   1.123  17.623 -0.2263  0.0588  0.0780
  517MPD2    H7 7689   0.559   1.129  17.651  0.2279  2.9146 -2.1466
  518TMC3    C1 7690   0.527   0.903  17.606 -0.2960 -0.4828  0.0702
  518TMC3    C2 7691   0.489   0.771  17.632  0.7348  0.0076 -0.3276
  518TMC3    C3 7692   0.575   0.674  17.600 -0.1504 -0.0279  0.5737
  518TMC3    C4 7693   0.653   0.941  17.573  0.0400 -0.5763  0.1307
  518TMC3    C5 7694   0.741   0.839  17.542 -0.2734 -0.4766  0.7482
  518TMC3    C6 7695   0.700   0.707  17.553 -0.9202 -0.2367  0.6486
  518TMC3     C 7696   0.416   0.992  17.611  0.3382 -0.0959 -0.3509
  518TMC3     O 7697   0.307   0.950  17.576  0.2164  0.1150 -0.7195
  518TMC3     H 7698   0.389   0.755  17.672  1.8790  0.4076  2.7279
  518TMC3    H1 7699   0.690   1.040  17.594 -1.6206  0.0313  0.1729
  518TMC3    H2 7700   0.769   0.626  17.531 -0.3579  0.2872  0.4865
  518TMC3    C7 7701   0.852   0.869  17.461  0.3969  0.2517 -0.7212
  518TMC3    C8 7702   0.549   0.538  17.633  0.1728  0.7774 -0.0238
  518TMC3    O1 7703   0.848   0.979  17.410 -0.0032 -0.0811  0.1414
  518TMC3    O2 7704   0.604   0.453  17.568 -0.1402 -0.0626  0.8365
  519MPD2     C 7705   1.593   4.343  14.273 -0.1714 -0.2370  0.7774
  519MPD2    C1 7706   1.569   4.306  14.144  0.0790  0.1511  0.3794
  519MPD2    C2 7707   1.659   4.221  14.083 -0.1967  0.1390 -0.6151
  519MPD2    C3 7708   1.760   4.154  14.166  0.1403 -0.6449  0.3766
  519MPD2    C4 7709   1.792   4.196  14.292  0.4907 -0.2076  0.7210
  519MPD2    C5 7710   1.712   4.297  14.337  0.3648 -0.5308  0.1325
  519MPD2     H 7711   1.654   4.188  13.980 -0.1928 -4.8320  0.9778
  519MPD2    H1 7712   1.871   4.151  14.351 -1.4250 -2.1347  1.8481
  519MPD2    H2 7713   1.527   4.413  14.322  0.6604  1.1969 -0.1447
  519MPD2    H3 7714   1.737   4.357  14.424 -0.8984 -1.5697  1.2055
  519MPD2     N 7715   1.833   4.040  14.118 -0.3704 -0.1762 -0.0789
  519MPD2    H5 7716   1.909   4.008  14.177 -1.0972 -0.3129  0.7803
  519MPD2    N1 7717   1.454   4.340  14.073 -0.2878  0.5322  0.1759
  519MPD2    H7 7718   1.442   4.292  13.985  1.1386 -1.0877  0.8747
  520TMC3    C1 7719   1.870   3.850  13.982  0.4778 -0.1393  0.0180
  520TMC3    C2 7720   1.798   3.739  13.943 -0.2114 -0.5576  0.4246
  520TMC3    C3 7721   1.850   3.618  13.972 -0.1695  0.1747  0.1138
  520TMC3    C4 7722   1.991   3.844  14.044  0.5867 -0.3543  0.1874
  520TMC3    C5 7723   2.041   3.715  14.066  0.0296 -0.0752  0.2242
  520TMC3    C6 7724   1.968   3.602  14.039  0.3382  0.1373 -0.1702
  520TMC3     C 7725   1.782   3.959  14.015 -0.5842 -1.1489  0.3184
  520TMC3     O 7726   1.666   3.955  13.979  0.5882  0.0333  0.0858
  520TMC3     H 7727   1.715   3.754  13.873  0.1375 -0.1818  0.0868
  520TMC3    H1 7728   2.060   3.927  14.043 -1.4354  1.3438  1.3040
  520TMC3    H2 7729   2.008   3.502  14.055 -0.6630 -0.2707 -0.2372
  520TMC3    C7 7730   2.182   3.697  14.075  0.6736  0.1364  0.0280
  520TMC3    C8 7731   1.805   3.494  13.908 -0.6527  0.3910  0.4465
  520TMC3    O1 7732   2.207   3.584  14.111 -0.1129 -0.2769  0.1735
  520TMC3    O2 7733   1.876   3.395  13.912  0.2055  0.1198  0.0676
  521MPD2     C 7734   2.826   2.564  17.369  0.3884  0.1708  0.0432
  521MPD2    C1 7735   2.805   2.473  17.275 -0.2474  0.4352 -0.0320
  521MPD2    C2 7736   2.894   2.454  17.173 -0.2993 -0.5425  0.4869
  521MPD2    C3 7737   3.010   2.527  17.168 -0.5603  0.0953  0.0798
  521MPD2    C4 7738   3.040   2.614  17.272  0.3186 -0.3270  0.0794
  521MPD2    C5 7739   2.947   2.626  17.375 -0.7168  0.3698 -0.2956
  521MPD2     H 7740   2.878   2.376  17.099  0.4309  1.0899 -1.3939
  521MPD2    H1 7741   3.127   2.677  17.284  0.0487 -0.0353  0.4799
  521MPD2    H2 7742   2.750   2.579  17.444  1.7937  0.0469  1.4909
  521MPD2    H3 7743   2.965   2.697  17.455 -1.7775 -0.1503  0.3975
  521MPD2     N 7744   3.105   2.497  17.070  0.9623 -0.2612  0.4697
  521MPD2    H5 7745   3.075   2.430  17.000 -0.3106  2.8063 -1.8691
  521MPD2    N1 7746   2.694   2.388  17.290 -0.0765  0.3923 -0.0491
  521MPD2    H7 7747   2.652   2.374  17.381  0.0535  0.3361  0.0019
  522TMC3    C1 7748   3.287   2.527  16.921 -0.1150  0.1215 -0.0578
  522TMC3    C2 7749   3.395   2.600  16.886 -0.1818 -0.3593  0.6893
  522TMC3    C3 7750   3.453   2.574  16.769  0.6553 -0.1902  0.0395
  522TMC3    C4 7751   3.223   2.436  16.842  0.0363 -0.9628 -0.7594
  522TMC3    C5 7752   3.276   2.425  16.712  0.5508  0.2959 -0.2525
  522TMC3    C6 7753   3.391   2.490  16.678 -0.3741 -0.2183  0.2011
  522TMC3     C 7754   3.224   2.566  17.044 -0.3257 -0.2865  1.3856
  522TMC3     O 7755   3.275   2.646  17.123  0.2469 -0.1191 -0.1258
  522TMC3     H 7756   3.450   2.663  16.954 -1.1177  0.3772  0.7686
  522TMC3    H1 7757   3.142   2.374  16.876 -0.8386 -0.1930 -1.4544
  522TMC3    H2 7758   3.436   2.462  16.584 -1.5608  2.1426 -1.0438
  522TMC3    C7 7759   3.235   2.313  16.627  0.0943  0.3305  0.6805
  522TMC3    C8 7760   3.590   2.592  16.762  0.2592  0.4503  0.1169
  522TMC3    O1 7761   3.319   2.275  16.548 -0.2970  0.5126  0.3385
  522TMC3    O2 7762   3.648   2.675  16.826  0.1355  0.1618 -0.0297
  523MPD2     C 7763   4.707   1.645   9.448  0.5490 -0.5724 -0.2006
  523MPD2    C1 7764   4.657   1.519   9.482  0.2251  0.6403  0.2178
  523MPD2    C2 7765   4.528   1.487   9.440  1.0945 -0.5272  0.1881
  523MPD2    C3 7766   4.443   1.586   9.375 -0.9439 -0.3752  0.8216
  523MPD2    C4 7767   4.504   1.701   9.335  0.0612 -0.0938 -1.0596
  523MPD2    C5 7768   4.633   1.732   9.375 -0.4698  0.0377 -0.3747
  523MPD2     H 7769   4.486   1.389   9.461 -0.3260 -0.3873 -2.0101
  523MPD2    H1 7770   4.447   1.783   9.293  0.0957 -0.0432 -1.0085
  523MPD2    H2 7771   0.074   1.683   9.492  0.4028 -0.7162  0.2300
  523MPD2    H3 7772   4.674   1.831   9.358  0.2731 -0.1565  0.2714
  523MPD2     N 7773   4.304   1.568   9.343 -0.4486 -0.2281 -0.0483
  523MPD2    H5 7774   4.263   1.629   9.273 -0.0854  0.3222  0.2257
  523MPD2    N1 7775   0.008   1.430   9.563 -0.1178  0.0065  0.7170
  523MPD2    H7 7776   0.101   1.463   9.584 -0.0270  0.6926 -0.7905
  524TMC3    C1 7777   4.084   1.487   9.371  0.1487 -0.6683 -0.3572
  524TMC3    C2 7778   4.004   1.378   9.370  0.0481 -0.3517 -0.4012
  524TMC3    C3 7779   3.870   1.385   9.347  0.0100 -0.4273  0.5941
  524TMC3    C4 7780   4.030   1.610   9.337  0.7500 -0.6225  0.5088
  524TMC3    C5 7781   3.896   1.618   9.321  0.2263 -0.0677 -0.5057
  524TMC3    C6 7782   3.812   1.508   9.316 -0.8255 -0.8550 -0.5667
  524TMC3     C 7783   4.224   1.470   9.403 -0.6960  0.1968 -0.2291
  524TMC3     O 7784   4.250   1.392   9.491  0.4371 -0.0438 -0.9932
  524TMC3     H 7785   4.049   1.281   9.355 -2.0685 -1.2371 -0.9561
  524TMC3    H1 7786   4.093   1.698   9.332  1.1643 -0.9100  0.7732
  524TMC3    H2 7787   3.705   1.521   9.316 -0.8386 -0.9855  0.9325
  524TMC3    C7 7788   3.843   1.754   9.327  0.8960  0.8452 -0.6812
  524TMC3    C8 7789   3.804   1.265   9.301  0.2430  0.4691 -0.0879
  524TMC3    O1 7790   3.906   1.829   9.395  0.4581 -0.8570 -0.1254
  524TMC3    O2 7791   3.837   1.152   9.344 -0.4248  0.6700  0.2165
  525MPD2     C 7792   3.158   3.682  14.323  0.3671 -0.3330  0.8365
  525MPD2    C1 7793   3.207   3.758  14.433 -0.3884 -0.4857  0.0475
  525MPD2    C2 7794   3.231   3.895  14.421 -0.4166  0.3944 -0.3655
  525MPD2    C3 7795   3.191   3.958  14.312 -0.3949  0.0705 -0.1578
  525MPD2    C4 7796   3.136   3.887  14.206  0.7844 -0.2588  0.3037
  525MPD2    C5 7797   3.115   3.748  14.213  0.1286 -0.1213 -0.4044
  525MPD2     H 7798   3.273   3.946  14.507 -2.2018  2.9325 -1.0017
  525MPD2    H1 7799   3.093   3.942  14.123 -1.0205  0.5317  1.7563
  525MPD2    H2 7800   3.142   3.575  14.325  0.4427 -0.4293 -3.6335
  525MPD2    H3 7801   3.064   3.698  14.131 -2.6253  0.4082  0.9607
  525MPD2     N 7802   3.189   4.104  14.323  0.2787  0.4040  0.3592
  525MPD2    H5 7803   3.198   4.137  14.418  0.3935  2.3913 -0.3487
  525MPD2    N1 7804   3.252   3.700  14.551  0.7205 -0.3614  0.1534
  525MPD2    H7 7805   3.300   3.757  14.620 -0.1146  1.9683 -1.2156
  526TMC3    C1 7806   3.317   3.527  14.689  0.0583 -0.2840 -0.2719
  526TMC3    C2 7807   3.286   3.410  14.755  0.3209 -0.1574  0.2387
  526TMC3    C3 7808   3.386   3.343  14.821 -0.2378 -0.0767 -0.2467
  526TMC3    C4 7809   3.449   3.573  14.682 -0.2995 -0.0896  0.6798
  526TMC3    C5 7810   3.545   3.501  14.748  0.4079  0.5073  0.2032
  526TMC3    C6 7811   3.519   3.390  14.820  0.3214 -0.6313 -0.1522
  526TMC3     C 7812   3.237   3.563  14.575 -0.1784  0.0876 -0.2410
  526TMC3     O 7813   3.151   3.486  14.539 -0.2210 -0.2719  0.4324
  526TMC3     H 7814   3.196   3.356  14.730  0.4380 -0.2486  0.0141
  526TMC3    H1 7815   3.483   3.649  14.611 -2.9633  1.1905  0.7641
  526TMC3    H2 7816   3.595   3.335  14.873 -0.6460  0.3649  2.2760
  526TMC3    C7 7817   3.685   3.536  14.712  0.1001 -0.1981  0.7706
  526TMC3    C8 7818   3.349   3.267  14.934  0.6160  0.5557  0.6499
  526TMC3    O1 7819   3.704   3.655  14.707 -0.1847 -0.2676  0.0888
  526TMC3    O2 7820   3.432   3.213  15.006  0.0694 -0.4526  0.3191
  527MPD2     C 7821   2.554   1.188   1.168  0.8447 -0.0111  0.5547
  527MPD2    C1 7822   2.612   1.307   1.136  0.1585 -0.4650  0.5009
  527MPD2    C2 7823   2.718   1.305   1.046  0.3377 -0.2272 -0.4862
  527MPD2    C3 7824   2.770   1.193   0.986  0.7623  0.4874 -0.0968
  527MPD2    C4 7825   2.703   1.074   1.030  0.1025 -0.3181 -0.1755
  527MPD2    C5 7826   2.598   1.071   1.120 -0.2281 -0.5821  0.1732
  527MPD2     H 7827   2.756   1.401   1.014 -0.0390 -0.3039 -1.1668
  527MPD2    H1 7828   2.721   0.978   0.983  1.3231  0.5057 -1.4110
  527MPD2    H2 7829   2.463   1.179   1.226 -0.1417  1.9545 -0.6946
  527MPD2    H3 7830   2.540   0.982   1.141 -0.7003 -0.7241 -1.7731
  527MPD2     N 7831   2.879   1.188   0.898  0.5966  0.2004  0.0826
  527MPD2    H5 7832   2.918   1.097   0.875  2.7872  0.8517  1.2426
  527MPD2    N1 7833   2.574   1.430   1.201 -0.3159  0.1555  0.0916
  527MPD2    H7 7834   2.635   1.508   1.177 -1.3001  0.7126 -0.5855
  528TMC3    C1 7835   2.485   1.590   1.319  0.5959  0.3868 -0.3970
  528TMC3    C2 7836   2.608   1.656   1.330 -0.6066  0.1926  0.6673
  528TMC3    C3 7837   2.604   1.788   1.374  0.0578  0.4188 -0.3105
  528TMC3    C4 7838   2.370   1.663   1.329  0.0645 -0.0421 -0.2745
  528TMC3    C5 7839   2.372   1.792   1.368 -0.0498  0.2138 -0.6049
  528TMC3    C6 7840   2.492   1.864   1.379 -0.1853 -0.1004  0.7671
  528TMC3     C 7841   2.479   1.452   1.291 -1.4585 -0.2062  0.2123
  528TMC3     O 7842   2.388   1.388   1.337 -0.5447  0.0743 -0.0195
  528TMC3     H 7843   2.703   1.609   1.307  0.0574  1.2963  1.1654
  528TMC3    H1 7844   2.289   1.592   1.341 -0.9594  0.8533 -1.9290
  528TMC3    H2 7845   2.488   1.972   1.383 -0.6110 -0.1116  0.6147
  528TMC3    C7 7846   2.245   1.853   1.399 -0.7840  0.4954 -0.1066
  528TMC3    C8 7847   2.728   1.862   1.388 -0.3729  0.3120  0.4406
  528TMC3    O1 7848   2.151   1.795   1.343 -0.2421  0.2602  0.6941
  528TMC3    O2 7849   2.719   1.982   1.361 -0.6226  0.3130 -0.0818
  529MPD2     C 7850   4.134   0.146   1.375 -0.0041 -0.3781  0.0951
  529MPD2    C1 7851   4.258   0.154   1.310 -0.0191  0.0308 -0.3741
  529MPD2    C2 7852   4.272   0.241   1.204  0.6192 -0.0525  0.3096
  529MPD2    C3 7853   4.170   0.330   1.165  0.4644 -0.3325 -0.0755
  529MPD2    C4 7854   4.047   0.316   1.224  0.0897 -0.1736 -0.0585
  529MPD2    C5 7855   4.034   0.231   1.325 -0.6562  1.3988 -0.6812
  529MPD2     H 7856   4.372   0.241   1.162  0.1332  0.1423 -0.8499
  529MPD2    H1 7857   3.959   0.364   1.184  0.2534  0.1773  0.0017
  529MPD2    H2 7858   4.120   0.088   1.465 -0.7627 -0.9420 -0.3794
  529MPD2    H3 7859   3.934   0.234   1.367 -0.2107 -1.4293  0.6122
  529MPD2     N 7860   4.183   0.417   1.052 -0.6043  0.0473 -0.0549
  529MPD2    H5 7861   4.098   0.454   1.009  0.2739  3.2606  0.9802
  529MPD2    N1 7862   4.371   0.075   1.351 -0.7965  0.5450 -0.6594
  529MPD2    H7 7863   4.458   0.094   1.302 -0.0775 -0.3798  0.2434
  530TMC3    C1 7864   4.484   4.627   1.456 -0.1064  1.0651 -0.1418
  530TMC3    C2 7865   4.532   4.609   1.583 -0.1903 -0.3096  0.1433
  530TMC3    C3 7866   4.628   4.510   1.591 -0.0645 -0.1781 -0.2174
  530TMC3    C4 7867   4.545   4.572   1.345 -0.2272 -0.7778 -0.1086
  530TMC3    C5 7868   4.634   4.468   1.369  0.0386 -0.0433 -0.0658
  530TMC3    C6 7869   4.675   4.441   1.489 -0.5241 -0.2865  0.5110
  530TMC3     C 7870   4.363   4.708   1.455  0.0054 -0.8992 -0.1603
  530TMC3     O 7871   4.291   4.703   1.554  0.1859  0.4541  0.2810
  530TMC3     H 7872   4.508   4.672   1.668 -0.9602 -1.0330  0.4474
  530TMC3    H1 7873   4.507   4.580   1.243 -0.7242  0.9414  0.2105
  530TMC3    H2 7874   0.032   4.371   1.500 -2.2469 -2.5353 -0.9746
  530TMC3    C7 7875   4.685   4.385   1.257  0.5308 -0.1414  0.4317
  530TMC3    C8 7876   4.706   4.513   1.713 -0.6475  0.3350  0.1538
  530TMC3    O1 7877   0.006   4.438   1.155  0.6327 -0.4535  0.2281
  530TMC3    O2 7878   4.694   4.619   1.775  0.3566  0.5196  0.5239
  531MPD2     C 7879   2.841   3.035  13.198  0.3428 -0.0544 -0.4348
  531MPD2    C1 7880   2.734   2.959  13.248  0.0443  0.2555  1.1713
  531MPD2    C2 7881   2.700   2.845  13.174 -0.7114  0.6585  1.0392
  531MPD2    C3 7882   2.751   2.826  13.050  1.1737  0.3856 -0.0437
  531MPD2    C4 7883   2.844   2.911  12.997  0.2278  0.2977 -0.2460
  531MPD2    C5 7884   2.894   3.011  13.078 -0.0191 -0.3537 -0.4739
  531MPD2     H 7885   2.620   2.782  13.210 -1.4683  0.1056 -1.6077
  531MPD2    H1 7886   2.889   2.895  12.900 -2.5940  0.5596 -1.6111
  531MPD2    H2 7887   2.870   3.124  13.252  0.1830 -0.0010 -0.4351
  531MPD2    H3 7888   2.968   3.083  13.044  1.3931 -1.0175  1.2123
  531MPD2     N 7889   2.706   2.708  12.981 -0.5479  0.0790 -0.1059
  531MPD2    H5 7890   2.651   2.641  13.035 -0.0298 -0.5740 -0.3799
  531MPD2    N1 7891   2.702   2.974  13.386  0.3864 -0.2368 -0.5392
  531MPD2    H7 7892   2.734   3.054  13.440 -1.7518 -0.3130  0.8465
  532TMC3    C1 7893   2.591   2.937  13.587  0.0971  0.3814  0.2313
  532TMC3    C2 7894   2.477   2.877  13.628  0.8706 -0.5894  0.2233
  532TMC3    C3 7895   2.486   2.795  13.736 -0.4469  0.1064 -0.4157
  532TMC3    C4 7896   2.702   2.920  13.661  0.7515  0.4368 -0.9075
  532TMC3    C5 7897   2.699   2.860  13.782  0.0516  0.5630 -0.3857
  532TMC3    C6 7898   2.590   2.798  13.825 -0.5621 -0.5212 -0.1887
  532TMC3     C 7899   2.598   2.915  13.447  0.3815  0.4235 -0.0499
  532TMC3     O 7900   2.531   2.823  13.404 -0.3848 -0.0942 -0.4789
  532TMC3     H 7901   2.386   2.873  13.570  0.3241 -0.2985  1.0689
  532TMC3    H1 7902   2.797   2.965  13.636 -0.0934  2.5415 -0.3569
  532TMC3    H2 7903   2.603   2.714  13.893  0.4149  0.8298  1.2823
  532TMC3    C7 7904   2.825   2.815  13.844 -0.4308 -0.3081 -0.2594
  532TMC3    C8 7905   2.419   2.661  13.707  0.3761 -0.4865  0.0109
  532TMC3    O1 7906   2.811   2.796  13.965 -0.6780 -0.5859 -0.2304
  532TMC3    O2 7907   2.381   2.591  13.800 -0.1108 -0.4461  0.5225
  533TMC3    C1 7908   3.197   4.328  14.251 -0.3871  0.3870  0.4610
  533TMC3    C2 7909   3.322   4.374  14.233 -0.2671  0.1033 -0.0029
  533TMC3    C3 7910   3.376   4.454  14.328  0.7281  1.1772  0.0098
  533TMC3    C4 7911   3.126   4.368  14.364 -0.7201  0.1644  0.9153
  533TMC3    C5 7912   3.179   4.450  14.457  1.0856  0.2688  0.6342
  533TMC3    C6 7913   3.309   4.493  14.443  0.6080 -1.1012  0.5036
  533TMC3     C 7914   3.178   4.191  14.213 -0.4291 -0.0050 -0.3358
  533TMC3     O 7915   3.173   4.162  14.094  0.0280 -0.7132 -0.0059
  533TMC3     H 7916   3.380   4.326  14.155 -0.2630  3.1173 -1.8247
  533TMC3    H1 7917   3.025   4.328  14.366 -0.5869 -0.1499  1.3689
  533TMC3    H2 7918   3.356   4.560  14.514 -0.7867 -1.2734  1.5911
  533TMC3    C7 7919   3.168   4.383  14.579  0.0634 -0.4968  0.8532
  533TMC3    C8 7920   3.512   4.500  14.312  0.0560 -0.5829 -0.3445
  533TMC3    O1 7921   3.177   4.263  14.561 -0.4006  0.0785 -0.3178
  533TMC3    O2 7922   3.571   4.514  14.420 -0.3466 -0.2083 -0.2051
  534MPD2     C 7923   2.595   0.617   1.360 -0.2667 -0.2993  0.1598
  534MPD2    C1 7924   2.502   0.708   1.409 -0.1706  0.3656 -0.4922
  534MPD2    C2 7925   2.378   0.665   1.445 -0.1307 -0.5369 -0.7140
  534MPD2    C3 7926   2.349   0.533   1.438 -0.1148  0.7521 -0.9243
  534MPD2    C4 7927   2.446   0.445   1.392 -0.3395 -0.5006  0.3503
  534MPD2    C5 7928   2.573   0.485   1.358  0.3617 -0.5677  0.2458
  534MPD2     H 7929   2.313   0.743   1.484  0.7011 -1.4598  2.5138
  534MPD2    H1 7930   2.421   0.340   1.392 -2.8491  0.1028  1.7629
  534MPD2    H2 7931   2.687   0.657   1.319 -0.4150 -0.7391 -0.5911
  534MPD2    H3 7932   2.640   0.412   1.314  0.8053 -1.5098  2.4607
  534MPD2     N 7933   2.223   0.472   1.467  0.2123  0.6914 -0.0048
  534MPD2    H5 7934   2.222   0.371   1.463 -0.6393  0.6102  2.1479
  534MPD2    N1 7935   2.543   0.846   1.433 -0.5851 -0.3496  0.4694
  534MPD2    H7 7936   2.476   0.912   1.472 -0.1584  0.4682 -0.2044
  535TMC3    C1 7937   1.985   0.453   1.479 -0.1997 -0.4323  0.3848
  535TMC3    C2 7938   1.992   0.311   1.479 -0.4692 -0.2546 -0.8841
  535TMC3    C3 7939   1.878   0.240   1.447  0.5785  0.2366 -0.5684
  535TMC3    C4 7940   1.870   0.517   1.451 -0.0886 -0.2399 -0.0212
  535TMC3    C5 7941   1.759   0.449   1.418  0.1095  0.0507  1.2538
  535TMC3    C6 7942   1.758   0.311   1.417 -0.4208  0.3582  0.6433
  535TMC3     C 7943   2.104   0.537   1.490 -0.0443  0.2654  0.3204
  535TMC3     O 7944   2.073   0.654   1.511 -0.1182  0.0119 -0.1131
  535TMC3     H 7945   2.084   0.259   1.503 -0.7200 -0.1111  0.3732
  535TMC3    H1 7946   1.874   0.626   1.445 -1.9013 -0.0085  2.8655
  535TMC3    H2 7947   1.664   0.260   1.399 -0.3992  0.7931 -0.7030
  535TMC3    C7 7948   1.658   0.507   1.335 -0.1489 -0.7735  0.3000
  535TMC3    C8 7949   1.881   0.103   1.498 -0.7877  0.0887  0.5317
  535TMC3    O1 7950   1.593   0.434   1.264 -0.1826 -0.3115 -0.4489
  535TMC3    O2 7951   1.982   0.032   1.505 -0.2726  0.0270  0.3713
  536MPD2     C 7952   0.413   3.512  16.199  0.0153 -0.2496  0.3929
  536MPD2    C1 7953   0.294   3.470  16.253  0.1926  0.7854 -0.4834
  536MPD2    C2 7954   0.195   3.451  16.159 -0.0895 -0.6620  0.7685
  536MPD2    C3 7955   0.211   3.471  16.021  0.8715  0.1735 -0.3788
  536MPD2    C4 7956   0.340   3.493  15.974 -0.8983  0.2090 -0.1801
  536MPD2    C5 7957   0.435   3.514  16.067  0.1754  0.2459 -1.0664
  536MPD2     H 7958   0.097   3.419  16.193 -1.4153  3.8353  1.1672
  536MPD2    H1 7959   0.375   3.499  15.871 -0.3656 -0.3996 -0.0357
  536MPD2    H2 7960   0.495   3.544  16.262  0.0907 -0.0283  0.1827
  536MPD2    H3 7961   0.537   3.534  16.037  0.1297  0.1196 -1.3071
  536MPD2     N 7962   0.117   3.454  15.920  0.6625 -0.3931 -0.0176
  536MPD2    H5 7963   0.144   3.473  15.823  0.3325  3.4291  0.6253
  536MPD2    N1 7964   0.275   3.462  16.389 -0.5670  0.0329 -0.1978
  536MPD2    H7 7965   0.350   3.509  16.438  1.1358 -3.5703  0.6481
  537TMC3    C1 7966   0.185   3.378  16.594 -0.5130 -0.2200  0.2260
  537TMC3    C2 7967   0.305   3.401  16.654 -0.6988 -0.0515 -0.1139
  537TMC3    C3 7968   0.320   3.364  16.790 -0.0126  0.1855 -0.4734
  537TMC3    C4 7969   0.078   3.325  16.659 -0.1121  0.4574  0.1988
  537TMC3    C5 7970   0.099   3.294  16.788  0.1786  0.5903  0.1701
  537TMC3    C6 7971   0.218   3.306  16.858 -1.0090 -0.1883 -0.1242
  537TMC3     C 7972   0.162   3.421  16.454 -0.6162 -0.6768  0.3907
  537TMC3     O 7973   0.057   3.387  16.404  0.8930  0.1219 -0.4546
  537TMC3     H 7974   0.388   3.439  16.596 -0.7762 -2.5586 -1.8818
  537TMC3    H1 7975   4.712   3.294  16.609 -0.1868 -0.6800  1.0558
  537TMC3    H2 7976   0.218   3.297  16.966 -1.1002  1.9445  0.0702
  537TMC3    C7 7977   4.719   3.236  16.862  0.3735  0.3642 -0.4242
  537TMC3    C8 7978   0.416   3.439  16.869 -0.0331  0.0723 -0.5890
  537TMC3    O1 7979   4.604   3.263  16.828  0.1993  0.1763  0.0738
  537TMC3    O2 7980   0.412   3.399  16.986 -0.0285 -0.6293 -0.0915
  538TMC3    C1 7981   0.966   2.089  10.646 -0.1730 -0.0929  0.4046
  538TMC3    C2 7982   1.056   2.001  10.579  0.2218 -0.4896  0.4103
  538TMC3    C3 7983   1.012   1.956  10.456  0.2888 -0.4772  0.0043
  538TMC3    C4 7984   0.841   2.124  10.590  0.2456  0.7371 -0.2264
  538TMC3    C5 7985   0.816   2.078  10.461 -0.0750 -0.4965  1.0508
  538TMC3    C6 7986   0.901   1.996  10.396  0.0641  0.5393 -0.6075
  538TMC3     C 7987   1.003   2.154  10.774 -0.0919 -0.6483  0.6358
  538TMC3     O 7988   0.930   2.246  10.809 -0.0144 -0.2277 -0.2369
  538TMC3     H 7989   1.157   1.988  10.616  0.9820  0.2851 -1.3422
  538TMC3    H1 7990   0.772   2.192  10.640 -1.9783 -1.4322 -0.2976
  538TMC3    H2 7991   0.885   1.960  10.295 -0.2347  0.1403 -0.4171
  538TMC3    C7 7992   0.682   2.096  10.407 -0.1102  0.0734  0.4287
  538TMC3    C8 7993   1.085   1.845  10.398 -0.1492  0.2198 -0.1901
  538TMC3    O1 7994   0.603   2.155  10.478 -0.5046 -0.9347 -0.0818
  538TMC3    O2 7995   1.072   1.823  10.279 -0.3393  0.5387  0.3865
  539MPD2     C 7996   0.392   0.919  11.522 -0.0246 -0.0991  0.4375
  539MPD2    C1 7997   0.502   0.949  11.443 -0.2864 -0.1388 -0.3150
  539MPD2    C2 7998   0.505   1.076  11.392  0.1074 -0.5646 -0.7453
  539MPD2    C3 7999   0.404   1.162  11.407  0.4739 -0.1487 -0.2150
  539MPD2    C4 8000   0.296   1.127  11.486  0.2972  0.2661  0.2452
  539MPD2    C5 8001   0.291   1.004  11.543 -0.2341  0.3825 -0.2592
  539MPD2     H 8002   0.590   1.097  11.328  0.7847 -0.8921  0.0618
  539MPD2    H1 8003   0.213   1.197  11.495  0.0915 -0.0257  0.6047
  539MPD2    H2 8004   0.387   0.814  11.548  0.8772 -0.7408 -1.8776
  539MPD2    H3 8005   0.204   0.977  11.602  1.5328 -1.4609  1.4868
  539MPD2     N 8006   0.398   1.281  11.335  0.2331  0.3648 -0.9350
  539MPD2    H5 8007   0.320   1.341  11.360  0.0354 -0.6396  0.8196
  539MPD2    N1 8008   0.596   0.858  11.398 -0.2955 -0.9867  0.0575
  539MPD2    H7 8009   0.651   0.888  11.318  0.6620 -0.0332  1.0582
  540TMC3    C1 8010   0.451   1.443  11.184 -0.1173  0.5326  0.3328
  540TMC3    C2 8011   0.456   1.458  11.044 -0.4551  0.0349  0.1926
  540TMC3    C3 8012   0.434   1.584  11.000 -0.6231 -0.7649 -0.2286
  540TMC3    C4 8013   0.424   1.553  11.263 -0.1513  0.3233 -0.4205
  540TMC3    C5 8014   0.396   1.677  11.209  0.0080 -0.2457 -0.1261
  540TMC3    C6 8015   0.401   1.691  11.075 -0.5273  0.1503  0.0492
  540TMC3     C 8016   0.484   1.314  11.236 -0.2061  0.2447 -0.1809
  540TMC3     O 8017   0.565   1.253  11.169 -0.1505 -0.1029 -0.5333
  540TMC3     H 8018   0.477   1.371  10.983 -2.0464  0.7549 -1.3726
  540TMC3    H1 8019   0.426   1.542  11.371  2.1309  2.0045 -0.3008
  540TMC3    H2 8020   0.378   1.780  11.018  1.8815  0.8427  0.1673
  540TMC3    C7 8021   0.358   1.784  11.298  0.0536 -0.2169 -0.0820
  540TMC3    C8 8022   0.422   1.600  10.858  0.1070 -0.4219 -0.1859
  540TMC3    O1 8023   0.339   1.754  11.417 -0.0922 -0.2982 -0.4127
  540TMC3    O2 8024   0.464   1.700  10.799 -0.0126  0.3242  0.7639
  541MPD2     C 8025   4.068   3.041  13.028 -0.3119 -0.3536  0.0030
  541MPD2    C1 8026   4.046   2.939  12.937  0.4306  0.5164  0.0612
  541MPD2    C2 8027   3.991   2.964  12.808  0.3332  0.1973 -0.6395
  541MPD2    C3 8028   3.944   3.089  12.778 -0.3292 -0.5172  0.0173
  541MPD2    C4 8029   3.962   3.190  12.877 -0.1805  0.3851  0.0973
  541MPD2    C5 8030   4.017   3.168  12.998 -0.5520  0.6886 -0.1817
  541MPD2     H 8031   3.975   2.880  12.742 -2.3470  0.5456 -0.4307
  541MPD2    H1 8032   3.916   3.285  12.850 -1.4281  0.4186  2.3389
  541MPD2    H2 8033   4.119   3.024  13.122  0.0193  1.8617  0.2343
  541MPD2    H3 8034   4.019   3.254  13.064  3.8300  1.5814 -1.4666
  541MPD2     N 8035   3.881   3.123  12.655 -0.3613 -0.6112 -0.1836
  541MPD2    H5 8036   3.832   3.212  12.648 -1.0361 -0.9856 -0.2404
  541MPD2    N1 8037   4.098   2.814  12.977  0.7729 -0.2901 -0.1250
  541MPD2    H7 8038   4.139   2.814  13.070 -1.5473  1.1211  0.9019
  542TMC3    C1 8039   3.803   3.104  12.428 -0.0430 -0.2176 -0.5766
  542TMC3    C2 8040   3.836   3.067  12.302 -1.0620  0.3583 -0.1898
  542TMC3    C3 8041   3.778   3.136  12.204  1.4622  0.1706  0.0251
  542TMC3    C4 8042   3.706   3.190  12.459  0.1107  0.2237 -0.2053
  542TMC3    C5 8043   3.642   3.250  12.357  0.2302 -0.0743  0.1393
  542TMC3    C6 8044   3.688   3.240  12.226  0.1719  0.6097 -0.2093
  542TMC3     C 8045   3.879   3.043  12.539 -0.3239  0.0643  0.4890
  542TMC3     O 8046   3.952   2.947  12.517 -0.0141 -0.4807 -0.1614
  542TMC3     H 8047   3.908   2.988  12.284  0.4391  1.4151  1.2463
  542TMC3    H1 8048   3.675   3.202  12.562  2.5186 -3.0464  0.9198
  542TMC3    H2 8049   3.646   3.291  12.140  2.5843 -1.4887 -2.6392
  542TMC3    C7 8050   3.521   3.325  12.389 -0.5320 -0.4534  0.1437
  542TMC3    C8 8051   3.798   3.104  12.066 -0.0890 -0.6110  0.3273
  542TMC3    O1 8052   3.527   3.406  12.481 -0.3002 -0.2697 -0.6581
  542TMC3    O2 8053   3.709   3.135  11.988 -0.0092  0.5596  0.3642
  543TMC3    C1 8054   3.525   4.285  17.324 -0.5346  0.2372 -0.3881
  543TMC3    C2 8055   3.501   4.150  17.324  0.4475  0.2464  0.0131
  543TMC3    C3 8056   3.455   4.099  17.444 -0.6098  0.0147 -0.0045
  543TMC3    C4 8057   3.495   4.359  17.430  0.2690 -0.5108  0.2044
  543TMC3    C5 8058   3.455   4.301  17.546  0.1914 -0.2280 -0.5095
  543TMC3    C6 8059   3.426   4.169  17.561  0.5738 -0.3827 -0.2946
  543TMC3     C 8060   3.580   4.351  17.205  0.0335 -0.5087  0.3808
  543TMC3     O 8061   3.556   4.469  17.191  0.0337  0.4717 -0.0630
  543TMC3     H 8062   3.518   4.087  17.238  3.2297 -0.4160  1.0295
  543TMC3    H1 8063   3.523   4.463  17.434 -0.8902 -0.2316  1.2553
  543TMC3    H2 8064   3.399   4.126  17.657 -1.8880  0.1290 -0.7702
  543TMC3    C7 8065   3.478   4.382  17.663  0.2401  0.1769 -0.3746
  543TMC3    C8 8066   3.446   3.958  17.443  0.7466  0.3684 -0.1008
  543TMC3    O1 8067   3.580   4.452  17.653  0.3427  0.4212  0.3252
  543TMC3    O2 8068   3.510   3.902  17.355 -0.1618 -0.4809 -0.2349
  544MPD2     C 8069   3.281   3.504  17.645  0.0709  0.5445 -0.3338
  544MPD2    C1 8070   3.387   3.537  17.558 -0.6537 -0.1496  0.0270
  544MPD2    C2 8071   3.418   3.668  17.524 -0.7339 -0.4288 -0.2846
  544MPD2    C3 8072   3.338   3.770  17.574 -0.1128  0.2684  0.5810
  544MPD2    C4 8073   3.227   3.743  17.651  0.3003  0.3569 -0.5451
  544MPD2    C5 8074   3.211   3.613  17.697  1.0546 -0.2183  0.1926
  544MPD2     H 8075   3.505   3.693  17.464 -0.6066  0.7927  0.4106
  544MPD2    H1 8076   3.154   3.820  17.672  2.0535  1.3183  1.9792
  544MPD2    H2 8077   3.261   3.402  17.674 -0.3287  0.8051  0.3051
  544MPD2    H3 8078   3.131   3.589   0.064 -0.4711  1.8892 -0.8439
  544MPD2     N 8079   3.356   3.910  17.539 -0.3099  0.3984  0.2687
  544MPD2    H5 8080   3.294   3.976  17.584 -1.2090  0.7439 -1.4735
  544MPD2    N1 8081   3.460   3.427  17.502 -0.2852 -0.5978 -0.4034
  544MPD2    H7 8082   3.435   3.337  17.544  3.0003 -2.2171 -1.9416
  545TMC3    C1 8083   3.591   3.311  17.329  0.1261  0.3975 -0.0885
  545TMC3    C2 8084   3.629   3.303  17.195  0.2147 -0.5328 -0.2553
  545TMC3    C3 8085   3.696   3.192  17.148  0.3585 -0.2049  0.2285
  545TMC3    C4 8086   3.623   3.212  17.415  0.1205  1.0746 -0.2491
  545TMC3    C5 8087   3.700   3.109  17.371  0.2498  0.0034  0.4530
  545TMC3    C6 8088   3.729   3.089  17.232  0.4073 -0.0745  0.4877
  545TMC3     C 8089   3.536   3.432  17.386  0.1522  0.5145 -0.2857
  545TMC3     O 8090   3.546   3.529  17.312 -0.0013  0.1046 -0.8576
  545TMC3     H 8091   3.586   3.383  17.135 -0.1488 -0.6552 -0.1599
  545TMC3    H1 8092   3.606   3.222  17.522 -0.1755  2.1078 -0.3961
  545TMC3    H2 8093   3.782   2.999  17.203 -0.0105 -0.1295 -0.0948
  545TMC3    C7 8094   3.704   2.990  17.458  0.1972  0.4989 -0.3413
  545TMC3    C8 8095   3.774   3.208  17.027 -0.0198  0.5068  0.1248
  545TMC3    O1 8096   3.614   2.980  17.540  0.2791 -0.2058  0.2118
  545TMC3    O2 8097   3.787   3.322  16.987 -0.1491  0.4125  0.5711
  546MPD2     C 8098   0.067   3.841   0.192 -0.2240  0.0956  0.0330
  546MPD2    C1 8099   0.083   3.840   0.055  0.1507 -0.1380  0.4908
  546MPD2    C2 8100   0.130   3.958  17.694  0.2803  0.2975 -0.1564
  546MPD2    C3 8101   0.172   4.071   0.062  0.1139  0.3370  0.4567
  546MPD2    C4 8102   0.166   4.061   0.199  0.3703  0.0823  0.2143
  546MPD2    C5 8103   0.114   3.953   0.259  0.2035 -0.2873 -0.1582
  546MPD2     H 8104   0.135   3.966  17.586  0.1052  1.4448 -0.0812
  546MPD2    H1 8105   0.198   4.138   0.268 -0.6714  0.5512  0.1801
  546MPD2    H2 8106   0.041   3.752   0.248  5.2945 -1.8435 -0.5264
  546MPD2    H3 8107   0.101   3.950   0.367 -0.5696  2.6264 -0.1624
  546MPD2     N 8108   0.230   4.186  17.700 -0.6659  0.0975  0.3048
  546MPD2    H5 8109   0.246   4.262   0.064  2.3808  0.0992 -0.4529
  546MPD2    N1 8110   0.045   3.724  17.698 -0.1977 -0.0643 -0.4443
  546MPD2    H7 8111   0.017   3.645   0.053 -0.5618  1.2595  1.1862
  547TMC3    C1 8112   0.002   3.578  17.514 -0.6937 -0.3205  0.2192
  547TMC3    C2 8113   0.025   3.541  17.390 -0.2336 -0.1122  0.7004
  547TMC3    C3 8114   4.676   3.439  17.338 -0.3750  0.1466 -0.0844
  547TMC3    C4 8115   4.633   3.520  17.594 -0.9459  0.3152  0.1765
  547TMC3    C5 8116   4.564   3.415  17.531 -0.5137 -0.8566 -0.4442
  547TMC3    C6 8117   4.582   3.370  17.405 -0.1329  0.5839 -0.8996
  547TMC3     C 8118   0.044   3.712  17.556 -0.5441  0.8815  0.0171
  547TMC3     O 8119   0.075   3.777  17.455 -0.4529 -0.0592  0.5063
  547TMC3     H 8120   0.109   3.591  17.345  0.1839 -1.5391 -0.1139
  547TMC3    H1 8121   4.593   3.566  17.683  0.1174  2.1047 -0.2620
  547TMC3    H2 8122   4.520   3.289  17.371  1.9519 -2.2766  2.0266
  547TMC3    C7 8123   4.497   3.331  17.629  0.0176  0.2017  0.1438
  547TMC3    C8 8124   4.652   3.443  17.186 -0.6982 -0.3064 -0.4754
  547TMC3    O1 8125   4.485   3.370   0.043  0.4462  1.1289 -0.1722
  547TMC3    O2 8126   4.554   3.387  17.138 -0.0762  0.8125  0.7872
  548MPD2     C 8127   4.255   0.134  12.260  0.9890 -0.0276  0.2827
  548MPD2    C1 8128   4.177   0.030  12.297 -0.0199 -0.1154  0.6228
  548MPD2    C2 8129   4.238   4.630  12.287 -0.0989 -0.0248 -0.1160
  548MPD2    C3 8130   4.373   4.611  12.246  0.0441  0.3205  1.1162
  548MPD2    C4 8131   4.451   4.724  12.208  0.3637  0.0025  0.1207
  548MPD2    C5 8132   4.384   0.120  12.214  0.1584  0.2983  0.5343
  548MPD2     H 8133   4.181   4.543  12.314 -0.9517  0.7358  0.5336
  548MPD2    H1 8134   4.555   4.723  12.178  0.4122  1.9971  0.2683
  548MPD2    H2 8135   4.221   0.237  12.274  1.5911  0.1744  0.2546
  548MPD2    H3 8136   4.430   0.218  12.209 -0.6142  0.6193 -0.4307
  548MPD2     N 8137   4.420   4.477  12.229 -0.5928  0.1040 -0.1975
  548MPD2    H5 8138   4.354   4.401  12.228 -1.1956  0.5909  2.1652
  548MPD2    N1 8139   4.039   0.056  12.319 -0.0942 -0.1730  0.1358
  548MPD2    H7 8140   4.010   0.154  12.319  0.6498  0.0353 -1.8456
  549TMC3    C1 8141   3.810   4.719  12.330  0.1966  0.1820  0.5684
  549TMC3    C2 8142   3.778   0.120  12.279 -0.5056 -0.4943 -0.1849
  549TMC3    C3 8143   3.647   0.154  12.255 -0.3451  0.5502 -0.3878
  549TMC3    C4 8144   3.714   4.625  12.347  0.4074 -0.2358 -0.6194
  549TMC3    C5 8145   3.588   4.661  12.313  0.7041 -0.5239 -0.0148
  549TMC3    C6 8146   3.552   0.061  12.276  0.5009 -0.3155 -0.1096
  549TMC3     C 8147   3.949   4.677  12.333  0.4527  0.0784 -0.0334
  549TMC3     O 8148   3.966   4.554  12.339 -0.0530 -0.5741  0.4749
  549TMC3     H 8149   3.853   0.196  12.259 -0.5826 -0.1342  0.8756
  549TMC3    H1 8150   3.742   4.534  12.399  1.4975 -0.1362 -1.0377
  549TMC3    H2 8151   3.449   0.086  12.251  1.1114  0.1140 -2.2488
  549TMC3    C7 8152   3.486   4.569  12.341 -0.1661 -0.2412  0.1393
  549TMC3    C8 8153   3.614   0.265  12.170 -0.7070 -0.2731  0.8362
  549TMC3    O1 8154   3.371   4.602  12.363 -0.3047 -0.4418 -0.0719
  549TMC3    O2 8155   3.519   0.258  12.096  0.3632 -0.1491 -0.4970
  550TMC3    C1 8156   3.280   2.595  12.488  0.0527 -0.1878  0.4383
  550TMC3    C2 8157   3.336   2.694  12.564 -0.1157  0.3668  0.7871
  550TMC3    C3 8158   3.327   2.825  12.519 -0.4786 -0.3806 -0.2489
  550TMC3    C4 8159   3.230   2.631  12.368  0.2824  0.8118  0.2024
  550TMC3    C5 8160   3.238   2.759  12.319 -0.3857 -0.3083 -0.5538
  550TMC3    C6 8161   3.263   2.858  12.404 -0.1297 -0.1322  0.2429
  550TMC3     C 8162   3.210   2.491  12.553 -0.2638 -0.1005  0.0562
  550TMC3     O 8163   3.264   2.400  12.614 -0.1185 -0.2369 -0.2029
  550TMC3     H 8164   3.372   2.669  12.663  1.8107 -1.1881 -0.3126
  550TMC3    H1 8165   3.192   2.558  12.298 -0.6582  0.3166  1.2176
  550TMC3    H2 8166   3.256   2.962  12.374 -0.8061  0.1830  1.4761
  550TMC3    C7 8167   3.130   2.795  12.233  0.2613  0.5323 -0.7315
  550TMC3    C8 8168   3.332   2.930  12.626  0.6808 -0.7904  0.6379
  550TMC3    O1 8169   3.031   2.724  12.250  0.5757 -0.6654  0.0378
  550TMC3    O2 8170   3.410   2.908  12.716 -0.1323 -0.2431 -0.9786
  551TMC3    C1 8171   1.311   0.374  13.473 -0.2700  0.3041 -0.3038
  551TMC3    C2 8172   1.386   0.475  13.421  0.7903 -0.3972 -0.8315
  551TMC3    C3 8173   1.470   0.541  13.506  0.3097  0.2936  0.2211
  551TMC3    C4 8174   1.335   0.317  13.599 -0.1619 -0.2403  0.2481
  551TMC3    C5 8175   1.427   0.382  13.677 -0.3943 -0.2042  0.4000
  551TMC3    C6 8176   1.490   0.491  13.633 -1.0335 -0.7128  0.0253
  551TMC3     C 8177   1.222   0.292  13.390  0.1495 -0.1985  0.4206
  551TMC3     O 8178   1.238   0.290  13.268 -0.2899 -0.0066  0.0762
  551TMC3     H 8179   1.354   0.508  13.323  1.7294 -0.0217 -1.0091
  551TMC3    H1 8180   1.282   0.229  13.636  0.1833 -0.8948 -0.8083
  551TMC3    H2 8181   1.552   0.559  13.690 -2.5632 -0.4136  1.3523
  551TMC3    C7 8182   1.422   0.377  13.829 -0.4065 -0.8766 -0.0113
  551TMC3    C8 8183   1.566   0.648  13.467  0.7969  0.1846  0.0472
  551TMC3    O1 8184   1.453   0.477  13.894 -0.1657 -0.0465  0.1882
  551TMC3    O2 8185   1.683   0.633  13.504  0.2858  0.2941 -1.1117
  552MPD2     C 8186   2.842   2.486  14.103  0.0759 -0.3465  0.1796
  552MPD2    C1 8187   2.872   2.347  14.104 -0.5801  0.2596  0.1208
  552MPD2    C2 8188   2.957   2.290  14.200  0.5871 -0.3447  0.0665
  552MPD2    C3 8189   3.026   2.378  14.285  0.3740 -0.0700 -0.7095
  552MPD2    C4 8190   2.993   2.514  14.285  0.3242 -0.3796 -0.1865
  552MPD2    C5 8191   2.901   2.566  14.193  0.1922 -0.7704 -0.3670
  552MPD2     H 8192   2.986   2.185  14.196  1.9251  0.0102  0.2647
  552MPD2    H1 8193   3.038   2.580  14.358  1.1359 -0.1028 -0.9280
  552MPD2    H2 8194   2.771   2.534  14.035  0.3042  0.5970  0.6022
  552MPD2    H3 8195   2.864   2.668  14.202 -0.4683 -0.9939 -0.5653
  552MPD2     N 8196   3.113   2.340  14.388  1.1454  0.1854  0.2346
  552MPD2    H5 8197   3.160   2.415  14.437  0.1530 -0.6203  2.4011
  552MPD2    N1 8198   2.817   2.258  14.014 -0.1868 -0.3435 -0.2282
  552MPD2    H7 8199   2.827   2.162  14.044 -1.8013  0.3324  2.4826
  553TMC3    C1 8200   2.701   2.177  13.824  0.0965 -0.0992 -0.0012
  553TMC3    C2 8201   2.638   2.207  13.706  0.2991 -0.2451  0.3009
  553TMC3    C3 8202   2.636   2.120  13.605  0.7538 -0.5494 -0.2542
  553TMC3    C4 8203   2.762   2.058  13.845 -0.1501  0.7773 -0.3708
  553TMC3    C5 8204   2.750   1.971  13.737  0.2399  0.6007  0.3468
  553TMC3    C6 8205   2.677   1.991  13.623  0.5307  0.0306  0.2913
  553TMC3     C 8206   2.753   2.292  13.894  0.4818 -0.0740  0.0539
  553TMC3     O 8207   2.755   2.397  13.829 -0.2354  0.4724  0.3443
  553TMC3     H 8208   2.604   2.306  13.678 -1.0513 -0.7370  0.1715
  553TMC3    H1 8209   2.840   2.048  13.919  1.7487 -1.2986 -2.6652
  553TMC3    H2 8210   2.695   1.916  13.548  1.7023  0.1236  0.4865
  553TMC3    C7 8211   2.838   1.856  13.734  0.1742  0.3001 -0.0715
  553TMC3    C8 8212   2.698   2.175  13.483  0.0984  0.1473  0.4054
  553TMC3    O1 8213   2.785   1.749  13.704 -0.2530  0.4364  0.2214
  553TMC3    O2 8214   2.739   2.292  13.486 -0.4269 -0.3586  0.1258
  554TMC3    C1 8215   4.257   1.114  11.631 -0.6166  0.0768 -0.1711
  554TMC3    C2 8216   4.183   1.073  11.519 -0.2760 -0.2244  0.9102
  554TMC3    C3 8217   4.176   1.152  11.409 -0.9200  0.2939 -0.1428
  554TMC3    C4 8218   4.315   1.243  11.627 -0.3305 -0.6027 -0.5489
  554TMC3    C5 8219   4.304   1.315  11.513 -0.0193 -0.2755 -0.4549
  554TMC3    C6 8220   4.244   1.271  11.397  0.7754  0.5523 -0.1933
  554TMC3     C 8221   4.280   1.016  11.733 -0.6398  0.3753  0.4292
  554TMC3     O 8222   4.208   0.918  11.727  0.7889 -0.2705  0.6952
  554TMC3     H 8223   4.133   0.977  11.520 -1.4170  0.3368 -1.9026
  554TMC3    H1 8224   4.365   1.282  11.715  1.2650 -2.0274 -0.8346
  554TMC3    H2 8225   4.252   1.322  11.302 -0.6466  1.7411  0.3228
  554TMC3    C7 8226   4.385   1.440  11.505  0.8683 -0.5345 -1.0161
  554TMC3    C8 8227   4.135   1.097  11.280 -0.6893 -0.2481 -0.5742
  554TMC3    O1 8228   4.388   1.502  11.611  0.4728  0.4204  0.7828
  554TMC3    O2 8229   4.173   1.158  11.180  0.3386 -0.3610 -0.5684
  555TMC3    C1 8230   3.706   0.684  14.770  0.0868 -0.2451 -0.0300
  555TMC3    C2 8231   3.679   0.758  14.883  0.3387  0.4489  0.8863
  555TMC3    C3 8232   3.635   0.692  14.993 -0.5658  0.6708  1.0112
  555TMC3    C4 8233   3.687   0.548  14.761 -0.3206 -0.7153  0.4703
  555TMC3    C5 8234   3.649   0.485  14.882 -0.5469 -0.5004 -0.1765
  555TMC3    C6 8235   3.620   0.558  14.994 -0.5122 -0.0354 -0.3279
  555TMC3     C 8236   3.761   0.753  14.653  0.0805 -0.7358 -0.3744
  555TMC3     O 8237   3.818   0.682  14.569 -0.4268  0.0031  0.3798
  555TMC3     H 8238   3.690   0.863  14.906 -0.5202  0.5955  0.6115
  555TMC3    H1 8239   3.711   0.504  14.665  1.3386 -1.8783  1.4079
  555TMC3    H2 8240   3.590   0.510  15.086 -3.9830 -0.4042 -1.6625
  555TMC3    C7 8241   3.620   0.346  14.891 -0.2409 -1.3481 -0.3153
  555TMC3    C8 8242   3.566   0.773  15.096  0.0675 -0.1352  0.2912
  555TMC3    O1 8243   3.536   0.325  14.978 -0.2561  0.2751  0.2361
  555TMC3    O2 8244   3.499   0.867  15.062 -0.2244 -0.1299 -0.6063
  556MPD2     C 8245   1.985   2.091  11.202  1.4154 -0.0335 -0.5245
  556MPD2    C1 8246   1.853   2.076  11.169 -0.6316  0.3960 -0.5563
  556MPD2    C2 8247   1.821   1.947  11.115  0.4341  0.6193  0.0177
  556MPD2    C3 8248   1.914   1.844  11.099  0.5271  0.1215  0.1563
  556MPD2    C4 8249   2.046   1.869  11.138 -0.4881 -0.4242  0.1006
  556MPD2    C5 8250   2.080   1.989  11.187 -0.1054 -0.0685 -0.2777
  556MPD2     H 8251   1.721   1.917  11.088  0.5370  0.6331 -0.3838
  556MPD2    H1 8252   2.126   1.797  11.149  1.4113  2.0406  2.3450
  556MPD2    H2 8253   2.019   2.182  11.251 -0.1128  0.0266  0.4298
  556MPD2    H3 8254   2.180   2.007  11.224  0.0379  0.3511 -0.8610
  556MPD2     N 8255   1.859   1.724  11.048 -0.7279  0.3020  0.0909
  556MPD2    H5 8256   1.763   1.741  11.021 -0.7598 -1.3077 -0.7934
  556MPD2    N1 8257   1.761   2.181  11.191 -0.4114 -0.0087 -0.2353
  556MPD2    H7 8258   1.802   2.271  11.214  0.5992 -0.8961  1.4209
  557TMC3    C1 8259   1.858   1.515  10.948  0.2249  0.0696 -0.2043
  557TMC3    C2 8260   1.936   1.433  10.871  0.0409 -0.4294  0.7059
  557TMC3    C3 8261   1.889   1.370  10.764 -0.3909  0.8970  0.0964
  557TMC3    C4 8262   1.725   1.528  10.921  0.0237  0.0102  0.5185
  557TMC3    C5 8263   1.672   1.457  10.818  0.1650 -0.4736 -0.4400
  557TMC3    C6 8264   1.755   1.385  10.737 -0.0771  0.2998 -0.1824
  557TMC3     C 8265   1.931   1.610  11.029 -0.0074 -0.3567  0.6636
  557TMC3     O 8266   2.040   1.583  11.074 -0.1887 -0.0476  0.1534
  557TMC3     H 8267   2.031   1.396  10.908  0.2586 -0.9190 -0.3233
  557TMC3    H1 8268   1.660   1.594  10.977  0.3901 -0.0951  1.0778
  557TMC3    H2 8269   1.719   1.333  10.649 -0.7663  0.5194 -0.0316
  557TMC3    C7 8270   1.565   1.532  10.752 -0.4475  0.4537  0.0683
  557TMC3    C8 8271   1.979   1.274  10.688 -0.0143 -0.3509 -0.3203
  557TMC3    O1 8272   1.562   1.652  10.785  0.0440  0.1448 -0.0169
  557TMC3    O2 8273   2.070   1.211  10.739  0.7838 -0.2114 -0.1377
  558TMC3    C1 8274   4.210   0.104  10.328 -0.5732 -0.6001 -0.3701
  558TMC3    C2 8275   4.079   0.087  10.359 -0.0404  0.7775 -0.2823
  558TMC3    C3 8276   3.995   0.037  10.260 -0.2974  0.0596  0.2702
  558TMC3    C4 8277   4.254   0.082  10.197  0.7077  0.3759 -0.8045
  558TMC3    C5 8278   4.165   0.031  10.107  0.3484  0.4022 -0.3860
  558TMC3    C6 8279   4.040   4.723  10.139  0.3278 -0.7441 -0.1698
  558TMC3     C 8280   4.309   0.126  10.422 -0.4250 -0.5619 -0.7092
  558TMC3     O 8281   4.423   0.099  10.387  0.3051 -0.4360  0.8521
  558TMC3     H 8282   4.033   0.121  10.451  0.6576  0.1923  0.2764
  558TMC3    H1 8283   4.359   0.083  10.171  1.2572  0.3042  1.3552
  558TMC3    H2 8284   3.979   4.686  10.057  1.0491 -0.0778 -1.0041
  558TMC3    C7 8285   4.229   4.723   9.975  0.0205  0.3492 -0.4145
  558TMC3    C8 8286   3.860   4.722  10.287  0.5791  0.7557  0.4339
  558TMC3    O1 8287   4.322   0.066   9.942  0.5141 -0.0914  0.5114
  558TMC3    O2 8288   3.789   4.689  10.191  0.2647  0.4049 -0.2387
  559MPD2     C 8289   4.082   0.411  10.236 -0.4959 -0.2638 -0.1486
  559MPD2    C1 8290   3.990   0.394  10.338 -0.0925 -0.1750 -0.0833
  559MPD2    C2 8291   4.032   0.426  10.469  0.1320  0.3577  0.6438
  559MPD2    C3 8292   4.148   0.489  10.488 -0.1843 -0.0493  0.7204
  559MPD2    C4 8293   4.239   0.499  10.386 -0.0369 -0.5341 -0.2873
  559MPD2    C5 8294   4.207   0.458  10.260 -0.4197  0.1201  0.6053
  559MPD2     H 8295   3.968   0.424  10.557 -0.2397  0.3645  0.3762
  559MPD2    H1 8296   4.337   0.544  10.401 -0.6816  1.3985 -1.9032
  559MPD2    H2 8297   4.057   0.407  10.130  1.5542  1.1731 -0.6931
  559MPD2    H3 8298   4.279   0.476  10.181 -0.3285  1.4148  0.9918
  559MPD2     N 8299   4.172   0.534  10.617  0.3446  0.5232 -0.5395
  559MPD2    H5 8300   4.091   0.530  10.679  0.1031 -0.6596 -0.9292
  559MPD2    N1 8301   3.868   0.352  10.289 -0.2509  0.2013 -0.1551
  559MPD2    H7 8302   3.853   0.326  10.192 -0.1204  0.5046 -0.2562
  560TMC3    C1 8303   4.288   0.606  10.809 -0.5998 -0.7941 -0.4979
  560TMC3    C2 8304   4.179   0.564  10.882 -0.9584  0.2493 -0.9195
  560TMC3    C3 8305   4.179   0.604  11.014 -0.4526  0.1786 -0.0948
  560TMC3    C4 8306   4.399   0.664  10.853 -0.2702 -0.8306  1.0837
  560TMC3    C5 8307   4.405   0.673  10.986 -0.3218  0.1455  0.5852
  560TMC3    C6 8308   4.292   0.649  11.064  0.3653 -0.1327 -0.0462
  560TMC3     C 8309   4.295   0.583  10.670  0.0743 -0.5665  0.5487
  560TMC3     O 8310   4.407   0.582  10.618 -0.5746 -0.0730 -0.2040
  560TMC3     H 8311   4.092   0.512  10.844 -0.1029 -1.4089 -0.6367
  560TMC3    H1 8312   4.487   0.671  10.791 -0.6295  1.7368  0.8798
  560TMC3    H2 8313   4.291   0.672  11.170 -1.6739  3.3395 -0.8273
  560TMC3    C7 8314   4.534   0.677  11.054  0.7150  0.2021 -0.2124
  560TMC3    C8 8315   4.110   0.509  11.096 -0.3682  0.0576  0.3850
  560TMC3    O1 8316   4.515   0.657  11.172  0.1352  0.3131 -0.1088
  560TMC3    O2 8317   3.999   0.473  11.053 -0.3460 -0.3757  0.0413
  561TMC3    C1 8318   2.354   4.238  11.407 -0.0187 -0.1899  0.8339
  561TMC3    C2 8319   2.314   4.165  11.514 -0.1044 -0.8446  0.0908
  561TMC3    C3 8320   2.174   4.158  11.525  0.5227  0.2698 -0.4429
  561TMC3    C4 8321   2.276   4.303  11.321 -0.3622  0.0592  0.7022
  561TMC3    C5 8322   2.143   4.277  11.326  0.3550 -0.2884 -0.6260
  561TMC3    C6 8323   2.087   4.218  11.437  0.0688 -0.2383  0.2439
  561TMC3     C 8324   2.490   4.279  11.411 -0.0697  0.3570 -0.1800
  561TMC3     O 8325   2.563   4.191  11.445  0.5988 -0.4489  0.3136
  561TMC3     H 8326   2.380   4.110  11.580 -0.0647  1.0652  1.6414
  561TMC3    H1 8327   2.314   4.352  11.232  0.8992 -0.5607  0.9040
  561TMC3    H2 8328   1.982   4.190  11.435 -0.3409  1.3639 -0.2083
  561TMC3    C7 8329   2.055   4.328  11.221 -0.1621  0.5553 -0.5078
  561TMC3    C8 8330   2.123   4.131  11.659  0.0777 -0.2834 -0.2573
  561TMC3    O1 8331   1.942   4.357  11.250  0.0191  0.1999 -0.0316
  561TMC3    O2 8332   2.197   4.075  11.735  0.8418  0.8638 -0.0017
  562TMC3    C1 8333   3.604   1.110  16.306 -0.0745  0.4354  0.6173
  562TMC3    C2 8334   3.497   1.165  16.237 -0.0743 -0.0195  0.3548
  562TMC3    C3 8335   3.447   1.099  16.130 -0.1960  0.3595  0.0088
  562TMC3    C4 8336   3.647   0.982  16.287 -0.3909  0.1293  0.5846
  562TMC3    C5 8337   3.586   0.916  16.182 -0.2214 -0.0809 -0.0330
  562TMC3    C6 8338   3.491   0.975  16.099  0.5494  0.3531  0.3331
  562TMC3     C 8339   3.678   1.185  16.408 -0.4704  0.8944 -0.8416
  562TMC3     O 8340   3.624   1.290  16.445 -0.6784  0.2149 -0.1895
  562TMC3     H 8341   3.464   1.265  16.263  1.6466  0.1180  2.0649
  562TMC3    H1 8342   3.690   0.928  16.370  0.2744  0.1271  0.2369
  562TMC3    H2 8343   3.438   0.912  16.027  1.9149 -1.3242  0.7880
  562TMC3    C7 8344   3.623   0.779  16.160  0.7095  0.2500 -0.6656
  562TMC3    C8 8345   3.373   1.183  16.036 -0.4472  0.2944 -0.8945
  562TMC3    O1 8346   3.552   0.710  16.083  0.2929  0.1493 -0.0393
  562TMC3    O2 8347   3.319   1.283  16.084 -0.2170 -0.0382 -0.2749
  563MPD2     C 8348   0.929   2.377  15.569  0.1825 -0.5375 -0.7182
  563MPD2    C1 8349   0.970   2.422  15.692  0.7620 -0.2304  0.0890
  563MPD2    C2 8350   1.093   2.376  15.741 -0.7863 -0.4103 -0.3119
  563MPD2    C3 8351   1.160   2.284  15.668  0.5212 -0.8359  0.5618
  563MPD2    C4 8352   1.116   2.254  15.539  0.6465  0.4197 -0.9113
  563MPD2    C5 8353   0.995   2.282  15.499 -0.1621 -0.4931 -0.4694
  563MPD2     H 8354   1.136   2.398  15.838 -0.7670 -1.4666 -0.0823
  563MPD2    H1 8355   1.163   2.184  15.471 -0.8831  0.3341 -1.8783
  563MPD2    H2 8356   0.835   2.413  15.529  0.5414  0.6746 -0.4660
  563MPD2    H3 8357   0.951   2.231  15.413 -0.6688  0.7017 -0.9189
  563MPD2     N 8358   1.268   2.223  15.720  0.3316  0.3468 -0.0841
  563MPD2    H5 8359   1.295   2.259  15.811 -0.9046  1.1032 -0.0082
  563MPD2    N1 8360   0.894   2.515  15.755  0.2940  0.2898  0.6259
  563MPD2    H7 8361   0.798   2.523  15.725  0.5596  0.3273 -0.2251
  564TMC3    C1 8362   0.848   2.540  15.978 -0.2177 -1.2379  0.0384
  564TMC3    C2 8363   0.726   2.482  15.942 -0.1285 -0.0457 -1.0883
  564TMC3    C3 8364   0.671   2.374  16.011  0.3873  0.0968 -0.1522
  564TMC3    C4 8365   0.909   2.494  16.092  0.1863  0.3595 -0.3228
  564TMC3    C5 8366   0.852   2.385  16.153  0.0896 -0.0877  0.5435
  564TMC3    C6 8367   0.735   2.328  16.123 -0.1812  0.2586 -0.1180
  564TMC3     C 8368   0.942   2.573  15.872 -0.3171 -0.7492  0.5685
  564TMC3     O 8369   1.052   2.613  15.904  0.4086  0.4643 -0.1411
  564TMC3     H 8370   0.667   2.520  15.859 -0.5583 -0.1924 -0.8509
  564TMC3    H1 8371   1.012   2.522  16.109  0.0467 -0.0573  1.1793
  564TMC3    H2 8372   0.699   2.242  16.179 -0.2796  0.5094  0.2030
  564TMC3    C7 8373   0.952   2.283  16.164  0.1155 -0.5476 -0.4683
  564TMC3    C8 8374   0.616   2.260  15.943 -0.0193  0.0996 -0.5312
  564TMC3    O1 8375   1.063   2.298  16.226  0.1979  0.3697 -0.0963
  564TMC3    O2 8376   0.543   2.181  16.001 -0.8292  0.9600 -0.2903
  565TMC3    C1 8377   1.259   3.456  10.076 -0.1606 -0.3464 -0.6869
  565TMC3    C2 8378   1.247   3.388  10.197  0.0812 -0.5713  0.2587
  565TMC3    C3 8379   1.120   3.341  10.229 -0.1564  0.0342  0.3599
  565TMC3    C4 8380   1.147   3.484  10.000 -0.3573 -0.0272  0.1193
  565TMC3    C5 8381   1.027   3.432  10.031 -0.0638 -0.0533 -0.0794
  565TMC3    C6 8382   1.012   3.352  10.142 -0.1777  0.3439 -0.4989
  565TMC3     C 8383   1.383   3.531  10.044 -0.3926  0.3770  0.0293
  565TMC3     O 8384   1.381   3.609   9.951  0.4551 -0.2297  0.1529
  565TMC3     H 8385   1.321   3.382  10.275  0.6776 -2.3889 -0.4316
  565TMC3    H1 8386   1.163   3.548   9.913  0.7592 -0.3417  0.0856
  565TMC3    H2 8387   0.911   3.364  10.180  0.2488 -1.5029  1.2091
  565TMC3    C7 8388   0.906   3.460   9.953  0.8191 -0.3265 -0.3077
  565TMC3    C8 8389   1.112   3.220  10.309  0.6515 -0.0593 -0.2142
  565TMC3    O1 8390   0.811   3.381   9.965 -0.1930 -0.5954  0.5046
  565TMC3    O2 8391   1.201   3.189  10.387 -0.1009 -0.4891  0.1110
  566MPD2     C 8392   2.903   0.953  14.282 -0.1941  0.0907 -0.4786
  566MPD2    C1 8393   2.984   1.007  14.184 -0.7205  0.7886 -0.7615
  566MPD2    C2 8394   2.986   0.957  14.053  0.6816 -0.2425  0.4353
  566MPD2    C3 8395   2.898   0.852  14.024  0.4589  0.1338  0.2961
  566MPD2    C4 8396   2.809   0.802  14.114 -0.8421  0.2347  0.6948
  566MPD2    C5 8397   2.819   0.850  14.247 -0.1007 -0.0436  0.3050
  566MPD2     H 8398   3.043   1.006  13.975  0.6797 -0.1798  0.4740
  566MPD2    H1 8399   2.729   0.737  14.080 -1.9936  1.5276  0.9076
  566MPD2    H2 8400   2.904   1.000  14.379 -1.8048 -0.1249 -0.3621
  566MPD2    H3 8401   2.753   0.814  14.325  0.7343 -1.3203  0.4281
  566MPD2     N 8402   2.903   0.803  13.891  0.6725 -0.2240 -0.1194
  566MPD2    H5 8403   2.950   0.857  13.820 -0.6967 -0.1550 -0.9809
  566MPD2    N1 8404   3.056   1.119  14.232 -0.4153 -0.2569  0.6185
  566MPD2    H7 8405   3.074   1.142  14.329  1.3501 -1.0634  0.4716
  567TMC3    C1 8406   3.205   1.292  14.191  0.6201 -0.8069 -0.6909
  567TMC3    C2 8407   3.250   1.389  14.107 -0.8231  0.2501 -0.0089
  567TMC3    C3 8408   3.377   1.410  14.083 -0.6092  0.2921  0.0679
  567TMC3    C4 8409   3.300   1.233  14.271  0.6118  0.7365  0.3709
  567TMC3    C5 8410   3.427   1.263  14.262 -0.2103  0.6829  0.2336
  567TMC3    C6 8411   3.473   1.345  14.159  0.5760  0.1675 -0.2495
  567TMC3     C 8412   3.085   1.220  14.149  0.0278  0.1541 -0.6715
  567TMC3     O 8413   3.042   1.230  14.035 -0.1180 -0.4612 -0.4115
  567TMC3     H 8414   3.181   1.438  14.039 -0.2026 -2.6287 -2.7050
  567TMC3    H1 8415   3.261   1.179  14.357 -0.5425  1.4373  0.2790
  567TMC3    H2 8416   3.580   1.358  14.143  0.5644 -0.1858 -0.6136
  567TMC3    C7 8417   3.517   1.147  14.288 -0.3127 -0.4941 -0.1315
  567TMC3    C8 8418   3.414   1.462  13.957  0.3304  0.5599 -0.9635
  567TMC3    O1 8419   3.601   1.137  14.202  0.0399 -0.3825 -0.2349
  567TMC3    O2 8420   3.341   1.546  13.907  0.2407 -0.2933 -0.6116
  568MPD2     C 8421   0.687   0.801  16.264  0.0221  0.0308  0.3526
  568MPD2    C1 8422   0.775   0.901  16.301  0.0983 -0.6434 -0.3464
  568MPD2    C2 8423   0.764   1.025  16.247 -0.3398 -1.1081  0.1560
  568MPD2    C3 8424   0.671   1.050  16.149  0.2008 -0.0046 -0.6321
  568MPD2    C4 8425   0.592   0.951  16.104 -0.0016 -0.2710 -0.4461
  568MPD2    C5 8426   0.597   0.828  16.160  0.3987  0.3109 -0.5661
  568MPD2     H 8427   0.820   1.110  16.282  0.4786 -0.8429 -1.7750
  568MPD2    H1 8428   0.515   0.966  16.029 -1.4592  0.9033  1.2900
  568MPD2    H2 8429   0.680   0.703  16.312 -0.8403 -0.4193 -0.6922
  568MPD2    H3 8430   0.518   0.761  16.130 -0.9686  2.2136 -1.2070
  568MPD2     N 8431   0.665   1.184  16.106  0.4363 -0.4789 -0.6339
  568MPD2    H5 8432   0.715   1.250  16.164 -2.3356  0.7956  0.2818
  568MPD2    N1 8433   0.862   0.861  16.404  0.0411  0.2185 -0.5467
  568MPD2    H7 8434   0.854   0.770  16.449 -0.3036  0.3916 -0.2593
  569TMC3    C1 8435   0.612   1.372  15.986 -0.3760  0.4568  0.0552
  569TMC3    C2 8436   0.626   1.431  16.107  0.6105 -0.1987  0.1623
  569TMC3    C3 8437   0.706   1.538  16.115 -0.0009 -0.0138 -0.4129
  569TMC3    C4 8438   0.662   1.428  15.868 -0.0594 -0.2953  0.3941
  569TMC3    C5 8439   0.713   1.553  15.883  0.5696  0.8363 -1.2077
  569TMC3    C6 8440   0.743   1.610  16.004 -0.1262  0.5077 -0.1238
  569TMC3     C 8441   0.604   1.231  15.995 -0.0930 -0.6150 -0.2286
  569TMC3     O 8442   0.577   1.170  15.895 -0.0811 -0.1709 -0.0178
  569TMC3     H 8443   0.598   1.383  16.200 -1.2269 -2.8006 -1.7475
  569TMC3    H1 8444   0.644   1.391  15.767 -0.6716  0.8782  0.0714
  569TMC3    H2 8445   0.796   1.704  16.004 -0.3778  0.6506  0.3180
  569TMC3    C7 8446   0.720   1.647  15.768 -0.2218  0.6133 -0.1942
  569TMC3    C8 8447   0.693   1.623  16.232 -0.5488 -0.5306 -0.4603
  569TMC3    O1 8448   0.783   1.607  15.669 -0.5786  0.2458 -0.6447
  569TMC3    O2 8449   0.591   1.593  16.298  0.2701 -0.1266 -0.4509
  570TMC3    C1 8450   0.307   4.644  16.382 -0.4174 -0.2610 -0.3595
  570TMC3    C2 8451   0.366   4.673  16.261  0.0411  0.9464 -0.2670
  570TMC3    C3 8452   0.467   0.036  16.268 -0.7716  0.2891 -0.2503
  570TMC3    C4 8453   0.325   4.719  16.489 -0.3029 -0.7811  0.1101
  570TMC3    C5 8454   0.418   0.095  16.486 -0.1641 -0.6486  0.5125
  570TMC3    C6 8455   0.503   0.109  16.379  0.2373  0.0892 -0.2920
  570TMC3     C 8456   0.218   4.523  16.377 -0.0715  0.2143 -0.1977
  570TMC3     O 8457   0.209   4.467  16.265 -0.4549  0.1205 -0.5022
  570TMC3     H 8458   0.335   4.629  16.167  2.7160 -0.7828 -0.3353
  570TMC3    H1 8459   0.272   4.701  16.582  1.7836  0.2568  1.4961
  570TMC3    H2 8460   0.585   0.180  16.376 -1.0044  1.5958  1.2614
  570TMC3    C7 8461   0.413   0.202  16.588 -0.0221  0.1917 -0.2790
  570TMC3    C8 8462   0.508   0.094  16.138 -0.1314 -0.1457 -0.3540
  570TMC3    O1 8463   0.375   0.169  16.703 -0.2601 -0.3447  0.1868
  570TMC3    O2 8464   0.542   0.208  16.138 -0.4464  0.3009  0.2730
  571MPD2     C 8465   3.655   2.179  16.839 -1.1748 -0.4370 -0.8476
  571MPD2    C1 8466   3.536   2.144  16.897  0.2347 -0.3608  0.3227
  571MPD2    C2 8467   3.494   2.217  17.006 -0.2166  0.1614 -0.2172
  571MPD2    C3 8468   3.567   2.324  17.057 -0.3566 -0.2463  0.8100
  571MPD2    C4 8469   3.697   2.334  17.013 -0.3043  0.3889 -0.5203
  571MPD2    C5 8470   3.734   2.270  16.905 -0.5493 -0.4965  0.3392
  571MPD2     H 8471   3.395   2.193  17.045  0.2679  1.2733  1.6821
  571MPD2    H1 8472   3.765   2.405  17.057  2.1452 -0.0501 -3.5564
  571MPD2    H2 8473   3.692   2.130  16.749  2.0130  2.2979 -1.0357
  571MPD2    H3 8474   3.828   2.284  16.852 -1.1793  0.1168 -0.6222
  571MPD2     N 8475   3.505   2.401  17.168 -0.0925 -0.3927 -0.2545
  571MPD2    H5 8476   3.410   2.378  17.197 -0.9516  2.1420 -1.0210
  571MPD2    N1 8477   3.456   2.043  16.834 -0.3625 -0.2821  0.2821
  571MPD2    H7 8478   3.486   2.009  16.743 -0.2757  0.6975 -0.0514
  572TMC3    C1 8479   3.488   2.559  17.347 -0.3760  0.3246 -0.3364
  572TMC3    C2 8480   3.413   2.487  17.434  0.5427 -0.0493  0.4286
  572TMC3    C3 8481   3.314   2.550  17.499  0.3346  0.3386 -0.2582
  572TMC3    C4 8482   3.484   2.698  17.343 -0.0206  0.1624  0.6438
  572TMC3    C5 8483   3.382   2.758  17.413 -0.2144  0.6708  0.2153
  572TMC3    C6 8484   3.290   2.684  17.487 -0.1868  0.2516  0.4409
  572TMC3     C 8485   3.568   2.507  17.230 -0.1413  0.1111 -0.6080
  572TMC3     O 8486   3.661   2.576  17.183 -0.7553 -0.0385  0.4552
  572TMC3     H 8487   3.402   2.380  17.417 -0.6882 -0.1492  1.8699
  572TMC3    H1 8488   3.556   2.756  17.287  1.2518 -0.2433  1.8585
  572TMC3    H2 8489   3.195   2.717  17.530  0.3781  2.9986 -0.4098
  572TMC3    C7 8490   3.335   2.891  17.377 -0.5166 -0.1946  1.2418
  572TMC3    C8 8491   3.229   2.465  17.583 -0.0827  0.1518 -0.5922
  572TMC3    O1 8492   3.282   2.964  17.461  0.4842  0.1217 -0.3528
  572TMC3    O2 8493   3.123   2.511  17.625 -0.6623  0.2746  0.2950
  573MPD2     C 8494   4.385   2.112   0.669 -0.4475 -0.1951 -0.0897
  573MPD2    C1 8495   4.458   2.229   0.665  0.2335  0.0024 -0.1130
  573MPD2    C2 8496   4.466   2.286   0.540  0.2182  0.2521  0.2704
  573MPD2    C3 8497   4.403   2.235   0.426 -0.8208 -0.9730  0.1458
  573MPD2    C4 8498   4.333   2.116   0.433 -0.0154 -0.2726 -0.4001
  573MPD2    C5 8499   4.325   2.059   0.556  0.6184 -0.6345  0.4789
  573MPD2     H 8500   4.520   2.380   0.534 -0.6349  0.5349 -2.6115
  573MPD2    H1 8501   4.284   2.080   0.344 -1.3832 -0.5501  0.4755
  573MPD2    H2 8502   4.386   2.043   0.753  0.7700  1.8732  1.6044
  573MPD2    H3 8503   4.281   1.960   0.562 -0.8038 -0.0520 -0.1234
  573MPD2     N 8504   4.407   2.291   0.299  0.1751 -0.0155 -0.2464
  573MPD2    H5 8505   4.357   2.253   0.219 -0.5010  0.4849 -0.0585
  573MPD2    N1 8506   4.530   2.282   0.779 -0.3308 -0.0644 -0.8514
  573MPD2    H7 8507   4.531   2.221   0.861  0.6296  2.2311  0.8275
  574TMC3    C1 8508   4.461   2.434   0.121 -0.4663  0.6057  0.3727
  574TMC3    C2 8509   4.345   2.389   0.066 -0.5813  0.4841  0.0353
  574TMC3    C3 8510   4.307   2.434  17.644 -0.0316 -0.1549 -0.6377
  574TMC3    C4 8511   4.536   2.534   0.071 -0.1405  0.2170  0.3434
  574TMC3    C5 8512   4.494   2.581  17.651 -0.2827 -0.2162 -0.4087
  574TMC3    C6 8513   4.387   2.527  17.584  0.1692  0.2921  0.0952
  574TMC3     C 8514   4.492   2.396   0.260 -0.4717  0.4242  0.0884
  574TMC3     O 8515   4.579   2.459   0.318  0.1423 -0.6475  0.1580
  574TMC3     H 8516   4.278   2.316   0.111  2.0723 -1.1368  1.3758
  574TMC3    H1 8517   4.634   2.560   0.111  1.0456 -4.5167  0.5010
  574TMC3    H2 8518   4.370   2.562  17.483 -2.6296 -0.3449  0.3446
  574TMC3    C7 8519   4.578   2.679  17.583 -0.5951  0.9793 -0.1760
  574TMC3    C8 8520   4.167   2.444  17.621  0.5858 -0.0334  0.3226
  574TMC3    O1 8521   4.551   2.700  17.465  0.5549 -0.3015 -0.0633
  574TMC3    O2 8522   4.089   2.353  17.661  0.3633  0.0360  0.4626
  575TMC3    C1 8523   1.219   2.621  10.918  0.0322 -0.5659 -0.0848
  575TMC3    C2 8524   1.269   2.496  10.891  0.3040 -0.5394 -0.5818
  575TMC3    C3 8525   1.274   2.463  10.755 -0.0866  0.3557  0.1316
  575TMC3    C4 8526   1.187   2.711  10.821 -0.9730 -0.6254 -0.7925
  575TMC3    C5 8527   1.186   2.667  10.692 -0.2570 -0.6893 -0.2022
  575TMC3    C6 8528   1.243   2.547  10.658  0.7933  0.3059 -0.3026
  575TMC3     C 8529   1.160   2.658  11.054 -0.9643 -0.2581  0.2220
  575TMC3     O 8530   1.122   2.572  11.131 -0.1863 -0.7231  0.6948
  575TMC3     H 8531   1.304   2.428  10.968 -0.2239 -1.6271 -1.2963
  575TMC3    H1 8532   1.148   2.811  10.839  1.1687  0.0900 -0.1995
  575TMC3    H2 8533   1.264   2.526  10.554  1.7319 -0.6863  0.0866
  575TMC3    C7 8534   1.170   2.770  10.597  0.1233 -0.4499  0.8420
  575TMC3    C8 8535   1.312   2.328  10.715 -0.1953  0.0990  0.0798
  575TMC3    O1 8536   1.198   2.882  10.629  0.4469  0.1883  0.1766
  575TMC3    O2 8537   1.375   2.273  10.804  0.1050 -0.0703  0.5275
  576MPD2     C 8538   1.014   4.634  12.450  0.2753  0.1227 -0.2150
  576MPD2    C1 8539   1.153   4.636  12.435 -0.7508  0.2054  0.0583
  576MPD2    C2 8540   1.229   4.650  12.548 -0.1035 -0.2603 -0.1421
  576MPD2    C3 8541   1.170   4.668  12.673 -0.9277  0.3051 -0.0676
  576MPD2    C4 8542   1.029   4.653  12.690 -0.3688 -0.1710 -0.3459
  576MPD2    C5 8543   0.956   4.644  12.574  0.0576 -0.4221 -0.1456
  576MPD2     H 8544   1.336   4.656  12.540 -0.1028  0.3652  0.3173
  576MPD2    H1 8545   0.981   4.638  12.787  0.3784  1.4128  0.2639
  576MPD2    H2 8546   0.944   4.611  12.370  1.0521 -1.6055 -0.3950
  576MPD2    H3 8547   0.849   4.658  12.569  0.1048 -0.2262 -0.5695
  576MPD2     N 8548   1.253   4.703  12.779 -0.1077  0.4543 -0.1597
  576MPD2    H5 8549   1.351   4.702  12.753 -0.3998 -0.5576 -1.1984
  576MPD2    N1 8550   1.211   4.632  12.305  0.1611 -0.2219 -0.0470
  576MPD2    H7 8551   1.311   4.643  12.298 -0.1214  2.0711 -0.3198
  577TMC3    C1 8552   1.250   4.587  12.080 -0.3393  0.9504  0.4137
  577TMC3    C2 8553   1.363   4.517  12.122  0.5149 -0.3580  0.4463
  577TMC3    C3 8554   1.457   4.501  12.027 -1.1766 -0.6032  0.1006
  577TMC3    C4 8555   1.228   4.619  11.944  0.0134 -0.2157 -0.0370
  577TMC3    C5 8556   1.336   4.615  11.863 -0.1647 -0.6664 -0.0917
  577TMC3    C6 8557   1.453   4.554  11.900  0.3734  0.3441 -0.1264
  577TMC3     C 8558   1.152   4.629  12.183  0.7347  0.3474  0.2586
  577TMC3     O 8559   1.034   4.650  12.150  0.2250  0.3610 -0.1187
  577TMC3     H 8560   1.373   4.467  12.218  1.7470 -0.8642  0.0550
  577TMC3    H1 8561   1.137   4.664  11.908 -0.1612 -1.4733 -1.1570
  577TMC3    H2 8562   1.542   4.558  11.838 -0.3851 -0.1609 -1.2403
  577TMC3    C7 8563   1.324   4.634  11.720  0.3802  0.4261  0.3948
  577TMC3    C8 8564   1.550   4.389  12.047  0.0454  0.4271  0.2414
  577TMC3    O1 8565   1.405   4.570  11.658  0.4312 -0.5791 -0.1740
  577TMC3    O2 8566   1.553   4.329  12.157 -0.0526 -0.4614 -0.3009
  578MPD2     C 8567   0.505   0.111   1.613  0.0176 -0.0294  0.2415
  578MPD2    C1 8568   0.534   0.011   1.527  0.4404  0.3008 -0.2935
  578MPD2    C2 8569   0.634   4.646   1.553 -0.3907  0.2604  0.0900
  578MPD2    C3 8570   0.723   4.669   1.655  0.1441 -0.3949  0.2336
  578MPD2    C4 8571   0.690   0.045   1.740 -0.8118  0.0872 -0.4866
  578MPD2    C5 8572   0.589   0.134   1.720 -0.4686 -0.0779 -0.1871
  578MPD2     H 8573   0.644   4.557   1.493  3.9939  0.2748  0.7697
  578MPD2    H1 8574   0.766   0.072   1.812  0.7154 -1.5761 -1.4861
  578MPD2    H2 8575   0.425   0.181   1.593 -2.1443 -2.2583  1.0256
  578MPD2    H3 8576   0.588   0.219   1.786  1.3441  0.1438 -0.4490
  578MPD2     N 8577   0.834   4.581   1.677  0.6245 -0.1541 -0.5925
  578MPD2    H5 8578   0.830   4.492   1.628 -2.2028 -0.2002 -0.2287
  578MPD2    N1 8579   0.454   0.013   1.411  0.2038  0.3989  0.6802
  578MPD2    H7 8580   0.400   0.098   1.401 -0.4132 -0.0487  0.2523
  579TMC3    C1 8581   1.040   4.491   1.769  0.2602 -0.0396  0.0924
  579TMC3    C2 8582   1.166   4.516   1.796 -0.3108 -0.7227  0.2913
  579TMC3    C3 8583   1.246   4.408   1.815  0.5257 -0.3887  0.0310
  579TMC3    C4 8584   0.994   4.366   1.756 -0.2628  0.1223  0.0033
  579TMC3    C5 8585   1.070   4.255   1.783  0.0628 -0.4671  0.0325
  579TMC3    C6 8586   1.204   4.276   1.811  0.6435 -0.6815 -0.2189
  579TMC3     C 8587   0.941   4.603   1.761 -0.1338 -0.8244 -0.5362
  579TMC3     O 8588   0.970   4.699   1.825 -0.5387  0.5233 -0.0374
  579TMC3     H 8589   1.206   4.616   1.806  1.9237 -1.5351 -0.4024
  579TMC3    H1 8590   0.886   4.355   1.750 -0.5823  2.4571  1.3790
  579TMC3    H2 8591   1.276   4.205   1.848  0.6357 -1.0909 -0.9852
  579TMC3    C7 8592   1.034   4.125   1.740  0.2866 -0.3626 -0.2746
  579TMC3    C8 8593   1.388   4.430   1.845 -0.0123 -0.4816  0.6451
  579TMC3    O1 8594   1.114   4.035   1.756 -0.8595  0.3728 -0.3374
  579TMC3    O2 8595   1.435   4.362   1.932 -0.2439 -0.4558  0.3496
  580TMC3    C1 8596   3.247   4.436  11.711  0.2086  0.1184 -0.1829
  580TMC3    C2 8597   3.279   4.535  11.796 -0.3728 -0.4322  0.3364
  580TMC3    C3 8598   3.334   4.509  11.916  0.6016 -0.4494  0.2925
  580TMC3    C4 8599   3.307   4.310  11.720 -0.2792 -0.2051 -0.3416
  580TMC3    C5 8600   3.351   4.277  11.842 -0.6283  0.1359 -0.4694
  580TMC3    C6 8601   3.372   4.378  11.938  0.2789  0.2145  0.7019
  580TMC3     C 8602   3.240   4.479  11.567  0.3401 -0.6729 -0.0377
  580TMC3     O 8603   3.304   4.414  11.484  0.5573  0.7066  0.0851
  580TMC3     H 8604   3.272   4.641  11.770 -0.8836 -0.3097  0.9849
  580TMC3    H1 8605   3.287   4.239  11.640 -1.0904 -1.9394  1.3955
  580TMC3    H2 8606   3.391   4.351  12.041 -1.4245  1.0729  1.2441
  580TMC3    C7 8607   3.441   4.171  11.874 -0.0156  0.1620  0.0040
  580TMC3    C8 8608   3.449   4.593  11.947  0.2366 -0.3114  0.2230
  580TMC3    O1 8609   3.522   4.193  11.960 -0.3010  0.1860  0.4625
  580TMC3    O2 8610   3.441   4.716  11.929 -0.0873  0.1574  0.1776
  581MPD2     C 8611   1.460   3.700  14.889 -0.5679 -0.3847  0.2363
  581MPD2    C1 8612   1.349   3.633  14.932 -0.4816  0.2002  1.0794
  581MPD2    C2 8613   1.220   3.675  14.895  0.1998  0.2867  0.1368
  581MPD2    C3 8614   1.204   3.787  14.816  0.0511  0.0031  0.0345
  581MPD2    C4 8615   1.319   3.845  14.761  0.1500  0.4536 -0.0334
  581MPD2    C5 8616   1.441   3.804  14.806  0.2739  0.1827 -0.0748
  581MPD2     H 8617   1.132   3.620  14.929 -1.4489  2.3227 -0.8256
  581MPD2    H1 8618   1.312   3.912  14.676 -0.0342  0.3480 -0.1007
  581MPD2    H2 8619   1.564   3.675  14.903 -0.7604 -1.8781 -0.8891
  581MPD2    H3 8620   1.530   3.850  14.764  0.9282  1.7777  3.0160
  581MPD2     N 8621   1.080   3.832  14.779 -0.5061  0.3172 -0.2843
  581MPD2    H5 8622   0.995   3.779  14.799 -1.3784  1.9522  0.3211
  581MPD2    N1 8623   1.353   3.513  15.005  0.0019  0.3123 -0.1795
  581MPD2    H7 8624   1.265   3.468  15.030  0.5156 -0.9514 -0.6323
  582TMC3    C1 8625   1.457   3.353  15.144  0.5534  0.1880  0.0080
  582TMC3    C2 8626   1.578   3.357  15.207  0.6304  0.0274 -0.4388
  582TMC3    C3 8627   1.579   3.362  15.345 -0.0537  0.7116 -0.4643
  582TMC3    C4 8628   1.335   3.365  15.214  0.0920 -0.0792  0.5501
  582TMC3    C5 8629   1.345   3.390  15.346 -0.3505 -0.0440 -0.0052
  582TMC3    C6 8630   1.465   3.394  15.416  0.4978 -0.1574  0.4107
  582TMC3     C 8631   1.474   3.459  15.055  0.7690 -1.0294 -0.3129
  582TMC3     O 8632   1.585   3.509  15.040 -0.3533 -0.1612 -0.2925
  582TMC3     H 8633   1.676   3.355  15.161  0.8940 -0.5047  0.1362
  582TMC3    H1 8634   1.238   3.364  15.165  0.4929  0.2823 -0.2669
  582TMC3    H2 8635   1.474   3.424  15.520 -0.9631 -0.7490  0.7157
  582TMC3    C7 8636   1.243   3.484  15.386 -0.0228  0.2787 -0.6143
  582TMC3    C8 8637   1.709   3.338  15.415 -0.4202  0.1223 -0.2809
  582TMC3    O1 8638   1.128   3.452  15.357  0.1036 -0.0614 -0.3246
  582TMC3    O2 8639   1.779   3.250  15.359 -0.2293  0.3354 -0.1448
  583MPD2     C 8640   2.496   0.569  16.934  0.2468 -0.2399 -0.0379
  583MPD2    C1 8641   2.442   0.663  16.850 -0.0428  0.1458  1.2300
  583MPD2    C2 8642   2.363   0.764  16.907  1.0486 -0.3061 -0.1310
  583MPD2    C3 8643   2.334   0.766  17.042 -0.4887  1.0723 -0.2038
  583MPD2    C4 8644   2.398   0.678  17.123 -0.1609 -0.0873  0.3548
  583MPD2    C5 8645   2.474   0.580  17.070  0.3370  0.5643  0.3070
  583MPD2     H 8646   2.321   0.844  16.846  0.7084 -0.6134 -0.3047
  583MPD2    H1 8647   2.380   0.672  17.230 -1.7297 -1.9593  0.0067
  583MPD2    H2 8648   2.567   0.489  16.913  0.3720 -0.6468  1.9574
  583MPD2    H3 8649   2.509   0.511  17.146  1.4242  2.1695  1.2754
  583MPD2     N 8650   2.235   0.861  17.083  0.2885  0.5699  0.0831
  583MPD2    H5 8651   2.180   0.909  17.012 -0.4963 -0.2717  0.1182
  583MPD2    N1 8652   2.467   0.660  16.716 -0.4652 -0.2074  1.0803
  583MPD2    H7 8653   2.419   0.717  16.647  1.3340  2.1791  1.8280
  584TMC3    C1 8654   2.107   0.990  17.235  1.1362 -0.4489 -0.7013
  584TMC3    C2 8655   2.083   1.089  17.144 -0.3961  0.2548 -0.4080
  584TMC3    C3 8656   2.030   1.206  17.198 -0.4467 -0.7025 -0.1282
  584TMC3    C4 8657   2.067   1.001  17.362  0.4411 -0.2977 -0.4148
  584TMC3    C5 8658   2.011   1.119  17.405  0.1354 -0.0279 -0.1773
  584TMC3    C6 8659   2.003   1.230  17.329  0.0447  0.0471  0.6925
  584TMC3     C 8660   2.206   0.894  17.211 -0.2605 -0.4559  0.0096
  584TMC3     O 8661   2.268   0.849  17.302  0.0723  0.1332 -0.2829
  584TMC3     H 8662   2.096   1.086  17.036 -0.1785  3.0704 -0.4772
  584TMC3    H1 8663   2.076   0.916  17.429 -0.7422  0.8249  1.1577
  584TMC3    H2 8664   1.951   1.317  17.367  1.9260  1.5366 -0.1356
  584TMC3    C7 8665   1.998   1.128  17.551 -0.1610 -0.2734 -0.4103
  584TMC3    C8 8666   1.998   1.314  17.105 -0.3122 -0.2262 -0.2699
  584TMC3    O1 8667   2.085   1.075  17.613 -0.7509 -0.4120  0.2477
  584TMC3    O2 8668   1.962   1.284  16.991 -0.3056  0.4695 -0.4839
  585MPD2     C 8669   1.206   0.163   0.904  0.8360  0.4207  0.3950
  585MPD2    C1 8670   1.218   0.195   0.769  0.3099  0.3264 -0.0747
  585MPD2    C2 8671   1.228   0.090   0.677 -0.7572  0.5585  0.2672
  585MPD2    C3 8672   1.231   4.676   0.707 -0.4294  0.3402  0.1404
  585MPD2    C4 8673   1.218   4.649   0.843  0.3215 -0.0795 -0.3069
  585MPD2    C5 8674   1.206   0.028   0.930 -0.5019 -0.0552  0.5963
  585MPD2     H 8675   1.257   0.113   0.575  0.3911 -1.5003  0.1084
  585MPD2    H1 8676   1.217   4.549   0.887 -1.3637 -0.3354 -0.9037
  585MPD2    H2 8677   1.200   0.227   0.992  2.7063 -1.0164  1.5638
  585MPD2    H3 8678   1.182   4.713   1.027 -0.5925  0.8227  0.9354
  585MPD2     N 8679   1.237   4.569   0.615 -0.0908 -0.3013  0.1245
  585MPD2    H5 8680   1.230   4.476   0.656  1.3363 -0.2645  0.4522
  585MPD2    N1 8681   1.221   0.340   0.731  0.0988  0.9518  0.0541
  585MPD2    H7 8682   1.187   0.406   0.800 -2.7748 -0.5040  0.0715
  586TMC3    C1 8683   1.280   4.465   0.411  0.7364 -0.5562 -0.2468
  586TMC3    C2 8684   1.393   4.437   0.343 -0.0434  1.1264  0.3798
  586TMC3    C3 8685   1.398   4.311   0.291  0.3941  0.2677 -0.7852
  586TMC3    C4 8686   1.181   4.379   0.436 -0.2268  0.6738  0.3062
  586TMC3    C5 8687   1.192   4.255   0.374 -0.7198 -0.1400  0.1863
  586TMC3    C6 8688   1.303   4.216   0.309  0.6356 -0.5892 -0.2281
  586TMC3     C 8689   1.271   4.590   0.484 -0.4868 -0.4355 -0.6795
  586TMC3     O 8690   1.317   4.689   0.426 -0.2315  0.3103 -0.3475
  586TMC3     H 8691   1.464   4.515   0.319 -1.9063  2.7152  0.1055
  586TMC3    H1 8692   1.094   4.402   0.497 -0.3587  0.0782  0.3449
  586TMC3    H2 8693   1.302   4.115   0.271 -1.1857 -1.5390  2.3501
  586TMC3    C7 8694   1.081   4.165   0.359 -0.2303  0.3541 -0.5925
  586TMC3    C8 8695   1.465   4.312   0.164  0.3214 -0.4385  0.7816
  586TMC3    O1 8696   1.097   4.048   0.335  0.1276 -0.3287  0.2521
  586TMC3    O2 8697   1.539   4.407   0.141 -0.0928 -0.1955  0.0805
  587TMC3    C1 8698   3.591   3.289  16.595  0.6749  0.6062  0.3897
  587TMC3    C2 8699   3.635   3.407  16.635  0.7441  0.9333  0.4492
  587TMC3    C3 8700   3.758   3.458  16.594 -0.5169 -0.2929  0.5503
  587TMC3    C4 8701   3.676   3.214  16.516 -0.3996  0.6724  0.4288
  587TMC3    C5 8702   3.800   3.266  16.477 -0.1492  0.2608  1.0390
  587TMC3    C6 8703   3.846   3.393  16.513 -0.2860  0.0772 -0.4776
  587TMC3     C 8704   3.450   3.258  16.620  0.5668  0.5756 -0.3053
  587TMC3     O 8705   3.390   3.330  16.697  0.3633  0.3612 -0.4937
  587TMC3     H 8706   3.571   3.461  16.704 -0.7116  0.7530 -0.7368
  587TMC3    H1 8707   3.659   3.110  16.492 -1.0825  0.1410  3.2307
  587TMC3    H2 8708   3.935   3.443  16.478 -1.8433  1.8076 -2.0024
  587TMC3    C7 8709   3.864   3.214  16.362 -0.2585 -0.0816 -0.3586
  587TMC3    C8 8710   3.775   3.605  16.584  0.2998 -0.2654 -0.6222
  587TMC3    O1 8711   3.802   3.134  16.293 -0.4546 -0.0572 -0.4440
  587TMC3    O2 8712   3.817   3.660  16.485 -0.0022  0.4895 -0.0489
  588TMC3    C1 8713   0.701   1.076   9.830 -0.3004 -0.6547 -0.0839
  588TMC3    C2 8714   0.659   0.957   9.768 -0.0359  0.1281  0.2228
  588TMC3    C3 8715   0.746   0.850   9.769  0.9551 -0.1565 -0.2828
  588TMC3    C4 8716   0.823   1.087   9.893  0.4381  0.0928 -0.2452
  588TMC3    C5 8717   0.904   0.979   9.881 -0.7480  0.6399 -0.3632
  588TMC3    C6 8718   0.865   0.857   9.835 -0.4870 -0.2834  0.5173
  588TMC3     C 8719   0.639   1.200   9.778 -0.6316  0.3607  0.3360
  588TMC3     O 8720   0.570   1.186   9.680 -0.3753  0.8292 -0.0229
  588TMC3     H 8721   0.564   0.954   9.716 -0.9255 -0.8364  1.8827
  588TMC3    H1 8722   0.849   1.168   9.960 -0.4469 -0.2490  0.5037
  588TMC3    H2 8723   0.941   0.780   9.822 -0.4357 -0.2339  0.5270
  588TMC3    C7 8724   1.041   0.989   9.921 -0.5655  0.7507  0.4335
  588TMC3    C8 8725   0.696   0.721   9.730  0.9042 -0.4325  0.1983
  588TMC3    O1 8726   1.099   0.904   9.987  0.3894  0.0177  0.0294
  588TMC3    O2 8727   0.620   0.712   9.635 -0.6819  0.4399 -0.4083
  589TMC3    C1 8728   0.654   2.710   1.282  0.0891  0.3589  0.4317
  589TMC3    C2 8729   0.729   2.720   1.399  0.1838 -0.0775  0.2197
  589TMC3    C3 8730   0.834   2.634   1.413  0.2628 -0.4319  0.2957
  589TMC3    C4 8731   0.696   2.613   1.189 -0.8055 -0.2374 -0.2869
  589TMC3    C5 8732   0.788   2.516   1.215  0.2925 -0.1036 -0.4027
  589TMC3    C6 8733   0.861   2.525   1.332 -0.1900 -0.0619  0.2204
  589TMC3     C 8734   0.550   2.803   1.245  0.8406 -0.1022  0.4333
  589TMC3     O 8735   0.510   2.795   1.128  0.3131  0.1251  0.1264
  589TMC3     H 8736   0.717   2.795   1.476 -1.4575 -1.7566  1.6021
  589TMC3    H1 8737   0.628   2.602   1.106 -1.8035  0.2271  0.4610
  589TMC3    H2 8738   0.945   2.464   1.363 -0.5498 -0.0896  1.1375
  589TMC3    C7 8739   0.807   2.410   1.118 -0.6058  0.0823 -0.2499
  589TMC3    C8 8740   0.934   2.674   1.506  0.3075  0.0215  0.4064
  589TMC3    O1 8741   0.857   2.304   1.160 -0.2354  0.0155 -0.0881
  589TMC3    O2 8742   1.005   2.589   1.565  0.1245  0.0499 -0.1698
  590MPD2     C 8743   4.298   1.414  16.398 -0.4170 -0.3745  0.4727
  590MPD2    C1 8744   4.310   1.548  16.396  0.5082 -0.0059 -0.3158
  590MPD2    C2 8745   4.438   1.600  16.392  0.1756 -0.8237 -0.0385
  590MPD2    C3 8746   4.550   1.519  16.392  0.6292 -0.1763  0.2902
  590MPD2    C4 8747   4.534   1.385  16.425 -0.2627  0.6778 -0.7371
  590MPD2    C5 8748   4.406   1.336  16.418 -0.5790  0.4056 -0.3558
  590MPD2     H 8749   4.464   1.705  16.403 -0.0040 -0.7849  0.0050
  590MPD2    H1 8750   4.617   1.320  16.451 -0.8311  0.7972  1.4373
  590MPD2    H2 8751   4.203   1.364  16.412  1.4020 -3.0406  3.5463
  590MPD2    H3 8752   4.380   1.232  16.434  0.4287  0.4845  1.7765
  590MPD2     N 8753   4.679   1.579  16.375  0.2902  0.0069  0.4023
  590MPD2    H5 8754   4.679   1.677  16.347  1.0205  0.3995  1.7588
  590MPD2    N1 8755   4.189   1.625  16.393  0.8247  0.6449  0.2023
  590MPD2    H7 8756   4.102   1.575  16.378  0.5880  0.1503  3.1807
  591TMC3    C1 8757   0.173   1.611  16.336  0.7504  0.7683 -0.6176
  591TMC3    C2 8758   0.247   1.557  16.233  0.7656 -0.2140  0.2027
  591TMC3    C3 8759   0.267   1.627  16.118 -0.5528  0.1736 -0.0400
  591TMC3    C4 8760   0.136   1.739  16.326 -0.1927 -0.4210 -0.2465
  591TMC3    C5 8761   0.161   1.808  16.213  0.2481 -0.5178 -0.0456
  591TMC3    C6 8762   0.220   1.757  16.102 -0.4305  0.2220  0.8749
  591TMC3     C 8763   0.075   1.526  16.389  0.2092 -0.5667  0.5003
  591TMC3     O 8764   0.100   1.405  16.407 -0.1963 -0.7263  0.4285
  591TMC3     H 8765   0.266   1.450  16.236  0.1773 -0.2925  1.1709
  591TMC3    H1 8766   0.079   1.783  16.406  0.5555 -1.6952  0.9897
  591TMC3    H2 8767   0.223   1.806  16.006 -2.6714 -1.4650 -0.0356
  591TMC3    C7 8768   0.059   1.909  16.184 -0.0505 -0.5573  0.1955
  591TMC3    C8 8769   0.316   1.560  15.996 -0.8982 -0.0212  0.1358
  591TMC3    O1 8770   4.676   1.894  16.240  0.4050 -0.2508  0.4272
  591TMC3    O2 8771   0.322   1.439  16.009 -0.0799 -0.1582  0.0208
  592MPD2     C 8772   4.536   3.684  11.304  0.7122 -0.3075 -0.0131
  592MPD2    C1 8773   4.545   3.710  11.436  0.0628 -0.3207  0.0916
  592MPD2    C2 8774   4.448   3.657  11.523 -0.3982 -0.5790  0.0868
  592MPD2    C3 8775   4.362   3.557  11.479  0.5032  0.3172  0.3007
  592MPD2    C4 8776   4.355   3.529  11.347  0.1585 -0.4702  0.8670
  592MPD2    C5 8777   4.446   3.592  11.262  0.5997 -0.4132  0.6713
  592MPD2     H 8778   4.455   3.699  11.623  1.9099  1.4704 -0.9244
  592MPD2    H1 8779   4.286   3.456  11.306 -0.9830  1.2282 -0.2458
  592MPD2    H2 8780   4.599   3.731  11.229  2.5174 -0.1616  1.5924
  592MPD2    H3 8781   4.442   3.556  11.160 -1.6971 -2.3297  1.4563
  592MPD2     N 8782   4.277   3.500  11.571 -0.4069  0.2301 -0.2862
  592MPD2    H5 8783   4.275   3.529  11.669  2.7493 -2.2217  0.4974
  592MPD2    N1 8784   4.637   3.812  11.476  0.2276 -0.3007 -0.6049
  592MPD2    H7 8785   4.672   3.878  11.407  0.1153 -0.3244 -0.6843
  593TMC3    C1 8786   0.047   3.945  11.621 -0.4150 -0.2199 -0.8547
  593TMC3    C2 8787   0.056   4.010  11.740 -0.6948  0.2319  0.6763
  593TMC3    C3 8788   0.133   4.125  11.746  0.2149  0.0973 -0.1061
  593TMC3    C4 8789   0.125   3.984  11.517 -0.3321  0.7798 -0.2333
  593TMC3    C5 8790   0.214   4.081  11.531 -0.4261 -0.2352  0.7745
  593TMC3    C6 8791   0.221   4.149  11.645  0.1439  0.3705  0.8411
  593TMC3     C 8792   4.673   3.840  11.610 -0.3223 -0.2374  0.0884
  593TMC3     O 8793   4.652   3.777  11.715 -0.0523 -0.1413  0.3471
  593TMC3     H 8794   4.713   3.989  11.823 -1.6792  0.7926  0.0148
  593TMC3    H1 8795   0.128   3.909  11.439 -0.0299 -0.2562  0.7843
  593TMC3    H2 8796   0.291   4.229  11.666  0.1307  0.8904 -1.0891
  593TMC3    C7 8797   0.334   4.095  11.450 -0.0214  0.1679 -0.8124
  593TMC3    C8 8798   0.152   4.199  11.876  0.7532 -0.6955 -0.7119
  593TMC3    O1 8799   0.431   4.142  11.503 -0.0750  0.5367  0.1347
  593TMC3    O2 8800   0.058   4.244  11.944  0.1420 -0.2760 -0.2330
  594MPD2     C 8801   3.554   2.525  14.062 -0.5884  0.0614 -0.0672
  594MPD2    C1 8802   3.621   2.507  14.184 -0.4514 -0.1978 -0.3183
  594MPD2    C2 8803   3.737   2.576  14.198 -0.3258  0.4385  0.4048
  594MPD2    C3 8804   3.788   2.661  14.101  0.8022  0.0707  0.3952
  594MPD2    C4 8805   3.718   2.669  13.984  0.2719 -0.4184 -0.2188
  594MPD2    C5 8806   3.603   2.597  13.955 -0.2460 -0.7518  0.4995
  594MPD2     H 8807   3.799   2.574  14.287 -0.2804 -0.0578  0.3612
  594MPD2    H1 8808   3.756   2.731  13.903  0.6595  1.7400  1.6047
  594MPD2    H2 8809   3.451   2.493  14.055 -1.1484  1.4451  1.9749
  594MPD2    H3 8810   3.562   2.594  13.855  1.8275  1.2981 -0.3975
  594MPD2     N 8811   3.902   2.740  14.127 -0.4434  0.6378  0.2841
  594MPD2    H5 8812   3.930   2.729  14.224 -1.7065 -0.6036  0.5114
  594MPD2    N1 8813   3.554   2.423  14.276 -0.0983  0.2278 -0.1648
  594MPD2    H7 8814   3.465   2.386  14.245 -0.0271 -0.7611  0.7985
  595TMC3    C1 8815   4.272   3.021  14.096 -0.3107  0.1433  0.2927
  595TMC3    C2 8816   4.198   2.916  14.052 -0.0515 -0.1975  0.0192
  595TMC3    C3 8817   4.080   2.882  14.116 -0.6933  0.1080  0.1810
  595TMC3    C4 8818   4.225   3.094  14.202  0.7833  0.4522  0.6685
  595TMC3    C5 8819   4.121   3.055  14.268 -0.0572 -0.8535 -0.1812
  595TMC3    C6 8820   4.046   2.947  14.227 -0.1166  0.7886  0.0817
  595TMC3     C 8821   4.421   3.003  14.091 -0.1336  0.2780 -0.0806
  595TMC3     O 8822   4.474   3.085  14.164 -0.4715 -0.2525 -0.4173
  595TMC3     H 8823   4.224   2.856  13.966 -0.2009 -0.0939 -0.0983
  595TMC3    H1 8824   4.286   3.177  14.235  0.5135  0.0386  2.2267
  595TMC3    H2 8825   3.959   2.921  14.286 -1.1678  0.3206 -1.6791
  595TMC3    C7 8826   4.052   3.150  14.352  0.4610 -0.3204 -0.0034
  595TMC3    C8 8827   3.988   2.804  14.039 -0.1644 -0.1557  0.6754
  595TMC3    O1 8828   3.931   3.128  14.352 -0.4197 -0.5302  1.0257
  595TMC3    O2 8829   3.995   2.812  13.919  0.5715  0.1359 -0.0087
  596MPD2     C 8830   3.479   0.961  16.588  0.3964 -0.1778 -0.0294
  596MPD2    C1 8831   3.370   0.994  16.511  0.5233 -0.0375  0.5362
  596MPD2    C2 8832   3.309   0.901  16.428 -0.0119 -0.4774 -0.1219
  596MPD2    C3 8833   3.362   0.771  16.412 -0.0977  0.3384 -0.4387
  596MPD2    C4 8834   3.478   0.746  16.486  0.3872 -0.1775  0.0631
  596MPD2    C5 8835   3.532   0.835  16.571 -0.1916  0.0246  0.6520
  596MPD2     H 8836   3.215   0.934  16.387 -0.0817 -0.6051 -0.0631
  596MPD2    H1 8837   3.516   0.644  16.485 -0.0210 -0.3012 -1.8058
  596MPD2    H2 8838   3.524   1.023  16.664  2.0046  0.6115 -1.6336
  596MPD2    H3 8839   3.611   0.795  16.633 -0.0661  0.1817  0.5919
  596MPD2     N 8840   3.309   0.669  16.328  0.0339  0.6521  0.0324
  596MPD2    H5 8841   3.368   0.586  16.318 -1.5136 -0.3691 -0.6328
  596MPD2    N1 8842   3.294   1.113  16.534  0.0240  0.6601 -0.3726
  596MPD2    H7 8843   3.213   1.126  16.474 -0.2677 -1.1122 -0.3850
  597TMC3    C1 8844   3.192   1.292  16.658  0.3661 -0.4156 -0.1293
  597TMC3    C2 8845   3.153   1.346  16.545 -0.0911  0.6571 -0.5377
  597TMC3    C3 8846   3.028   1.404  16.545  0.5810 -0.0026  0.1966
  597TMC3    C4 8847   3.111   1.289  16.770 -0.4094  0.1721  0.5702
  597TMC3    C5 8848   2.983   1.340  16.764  0.5097 -0.1398 -0.2344
  597TMC3    C6 8849   2.939   1.394  16.650 -0.5686 -0.6160  0.8153
  597TMC3     C 8850   3.306   1.193  16.644  0.3048  0.1463  0.3102
  597TMC3     O 8851   3.366   1.173  16.748  0.1619  0.4902 -0.2367
  597TMC3     H 8852   3.228   1.365  16.469  2.0288 -0.9329  1.1906
  597TMC3    H1 8853   3.146   1.239  16.859 -0.8393 -1.6999 -0.3000
  597TMC3    H2 8854   2.858   1.465  16.654  0.4056  0.5880 -0.7604
  597TMC3    C7 8855   2.893   1.309  16.876  0.6077  0.9564 -0.1574
  597TMC3    C8 8856   2.974   1.471  16.428  0.1055 -0.0676  0.2959
  597TMC3    O1 8857   2.937   1.246  16.974  0.3845  0.1035  0.0134
  597TMC3    O2 8858   2.854   1.478  16.416  0.0182 -0.4875 -0.4999
  598TMC3    C1 8859   1.100   1.840  15.405 -0.1611  0.3218 -0.5362
  598TMC3    C2 8860   0.974   1.798  15.372 -0.7870 -0.0084  0.2651
  598TMC3    C3 8861   0.915   1.865  15.266 -0.0483  0.1430 -0.1627
  598TMC3    C4 8862   1.164   1.941  15.334 -0.2062 -0.0253  0.4559
  598TMC3    C5 8863   1.098   1.995  15.226  0.0572  0.4842 -0.0041
  598TMC3    C6 8864   0.973   1.961  15.188  0.0938  0.3730  0.1747
  598TMC3     C 8865   1.162   1.771  15.514  0.4885  0.4753 -0.6063
  598TMC3     O 8866   1.095   1.704  15.593 -0.2644 -0.5133  0.1193
  598TMC3     H 8867   0.926   1.719  15.429  0.1238  0.6822  1.9964
  598TMC3    H1 8868   1.267   1.966  15.355 -0.3044  1.4223 -0.7888
  598TMC3    H2 8869   0.934   2.013  15.101  2.0911 -0.2691 -1.1079
  598TMC3    C7 8870   1.167   2.112  15.165  0.2284 -0.1491  0.3499
  598TMC3    C8 8871   0.794   1.833  15.206  0.0884  0.0988 -0.2560
  598TMC3    O1 8872   1.214   2.196  15.242  0.7169 -0.6522  0.2825
  598TMC3    O2 8873   0.746   1.921  15.138 -0.0051 -0.4113 -0.2255
  599MPD2     C 8874   1.323   4.265  15.777  0.5126  0.0303 -0.4279
  599MPD2    C1 8875   1.233   4.160  15.786 -0.4240  0.6547 -1.0783
  599MPD2    C2 8876   1.110   4.180  15.844 -0.4415  0.4025 -0.2394
  599MPD2    C3 8877   1.068   4.304  15.886  0.4844  0.4599  0.4700
  599MPD2    C4 8878   1.155   4.411  15.876  0.2679  0.5177  0.5771
  599MPD2    C5 8879   1.284   4.385  15.830 -0.1031  0.7512 -0.0120
  599MPD2     H 8880   1.039   4.097  15.847  1.7968 -1.5084 -0.5798
  599MPD2    H1 8881   1.137   4.511  15.913  0.3957  1.1263 -0.9738
  599MPD2    H2 8882   1.423   4.267  15.735  1.2084  0.9603  1.2492
  599MPD2    H3 8883   1.350   4.470  15.840  0.0837  1.1335 -4.6753
  599MPD2     N 8884   0.940   4.334  15.934 -0.2956  0.4437 -0.1080
  599MPD2    H5 8885   0.921   4.429  15.965 -1.9160  0.7137 -1.9419
  599MPD2    N1 8886   1.288   4.040  15.733 -0.1800  0.4273 -0.6264
  599MPD2    H7 8887   1.384   4.036  15.700 -0.1366  3.0063 -0.8437
  600TMC3    C1 8888   0.713   4.309  16.004  0.5653 -0.2152 -1.0615
  600TMC3    C2 8889   0.596   4.260  15.962 -0.2780  0.7316 -1.3763
  600TMC3    C3 8890   0.494   4.276  16.048 -0.0229  0.6271  0.1829
  600TMC3    C4 8891   0.733   4.385  16.117 -0.5139 -0.4691  0.3980
  600TMC3    C5 8892   0.625   4.410  16.196  0.2404  0.2554  0.5824
  600TMC3    C6 8893   0.507   4.359  16.157  0.0794 -1.1284  0.1641
  600TMC3     C 8894   0.825   4.256  15.930 -0.5814 -0.2278 -0.4213
  600TMC3     O 8895   0.805   4.153  15.862 -0.1215  0.0999 -0.4042
  600TMC3     H 8896   0.591   4.197  15.874 -2.2494 -1.0845  0.0379
  600TMC3    H1 8897   0.835   4.412  16.140 -0.8379 -0.1510  1.4563
  600TMC3    H2 8898   0.424   4.370  16.226  1.4587  0.4459  1.5572
  600TMC3    C7 8899   0.641   4.466  16.327  0.4652 -0.4835  0.5616
  600TMC3    C8 8900   0.415   4.162  16.058 -0.1021 -0.5507  0.5484
  600TMC3    O1 8901   0.543   4.463  16.397 -0.2470 -0.1166  0.0218
  600TMC3    O2 8902   0.472   4.059  16.031 -0.4738 -0.3602 -0.4860
  601MPD2     C 8903   3.308   3.241  17.007 -0.3276 -0.1430  0.1087
  601MPD2    C1 8904   3.270   3.248  17.140 -0.2224  0.6414  0.3580
  601MPD2    C2 8905   3.303   3.138  17.221 -0.3879 -0.5662 -0.3365
  601MPD2    C3 8906   3.353   3.021  17.167  0.1272  0.9618  0.1089
  601MPD2    C4 8907   3.375   3.013  17.036 -0.0106  0.7053 -0.0611
  601MPD2    C5 8908   3.357   3.127  16.956 -0.3177 -0.7297  0.3567
  601MPD2     H 8909   3.286   3.141  17.328  0.9774 -2.1360 -0.0833
  601MPD2    H1 8910   3.421   2.926  16.992  0.6898  0.8515  0.3864
  601MPD2    H2 8911   3.294   3.318  16.933  0.7186 -1.1413 -1.1426
  601MPD2    H3 8912   3.384   3.115  16.852 -0.6445  0.9427  0.0722
  601MPD2     N 8913   3.367   2.910  17.249 -0.1309  0.3719 -0.0932
  601MPD2    H5 8914   3.395   2.824  17.203 -1.4735 -0.6579  1.0045
  601MPD2    N1 8915   3.198   3.354  17.198 -0.2450  0.3225 -0.1650
  601MPD2    H7 8916   3.172   3.353  17.296 -2.7531  2.4424 -0.8088
  602TMC3    C1 8917   3.099   3.570  17.224 -0.1047 -0.4865  0.6210
  602TMC3    C2 8918   2.990   3.635  17.170 -0.1697  1.1259  0.3062
  602TMC3    C3 8919   2.878   3.647  17.247 -0.5073  0.0474 -0.3325
  602TMC3    C4 8920   3.108   3.543  17.357 -0.7683  0.4950 -0.6005
  602TMC3    C5 8921   2.987   3.543  17.424 -0.0929 -0.2729  0.6408
  602TMC3    C6 8922   2.877   3.610  17.377 -0.1484  0.1553 -0.6568
  602TMC3     C 8923   3.173   3.471  17.134 -0.1603  0.6087  0.5519
  602TMC3     O 8924   3.166   3.499  17.014  0.1924  0.3985 -0.2648
  602TMC3     H 8925   2.996   3.671  17.067 -0.5241 -1.0526 -0.4738
  602TMC3    H1 8926   3.195   3.490  17.395 -0.1817  2.1727  0.3872
  602TMC3    H2 8927   2.781   3.616  17.427 -1.4324 -0.7744 -2.9800
  602TMC3    C7 8928   2.963   3.410  17.474 -0.8464 -0.0414 -0.0308
  602TMC3    C8 8929   2.756   3.701  17.187  0.6150 -0.0208 -1.0109
  602TMC3    O1 8930   3.056   3.335  17.454 -0.6721 -0.2592  0.2751
  602TMC3    O2 8931   2.755   3.791  17.102  0.0540  0.1354  0.0658
  603TMC3    C1 8932   0.595   3.279  10.904  0.1761  1.8524 -0.1831
  603TMC3    C2 8933   0.612   3.310  11.030 -0.0442 -0.0795  1.3594
  603TMC3    C3 8934   0.728   3.374  11.062  0.3237 -0.1040 -0.2858
  603TMC3    C4 8935   0.667   3.318  10.794 -0.4983  0.6123 -0.0315
  603TMC3    C5 8936   0.772   3.400  10.831  0.5242  0.5925 -0.7758
  603TMC3    C6 8937   0.816   3.423  10.962  0.6095  0.0583  0.0037
  603TMC3     C 8938   0.454   3.244  10.864 -0.1666 -0.3793 -0.1961
  603TMC3     O 8939   0.438   3.191  10.756 -0.3446  0.0154  0.0537
  603TMC3     H 8940   0.539   3.287  11.107 -1.4515  2.1527  0.6754
  603TMC3    H1 8941   0.643   3.290  10.692 -0.5296  0.5947 -0.0194
  603TMC3    H2 8942   0.917   3.455  10.984  0.9905 -0.4146 -1.0506
  603TMC3    C7 8943   0.849   3.467  10.723 -0.5163 -0.0638  0.0306
  603TMC3    C8 8944   0.766   3.365  11.202 -0.2754 -0.1934 -0.2821
  603TMC3    O1 8945   0.962   3.496  10.762  0.1700  0.4095  0.1760
  603TMC3    O2 8946   0.691   3.306  11.277 -0.7154  0.4446  0.0657
  604MPD2     C 8947   1.962   1.713  16.190  0.1103 -0.1255  0.0672
  604MPD2    C1 8948   1.874   1.626  16.144  0.5819 -0.1420 -0.0524
  604MPD2    C2 8949   1.903   1.546  16.039  0.0954  0.2153 -0.4091
  604MPD2    C3 8950   2.022   1.561  15.973 -0.4576 -0.5541 -0.1847
  604MPD2    C4 8951   2.113   1.647  16.030  0.4520  0.4231 -0.5836
  604MPD2    C5 8952   2.087   1.720  16.133  1.0234 -0.2472  0.7282
  604MPD2     H 8953   1.833   1.475  15.997 -1.6706  1.9221 -0.3410
  604MPD2    H1 8954   2.217   1.646  16.000  0.5292 -1.0741 -0.2354
  604MPD2    H2 8955   1.945   1.764  16.284 -0.5366  1.0774 -0.6874
  604MPD2    H3 8956   2.173   1.768  16.179  2.0769  0.6353 -2.1045
  604MPD2     N 8957   2.054   1.477  15.868  0.1642  0.2919  0.3172
  604MPD2    H5 8958   1.983   1.414  15.833 -1.2717  2.0904  0.0198
  604MPD2    N1 8959   1.752   1.620  16.222 -0.0632  0.7870 -0.0414
  604MPD2    H7 8960   1.767   1.663  16.312  2.4175 -1.2822  0.5434
  605TMC3    C1 8961   1.544   1.598  16.292 -0.1189 -0.5173  0.5109
  605TMC3    C2 8962   1.588   1.586  16.425 -0.6731 -0.6336  0.5917
  605TMC3    C3 8963   1.551   1.686  16.511 -0.0601  0.7282  0.0252
  605TMC3    C4 8964   1.474   1.711  16.250  0.1637 -0.3218 -0.2657
  605TMC3    C5 8965   1.419   1.793  16.343  0.4802 -0.1504  0.0067
  605TMC3    C6 8966   1.455   1.787  16.477 -0.3638 -0.2077  0.2777
  605TMC3     C 8967   1.639   1.557  16.191  0.0246 -0.1211  0.3743
  605TMC3     O 8968   1.613   1.508  16.081 -0.3250 -0.0667  0.4630
  605TMC3     H 8969   1.651   1.502  16.452  1.2672  0.5300 -0.2911
  605TMC3    H1 8970   1.462   1.724  16.143  3.0131 -0.6405 -0.6199
  605TMC3    H2 8971   1.422   1.869  16.540  1.1236  0.6968 -0.1170
  605TMC3    C7 8972   1.312   1.877  16.292 -0.0073  0.4576  1.4662
  605TMC3    C8 8973   1.672   1.726  16.570 -0.3525  0.8544  0.7750
  605TMC3    O1 8974   1.252   1.956  16.366  0.0434  0.1867 -0.4454
  605TMC3    O2 8975   1.766   1.698  16.499  0.1916  0.1200  0.4097
  606TMC3    C1 8976   3.087   0.513   0.705  0.2365  0.4397 -0.2886
  606TMC3    C2 8977   3.217   0.561   0.702  0.2584  0.7108  0.0646
  606TMC3    C3 8978   3.317   0.486   0.655 -0.7015  0.2544  0.0631
  606TMC3    C4 8979   3.065   0.382   0.674  0.0551 -0.2440  0.1680
  606TMC3    C5 8980   3.167   0.317   0.620  0.0427  0.1715  0.2219
  606TMC3    C6 8981   3.297   0.363   0.611  0.0069  0.3862 -0.0770
  606TMC3     C 8982   2.990   0.586   0.787  0.2509  0.2582  0.5561
  606TMC3     O 8983   3.035   0.663   0.868  0.2999  0.3186  0.0553
  606TMC3     H 8984   3.224   0.659   0.748 -0.0869  1.6459 -1.9053
  606TMC3    H1 8985   2.963   0.345   0.666  0.3484 -0.3958 -2.6968
  606TMC3    H2 8986   3.378   0.302   0.573  1.7985  1.4763  2.0303
  606TMC3    C7 8987   3.141   0.197   0.545  0.4539 -0.2623 -0.4026
  606TMC3    C8 8988   3.450   0.540   0.647  0.8319  0.7186  0.0045
  606TMC3    O1 8989   3.236   0.120   0.547 -0.1074  0.0802  0.0862
  606TMC3    O2 8990   3.533   0.447   0.647 -0.9414 -0.0076 -0.0961
  607MPD2     C 8991   4.596   3.292  11.528  0.2909 -0.2477  0.1845
  607MPD2    C1 8992   4.670   3.382  11.604  0.0810  0.7121 -0.1343
  607MPD2    C2 8993   4.637   3.387  11.737  0.5610  0.9062 -0.0678
  607MPD2    C3 8994   4.539   3.307  11.795 -0.0340 -0.1717  0.4365
  607MPD2    C4 8995   4.468   3.220  11.715 -0.6782  0.3869  0.2004
  607MPD2    C5 8996   4.498   3.211  11.578  0.2142 -0.0694 -0.2262
  607MPD2     H 8997   4.690   3.439  11.815  1.5250 -0.2995  0.0870
  607MPD2    H1 8998   4.394   3.153  11.757 -0.2825 -0.9054 -1.1583
  607MPD2    H2 8999   4.602   3.282  11.420 -2.3541 -0.3894  0.0657
  607MPD2    H3 9000   4.439   3.143  11.517 -0.8401  1.1622 -0.5888
  607MPD2     N 9001   4.533   3.314  11.937  0.3356  0.3156 -0.2039
  607MPD2    H5 9002   4.591   3.379  11.988 -0.3589  2.1013 -1.7048
  607MPD2    N1 9003   0.055   3.460  11.559  0.1893 -0.4147  0.0350
  607MPD2    H7 9004   0.108   3.498  11.636  1.1971  0.3348 -1.0452
  608TMC3    C1 9005   0.231   3.540  11.456 -0.1690  0.0297  0.5375
  608TMC3    C2 9006   0.227   3.640  11.550 -0.1416  0.1474 -0.1192
  608TMC3    C3 9007   0.341   3.709  11.568  0.0094 -0.6627 -0.0914
  608TMC3    C4 9008   0.330   3.512  11.367 -0.1652 -0.2237 -0.1592
  608TMC3    C5 9009   0.445   3.582  11.401  0.3902  0.1053  0.2625
  608TMC3    C6 9010   0.448   3.675  11.496 -0.3527  0.4346  0.5458
  608TMC3     C 9011   0.114   3.452  11.449 -0.2616  0.5269 -0.3036
  608TMC3     O 9012   0.081   3.399  11.348  0.4665 -0.2674 -0.0286
  608TMC3     H 9013   0.132   3.667  11.597  0.7721 -0.0515  1.8509
  608TMC3    H1 9014   0.336   3.428  11.299 -1.2946  0.0717 -0.6219
  608TMC3    H2 9015   0.543   3.722  11.518  0.5553 -1.3426  0.4030
  608TMC3    C7 9016   0.524   3.617  11.279  0.1004  0.0740  0.0325
  608TMC3    C8 9017   0.358   3.779  11.694 -0.9089  0.3443 -0.2027
  608TMC3    O1 9018   0.467   3.590  11.173  0.3915 -0.2009  0.6411
  608TMC3    O2 9019   0.416   3.885  11.695 -0.0709  0.2259  0.0661
  609TMC3    C1 9020   2.795   1.455   9.419 -0.2433 -0.0402 -0.5297
  609TMC3    C2 9021   2.692   1.434   9.328 -0.3592 -1.1101  0.1487
  609TMC3    C3 9022   2.657   1.305   9.298  0.9450  0.2913  0.0062
  609TMC3    C4 9023   2.866   1.358   9.480  0.7565 -0.1747  0.1887
  609TMC3    C5 9024   2.823   1.231   9.452 -0.2337  0.5712  0.6230
  609TMC3    C6 9025   2.723   1.201   9.360 -0.3786  0.1605  0.4648
  609TMC3     C 9026   2.818   1.596   9.443 -0.1405 -0.6982 -0.6333
  609TMC3     O 9027   2.725   1.672   9.412 -0.3145  0.3375 -0.1102
  609TMC3     H 9028   2.640   1.519   9.285  0.3910  1.1344  3.6448
  609TMC3    H1 9029   2.943   1.373   9.554  0.1089 -1.8977  1.2175
  609TMC3    H2 9030   2.691   1.101   9.330  0.4124 -0.0440  0.3201
  609TMC3    C7 9031   2.911   1.126   9.493 -0.5139 -0.0535  0.2323
  609TMC3    C8 9032   2.547   1.267   9.200 -0.3954  0.5821 -0.1765
  609TMC3    O1 9033   3.031   1.161   9.517  0.5087 -0.1135 -1.0281
  609TMC3    O2 9034   2.537   1.147   9.166  0.3390 -1.0306  0.6369
  610TMC3    C1 9035   1.135   3.281  12.192  0.1263 -0.7723  0.3388
  610TMC3    C2 9036   1.156   3.254  12.058  0.5587  0.2544  0.1074
  610TMC3    C3 9037   1.270   3.193  12.015  0.2834  0.6527  0.3379
  610TMC3    C4 9038   1.228   3.242  12.291  0.8926  0.9767  0.5112
  610TMC3    C5 9039   1.344   3.186  12.241  0.4507 -0.4470  0.2742
  610TMC3    C6 9040   1.370   3.171  12.111 -0.0399 -0.8946  0.0364
  610TMC3     C 9041   1.003   3.324  12.243  0.3411 -0.0843  0.4962
  610TMC3     O 9042   0.961   3.274  12.348  0.4021  0.5775  0.3810
  610TMC3     H 9043   1.084   3.274  11.980 -1.5876 -2.1710  1.4802
  610TMC3    H1 9044   1.204   3.244  12.396  0.3575 -1.7127  0.4607
  610TMC3    H2 9045   1.472   3.153  12.078  0.5771 -0.8731  1.9432
  610TMC3    C7 9046   1.442   3.140  12.331  0.3037  0.9370  0.1284
  610TMC3    C8 9047   1.290   3.155  11.876 -0.3015  0.5649 -0.0251
  610TMC3    O1 9048   1.513   3.045  12.292 -0.0234  0.4825 -0.1810
  610TMC3    O2 9049   1.187   3.168  11.807  0.0390  0.0251 -0.2126
  611MPD2     C 9050   0.077   3.280   9.963  0.1925  0.2262  0.2459
  611MPD2    C1 9051   0.034   3.408   9.934  0.1951 -0.5623 -1.0324
  611MPD2    C2 9052   0.127   3.515   9.919 -0.2028  0.0210 -0.0798
  611MPD2    C3 9053   0.259   3.494   9.942 -0.9475  0.0602  0.0916
  611MPD2    C4 9054   0.296   3.364   9.974 -0.4612 -0.7461 -0.8585
  611MPD2    C5 9055   0.211   3.260   9.983  0.2802  0.3073 -0.1907
  611MPD2     H 9056   0.094   3.618   9.904  1.3629  0.4518 -0.5702
  611MPD2    H1 9057   0.402   3.345   9.990  0.0765  0.6703 -2.8250
  611MPD2    H2 9058   0.013   3.192   9.969 -1.6238  1.4666 -0.9104
  611MPD2    H3 9059   0.252   3.163  10.010  1.2817  0.8242  0.1084
  611MPD2     N 9060   0.361   3.591   9.932  0.0556  0.2583 -0.1503
  611MPD2    H5 9061   0.449   3.565   9.975 -0.5525 -0.5976  0.5782
  611MPD2    N1 9062   4.620   3.420   9.914 -0.1086 -0.0588 -0.1219
  611MPD2    H7 9063   4.564   3.340   9.942  0.2014 -0.5301 -0.8579
  612TMC3    C1 9064   0.458   3.811   9.942 -0.3306  0.6455 -0.7976
  612TMC3    C2 9065   0.573   3.753   9.990  0.2470  0.2187  0.3150
  612TMC3    C3 9066   0.678   3.840  10.011 -0.3393 -0.4713  0.5276
  612TMC3    C4 9067   0.454   3.945   9.909  0.4463 -0.1685 -0.1956
  612TMC3    C5 9068   0.562   4.021   9.919 -0.0231 -0.1197 -0.6154
  612TMC3    C6 9069   0.678   3.969   9.976  0.6128 -0.1859  0.3356
  612TMC3     C 9070   0.336   3.727   9.907 -0.1901  0.4305  0.1829
  612TMC3     O 9071   0.239   3.789   9.867  0.3827  0.7360  1.1996
  612TMC3     H 9072   0.592   3.647   9.996 -0.1237  0.0993 -0.6835
  612TMC3    H1 9073   0.371   3.992   9.857  0.4288 -1.1804 -1.0946
  612TMC3    H2 9074   0.770   4.026   9.984 -0.2281  1.3725 -1.0702
  612TMC3    C7 9075   0.551   4.152   9.857 -0.0901 -0.8241 -0.5032
  612TMC3    C8 9076   0.782   3.799  10.104  0.8834 -0.3851 -0.0349
  612TMC3    O1 9077   0.440   4.187   9.829 -0.6524  0.0894  0.0735
  612TMC3    O2 9078   0.865   3.885  10.128 -0.2343 -0.5619  0.6380
  613MPD2     C 9079   4.376   1.031  16.221  1.0391  0.0286  0.3287
  613MPD2    C1 9080   4.261   0.970  16.241 -0.2927  0.0907 -0.6050
  613MPD2    C2 9081   4.244   0.888  16.355 -0.2609  0.3403  0.3261
  613MPD2    C3 9082   4.346   0.867  16.441 -0.5467 -0.2316 -0.1969
  613MPD2    C4 9083   4.470   0.931  16.418 -0.1408  0.3353 -0.1181
  613MPD2    C5 9084   4.476   1.011  16.311  0.3242 -0.5227  0.6024
  613MPD2     H 9085   4.148   0.837  16.363  1.4178 -2.4035  2.6095
  613MPD2    H1 9086   4.563   0.920  16.472  0.7134 -0.5950 -1.7716
  613MPD2    H2 9087   4.385   1.090  16.130  0.1623  1.6974  1.3226
  613MPD2    H3 9088   4.574   1.052  16.289 -0.4234  0.6504 -0.5018
  613MPD2     N 9089   4.349   0.776  16.552 -0.4548 -0.2606  0.5449
  613MPD2    H5 9090   4.439   0.762  16.596  0.3698 -0.8787 -1.3116
  613MPD2    N1 9091   4.164   0.978  16.137  0.0039 -1.1620  0.2752
  613MPD2    H7 9092   4.194   1.018  16.048 -0.6703 -2.5076 -0.5565
  614TMC3    C1 9093   3.995   0.876  16.022  0.6960  0.1677  0.3746
  614TMC3    C2 9094   4.067   0.768  15.987 -0.0087  0.2368 -0.1540
  614TMC3    C3 9095   4.006   0.676  15.905  0.1399 -0.5207  0.3791
  614TMC3    C4 9096   3.869   0.904  15.968 -0.3615  0.1036 -1.1017
  614TMC3    C5 9097   3.818   0.809  15.886  0.2352 -0.4512  0.5491
  614TMC3    C6 9098   3.886   0.701  15.840 -0.8009  0.1123  1.0241
  614TMC3     C 9099   4.033   0.939  16.146  0.5037  0.4084  0.0273
  614TMC3     O 9100   3.962   0.923  16.243  0.2475  0.2283  0.6654
  614TMC3     H 9101   4.161   0.748  16.038 -0.5413 -0.7904  0.4304
  614TMC3    H1 9102   3.814   0.995  15.992 -0.0829  0.1677 -0.7117
  614TMC3    H2 9103   3.842   0.621  15.782 -1.0645  0.3629  0.8809
  614TMC3    C7 9104   3.704   0.855  15.808  0.4820 -0.6082 -1.0621
  614TMC3    C8 9105   4.056   0.542  15.905  0.6386  0.0909  0.4566
  614TMC3    O1 9106   3.636   0.948  15.856  0.1178 -0.6527 -0.1413
  614TMC3    O2 9107   3.986   0.463  15.840  0.4218 -0.1073  0.3307
  615MPD2     C 9108   3.619   2.059  15.812 -0.4044  0.1819 -0.5410
  615MPD2    C1 9109   3.492   2.087  15.868 -0.6460  0.0941  0.3968
  615MPD2    C2 9110   3.380   2.022  15.813 -0.6006  0.3238 -0.4441
  615MPD2    C3 9111   3.404   1.933  15.705  0.1263  0.3066 -0.6670
  615MPD2    C4 9112   3.530   1.906  15.650  0.0686 -0.3591  0.8887
  615MPD2    C5 9113   3.633   1.970  15.704 -0.3751 -0.0860  0.2037
  615MPD2     H 9114   3.282   2.047  15.852 -0.2833  0.0405  0.5522
  615MPD2    H1 9115   3.535   1.834  15.569 -0.6901 -0.6390  1.0811
  615MPD2    H2 9116   3.710   2.097  15.857 -0.4763 -0.0411 -0.2108
  615MPD2    H3 9117   3.733   1.944  15.670  0.7168  0.5568  2.9361
  615MPD2     N 9118   3.302   1.862  15.637  0.1626  0.0208  0.2160
  615MPD2    H5 9119   3.329   1.793  15.567  0.2086 -0.9506  1.1826
  615MPD2    N1 9120   3.479   2.184  15.973  0.4463 -0.1357  0.2621
  615MPD2    H7 9121   3.381   2.186  16.002  0.4896 -3.9014  0.5764
  616TMC3    C1 9122   3.538   2.323  16.147 -1.0279  0.2688  0.4513
  616TMC3    C2 9123   3.637   2.401  16.205 -0.6359  0.9763 -0.0390
  616TMC3    C3 9124   3.601   2.514  16.271  0.0127  0.2498 -0.4106
  616TMC3    C4 9125   3.401   2.352  16.162 -0.8613 -0.8562 -0.2614
  616TMC3    C5 9126   3.374   2.456  16.238 -0.6159 -0.9085  0.5077
  616TMC3    C6 9127   3.467   2.535  16.291  0.4351 -0.6396  0.3282
  616TMC3     C 9128   3.585   2.237  16.041 -0.4423  0.0824  0.8281
  616TMC3     O 9129   3.710   2.229  16.025  0.2332  0.3852 -0.4846
  616TMC3     H 9130   3.741   2.376  16.186 -0.5374  0.4875  1.1519
  616TMC3    H1 9131   3.323   2.296  16.111 -2.8607  0.7554  1.0099
  616TMC3    H2 9132   3.431   2.626  16.337 -0.6846 -0.9668  0.1065
  616TMC3    C7 9133   3.240   2.470  16.295  0.4587  0.0108 -0.8333
  616TMC3    C8 9134   3.701   2.616  16.299 -0.5404  0.4689 -0.5161
  616TMC3    O1 9135   3.226   2.562  16.377  0.3357 -0.1539 -0.0962
  616TMC3    O2 9136   3.655   2.728  16.321 -0.5666 -0.2618  0.0566
  617MPD2     C 9137   1.597   0.074  13.467  0.8211  0.3664  0.1953
  617MPD2    C1 9138   1.559   0.063  13.599 -0.4115 -0.3240  0.0217
  617MPD2    C2 9139   1.432   0.014  13.626 -0.6370  0.1845  0.1558
  617MPD2    C3 9140   1.344   4.704  13.521  0.7273 -0.2661 -0.0546
  617MPD2    C4 9141   1.380   4.714  13.392  0.3677  0.4732 -0.2602
  617MPD2    C5 9142   1.503   0.044  13.366  0.2611  0.0960 -0.2269
  617MPD2     H 9143   1.397   4.719  13.727  0.1496  0.1753  0.4290
  617MPD2    H1 9144   1.315   4.683  13.310  1.4250 -0.5129 -0.7283
  617MPD2    H2 9145   1.696   0.091  13.429  0.5845  2.4478  0.4920
  617MPD2    H3 9146   1.540   0.058  13.265  2.4757 -1.6818  0.3541
  617MPD2     N 9147   1.210   4.650  13.543  1.0019 -0.8962 -0.0013
  617MPD2    H5 9148   1.166   4.589  13.474 -0.8219 -0.1800  0.5273
  617MPD2    N1 9149   1.652   0.104  13.688 -0.4444  0.1122 -0.3769
  617MPD2    H7 9150   1.718   0.168  13.645  0.8012 -1.1809 -0.3946
  618TMC3    C1 9151   1.778   0.153  13.876  1.3635  0.5559  1.0072
  618TMC3    C2 9152   1.881   0.071  13.919 -0.2713 -0.3870  0.0643
  618TMC3    C3 9153   2.011   0.106  13.917  0.1946  0.1810  0.2137
  618TMC3    C4 9154   1.811   0.276  13.826  0.2300  0.1958  0.5942
  618TMC3    C5 9155   1.940   0.310  13.816  0.0485  0.6241 -1.1928
  618TMC3    C6 9156   2.037   0.234  13.874 -1.1207 -0.3853 -0.1392
  618TMC3     C 9157   1.665   0.077  13.821  0.5333 -0.0021 -0.4305
  618TMC3     O 9158   1.607   4.711  13.881 -0.2034 -0.1895 -0.0305
  618TMC3     H 9159   1.856   4.692  13.938  0.5297 -0.9235 -1.8386
  618TMC3    H1 9160   1.732   0.343  13.793 -0.0140 -0.0714  0.6340
  618TMC3    H2 9161   2.138   0.267  13.851 -1.5342  0.1782 -1.1440
  618TMC3    C7 9162   1.960   0.335  13.671  0.1890  1.0223 -0.5404
  618TMC3    C8 9163   2.098   4.721  13.872  0.6647  0.4971 -0.8145
  618TMC3    O1 9164   1.866   0.289  13.607  0.3068 -0.1690 -0.1039
  618TMC3    O2 9165   2.047   4.627  13.817  0.3344  0.1093  0.0948
  619MPD2     C 9166   3.379   1.899  13.535 -0.2023  0.9894  0.0465
  619MPD2    C1 9167   3.290   1.964  13.449 -0.1229 -0.0790  0.2566
  619MPD2    C2 9168   3.174   1.901  13.421  0.1972  0.0591 -0.1167
  619MPD2    C3 9169   3.126   1.790  13.489 -0.5940 -0.4828  0.1558
  619MPD2    C4 9170   3.213   1.730  13.584 -0.1774  0.0515 -0.5004
  619MPD2    C5 9171   3.340   1.784  13.597  0.4145  0.7207  0.7814
  619MPD2     H 9172   3.106   1.950  13.352  1.1218  1.2101 -0.2182
  619MPD2    H1 9173   3.189   1.641  13.640 -0.1439  0.7259  0.5745
  619MPD2    H2 9174   3.470   1.953  13.557  0.1707 -0.4015  1.9295
  619MPD2    H3 9175   3.408   1.742  13.671  0.1140 -0.3475  0.4416
  619MPD2     N 9176   3.003   1.727  13.462  0.2668  0.6109  0.0843
  619MPD2    H5 9177   2.975   1.655  13.529 -0.7611 -0.0569 -1.0582
  619MPD2    N1 9178   3.314   2.087  13.383 -0.0848 -0.9591  0.7532
  619MPD2    H7 9179   3.242   2.116  13.318  0.2574  1.0109  1.2671
  620TMC3    C1 9180   3.424   2.292  13.332  0.3262  0.7668  1.0947
  620TMC3    C2 9181   3.346   2.290  13.216  0.0927  0.3750 -0.0347
  620TMC3    C3 9182   3.269   2.401  13.178  0.0865 -0.0397  0.7106
  620TMC3    C4 9183   3.419   2.392  13.416  0.3124  0.4041 -0.4918
  620TMC3    C5 9184   3.353   2.509  13.374 -0.3233  0.1682 -0.2482
  620TMC3    C6 9185   3.292   2.520  13.249 -0.4383 -0.2251  0.2126
  620TMC3     C 9186   3.420   2.173  13.412 -0.2163 -0.7393 -0.3598
  620TMC3     O 9187   3.526   2.162  13.474  0.5485 -0.4056  0.6561
  620TMC3     H 9188   3.341   2.196  13.162 -0.0690 -0.3478  1.2258
  620TMC3    H1 9189   3.479   2.387  13.506  0.0548  2.6739 -0.1801
  620TMC3    H2 9190   3.252   2.615  13.214  0.2768 -0.2350 -0.6391
  620TMC3    C7 9191   3.293   2.595  13.472  0.2065 -0.0789  0.6622
  620TMC3    C8 9192   3.126   2.369  13.202  0.3155 -0.6727 -0.2968
  620TMC3    O1 9193   3.212   2.676  13.428 -0.3640  0.2589  0.1978
  620TMC3    O2 9194   3.079   2.428  13.296 -0.0308  0.3864 -0.1458
  621MPD2     C 9195   2.876   1.768  10.318  0.6672  0.4503  0.4250
  621MPD2    C1 9196   2.935   1.677  10.228 -0.0392  0.1564  0.4452
  621MPD2    C2 9197   3.062   1.708  10.184 -0.0012  0.6833 -0.0034
  621MPD2    C3 9198   3.117   1.834  10.207 -0.3222  0.0105 -0.4290
  621MPD2    C4 9199   3.057   1.920  10.296 -0.3446 -1.0178  0.0685
  621MPD2    C5 9200   2.940   1.887  10.349 -0.2613 -0.4939 -0.9862
  621MPD2     H 9201   3.109   1.633  10.121  0.8215  1.1450  0.0660
  621MPD2    H1 9202   3.088   2.021  10.321  0.1149 -0.4907 -2.6768
  621MPD2    H2 9203   2.785   1.745  10.372  0.8762 -0.0286  0.5673
  621MPD2    H3 9204   2.885   1.952  10.416 -1.2527 -0.4596 -1.8223
  621MPD2     N 9205   3.223   1.869  10.128  0.0711  0.6260 -0.5622
  621MPD2    H5 9206   3.276   1.806  10.069  2.8931  2.1276  0.3822
  621MPD2    N1 9207   2.877   1.554  10.189 -0.4198 -0.3006 -0.0020
  621MPD2    H7 9208   2.924   1.477  10.142 -0.9126 -1.2063  0.9970
  622TMC3    C1 9209   2.707   1.389  10.159 -0.2752 -0.2376  0.1629
  622TMC3    C2 9210   2.582   1.362  10.096  0.3302 -0.0051  0.8920
  622TMC3    C3 9211   2.553   1.229  10.076 -0.0429 -0.4686  0.1494
  622TMC3    C4 9212   2.791   1.291  10.195 -0.3296  0.5718  0.1787
  622TMC3    C5 9213   2.757   1.161  10.165  1.0889 -0.4096  0.1198
  622TMC3    C6 9214   2.639   1.123  10.102 -0.5404 -0.4263  0.0152
  622TMC3     C 9215   2.742   1.526  10.204 -0.4667 -0.0927  0.2932
  622TMC3     O 9216   2.646   1.598  10.236  0.1552  0.1394 -0.2241
  622TMC3     H 9217   2.511   1.443  10.087  0.6144  0.4955  3.1491
  622TMC3    H1 9218   2.881   1.303  10.253  1.6213  2.4631 -3.2420
  622TMC3    H2 9219   2.611   1.018  10.108  2.5974 -1.1621  2.1131
  622TMC3    C7 9220   2.832   1.057  10.229  0.9595 -0.1224  0.1143
  622TMC3    C8 9221   2.424   1.197  10.038  0.0348 -0.7257  0.7263
  622TMC3    O1 9222   2.898   1.087  10.325 -0.0054 -0.1619 -0.5286
  622TMC3    O2 9223   2.400   1.077  10.034  0.2223  0.6235 -0.2568
  623MPD2     C 9224   2.091   2.075  15.731 -0.1781 -0.5665 -0.2948
  623MPD2    C1 9225   2.012   2.033  15.839  0.2699  1.2042 -0.2520
  623MPD2    C2 9226   2.072   2.012  15.961  0.2979 -0.9803  0.4081
  623MPD2    C3 9227   2.210   2.046  15.977  0.5001 -0.0062 -0.8718
  623MPD2    C4 9228   2.284   2.095  15.873  0.0765  0.5280 -0.0370
  623MPD2    C5 9229   2.226   2.112  15.751 -0.4302  0.2449  0.3320
  623MPD2     H 9230   2.012   1.968  16.040  1.2358  0.8426  2.1090
  623MPD2    H1 9231   2.388   2.124  15.876 -0.1284  0.7540  4.3210
  623MPD2    H2 9232   2.056   2.080  15.629 -0.4292  1.9273 -0.0688
  623MPD2    H3 9233   2.283   2.153  15.669  0.3646  2.3712  1.9517
  623MPD2     N 9234   2.261   2.022  16.108 -0.1052 -0.3220 -0.2415
  623MPD2    H5 9235   2.192   2.004  16.179 -1.0235 -0.2481 -1.1152
  623MPD2    N1 9236   1.872   2.000  15.829  0.0550  0.2238  0.3476
  623MPD2    H7 9237   1.831   1.973  15.917  1.0991 -2.2530  0.0646
  624TMC3    C1 9238   2.457   2.148  16.505  0.4188  0.1650 -0.1782
  624TMC3    C2 9239   2.367   2.086  16.573 -0.4022 -0.2473 -0.0272
  624TMC3    C3 9240   2.283   2.003  16.500 -0.0456 -0.3676  0.7879
  624TMC3    C4 9241   2.473   2.137  16.372  0.4135 -0.3810 -1.0604
  624TMC3    C5 9242   2.389   2.048  16.304  0.0144 -0.4560  0.5650
  624TMC3    C6 9243   2.300   1.970  16.370 -0.4965  0.5177 -0.7272
  624TMC3     C 9244   2.585   2.152  16.577  0.9432  0.9020 -0.7194
  624TMC3     O 9245   2.594   2.207  16.686 -0.0066  0.3903  0.1848
  624TMC3     H 9246   2.366   2.104  16.680 -0.2680  1.2528 -0.2834
  624TMC3    H1 9247   2.543   2.193  16.311  0.8856  1.5212  1.2295
  624TMC3    H2 9248   2.249   1.891  16.315  0.5605 -1.6904  1.4721
  624TMC3    C7 9249   2.384   2.060  16.157 -0.0111 -0.0292 -0.4100
  624TMC3    C8 9250   2.167   1.938  16.559  0.2267  0.3380  0.8262
  624TMC3    O1 9251   2.481   2.115  16.105 -0.1123 -0.2432 -0.1373
  624TMC3    O2 9252   2.138   1.828  16.515 -0.4222  0.0412  0.1244
  625MPD2     C 9253   2.652   2.827   0.516 -0.0991  0.0188 -0.2523
  625MPD2    C1 9254   2.703   2.948   0.558 -0.0835 -0.1524 -0.2895
  625MPD2    C2 9255   2.836   2.944   0.589  0.2804 -0.0589 -0.5247
  625MPD2    C3 9256   2.920   2.838   0.599 -0.1595  0.2781 -0.6689
  625MPD2    C4 9257   2.864   2.717   0.575  0.2531  0.4392 -0.3565
  625MPD2    C5 9258   2.731   2.716   0.527 -0.1582 -0.0088  0.1379
  625MPD2     H 9259   2.880   3.041   0.607  1.1623 -0.8287  1.4840
  625MPD2    H1 9260   2.918   2.623   0.582  0.4110  0.4624 -1.3125
  625MPD2    H2 9261   2.555   2.815   0.471  0.8172  0.3054 -2.3019
  625MPD2    H3 9262   2.674   2.625   0.507 -2.2179  1.5339 -0.9954
  625MPD2     N 9263   3.054   2.856   0.627  0.1347 -0.3329 -0.3135
  625MPD2    H5 9264   3.087   2.947   0.658  1.8935 -0.8228 -0.7277
  625MPD2    N1 9265   2.636   3.072   0.539  0.1211 -0.2859 -0.3026
  625MPD2    H7 9266   2.698   3.152   0.547 -0.8890  0.4643  0.0076
  626TMC3    C1 9267   2.454   3.223   0.529  0.1302  0.2545 -0.4304
  626TMC3    C2 9268   2.348   3.263   0.454 -0.2258 -0.4611  0.4146
  626TMC3    C3 9269   2.323   3.395   0.448 -0.1692  0.0484  0.2359
  626TMC3    C4 9270   2.532   3.321   0.593 -0.4298  0.3563 -0.0606
  626TMC3    C5 9271   2.497   3.448   0.595  0.3101 -0.4170 -0.5613
  626TMC3    C6 9272   2.393   3.490   0.524 -0.3012  0.1708 -0.4814
  626TMC3     C 9273   2.502   3.087   0.508 -0.0765 -0.3602 -0.3288
  626TMC3     O 9274   2.417   3.003   0.500 -0.1265  0.2543 -0.1021
  626TMC3     H 9275   2.304   3.197   0.380 -0.6108 -0.9565  1.0927
  626TMC3    H1 9276   2.623   3.301   0.649 -0.5122  2.8518  0.9576
  626TMC3    H2 9277   2.355   3.592   0.525 -1.5811 -0.3090  1.3192
  626TMC3    C7 9278   2.544   3.527   0.709 -0.5016  0.3242  0.3376
  626TMC3    C8 9279   2.244   3.451   0.339  0.0136 -0.1198 -0.0242
  626TMC3    O1 9280   2.645   3.484   0.760 -0.2474  0.4947  0.0649
  626TMC3    O2 9281   2.263   3.569   0.305  0.2304  0.2899 -0.1696
  627MPD2     C 9282   0.536   3.557  14.324  0.5202 -0.2266 -0.0874
  627MPD2    C1 9283   0.670   3.555  14.370 -0.3445  0.0098 -0.4862
  627MPD2    C2 9284   0.740   3.438  14.370 -0.4881 -0.2788 -0.1671
  627MPD2    C3 9285   0.691   3.327  14.304 -0.3109 -0.3109  0.7212
  627MPD2    C4 9286   0.558   3.329  14.259  0.1875  0.3876 -0.1435
  627MPD2    C5 9287   0.485   3.443  14.270  0.3343 -0.8591  0.4751
  627MPD2     H 9288   0.838   3.441  14.416  1.5712 -0.3827 -4.5580
  627MPD2    H1 9289   0.511   3.246  14.207 -2.0517  0.4358  1.7982
  627MPD2    H2 9290   0.468   3.640  14.341  2.0789  0.6727  1.6769
  627MPD2    H3 9291   0.380   3.435  14.243  0.9054  1.1968 -2.3982
  627MPD2     N 9292   0.770   3.213  14.284  0.4939  0.3022 -0.3020
  627MPD2    H5 9293   0.870   3.231  14.283  1.0793 -3.1652 -2.2178
  627MPD2    N1 9294   0.734   3.671  14.433  0.0286 -0.1310  0.3899
  627MPD2    H7 9295   0.828   3.663  14.470  0.0833 -1.2876 -0.0082
  628TMC3    C1 9296   0.776   3.897  14.480  0.1749  0.1691 -0.7084
  628TMC3    C2 9297   0.879   3.865  14.567  0.4655  0.0942  0.1067
  628TMC3    C3 9298   0.924   3.965  14.645 -0.0069 -0.8524  0.1938
  628TMC3    C4 9299   0.745   4.029  14.453  1.1480 -0.1612 -0.4800
  628TMC3    C5 9300   0.805   4.122  14.527  0.3665  0.2059 -0.1613
  628TMC3    C6 9301   0.881   4.100  14.640  0.1924 -0.0355 -0.4750
  628TMC3     C 9302   0.681   3.801  14.421 -0.1659 -0.0666  0.1395
  628TMC3     O 9303   0.602   3.840  14.341 -0.2354 -0.1219  0.0197
  628TMC3     H 9304   0.899   3.762  14.591  0.2091 -0.0846 -0.4630
  628TMC3    H1 9305   0.684   4.055  14.367 -0.2872 -0.5346  0.4305
  628TMC3    H2 9306   0.949   4.176  14.675 -1.5094  1.9006 -1.3705
  628TMC3    C7 9307   0.777   4.262  14.497 -0.2470  0.0600  0.3389
  628TMC3    C8 9308   1.054   3.953  14.706  0.0503 -0.0153 -0.2029
  628TMC3    O1 9309   0.771   4.336  14.590  0.1892  0.2074  0.0722
  628TMC3    O2 9310   1.124   4.055  14.720 -0.4213  0.0298  0.0655
  629MPD2     C 9311   4.171   2.830  16.292  0.1753 -0.3549  0.1885
  629MPD2    C1 9312   4.179   2.694  16.261 -1.2107  0.0791 -1.0078
  629MPD2    C2 9313   4.072   2.609  16.270 -0.9222 -0.7796 -0.1412
  629MPD2    C3 9314   3.943   2.660  16.300  0.0851  0.4477  0.0576
  629MPD2    C4 9315   3.930   2.797  16.316 -0.5834 -0.1270  0.3461
  629MPD2    C5 9316   4.045   2.879  16.319  0.6008  0.1731  0.2356
  629MPD2     H 9317   4.087   2.502  16.268  0.2080 -0.5958 -1.6217
  629MPD2    H1 9318   3.839   2.847  16.348 -0.8744 -1.0894  1.0164
  629MPD2    H2 9319   4.253   2.900  16.300  0.0448  0.0111 -1.5396
  629MPD2    H3 9320   4.034   2.986  16.330 -1.1665 -0.2469  2.4708
  629MPD2     N 9321   3.831   2.571  16.296 -0.1582 -0.9103  0.2461
  629MPD2    H5 9322   3.853   2.473  16.282 -1.0927 -1.3248  1.6534
  629MPD2    N1 9323   4.310   2.653  16.240 -0.4914 -0.9247  0.0302
  629MPD2    H7 9324   4.379   2.727  16.233  0.0374 -1.4016  0.2285
  630TMC3    C1 9325   4.496   2.516  16.191  0.2340  0.9040 -0.1519
  630TMC3    C2 9326   4.556   2.603  16.106  0.4864 -0.1759  0.0210
  630TMC3    C3 9327   4.690   2.582  16.085  0.4381  0.1918 -0.5224
  630TMC3    C4 9328   4.550   2.419  16.265  0.6074  0.3577  0.3475
  630TMC3    C5 9329   4.686   2.444  16.283  0.0659  0.7739  0.3676
  630TMC3    C6 9330   0.031   2.507  16.182 -0.5880 -1.1938  0.6030
  630TMC3     C 9331   4.351   2.525  16.217 -0.1176  0.4097 -0.3327
  630TMC3     O 9332   4.286   2.424  16.211  0.4805 -0.0475  0.2958
  630TMC3     H 9333   4.496   2.672  16.047 -0.9120  0.4053  2.0729
  630TMC3    H1 9334   4.503   2.380  16.355  1.7908 -0.7941  0.4730
  630TMC3    H2 9335   0.139   2.501  16.179 -0.6356 -1.1502 -0.9387
  630TMC3    C7 9336   0.009   2.465  16.413 -0.6194  0.2730  0.1464
  630TMC3    C8 9337   0.042   2.692  16.059  0.1223  0.6860 -0.3874
  630TMC3    O1 9338   4.688   2.396  16.506  0.2708  0.4357  0.0068
  630TMC3    O2 9339   0.095   2.737  16.155 -0.3424  0.1625 -0.1263
  631MPD2     C 9340   2.342   1.841  15.495 -0.6883 -0.3948  0.2384
  631MPD2    C1 9341   2.419   1.879  15.384 -0.1479 -0.2908 -0.3372
  631MPD2    C2 9342   2.542   1.821  15.374  0.1240 -0.2530  0.4669
  631MPD2    C3 9343   2.585   1.724  15.468 -0.0554  0.2852 -0.7464
  631MPD2    C4 9344   2.502   1.672  15.562  0.4013  0.5458 -0.1762
  631MPD2    C5 9345   2.374   1.732  15.571 -0.1650  0.6566 -0.1027
  631MPD2     H 9346   2.611   1.853  15.297 -0.2720  2.4131  1.2044
  631MPD2    H1 9347   2.522   1.596  15.636  0.6227  0.4684 -0.3152
  631MPD2    H2 9348   2.244   1.886  15.504  0.3269  1.2910  2.9912
  631MPD2    H3 9349   2.308   1.705  15.653  0.7032  1.3469  0.8377
  631MPD2     N 9350   2.723   1.692  15.462 -0.2782 -0.0262  0.8560
  631MPD2    H5 9351   2.779   1.753  15.403  0.1152 -1.5362 -0.3325
  631MPD2    N1 9352   2.380   1.987  15.302  0.1032  0.0560  0.2947
  631MPD2    H7 9353   2.289   2.028  15.318 -1.1488 -2.3171 -0.7648
  632TMC3    C1 9354   2.379   2.192  15.197 -0.4416 -0.3522 -0.1110
  632TMC3    C2 9355   2.355   2.247  15.320  1.1741 -0.7720  0.5809
  632TMC3    C3 9356   2.394   2.376  15.347 -0.2215 -0.0534 -0.3990
  632TMC3    C4 9357   2.437   2.266  15.102 -0.6611 -0.0655  0.5405
  632TMC3    C5 9358   2.472   2.397  15.127 -0.1169  0.0242  0.6714
  632TMC3    C6 9359   2.454   2.451  15.250  0.8559 -0.1487 -0.4336
  632TMC3     C 9360   2.448   2.063  15.215 -0.4241 -0.7238 -0.1115
  632TMC3     O 9361   2.559   2.054  15.161  0.2151 -0.2114  0.0393
  632TMC3     H 9362   2.315   2.192  15.405  2.3388 -1.3721  0.7525
  632TMC3    H1 9363   2.458   2.232  15.001  0.9922  2.8254 -0.0612
  632TMC3    H2 9364   2.490   2.553  15.258  2.5570 -0.8540  0.7189
  632TMC3    C7 9365   2.554   2.470  15.026 -0.3719 -0.1754 -0.1076
  632TMC3    C8 9366   2.396   2.420  15.487 -0.3225 -0.0395  0.5383
  632TMC3    O1 9367   2.539   2.447  14.904 -0.3356 -0.0085 -0.1123
  632TMC3    O2 9368   2.335   2.356  15.572 -0.1799  0.2638 -0.2142
  633MPD2     C 9369   2.697   0.827  17.478  0.0949  0.5502 -0.2416
  633MPD2    C1 9370   2.682   0.738  17.380 -0.6139  0.1343  1.0459
  633MPD2    C2 9371   2.630   0.616  17.408  0.1037 -0.1460 -0.3663
  633MPD2    C3 9372   2.586   0.589  17.537 -0.2280 -0.0725 -0.5199
  633MPD2    C4 9373   2.601   0.672  17.642  0.0182  0.3562  0.7064
  633MPD2    C5 9374   2.661   0.794  17.607 -0.6516  0.3239  0.5337
  633MPD2     H 9375   2.616   0.544  17.327  0.1083 -0.0926 -0.4148
  633MPD2    H1 9376   2.588   0.640   0.043 -1.1645 -1.2914  0.0503
  633MPD2    H2 9377   2.748   0.918  17.449 -0.0262 -0.1337 -2.6140
  633MPD2    H3 9378   2.685   0.869  17.681 -0.7931  0.0610  0.8458
  633MPD2     N 9379   2.530   0.464  17.569  0.6490  0.5202  0.9146
  633MPD2    H5 9380   2.520   0.440  17.667  0.8276 -1.5328  0.4310
  633MPD2    N1 9381   2.719   0.764  17.245 -0.1479 -1.1414  0.4374
  633MPD2    H7 9382   2.710   0.687  17.180  2.2839 -2.2862  1.4801
  634TMC3    C1 9383   2.767   0.864  17.043  0.1466  0.5055  0.0142
  634TMC3    C2 9384   2.828   0.751  16.998  0.5399  0.5955  0.1354
  634TMC3    C3 9385   2.834   0.723  16.864  0.0643 -0.9749 -0.8758
  634TMC3    C4 9386   2.700   0.944  16.960  0.2494  0.3902 -0.2243
  634TMC3    C5 9387   2.704   0.910  16.828 -0.3163 -0.3309 -0.8754
  634TMC3    C6 9388   2.767   0.804  16.780 -0.6207  0.6447  0.2960
  634TMC3     C 9389   2.742   0.888  17.187 -0.2790 -0.1146 -0.1349
  634TMC3     O 9390   2.731   1.000  17.229 -0.0020  0.0633  0.3403
  634TMC3     H 9391   2.870   0.682  17.071  0.4079 -1.7761 -2.0384
  634TMC3    H1 9392   2.657   1.031  17.010 -0.5988 -0.8215  1.1674
  634TMC3    H2 9393   2.761   0.781  16.674 -3.0893  2.0142  0.1511
  634TMC3    C7 9394   2.619   0.984  16.734  0.2763 -0.0995 -0.4090
  634TMC3    C8 9395   2.844   0.583  16.829 -0.9761  0.1683 -0.0260
  634TMC3    O1 9396   2.638   0.964  16.616  0.2086 -0.4020 -0.2422
  634TMC3    O2 9397   2.831   0.503  16.920  0.0391 -0.3227  0.1427
  635TMC3    C1 9398   3.277   1.902  16.808 -0.6581  0.4387  0.6568
  635TMC3    C2 9399   3.347   1.850  16.694 -0.0902  0.2429  0.1344
  635TMC3    C3 9400   3.275   1.794  16.596 -1.0245 -0.0849  0.8263
  635TMC3    C4 9401   3.142   1.887  16.814 -0.0724  0.6239 -0.1406
  635TMC3    C5 9402   3.069   1.830  16.709  0.6201 -0.3459  0.8950
  635TMC3    C6 9403   3.141   1.772  16.607 -0.3082  0.6605  0.0116
  635TMC3     C 9404   3.337   1.997  16.890 -0.2928 -0.0249  0.6356
  635TMC3     O 9405   3.286   2.008  16.998 -0.1543  0.1829 -0.3829
  635TMC3     H 9406   3.456   1.852  16.687 -0.1131  1.2778  0.0617
  635TMC3    H1 9407   3.080   1.935  16.888 -2.3078 -1.6636 -0.5167
  635TMC3    H2 9408   3.086   1.729  16.524 -0.9630 -0.0206  0.8066
  635TMC3    C7 9409   2.928   1.812  16.731  0.1694  0.0325  0.0773
  635TMC3    C8 9410   3.340   1.731  16.482  0.3386 -0.7527 -0.2734
  635TMC3    O1 9411   2.892   1.828  16.848  0.1366 -0.5941 -0.2591
  635TMC3    O2 9412   3.299   1.622  16.442 -0.2862  0.6935 -0.2610
  636MPD2     C 9413   3.756   0.512  16.144  0.3954 -0.1047  0.1970
  636MPD2    C1 9414   3.796   0.616  16.235  0.3645  0.1820 -0.2180
  636MPD2    C2 9415   3.886   0.578  16.328  0.4292 -0.6487 -0.6453
  636MPD2    C3 9416   3.936   0.452  16.348 -0.4200  0.1514 -0.2557
  636MPD2    C4 9417   3.911   0.357  16.252 -0.1895  0.2571 -0.6077
  636MPD2    C5 9418   3.815   0.391  16.147 -0.1500  0.0078  0.0858
  636MPD2     H 9419   3.906   0.653  16.404  0.5473 -2.4358  1.0674
  636MPD2    H1 9420   3.945   0.254  16.246 -1.0894  0.0139 -1.5948
  636MPD2    H2 9421   3.695   0.532  16.057 -0.1989 -1.8468  0.2197
  636MPD2    H3 9422   3.787   0.330  16.062  0.5019  1.1389 -0.9523
  636MPD2     N 9423   4.028   0.429  16.450  0.8238 -0.3282  0.6016
  636MPD2    H5 9424   4.050   0.516  16.499  0.8467  0.4483 -0.7900
  636MPD2    N1 9425   3.732   0.743  16.238 -0.0894 -0.2860 -0.3637
  636MPD2    H7 9426   3.781   0.813  16.291 -1.9350 -0.4209  1.4986
  637TMC3    C1 9427   4.192   0.345  16.594 -0.2346  0.2384 -0.2444
  637TMC3    C2 9428   4.178   0.476  16.624  0.3597  0.6823 -0.7931
  637TMC3    C3 9429   4.293   0.554  16.620  0.3036  0.0848  0.1500
  637TMC3    C4 9430   4.310   0.290  16.548  0.2662 -0.2493 -0.8504
  637TMC3    C5 9431   4.418   0.369  16.529 -0.2935  0.4915  0.1551
  637TMC3    C6 9432   4.413   0.495  16.578  0.2289  0.2554 -0.0265
  637TMC3     C 9433   4.085   0.314  16.495  0.2382  0.3022 -0.1315
  637TMC3     O 9434   4.079   0.200  16.452 -0.5561  0.4532 -0.4212
  637TMC3     H 9435   4.084   0.510  16.666  0.3052 -1.0449  0.4541
  637TMC3    H1 9436   4.311   0.185  16.521 -0.4486  0.3996 -3.4156
  637TMC3    H2 9437   4.497   0.561  16.560  2.7333 -2.5675  1.4108
  637TMC3    C7 9438   4.455   0.394  16.390 -0.3043  0.3910 -0.3379
  637TMC3    C8 9439   4.251   0.682  16.567  0.5660 -0.3175  0.6748
  637TMC3    O1 9440   4.485   0.505  16.347  0.2878 -0.1528  0.3421
  637TMC3    O2 9441   4.133   0.693  16.544 -0.0858  0.0637 -0.0417
  638MPD2     C 9442   3.266   4.519  14.903  0.1457  0.0168  0.3053
  638MPD2    C1 9443   3.214   4.429  14.817 -0.1715 -0.3005  0.3809
  638MPD2    C2 9444   3.204   4.297  14.862  0.2181  0.6565  0.7486
  638MPD2    C3 9445   3.249   4.257  14.987  0.0647 -0.7234  0.3705
  638MPD2    C4 9446   3.287   4.356  15.082  0.5535 -0.4241 -0.5369
  638MPD2    C5 9447   3.298   4.486  15.034 -0.0511  0.3611 -0.1314
  638MPD2     H 9448   3.157   4.221  14.801 -1.0566  3.0022 -1.1784
  638MPD2    H1 9449   3.332   4.321  15.174 -0.3467 -0.4862 -0.1124
  638MPD2    H2 9450   3.298   4.614  14.862 -1.2781  0.2682 -0.2225
  638MPD2    H3 9451   3.351   4.561  15.092  0.6489 -0.8454  0.7898
  638MPD2     N 9452   3.238   4.120  15.014 -0.0548  0.2975 -0.3373
  638MPD2    H5 9453   3.188   4.059  14.951 -0.9669 -0.2941  0.9541
  638MPD2    N1 9454   3.187   4.467  14.685  0.2799 -0.5796 -0.0308
  638MPD2    H7 9455   3.193   4.567  14.667  0.3545 -0.6084 -0.1731
  639TMC3    C1 9456   3.275   3.916  15.141 -0.3285 -0.7149  0.0412
  639TMC3    C2 9457   3.148   3.860  15.115  0.3375 -0.7635 -1.0454
  639TMC3    C3 9458   3.143   3.724  15.129 -0.1472  0.5075 -0.0926
  639TMC3    C4 9459   3.383   3.845  15.183 -0.2513  0.2664  0.6730
  639TMC3    C5 9460   3.370   3.709  15.204 -0.7249  0.7173  0.3378
  639TMC3    C6 9461   3.249   3.654  15.179  0.3318  0.3339 -0.2462
  639TMC3     C 9462   3.300   4.064  15.125 -0.4771  0.1362  0.0532
  639TMC3     O 9463   3.380   4.111  15.208  0.4911 -0.5901  0.6463
  639TMC3     H 9464   3.063   3.909  15.067  0.4471 -0.2521 -0.7122
  639TMC3    H1 9465   3.478   3.896  15.169  0.2039  0.0699  2.9011
  639TMC3    H2 9466   3.231   3.547  15.175  0.5970  0.3351 -1.6251
  639TMC3    C7 9467   3.474   3.614  15.182 -0.3145 -0.7758  0.1672
  639TMC3    C8 9468   3.073   3.662  15.016 -0.4168  0.0225 -0.3842
  639TMC3    O1 9469   3.447   3.497  15.193  0.5288 -0.5878  0.6358
  639TMC3    O2 9470   3.083   3.711  14.901  0.0130 -0.0288 -0.2211
  640MPD2     C 9471   3.829   2.215   9.570  0.6859 -0.4846 -0.0084
  640MPD2    C1 9472   3.696   2.238   9.598 -0.2179  0.9756 -0.0735
  640MPD2    C2 9473   3.647   2.364   9.614 -0.0891 -0.0951 -0.6210
  640MPD2    C3 9474   3.728   2.478   9.601 -0.1615 -0.3079 -0.4891
  640MPD2    C4 9475   3.861   2.456   9.567 -0.6456  0.1817 -0.1504
  640MPD2    C5 9476   3.911   2.324   9.553  0.8479  0.5756 -0.3875
  640MPD2     H 9477   3.542   2.366   9.643 -0.0981  1.5645 -0.7832
  640MPD2    H1 9478   3.926   2.539   9.542 -3.1078  2.6319  1.4989
  640MPD2    H2 9479   3.851   2.112   9.544  2.4384 -0.3816  1.0082
  640MPD2    H3 9480   4.011   2.310   9.513  1.1376 -1.5317  1.0696
  640MPD2     N 9481   3.690   2.616   9.603 -0.3072  0.4074 -0.0439
  640MPD2    H5 9482   3.761   2.682   9.572  1.4978 -0.5428  2.0356
  640MPD2    N1 9483   3.605   2.125   9.597 -1.1738  0.5012  0.1607
  640MPD2    H7 9484   3.649   2.034   9.587  0.9253  1.3349  1.7790
  641TMC3    C1 9485   3.413   1.994   9.566  0.5184 -0.1456 -0.7867
  641TMC3    C2 9486   3.480   1.874   9.594  0.9007  0.5468 -0.7523
  641TMC3    C3 9487   3.439   1.767   9.524 -0.1728  0.5587 -0.1988
  641TMC3    C4 9488   3.313   2.002   9.475  0.0669  0.0414  0.1700
  641TMC3    C5 9489   3.280   1.885   9.400 -0.5060  0.9016 -0.1918
  641TMC3    C6 9490   3.342   1.767   9.427 -0.1763 -0.0273  0.0710
  641TMC3     C 9491   3.468   2.118   9.609  0.3805  0.1233  0.4739
  641TMC3     O 9492   3.382   2.203   9.605  0.3449 -0.3422 -0.2180
  641TMC3     H 9493   3.572   1.873   9.651  0.9058 -0.8567 -0.7975
  641TMC3    H1 9494   3.279   2.100   9.443 -1.6522 -0.7175 -0.3328
  641TMC3    H2 9495   3.304   1.672   9.392  0.9543 -0.2749 -0.5133
  641TMC3    C7 9496   3.160   1.885   9.320  0.1649  0.5633 -0.8543
  641TMC3    C8 9497   3.487   1.628   9.558 -0.1030  0.1507  0.2854
  641TMC3    O1 9498   3.119   1.776   9.284  0.6219  0.6084 -0.6096
  641TMC3    O2 9499   3.411   1.538   9.533 -0.3637  0.8800 -0.6287
  642TMC3    C1 9500   4.596   4.310  12.210 -0.6650 -0.3237 -0.2272
  642TMC3    C2 9501   4.718   4.278  12.265  0.3935  0.2431  0.3123
  642TMC3    C3 9502   0.014   4.150  12.300 -0.9698 -0.1639 -0.0462
  642TMC3    C4 9503   4.496   4.225  12.175  0.2264  0.2712  0.2936
  642TMC3    C5 9504   4.521   4.099  12.219 -0.5547  0.0540 -0.2518
  642TMC3    C6 9505   4.641   4.058  12.273  0.3052  0.3888 -0.8969
  642TMC3     C 9506   4.557   4.450  12.226  0.0305 -0.2921 -0.6690
  642TMC3     O 9507   4.657   4.514  12.255 -0.0725 -0.0681  0.0076
  642TMC3     H 9508   0.068   4.355  12.277  2.1065 -1.4294  0.2408
  642TMC3    H1 9509   4.399   4.255  12.136 -0.3191 -0.4826  1.0717
  642TMC3    H2 9510   4.666   3.955  12.292 -1.6745  0.2490  1.0608
  642TMC3    C7 9511   4.415   3.999  12.180  0.0196  0.7495  0.2056
  642TMC3    C8 9512   0.117   4.115  12.401  0.1746 -0.5520  0.6309
  642TMC3    O1 9513   4.345   4.018  12.081  0.1174 -0.4167 -0.1373
  642TMC3    O2 9514   0.102   4.015  12.471  0.1457 -0.3004 -0.4476
  643TMC3    C1 9515   4.424   3.136   0.726 -0.1898 -0.0518 -0.4616
  643TMC3    C2 9516   4.296   3.115   0.751 -0.1276  0.8058  0.3597
  643TMC3    C3 9517   4.224   3.043   0.659 -0.9169  0.5499 -0.4116
  643TMC3    C4 9518   4.485   3.091   0.613 -0.5011  0.2890  0.1674
  643TMC3    C5 9519   4.405   3.021   0.520 -0.3008 -0.1504 -0.0190
  643TMC3    C6 9520   4.276   2.988   0.550 -0.6758  0.2231 -0.5589
  643TMC3     C 9521   4.493   3.236   0.810 -0.0717  0.5652  0.2293
  643TMC3     O 9522   4.417   3.316   0.865  0.1797 -0.4982  0.2587
  643TMC3     H 9523   4.257   3.155   0.844  0.6593  1.7193  0.3013
  643TMC3    H1 9524   4.585   3.122   0.584 -1.1684  1.8919 -0.4612
  643TMC3    H2 9525   4.210   2.961   0.468 -0.8770 -0.0961 -0.2913
  643TMC3    C7 9526   4.427   3.059   0.383 -0.2044 -0.1071  0.3876
  643TMC3    C8 9527   4.093   3.096   0.637  0.4904  0.2391 -0.2998
  643TMC3    O1 9528   4.497   3.159   0.363  0.2289  0.2649  0.1040
  643TMC3    O2 9529   4.002   3.017   0.652  0.3867 -0.2676 -0.5295
  644MPD2     C 9530   2.486   2.155   8.766 -1.0232 -0.5118  0.4320
  644MPD2    C1 9531   2.596   2.224   8.811 -0.2809  0.3678 -0.6465
  644MPD2    C2 9532   2.580   2.350   8.862 -0.4404 -0.2572  0.4287
  644MPD2    C3 9533   2.450   2.411   8.862  0.2845 -1.0381  0.3868
  644MPD2    C4 9534   2.337   2.340   8.824  0.5140 -0.7813 -0.0482
  644MPD2    C5 9535   2.355   2.206   8.782  0.0138  0.0586  0.3546
  644MPD2     H 9536   2.670   2.401   8.895 -0.1695  0.1947 -1.0442
  644MPD2    H1 9537   2.235   2.370   8.841  0.3101 -1.0623 -0.7823
  644MPD2    H2 9538   2.494   2.049   8.749 -2.0968 -0.6187  0.5791
  644MPD2    H3 9539   2.267   2.145   8.765 -0.5848  0.9113  0.3848
  644MPD2     N 9540   2.442   2.541   8.921  0.5595  0.2038 -0.3640
  644MPD2    H5 9541   2.535   2.575   8.943  0.4029  1.0861 -1.0745
  644MPD2    N1 9542   2.717   2.148   8.816 -0.5429 -0.0890 -0.1591
  644MPD2    H7 9543   2.725   2.052   8.785 -0.8228 -0.5970  1.3145
  645TMC3    C1 9544   2.358   2.750   8.994 -0.1201  0.2271 -0.3576
  645TMC3    C2 9545   2.238   2.815   9.028  0.0847  0.3771  0.1157
  645TMC3    C3 9546   2.245   2.953   9.053  0.1095 -0.2469 -0.0205
  645TMC3    C4 9547   2.478   2.819   8.979  0.0350 -0.1383 -0.8120
  645TMC3    C5 9548   2.478   2.953   9.009 -0.0237  0.2909 -0.7362
  645TMC3    C6 9549   2.366   3.021   9.042 -0.4474  0.0496  0.6765
  645TMC3     C 9550   2.331   2.616   8.947 -0.4009  0.3260  0.9447
  645TMC3     O 9551   2.210   2.588   8.920  0.0022 -0.1105 -0.3769
  645TMC3     H 9552   2.145   2.760   9.035  0.3876 -0.0528  0.6845
  645TMC3    H1 9553   2.568   2.771   8.942  0.1711 -0.6706  0.2167
  645TMC3    H2 9554   2.381   3.119   9.084  0.2987  0.4032 -0.4085
  645TMC3    C7 9555   2.611   3.019   9.028 -0.0940  0.2670 -0.1914
  645TMC3    C8 9556   2.127   3.038   9.074 -0.2783  0.4647  0.1863
  645TMC3    O1 9557   2.612   3.140   9.010 -0.1025  0.0192 -0.5144
  645TMC3    O2 9558   2.151   3.154   9.108 -0.4235 -0.0626 -0.0964
  646MPD2     C 9559   3.653   3.268  14.347 -0.5558 -0.1825  0.1313
  646MPD2    C1 9560   3.588   3.165  14.407 -0.2081 -0.5760  0.1749
  646MPD2    C2 9561   3.449   3.172  14.409 -0.6674 -0.2506  0.5101
  646MPD2    C3 9562   3.378   3.273  14.346  0.2892  0.2017 -0.3154
  646MPD2    C4 9563   3.450   3.375  14.285 -0.5649 -0.4281  0.1977
  646MPD2    C5 9564   3.586   3.372  14.288 -0.0071 -0.6431 -0.0830
  646MPD2     H 9565   3.379   3.102  14.456 -1.8378  0.4386 -0.2095
  646MPD2    H1 9566   3.398   3.454  14.232  0.2623 -1.1291 -1.6594
  646MPD2    H2 9567   3.760   3.284  14.346 -0.5250 -0.4196 -0.2688
  646MPD2    H3 9568   3.644   3.449  14.237  1.1496 -1.4142  0.0770
  646MPD2     N 9569   3.237   3.265  14.331 -0.2811 -0.4105 -0.2308
  646MPD2    H5 9570   3.187   3.238  14.415  0.3417  2.5052  1.0724
  646MPD2    N1 9571   3.671   3.069  14.475  0.4954 -0.0339  0.5190
  646MPD2    H7 9572   3.764   3.074  14.434  0.9733 -0.0703  1.5942
  647TMC3    C1 9573   3.730   2.871  14.589 -0.2574 -0.2226 -0.7353
  647TMC3    C2 9574   3.695   2.745  14.621  0.4878 -0.0424  0.1386
  647TMC3    C3 9575   3.778   2.641  14.629 -0.6426 -0.1092  0.0090
  647TMC3    C4 9576   3.860   2.897  14.569  0.9088 -0.4105  0.6210
  647TMC3    C5 9577   3.954   2.802  14.604  0.0282  0.4718 -0.4377
  647TMC3    C6 9578   3.912   2.668  14.629  0.5423  0.3369 -0.5549
  647TMC3     C 9579   3.624   2.966  14.549 -0.0771 -0.2482 -0.4312
  647TMC3     O 9580   3.509   2.936  14.575  0.2975 -0.6260 -0.2660
  647TMC3     H 9581   3.591   2.721  14.603 -0.1803  1.6377  1.7811
  647TMC3    H1 9582   3.893   2.999  14.554  1.2805 -0.3853  1.5762
  647TMC3    H2 9583   3.982   2.589  14.655  1.4828  1.1345 -0.6748
  647TMC3    C7 9584   4.090   2.840  14.610  0.3548  0.2869  0.1810
  647TMC3    C8 9585   3.757   2.511  14.702 -0.0452  0.0878  0.2884
  647TMC3    O1 9586   4.114   2.959  14.588  0.1430  0.1365 -0.1974
  647TMC3    O2 9587   3.840   2.425  14.697 -0.0651 -0.0144  0.3038
  648TMC3    C1 9588   3.164   0.582  16.152  0.2991 -0.3094 -0.5687
  648TMC3    C2 9589   3.235   0.466  16.144 -0.6978 -0.1158 -0.4708
  648TMC3    C3 9590   3.194   0.390  16.039 -0.0483 -0.6164  0.2156
  648TMC3    C4 9591   3.072   0.631  16.065  0.9179  0.2463  0.0499
  648TMC3    C5 9592   3.055   0.561  15.954  0.0716  0.7978  0.3123
  648TMC3    C6 9593   3.111   0.432  15.934 -0.2417  0.5399 -0.2107
  648TMC3     C 9594   3.185   0.671  16.269  0.5601 -0.6047  0.2073
  648TMC3     O 9595   3.096   0.750  16.291  0.5383  0.1201  0.8032
  648TMC3     H 9596   3.291   0.432  16.230 -1.3379 -2.8368 -1.1215
  648TMC3    H1 9597   3.012   0.720  16.081  1.5412  0.5604  0.6767
  648TMC3    H2 9598   3.074   0.367  15.856  0.2454 -0.4686  0.3980
  648TMC3    C7 9599   2.973   0.607  15.851 -0.1508 -0.1931  0.3890
  648TMC3    C8 9600   3.237   0.248  16.036 -0.3535 -0.8242  0.1373
  648TMC3    O1 9601   2.990   0.562  15.736 -0.0178 -0.0176 -0.0162
  648TMC3    O2 9602   3.298   0.215  16.139  0.0794 -0.4232 -0.2284
  649TMC3    C1 9603   2.009   1.669  12.541 -0.0818 -0.3049 -0.2827
  649TMC3    C2 9604   2.152   1.675  12.532 -0.0196 -0.1495  0.0627
  649TMC3    C3 9605   2.228   1.654  12.646 -0.3938  0.8330 -0.1753
  649TMC3    C4 9606   1.957   1.644  12.665  0.5277 -0.3348 -0.7446
  649TMC3    C5 9607   2.037   1.611  12.771  0.0989  0.1771  0.0378
  649TMC3    C6 9608   2.173   1.615  12.770 -0.2462  0.3822 -0.5426
  649TMC3     C 9609   1.914   1.690  12.429 -0.3833 -0.0023 -0.2267
  649TMC3     O 9610   1.798   1.681  12.461 -0.3184 -0.6137  0.5342
  649TMC3     H 9611   2.198   1.690  12.435 -1.1281  2.6423 -0.0280
  649TMC3    H1 9612   1.851   1.629  12.683  0.9626 -1.1394  1.1569
  649TMC3    H2 9613   2.225   1.611  12.865 -1.5631 -0.7661  0.1017
  649TMC3    C7 9614   1.979   1.590  12.898  0.6755  0.9317 -0.0714
  649TMC3    C8 9615   2.371   1.690  12.642 -0.1110 -0.0176  0.3667
  649TMC3    O1 9616   1.875   1.655  12.920  0.0769 -0.3651  0.1451
  649TMC3    O2 9617   2.450   1.633  12.718 -0.5251  0.3306  0.0402
  650TMC3    C1 9618   3.874   3.628  12.465  0.1094  0.7545  0.0688
  650TMC3    C2 9619   3.829   3.748  12.522  0.3932  0.1483 -0.4697
  650TMC3    C3 9620   3.721   3.806  12.463 -0.6675  0.4723 -0.7873
  650TMC3    C4 9621   3.823   3.582  12.344  0.3135 -0.0531 -0.1287
  650TMC3    C5 9622   3.729   3.658  12.288  0.3623  0.5813 -0.6082
  650TMC3    C6 9623   3.663   3.760  12.347  0.2030 -0.0679 -0.0731
  650TMC3     C 9624   3.962   3.548  12.544 -0.2610  0.0395  0.4015
  650TMC3     O 9625   3.989   3.585  12.658 -0.0446 -0.1074  0.3115
  650TMC3     H 9626   3.876   3.787  12.612 -0.9912 -0.7282  0.6392
  650TMC3    H1 9627   3.869   3.498  12.291  0.9286 -0.3872  0.9330
  650TMC3    H2 9628   3.574   3.806  12.306  0.4404 -0.0297 -0.5459
  650TMC3    C7 9629   3.697   3.641  12.149 -0.3452  0.2124  0.7019
  650TMC3    C8 9630   3.685   3.940  12.505  0.4375  0.3201 -0.6486
  650TMC3    O1 9631   3.705   3.528  12.099 -0.0590 -0.2977  0.1778
  650TMC3    O2 9632   3.781   4.008  12.533  0.2368 -0.3897 -0.3937
  651MPD2     C 9633   3.040   4.463  10.318 -0.4496  0.2309  0.4635
  651MPD2    C1 9634   3.023   4.575  10.396  0.7424 -0.3853  0.0149
  651MPD2    C2 9635   3.102   4.683  10.388  0.5282 -0.0254 -0.1242
  651MPD2    C3 9636   3.206   4.695  10.289  0.1449 -0.2154 -0.2351
  651MPD2    C4 9637   3.228   4.586  10.213  0.3715 -0.1922  0.3950
  651MPD2    C5 9638   3.140   4.474  10.222 -0.0911  0.0379 -0.1934
  651MPD2     H 9639   3.096   0.038  10.461 -1.2815 -0.7827  0.5201
  651MPD2    H1 9640   3.285   4.580  10.120  0.0124  1.5569  0.0690
  651MPD2    H2 9641   2.986   4.369  10.318 -1.3355  0.7474 -1.1619
  651MPD2    H3 9642   3.159   4.387  10.160  2.3614 -0.4041  1.1539
  651MPD2     N 9643   3.281   0.094  10.291  0.4616 -0.0349  0.0150
  651MPD2    H5 9644   3.245   0.169  10.348  2.4254  0.1668  0.9857
  651MPD2    N1 9645   2.913   4.602  10.481 -0.0894 -0.3295 -0.1550
  651MPD2    H7 9646   2.916   4.692  10.528 -0.5077 -0.0643 -0.6522
  652TMC3    C1 9647   3.624   0.363  10.309 -0.1237  0.8305 -0.2798
  652TMC3    C2 9648   3.579   0.261  10.234  0.2756 -0.2544  0.0012
  652TMC3    C3 9649   3.445   0.250  10.235  0.8163 -0.1441  0.6815
  652TMC3    C4 9650   3.539   0.455  10.375  0.9149  0.2908 -0.3822
  652TMC3    C5 9651   3.409   0.450  10.354  0.3552 -0.1993  0.1832
  652TMC3    C6 9652   3.355   0.346  10.280 -0.3405  0.1270  0.4506
  652TMC3     C 9653   3.755   0.356  10.375  0.2824  0.0439 -0.1724
  652TMC3     O 9654   3.756   0.389  10.494 -0.1932  0.3184 -0.5088
  652TMC3     H 9655   3.643   0.185  10.190 -1.4263 -1.3331 -0.6230
  652TMC3    H1 9656   3.577   0.531  10.443  2.3046 -1.5178  0.8419
  652TMC3    H2 9657   3.250   0.329  10.264 -0.5623 -0.1606  2.2316
  652TMC3    C7 9658   3.336   0.572  10.361  0.9158 -0.4244 -0.7864
  652TMC3    C8 9659   3.390   0.123  10.206  0.2241  0.0375  0.5104
  652TMC3    O1 9660   3.226   0.585  10.313  0.1467 -0.1409 -0.1718
  652TMC3    O2 9661   3.458   0.039  10.151 -0.4447 -0.6639  0.2572
  653MPD2     C 9662   2.195   0.658   0.058 -0.1083 -0.1844  0.4988
  653MPD2    C1 9663   2.209   0.709  17.633  1.1091  0.6467  0.1878
  653MPD2    C2 9664   2.157   0.636  17.523  0.1747  0.0871  0.1001
  653MPD2    C3 9665   2.097   0.516  17.551 -0.0316 -0.3387  0.3226
  653MPD2    C4 9666   2.107   0.456  17.672 -0.2584 -0.6005  0.6263
  653MPD2    C5 9667   2.157   0.533   0.076 -0.6798  0.0685 -0.5402
  653MPD2     H 9668   2.151   0.678  17.424 -1.3707 -0.6036 -0.0992
  653MPD2    H1 9669   2.063   0.357  17.685 -2.2214  0.1757 -0.2028
  653MPD2    H2 9670   2.227   0.703   0.152  0.8831  2.1401 -0.9522
  653MPD2    H3 9671   2.153   0.475   0.168 -1.3814 -0.6832 -1.0422
  653MPD2     N 9672   2.035   0.462  17.440  0.1102  0.4387  0.0335
  653MPD2    H5 9673   2.016   0.518  17.357 -0.2892 -1.7005 -1.3109
  653MPD2    N1 9674   2.260   0.841  17.610 -0.5083 -0.5196  0.0970
  653MPD2    H7 9675   2.248   0.881  17.517 -1.2312 -1.5844 -0.2556
  654TMC3    C1 9676   1.880   0.330  17.333  0.1546 -0.7067 -0.8467
  654TMC3    C2 9677   1.813   0.442  17.291  0.1631  0.1115 -0.7429
  654TMC3    C3 9678   1.753   0.423  17.174  0.7254  0.3071  0.4342
  654TMC3    C4 9679   1.875   0.210  17.274  0.6038 -0.7783 -0.1017
  654TMC3    C5 9680   1.792   0.203  17.172  1.0878  0.0424 -0.3179
  654TMC3    C6 9681   1.730   0.306  17.112 -0.1942 -0.5060  0.3348
  654TMC3     C 9682   1.979   0.340  17.436 -0.1008  0.0978 -0.9071
  654TMC3     O 9683   2.012   0.236  17.496  0.3198  0.3629  0.1335
  654TMC3     H 9684   1.822   0.541  17.335 -1.2308  0.2524 -0.7825
  654TMC3    H1 9685   1.932   0.127  17.314  0.1090 -2.6017 -3.1061
  654TMC3    H2 9686   1.671   0.302  17.021  0.5274  2.9554 -0.3120
  654TMC3    C7 9687   1.751   0.072  17.124 -0.0027 -0.5795  0.5353
  654TMC3    C8 9688   1.664   0.527  17.136  0.4230  0.3734 -0.5971
  654TMC3    O1 9689   1.699   0.072  17.015  0.2125  0.0218 -0.4579
  654TMC3    O2 9690   1.549   0.494  17.118 -0.3903 -0.2865 -0.0280
  655MPD2     C 9691   3.437   0.514  15.499 -0.0322  0.2208 -0.5005
  655MPD2    C1 9692   3.329   0.582  15.451 -0.3341  0.2389  0.6996
  655MPD2    C2 9693   3.275   0.553  15.328  0.1709 -0.2065  0.4845
  655MPD2    C3 9694   3.329   0.450  15.252 -0.6296  0.0991 -0.1590
  655MPD2    C4 9695   3.435   0.380  15.305 -0.0639  0.0598 -0.7269
  655MPD2    C5 9696   3.493   0.415  15.420  0.0569 -0.0035 -0.0333
  655MPD2     H 9697   3.192   0.616  15.298  1.0425  0.6302 -0.1972
  655MPD2    H1 9698   3.472   0.296  15.248 -0.3093  1.2621 -2.6681
  655MPD2    H2 9699   3.482   0.532  15.596  0.4898  0.3008 -0.7554
  655MPD2    H3 9700   3.579   0.359  15.457  0.2802 -0.2208 -0.8836
  655MPD2     N 9701   3.299   0.428  15.117  0.1019 -0.1608  0.5362
  655MPD2    H5 9702   3.370   0.388  15.056  0.4544  0.7731  0.3403
  655MPD2    N1 9703   3.269   0.688  15.520  0.0074  0.1265 -0.1595
  655MPD2    H7 9704   3.195   0.740  15.475  1.8649 -0.4645 -3.9374
  656TMC3    C1 9705   3.211   0.844  15.698 -0.4067 -0.8060  0.5963
  656TMC3    C2 9706   3.193   0.878  15.832  0.1326  0.0718 -0.2558
  656TMC3    C3 9707   3.118   0.987  15.850  0.3209  0.1902 -0.7148
  656TMC3    C4 9708   3.183   0.929  15.599  0.3834 -0.0620  0.0124
  656TMC3    C5 9709   3.117   1.037  15.622 -0.1183 -0.3970 -0.0633
  656TMC3    C6 9710   3.072   1.072  15.749 -0.3317  0.5927  0.9612
  656TMC3     C 9711   3.270   0.718  15.657  0.0442 -0.1764  0.5242
  656TMC3     O 9712   3.327   0.661  15.750  0.2202  0.2173  0.2592
  656TMC3     H 9713   3.235   0.822  15.915  0.7714  0.9778  0.0397
  656TMC3    H1 9714   3.222   0.909  15.500 -1.5504 -2.2277 -0.3075
  656TMC3    H2 9715   3.046   1.177  15.759 -0.3287  0.6953 -0.0544
  656TMC3    C7 9716   3.080   1.122  15.511 -0.1887  0.0727 -0.1474
  656TMC3    C8 9717   3.064   1.012  15.981 -0.3963 -0.3731  0.3658
  656TMC3    O1 9718   3.146   1.121  15.410 -0.6813  0.1453  0.1652
  656TMC3    O2 9719   3.129   0.969  16.075 -0.1439 -0.4202 -0.7526
  657TMC3    C1 9720   2.275   4.676  14.549  0.1035  0.2580 -0.0842
  657TMC3    C2 9721   2.241   4.716  14.678 -0.8568 -0.2875 -0.3378
  657TMC3    C3 9722   2.157   0.097  14.693 -0.5188  0.0947 -0.2061
  657TMC3    C4 9723   2.222   0.010  14.442  0.3911 -0.5456 -0.2207
  657TMC3    C5 9724   2.125   0.104  14.461  0.7225  0.2956 -0.1232
  657TMC3    C6 9725   2.092   0.153  14.581  0.0093 -0.1215 -0.3946
  657TMC3     C 9726   2.307   4.532  14.547 -0.0117 -0.2381 -0.4772
  657TMC3     O 9727   2.259   4.463  14.461 -0.1869  0.1570 -0.8157
  657TMC3     H 9728   2.293   4.674  14.762  1.4286 -2.7381 -2.9797
  657TMC3    H1 9729   2.243   4.693  14.344  0.9490  1.8188 -1.1025
  657TMC3    H2 9730   2.011   0.222  14.598 -0.5769 -0.3564 -2.3069
  657TMC3    C7 9731   2.086   0.175  14.344  0.2478  0.0924 -0.7344
  657TMC3    C8 9732   2.129   0.163  14.815  1.2606 -0.4257 -0.1261
  657TMC3    O1 9733   2.165   0.176  14.251  0.1949 -0.0851 -0.1337
  657TMC3    O2 9734   2.064   0.265  14.811  0.0141  0.0908  0.0885
  658MPD2     C 9735   3.554   0.631  14.351 -0.5164 -0.7457  0.6706
  658MPD2    C1 9736   3.468   0.681  14.443 -0.2451 -0.0218  0.1785
  658MPD2    C2 9737   3.439   0.820  14.441  0.1077 -0.0819  0.7102
  658MPD2    C3 9738   3.499   0.910  14.359  0.1017 -0.1142 -0.0871
  658MPD2    C4 9739   3.592   0.855  14.269  0.5573  0.3785 -0.1354
  658MPD2    C5 9740   3.611   0.718  14.258  0.5035  0.3085  0.3711
  658MPD2     H 9741   3.371   0.860  14.515 -0.0670  1.5392 -0.3314
  658MPD2    H1 9742   3.645   0.917  14.198 -0.0934  0.0199 -0.9270
  658MPD2    H2 9743   3.586   0.528  14.346 -1.8527 -1.1322  0.3519
  658MPD2    H3 9744   3.680   0.673  14.187  1.2948 -0.5182  1.6607
  658MPD2     N 9745   3.459   1.049  14.361  0.1121 -0.3552 -0.3033
  658MPD2    H5 9746   3.395   1.076  14.435  1.3398  0.0465  0.6127
  658MPD2    N1 9747   3.405   0.587  14.524  0.7651  0.1986  0.3568
  658MPD2    H7 9748   3.390   0.494  14.486  0.8827 -0.9836  3.2133
  659TMC3    C1 9749   3.285   0.502  14.708 -0.3385 -0.2671 -0.3718
  659TMC3    C2 9750   3.291   0.501  14.843 -0.1737 -0.0885  0.6836
  659TMC3    C3 9751   3.180   0.459  14.912  0.2497 -0.3744  0.2363
  659TMC3    C4 9752   3.180   0.449  14.633 -0.1703 -0.4973  1.1892
  659TMC3    C5 9753   3.073   0.413  14.708  0.8432  0.1368  0.1550
  659TMC3    C6 9754   3.067   0.427  14.841  0.6603 -0.0609  0.0750
  659TMC3     C 9755   3.360   0.610  14.647  0.0158  0.1660 -0.0427
  659TMC3     O 9756   3.388   0.707  14.718  0.3905  0.1687  0.3977
  659TMC3     H 9757   3.379   0.538  14.894 -0.7122  1.7221  0.3069
  659TMC3    H1 9758   3.191   0.420  14.529  0.8692 -0.2194  1.2244
  659TMC3    H2 9759   2.977   0.416  14.900  1.2385 -0.7908  0.8055
  659TMC3    C7 9760   2.963   0.339  14.646  0.9943  0.4654  0.3144
  659TMC3    C8 9761   3.178   0.458  15.059 -0.7354  0.0797  0.2961
  659TMC3    O1 9762   2.985   0.288  14.541  0.7336 -0.4434  0.4835
  659TMC3    O2 9763   3.076   0.472  15.119  0.3038 -0.4551  1.1383
  660MPD2     C 9764   1.272   4.057  12.656  0.5111  0.6426  0.1646
  660MPD2    C1 9765   1.143   4.053  12.609  1.0378 -0.1233  1.1253
  660MPD2    C2 9766   1.054   3.956  12.651  0.1422  0.0432 -0.1657
  660MPD2    C3 9767   1.089   3.865  12.747 -0.1288  0.0375 -0.0500
  660MPD2    C4 9768   1.211   3.872  12.802 -0.3515 -0.2485  0.5534
  660MPD2    C5 9769   1.299   3.965  12.755  0.4838  0.2065 -0.3314
  660MPD2     H 9770   0.956   3.962  12.604  0.0994  0.5140 -0.0232
  660MPD2    H1 9771   1.250   3.798  12.871  2.6120  0.4777 -0.3177
  660MPD2    H2 9772   1.345   4.134  12.633 -0.4337  0.3929 -3.6240
  660MPD2    H3 9773   1.399   3.970  12.798  1.3101 -0.3393 -2.1690
  660MPD2     N 9774   1.011   3.765  12.802  0.4926 -0.1774  0.2643
  660MPD2    H5 9775   1.061   3.705  12.866 -0.0546 -0.6508  0.2480
  660MPD2    N1 9776   1.095   4.137  12.502  0.0823  0.3014  0.5341
  660MPD2    H7 9777   0.999   4.125  12.469 -0.4925  1.6669  1.6827
  661TMC3    C1 9778   1.109   4.285  12.330 -0.3055  0.3177 -0.1660
  661TMC3    C2 9779   1.175   4.274  12.212 -0.4708 -0.0013 -0.5114
  661TMC3    C3 9780   1.096   4.283  12.094  0.2210 -0.7658 -0.2060
  661TMC3    C4 9781   0.973   4.318  12.345  0.0663 -0.3147  0.1704
  661TMC3    C5 9782   0.905   4.327  12.225 -0.4797  0.9262 -0.2774
  661TMC3    C6 9783   0.963   4.308  12.102  1.1886 -0.0114 -1.1725
  661TMC3     C 9784   1.177   4.214  12.431 -0.3108  0.1984 -0.1186
  661TMC3     O 9785   1.293   4.230  12.441  0.1328 -0.7923  0.4227
  661TMC3     H 9786   1.271   4.226  12.210  0.4016  1.5942  2.4028
  661TMC3    H1 9787   0.932   4.316  12.445  3.7293  0.0638  1.6888
  661TMC3    H2 9788   0.902   4.301  12.013  0.9856  0.2326 -1.0511
  661TMC3    C7 9789   0.762   4.358  12.237  0.1898 -0.0699 -0.1253
  661TMC3    C8 9790   1.164   4.261  11.967  0.4170  0.2195  0.4706
  661TMC3    O1 9791   0.739   4.417  12.341  0.8611 -0.3839  0.1979
  661TMC3    O2 9792   1.278   4.218  11.984  0.2826  0.2558 -0.0496
  662MPD2     C 9793   1.514   4.131  17.400  0.1347 -0.6907 -0.1842
  662MPD2    C1 9794   1.490   4.029  17.487 -0.0459 -0.1938  0.1077
  662MPD2    C2 9795   1.457   4.052  17.617  0.6502  0.1207  0.0648
  662MPD2    C3 9796   1.457   4.182  17.660 -0.1982  0.8100 -0.2135
  662MPD2    C4 9797   1.467   4.285  17.568 -0.9087 -0.5512 -0.6291
  662MPD2    C5 9798   1.496   4.260  17.437  0.1974  0.2839 -0.2657
  662MPD2     H 9799   1.447   3.969  17.686 -0.2593  0.5610  0.4566
  662MPD2    H1 9800   1.462   4.390  17.594 -2.0357 -1.2077  1.8115
  662MPD2    H2 9801   1.534   4.116  17.294  2.1279  0.8509 -0.0257
  662MPD2    H3 9802   1.511   4.338  17.363 -0.2287 -2.6002 -3.4254
  662MPD2     N 9803   1.434   4.197   0.092 -0.0042 -0.4041 -0.0851
  662MPD2    H5 9804   1.403   4.116   0.144 -0.7377 -1.3184 -1.9473
  662MPD2    N1 9805   1.501   3.890  17.453  0.3808  0.4805  0.2138
  662MPD2    H7 9806   1.463   3.824  17.519  1.4237  0.8763  1.2025
  663TMC3    C1 9807   1.511   3.696  17.315 -0.2545 -0.0450  0.4699
  663TMC3    C2 9808   1.538   3.620  17.421 -0.3608 -1.3679  0.8076
  663TMC3    C3 9809   1.543   3.483  17.406  0.0119  0.0735  0.0739
  663TMC3    C4 9810   1.464   3.642  17.198 -0.2611  0.3136 -0.1746
  663TMC3    C5 9811   1.468   3.507  17.188 -0.2002  0.7482 -0.3156
  663TMC3    C6 9812   1.491   3.424  17.294  0.5898 -0.4053  0.0246
  663TMC3     C 9813   1.518   3.843  17.328 -0.3138 -0.3911 -0.3307
  663TMC3     O 9814   1.539   3.903  17.228 -0.1297 -0.3467 -0.5116
  663TMC3     H 9815   1.588   3.676  17.500  0.3102  1.8534 -1.8781
  663TMC3    H1 9816   1.431   3.709  17.120  1.6121  2.1812  0.6142
  663TMC3    H2 9817   1.526   3.324  17.272  0.1981 -1.1531  2.8554
  663TMC3    C7 9818   1.402   3.450  17.079  0.4483  0.1607  0.9067
  663TMC3    C8 9819   1.534   3.403  17.528  0.2016  0.2282  0.0922
  663TMC3    O1 9820   1.371   3.523  16.983 -0.6585 -0.6408  0.4343
  663TMC3    O2 9821   1.581   3.291  17.532  0.5186  0.1138  0.0160
  664MPD2     C 9822   4.525   2.166  17.516  0.4951  0.6916  0.4338
  664MPD2    C1 9823   4.658   2.208  17.542  0.3535  0.0339  0.0305
  664MPD2    C2 9824   4.709   2.182  17.669 -0.2707  0.0728  0.2514
  664MPD2    C3 9825   4.628   2.104   0.058 -0.1661  0.1351 -0.5258
  664MPD2    C4 9826   4.495   2.062   0.028  0.1266 -0.0315 -0.3690
  664MPD2    C5 9827   4.440   2.103  17.609  0.1062 -0.6393  0.1658
  664MPD2     H 9828   0.085   2.211  17.693 -0.2067 -0.7647  1.0172
  664MPD2    H1 9829   4.421   2.026   0.098  0.3268 -1.3588 -0.8370
  664MPD2    H2 9830   4.484   2.186  17.418 -1.0125 -3.0104  0.3009
  664MPD2    H3 9831   4.339   2.081  17.579  0.5190 -2.2403 -0.0467
  664MPD2     N 9832   4.676   2.090   0.187 -0.3104  0.7623 -0.5669
  664MPD2    H5 9833   0.040   2.133   0.212 -1.5629  1.8184  2.0697
  664MPD2    N1 9834   0.010   2.285  17.447  0.4910  0.8646 -0.0601
  664MPD2    H7 9835   0.093   2.328  17.486 -0.0749  2.0054 -0.1026
  665TMC3    C1 9836   4.723   2.011   0.404 -0.1195 -0.5632  0.8473
  665TMC3    C2 9837   4.705   1.904   0.498  0.3150  0.0285  0.0804
  665TMC3    C3 9838   0.059   1.915   0.611 -0.4986 -0.3395 -0.3478
  665TMC3    C4 9839   0.072   2.127   0.431 -0.1400  0.1419  0.9110
  665TMC3    C5 9840   0.143   2.134   0.545  0.0215 -0.3696  1.0119
  665TMC3    C6 9841   0.143   2.029   0.633  0.0688  0.3747 -0.2883
  665TMC3     C 9842   4.635   2.004   0.283  0.0747  0.4834  1.0019
  665TMC3     O 9843   4.545   1.926   0.280 -0.6026 -0.1257  0.1000
  665TMC3     H 9844   4.679   1.803   0.467  1.7059  0.0974 -1.3074
  665TMC3    H1 9845   0.072   2.209   0.361  1.1628 -0.3670  0.3138
  665TMC3    H2 9846   0.182   2.036   0.734  0.2340 -1.3485 -0.2244
  665TMC3    C7 9847   0.160   2.266   0.598  0.2459 -0.4107  0.5994
  665TMC3    C8 9848   0.010   1.855   0.732  0.5200  0.0317  0.3707
  665TMC3    O1 9849   0.152   2.358   0.515 -0.0118 -0.3633 -0.3200
  665TMC3    O2 9850   0.083   1.862   0.831 -0.1134 -0.0692  0.6763
  666TMC3    C1 9851   3.377   2.016  10.040  0.1395  0.2604 -1.1056
  666TMC3    C2 9852   3.487   1.975  10.118  0.2779 -0.4231 -0.1498
  666TMC3    C3 9853   3.602   2.049  10.116  0.8004 -0.2569 -0.5278
  666TMC3    C4 9854   3.385   2.142   9.988  0.1398 -0.3688 -0.2605
  666TMC3    C5 9855   3.505   2.207   9.989 -0.8470 -0.1133  0.5537
  666TMC3    C6 9856   3.617   2.169  10.047 -0.5121 -0.6567  0.0219
  666TMC3     C 9857   3.256   2.006  10.110  0.5710  0.7817 -0.3840
  666TMC3     O 9858   3.225   2.109  10.166 -0.3292 -0.3545 -0.5057
  666TMC3     H 9859   3.483   1.876  10.161 -2.5271 -0.4201 -0.4151
  666TMC3    H1 9860   3.302   2.189   9.937  0.2794 -0.0141 -0.1538
  666TMC3    H2 9861   3.700   2.234  10.070  1.0452 -1.5553 -2.9190
  666TMC3    C7 9862   3.477   2.350  10.005 -0.1154  0.3194  0.5394
  666TMC3    C8 9863   3.716   2.000  10.194 -0.2526  0.9087 -0.6795
  666TMC3    O1 9864   3.365   2.383  10.030  0.3693 -0.1641 -0.6102
  666TMC3    O2 9865   3.826   2.045  10.168 -0.1914  0.5181 -0.2040
  667MPD2     C 9866   0.887   2.071  14.505 -0.6154  0.4545 -0.6706
  667MPD2    C1 9867   0.771   2.129  14.550  0.0353  0.0807  0.1975
  667MPD2    C2 9868   0.655   2.115  14.482  0.2295 -0.4546 -0.4254
  667MPD2    C3 9869   0.648   2.035  14.369  0.6664  0.2975  0.2327
  667MPD2    C4 9870   0.758   1.962  14.331 -0.1844  0.1416 -0.0068
  667MPD2    C5 9871   0.876   1.994  14.397 -0.2110  0.3977 -0.5074
  667MPD2     H 9872   0.571   2.171  14.522  1.2977  0.2942  0.7696
  667MPD2    H1 9873   0.762   1.893  14.248 -1.4409 -1.8157  1.5694
  667MPD2    H2 9874   0.984   2.103  14.541 -0.2945 -1.4004  0.1205
  667MPD2    H3 9875   0.966   1.949  14.357 -1.6269 -2.7254 -0.2014
  667MPD2     N 9876   0.523   1.993  14.309  0.0749  0.0847  0.1995
  667MPD2    H5 9877   0.531   1.908  14.254 -1.1106  0.6401 -0.8356
  667MPD2    N1 9878   0.770   2.217  14.659  0.1664  0.2363  0.4230
  667MPD2    H7 9879   0.678   2.246  14.692 -0.1708  0.7285 -0.9394
  668TMC3    C1 9880   0.857   2.349  14.837  0.4604  0.0851 -0.5795
  668TMC3    C2 9881   0.953   2.432  14.882  0.2089 -0.1828  0.1995
  668TMC3    C3 9882   0.961   2.445  15.018  0.4302 -0.2559  0.1494
  668TMC3    C4 9883   0.763   2.289  14.924  0.3570  0.3945 -0.6491
  668TMC3    C5 9884   0.770   2.320  15.059 -0.4038  0.0674  0.5720
  668TMC3    C6 9885   0.876   2.389  15.114  0.7585 -0.2665 -0.3570
  668TMC3     C 9886   0.881   2.284  14.707  1.1349 -0.2213  0.5987
  668TMC3     O 9887   0.983   2.315  14.643 -0.6247 -0.5896 -0.4620
  668TMC3     H 9888   1.032   2.468  14.817 -1.1011 -0.2287 -1.4216
  668TMC3    H1 9889   0.709   2.200  14.894 -1.6567  0.5119  2.6333
  668TMC3    H2 9890   0.881   2.402  15.221 -1.8050  1.7547 -0.4912
  668TMC3    C7 9891   0.665   2.267  15.152  0.5269  0.8200 -0.2014
  668TMC3    C8 9892   1.014   2.575  15.077 -0.4664  0.1950  0.1206
  668TMC3    O1 9893   0.687   2.280  15.274 -0.3259  0.3745  0.7681
  668TMC3    O2 9894   1.025   2.580  15.196 -0.5160  0.3007  0.1895
  669TMC3    C1 9895   3.463   2.097  14.592 -0.2269  0.2649 -0.1464
  669TMC3    C2 9896   3.329   2.111  14.568  0.3864  0.5812  0.2672
  669TMC3    C3 9897   3.292   2.227  14.498  0.4620  0.0001  0.6430
  669TMC3    C4 9898   3.557   2.189  14.548 -0.2547  0.2495  0.0220
  669TMC3    C5 9899   3.515   2.299  14.484 -0.0313 -0.5953  0.0938
  669TMC3    C6 9900   3.382   2.324  14.470 -0.3939  0.4450 -0.1153
  669TMC3     C 9901   3.501   1.976  14.671  0.6100 -0.3339  0.1764
  669TMC3     O 9902   3.416   1.913  14.728  0.1033 -0.1719  0.2555
  669TMC3     H 9903   3.263   2.027  14.586  0.0349  0.9259  0.5882
  669TMC3    H1 9904   3.664   2.170  14.553 -0.1552  1.5346  3.2197
  669TMC3    H2 9905   3.355   2.410  14.410 -0.9927  0.8649  0.7639
  669TMC3    C7 9906   3.604   2.373  14.395  0.5012 -0.3342 -0.5863
  669TMC3    C8 9907   3.165   2.217  14.422  0.0674 -0.4836 -0.0102
  669TMC3    O1 9908   3.715   2.396  14.437  0.4619  0.7836  0.5246
  669TMC3    O2 9909   3.128   2.105  14.384 -0.3490  0.1821 -0.3975
  670MPD2     C 9910   1.508   4.224  13.274 -0.1176  0.2161 -0.1443
  670MPD2    C1 9911   1.561   4.326  13.344  0.1535  0.1024 -0.0257
  670MPD2    C2 9912   1.501   4.366  13.463 -0.2666  0.3093 -0.7063
  670MPD2    C3 9913   1.384   4.308  13.502  0.1280  0.3855  0.0317
  670MPD2    C4 9914   1.330   4.212  13.416 -0.1858 -0.8113  0.5582
  670MPD2    C5 9915   1.385   4.180  13.298 -0.0716  0.4556 -0.3217
  670MPD2     H 9916   1.551   4.440  13.524 -0.5346 -0.7887  0.8385
  670MPD2    H1 9917   1.233   4.163  13.424  0.3323 -1.9517 -0.2630
  670MPD2    H2 9918   1.567   4.169  13.202 -0.1563  2.6626 -2.0907
  670MPD2    H3 9919   1.341   4.106  13.233 -2.9856  1.2096  0.8140
  670MPD2     N 9920   1.328   4.341  13.627 -0.8742 -0.8147  0.3884
  670MPD2    H5 9921   1.375   4.417  13.676  0.1613  0.3335 -2.3698
  670MPD2    N1 9922   1.676   4.398  13.313 -0.0310  0.4365  0.4877
  670MPD2    H7 9923   1.703   4.472  13.377  0.4550  0.4212  0.3061
  671TMC3    C1 9924   1.183   4.327  13.812  0.2784  0.0575 -0.5635
  671TMC3    C2 9925   1.280   4.377  13.898 -0.2176  0.5824  0.5762
  671TMC3    C3 9926   1.243   4.384  14.030 -0.1623 -0.4162 -0.2553
  671TMC3    C4 9927   1.069   4.258  13.858 -0.2753  0.2978 -0.8909
  671TMC3    C5 9928   1.044   4.260  13.994  0.5208 -0.5727  0.0794
  671TMC3    C6 9929   1.130   4.320  14.078  0.5904 -0.3021 -0.1606
  671TMC3     C 9930   1.215   4.285  13.682  0.4911  0.1780  0.4124
  671TMC3     O 9931   1.160   4.184  13.640  0.6619  0.2717 -0.0423
  671TMC3     H 9932   1.347   4.447  13.849 -0.3755 -0.7088 -1.4404
  671TMC3    H1 9933   0.991   4.239  13.785 -0.5268 -0.1926 -0.5013
  671TMC3    H2 9934   1.107   4.329  14.183 -2.5888 -0.2085 -0.8621
  671TMC3    C7 9935   0.971   4.140  14.042 -0.0608 -0.5243 -0.3766
  671TMC3    C8 9936   1.343   4.399  14.123 -0.3506  0.2710  0.0013
  671TMC3    O1 9937   0.955   4.131  14.167  0.3151  0.3099  0.1845
  671TMC3    O2 9938   1.312   4.415  14.242 -0.2934 -0.1048 -0.0369
  672MPD2     C 9939   2.802   0.287   1.023  0.2590  0.3480  0.1169
  672MPD2    C1 9940   2.870   0.201   0.936  0.2094  0.6226  0.7016
  672MPD2    C2 9941   3.006   0.211   0.927  0.6187 -0.5781  0.1271
  672MPD2    C3 9942   3.076   0.299   1.009  0.0748  0.3831  0.8896
  672MPD2    C4 9943   3.006   0.386   1.082 -0.7669 -0.6046 -0.2878
  672MPD2    C5 9944   2.867   0.383   1.093 -0.8616  0.3643 -0.1291
  672MPD2     H 9945   3.064   0.144   0.864  1.9418 -1.1460  1.9539
  672MPD2    H1 9946   3.055   0.459   1.145 -3.4865  2.4290 -1.6687
  672MPD2    H2 9947   2.695   0.299   1.026  0.3085  0.4739  1.1552
  672MPD2    H3 9948   2.821   0.462   1.151  0.2694  0.3278  0.8154
  672MPD2     N 9949   3.219   0.325   1.017  0.0579 -0.0717 -0.2686
  672MPD2    H5 9950   3.255   0.392   1.084 -0.8096  2.0082 -1.8829
  672MPD2    N1 9951   2.802   0.104   0.852  0.0889 -0.1034  0.0841
  672MPD2    H7 9952   2.861   0.038   0.803 -3.2035 -2.5215 -0.6814
  673TMC3    C1 9953   2.620   4.705   0.769 -0.4387  1.0878 -0.3078
  673TMC3    C2 9954   2.677   4.580   0.769  0.5490 -0.1064  0.6120
  673TMC3    C3 9955   2.605   4.474   0.722 -0.3444  0.9162 -0.0241
  673TMC3    C4 9956   2.495   4.722   0.708  0.2723 -0.1873  0.1440
  673TMC3    C5 9957   2.429   4.614   0.657  0.0344  0.0852  0.3540
  673TMC3    C6 9958   2.485   4.492   0.671 -0.3979 -0.6908 -0.3204
  673TMC3     C 9959   2.670   0.102   0.828 -0.4626 -0.5578  0.3250
  673TMC3     O 9960   2.585   0.182   0.862  0.4342 -0.2913 -0.7889
  673TMC3     H 9961   2.761   4.562   0.835 -0.5626 -1.4313  1.6666
  673TMC3    H1 9962   2.442   0.090   0.723 -1.8507 -1.3428 -0.1430
  673TMC3    H2 9963   2.432   4.406   0.631  0.1352 -1.5757  0.8860
  673TMC3    C7 9964   2.284   4.618   0.649  0.1783 -0.2732  0.1500
  673TMC3    C8 9965   2.646   4.346   0.763  0.2537 -0.8438 -0.3725
  673TMC3    O1 9966   2.236   4.518   0.699  0.4322  0.4344 -0.5725
  673TMC3    O2 9967   2.557   4.259   0.774  0.5325 -0.1147  0.6925
  674MPD2     C 9968   1.866   0.388   0.214  0.2638 -0.1808  0.8680
  674MPD2    C1 9969   1.770   0.309   0.276 -0.0443 -0.1227 -0.0260
  674MPD2    C2 9970   1.650   0.365   0.315  0.0271 -0.5018  0.0337
  674MPD2    C3 9971   1.617   0.497   0.281 -0.2511  0.0309 -0.0948
  674MPD2    C4 9972   1.708   0.569   0.200  0.5027  0.0596  0.5272
  674MPD2    C5 9973   1.827   0.510   0.157  0.2133 -0.4195  0.0360
  674MPD2     H 9974   1.581   0.303   0.371 -1.2395  0.8276 -0.0489
  674MPD2    H1 9975   1.693   0.674   0.178  0.2871  0.1417  1.0507
  674MPD2    H2 9976   1.962   0.347   0.185 -1.7391 -3.4823 -1.0591
  674MPD2    H3 9977   1.896   0.564   0.092  1.7567 -2.0047  0.3746
  674MPD2     N 9978   1.496   0.536   0.339 -0.0879  0.5167  0.0141
  674MPD2    H5 9979   1.442   0.463   0.384 -0.7650  0.9692 -0.0789
  674MPD2    N1 9980   1.792   0.173   0.317  0.2613  0.3190 -0.2696
  674MPD2    H7 9981   1.711   0.124   0.354  0.7135  0.2048  0.5475
  675TMC3    C1 9982   1.899   4.701   0.373 -0.5083 -0.2991 -0.5662
  675TMC3    C2 9983   1.787   4.681   0.454  0.9762  0.0396 -0.4079
  675TMC3    C3 9984   1.767   4.559   0.505 -0.3017 -0.5862  0.0306
  675TMC3    C4 9985   1.975   4.598   0.344  0.3671 -0.2351  0.1312
  675TMC3    C5 9986   1.953   4.478   0.398  0.1956  0.2726  0.0509
  675TMC3    C6 9987   1.855   4.452   0.486  0.2352 -0.8120  0.6976
  675TMC3     C 9988   1.911   0.107   0.309  0.0353  0.3937  0.1434
  675TMC3     O 9989   2.018   0.142   0.262  0.1941 -0.2008 -0.7115
  675TMC3     H 9990   1.707   0.026   0.476  0.0126 -1.4888  0.9132
  675TMC3    H1 9991   2.061   4.615   0.281 -0.2166  0.0193 -0.5993
  675TMC3    H2 9992   1.837   4.357   0.534 -2.0865 -0.8263 -0.1805
  675TMC3    C7 9993   2.066   4.398   0.389  0.3540  0.7054 -0.1314
  675TMC3    C8 9994   1.674   4.551   0.618 -0.6611  0.0398 -0.0572
  675TMC3    O1 9995   2.178   4.444   0.360  0.1284 -0.3676  0.3676
  675TMC3    O2 9996   1.583   4.632   0.607  0.2735 -0.5254  0.5410
  676MPD2     C 9997   3.769   3.497  10.811 -0.5614  0.3474  1.0034
  676MPD2    C1 9998   3.685   3.406  10.872  0.2446 -0.3635  0.2357
  676MPD2    C2 9999   3.644   3.292  10.812 -0.4785 -0.1679  0.0560
  676MPD2    C310000   3.694   3.254  10.687  0.1650 -0.2083  0.1711
  676MPD2    C410001   3.787   3.347  10.625 -0.0559 -0.4774  0.8844
  676MPD2    C510002   3.812   3.462  10.687 -0.4718 -0.1715 -0.0155
  676MPD2     H10003   3.575   3.228  10.868  0.9106 -2.2648 -0.6207
  676MPD2    H110004   3.830   3.334  10.527 -0.7546  1.2082  0.3593
  676MPD2    H210005   3.794   3.596  10.849  1.4779 -0.4424  1.7281
  676MPD2    H310006   3.869   3.536  10.634 -0.8103  0.4780  0.5263
  676MPD2     N10007   3.663   3.136  10.619 -0.0965 -0.4323 -0.6901
  676MPD2    H510008   3.697   3.118  10.525  2.2141  0.7381 -0.0740
  676MPD2    N110009   3.627   3.437  11.004  0.4519  0.3105  0.0135
  676MPD2    H710010   3.561   3.371  11.045  0.1719 -0.3577 -1.5328
  677TMC3    C110011   3.615   3.545  11.218 -0.2103  0.3152  0.1680
  677TMC3    C210012   3.510   3.463  11.248 -0.2120 -0.5544  0.1817
  677TMC3    C310013   3.415   3.507  11.341  0.1416  0.5586 -0.1014
  677TMC3    C410014   3.642   3.649  11.296 -0.2323 -0.2724  0.1716
  677TMC3    C510015   3.561   3.680  11.403 -0.2511 -0.5782 -0.3086
  677TMC3    C610016   3.440   3.616  11.420  0.2107 -0.6797 -0.0252
  677TMC3     C10017   3.681   3.536  11.087  0.1005  0.5190 -0.7692
  677TMC3     O10018   3.780   3.606  11.082  0.2477  0.1091 -0.9478
  677TMC3     H10019   3.481   3.385  11.178 -1.4790  0.6934 -0.6931
  677TMC3    H110020   3.729   3.707  11.270 -1.4078  1.3204 -0.2186
  677TMC3    H210021   3.366   3.651  11.491  1.2379  0.6225  0.4018
  677TMC3    C710022   3.569   3.819  11.441 -0.2470  0.2657  0.3172
  677TMC3    C810023   3.292   3.426  11.360 -0.2804 -0.1825  0.0309
  677TMC3    O110024   3.456   3.869  11.453  0.4896 -0.2334  0.3384
  677TMC3    O210025   3.227   3.410  11.257  0.6114 -0.0071 -0.3975
  678MPD2     C10026   1.216   3.040   1.723  0.3406 -0.2148  0.5145
  678MPD2    C110027   1.195   3.078   1.591  0.0125 -0.9238 -0.5916
  678MPD2    C210028   1.088   3.013   1.529 -0.2099  0.0235  0.5678
  678MPD2    C310029   1.038   2.896   1.571 -0.9689  0.3499  0.2468
  678MPD2    C410030   1.073   2.856   1.693 -0.0396 -0.2879  0.5393
  678MPD2    C510031   1.156   2.930   1.781 -0.3669 -0.1723  0.9183
  678MPD2     H10032   1.059   3.052   1.432 -0.7159 -0.0430  0.6908
  678MPD2    H110033   1.032   2.762   1.729 -0.1615  0.1470  1.5279
  678MPD2    H210034   1.278   3.097   1.791  0.7889 -0.6472  0.4651
  678MPD2    H310035   1.194   2.896   1.877 -0.3519 -0.7671  0.7003
  678MPD2     N10036   0.959   2.812   1.486  0.9816  0.2349  0.5011
  678MPD2    H510037   0.913   2.859   1.408 -0.5484 -2.5376 -0.2634
  678MPD2    N110038   1.258   3.193   1.538 -0.0002  0.4191 -0.5831
  678MPD2    H710039   1.221   3.231   1.451 -0.6876 -0.1435 -0.5347
  679TMC3    C110040   1.596   3.455   1.370  0.1977 -0.4086 -0.1063
  679TMC3    C210041   1.560   3.364   1.457 -0.1764  0.7692 -0.2837
  679TMC3    C310042   1.426   3.355   1.495  0.5008 -0.4414 -0.7990
  679TMC3    C410043   1.507   3.536   1.310 -0.1259 -0.1771 -0.3388
  679TMC3    C510044   1.375   3.524   1.343 -0.4115  0.2947 -0.3528
  679TMC3    C610045   1.333   3.438   1.443  0.1208  0.0150  0.0713
  679TMC3     C10046   1.728   3.462   1.311  0.2625  0.2552  0.0160
  679TMC3     O10047   1.757   3.563   1.252  0.1037 -0.3414 -0.6293
  679TMC3     H10048   1.628   3.287   1.493  0.8178  1.3668 -0.9153
  679TMC3    H110049   1.539   3.603   1.231 -0.2243 -0.1261 -0.3358
  679TMC3    H210050   1.230   3.411   1.462 -0.0502  1.1776  0.8377
  679TMC3    C710051   1.277   3.565   1.241  0.3097 -0.3712  0.2757
  679TMC3    C810052   1.388   3.237   1.571 -0.1058  0.0738 -0.3623
  679TMC3    O110053   1.315   3.609   1.135 -0.6190  0.3984  0.4694
  679TMC3    O210054   1.473   3.178   1.632  0.5218  0.3135 -0.5578
  680MPD2     C10055   1.431   2.068  13.247  0.4463  0.0139 -0.6157
  680MPD2    C110056   1.499   2.011  13.350  0.1115 -0.2374  0.1949
  680MPD2    C210057   1.596   2.084  13.417  0.1830 -0.0542 -0.1541
  680MPD2    C310058   1.612   2.220  13.388  0.6138  0.4164 -0.6272
  680MPD2    C410059   1.541   2.271  13.283 -0.2658  0.1964 -0.4666
  680MPD2    C510060   1.460   2.196  13.212  1.1405 -0.2578 -1.1908
  680MPD2     H10061   1.646   2.026  13.494  1.3128 -0.8048 -1.4685
  680MPD2    H110062   1.543   2.375  13.252  0.2726  0.0871 -0.7980
  680MPD2    H210063   1.355   2.021  13.186 -1.8446  0.9282  1.5540
  680MPD2    H310064   1.422   2.249  13.127 -1.2930 -0.1815 -0.0478
  680MPD2     N10065   1.695   2.296  13.471  0.1461  0.0285  0.2464
  680MPD2    H510066   1.724   2.385  13.434  0.0695  0.1525  0.4878
  680MPD2    N110067   1.476   1.880  13.396  0.6304 -0.0876  0.0257
  680MPD2    H710068   1.544   1.837  13.457  1.8364  0.0737 -1.1888
  681TMC3    C110069   1.375   1.682  13.436 -1.4434 -0.2353 -0.1352
  681TMC3    C210070   1.280   1.628  13.520  0.4302  0.0701 -0.5265
  681TMC3    C310071   1.332   1.525  13.594  0.5298 -0.3206 -0.3069
  681TMC3    C410072   1.491   1.624  13.409 -0.8397 -0.3654  0.1479
  681TMC3    C510073   1.531   1.509  13.476  0.0064 -0.0210 -0.3791
  681TMC3    C610074   1.453   1.459  13.576 -0.2446  0.4838  0.4697
  681TMC3     C10075   1.369   1.811  13.364  0.0770  1.2047 -0.3133
  681TMC3     O10076   1.267   1.841  13.302 -0.0555 -0.3566  0.7167
  681TMC3     H10077   1.186   1.673  13.550  0.7841  0.9738 -0.7954
  681TMC3    H110078   1.549   1.671  13.331  0.9134 -2.4572  0.1996
  681TMC3    H210079   1.480   1.375  13.640  1.7298  1.5075  0.9717
  681TMC3    C710080   1.646   1.428  13.436 -0.4141 -0.8516  0.0108
  681TMC3    C810081   1.258   1.502  13.717 -0.3948 -0.1581  0.9483
  681TMC3    O110082   1.649   1.319  13.494  0.0669  0.1614 -0.0553
  681TMC3    O210083   1.142   1.509  13.725  0.2634  0.5582 -0.7183
  682MPD2     C10084   3.005   3.499  10.594 -0.0417  0.0525  0.1709
  682MPD2    C110085   3.005   3.362  10.616 -0.4229 -0.1644  0.3822
  682MPD2    C210086   2.985   3.307  10.744  0.4403 -0.0049 -0.1532
  682MPD2    C310087   2.972   3.393  10.853 -0.0406 -0.8007 -0.5285
  682MPD2    C410088   2.952   3.530  10.823  0.5732  0.3698 -0.2044
  682MPD2    C510089   2.972   3.581  10.699  0.4560 -0.1900  0.7643
  682MPD2     H10090   2.976   3.199  10.750  0.0349 -0.0476 -1.3533
  682MPD2    H110091   2.946   3.601  10.905  1.2105  0.9144 -0.6295
  682MPD2    H210092   3.015   3.552  10.500 -0.4430 -1.5462 -0.7730
  682MPD2    H310093   2.958   3.688  10.690  0.8837 -0.0990  1.1640
  682MPD2     N10094   2.949   3.359  10.992  0.3074  0.1948 -0.6176
  682MPD2    H510095   2.923   3.430  11.060  0.2398  1.8817 -2.3779
  682MPD2    N110096   3.030   3.271  10.514 -0.8330 -0.0283 -0.1577
  682MPD2    H710097   3.021   3.172  10.533  0.6113 -0.2144 -0.4556
  683TMC3    C110098   2.852   3.276  11.376  0.7905  0.5145 -0.4854
  683TMC3    C210099   2.774   3.163  11.403  1.0996  0.7398  0.1686
  683TMC3    C310100   2.747   3.082  11.294 -0.2914  0.1811 -0.4786
  683TMC3    C410101   2.909   3.306  11.255 -0.3322  0.5162 -0.8213
  683TMC3    C510102   2.890   3.208  11.162 -0.2361  0.1056  0.3485
  683TMC3    C610103   2.809   3.099  11.175  0.6338 -0.3142 -0.5177
  683TMC3     C10104   2.864   3.375  11.490 -0.0761  0.2915 -0.0794
  683TMC3     O10105   2.957   3.455  11.471  0.2646 -0.2140  0.3421
  683TMC3     H10106   2.751   3.140  11.507  0.2175  1.1919  0.0643
  683TMC3    H110107   2.977   3.391  11.254  1.7304 -1.0788  2.5329
  683TMC3    H210108   2.788   3.057  11.078  0.3870 -2.0993  0.3046
  683TMC3    C710109   2.954   3.224  11.036  0.5411  0.0585 -0.1142
  683TMC3    C810110   2.647   2.982  11.297  0.1868  0.1698 -0.1485
  683TMC3    O110111   2.982   3.123  10.969  0.6285  0.4363  0.0470
  683TMC3    O210112   2.617   2.935  11.188  0.2834  0.1706  0.4153
  684MPD2     C10113   1.616   2.101  16.359  0.1318  0.2000  0.4453
  684MPD2    C110114   1.558   2.178  16.272 -1.0258  0.3615  0.2705
  684MPD2    C210115   1.551   2.312  16.300 -0.3223  0.5529 -0.1047
  684MPD2    C310116   1.592   2.363  16.420  0.1768  0.0884 -1.3740
  684MPD2    C410117   1.650   2.287  16.515  0.4675 -0.0612  0.7051
  684MPD2    C510118   1.664   2.158  16.476 -0.1558 -0.1312  0.2129
  684MPD2     H10119   1.507   2.373  16.221 -1.7857 -0.9753 -0.4760
  684MPD2    H110120   1.691   2.308  16.613  4.6540  1.4643 -1.3557
  684MPD2    H210121   1.643   1.998  16.340  0.6666  0.5257 -0.5666
  684MPD2    H310122   1.703   2.087  16.548  0.0324  0.0096  0.2496
  684MPD2     N10123   1.569   2.496  16.457  0.3912 -0.3815  0.3094
  684MPD2    H510124   1.615   2.530  16.541 -1.7226  0.7769  0.9796
  684MPD2    N110125   1.514   2.135  16.142 -0.3877  0.5525  0.3123
  684MPD2    H710126   1.457   2.202  16.092 -1.1469 -0.6261 -0.4149
  685TMC3    C110127   1.541   2.013  15.940 -0.2800  0.1010  0.0788
  685TMC3    C210128   1.458   2.094  15.869 -0.6880  0.1197 -0.2425
  685TMC3    C310129   1.470   2.102  15.737  0.5791 -0.2282 -0.0992
  685TMC3    C410130   1.642   1.942  15.878 -0.0404 -0.3248  0.4489
  685TMC3    C510131   1.661   1.969  15.741 -0.6189 -0.7463  0.3241
  685TMC3    C610132   1.575   2.050  15.671 -0.4581 -0.1806 -0.5473
  685TMC3     C10133   1.566   2.021  16.079  0.4480 -0.0819 -0.3772
  685TMC3     O10134   1.652   1.942  16.124 -0.3699  0.4030 -0.0942
  685TMC3     H10135   1.370   2.134  15.919  0.3746  0.0195  1.7067
  685TMC3    H110136   1.702   1.870  15.933 -0.6606 -3.0093 -2.3877
  685TMC3    H210137   1.598   2.069  15.567  3.6435 -1.4910  0.1103
  685TMC3    C710138   1.800   2.003  15.713 -0.2063  0.1824  0.4242
  685TMC3    C810139   1.354   2.133  15.659 -0.2478 -0.0398 -0.4685
  685TMC3    O110140   1.833   2.048  15.605  0.0949  0.2447 -0.3145
  685TMC3    O210141   1.356   2.084  15.544 -0.0119  0.0888  0.2568
  686MPD2     C10142   3.158   2.057  15.069 -0.7312  0.5136 -0.1302
  686MPD2    C110143   3.063   1.986  15.144 -0.6150 -0.1899  0.3429
  686MPD2    C210144   3.087   1.856  15.170  0.3560  0.2786  0.4410
  686MPD2    C310145   3.211   1.798  15.137  0.4428 -0.0289  0.4410
  686MPD2    C410146   3.304   1.867  15.047 -0.2256 -0.3801  0.6930
  686MPD2    C510147   3.271   1.993  15.019  0.0279 -0.2794  0.4733
  686MPD2     H10148   3.009   1.809  15.229 -0.2778 -2.6704 -2.7573
  686MPD2    H110149   3.391   1.819  15.004 -0.3836  0.8425 -0.9660
  686MPD2    H210150   3.131   2.161  15.055  1.0598  0.9419 -0.5020
  686MPD2    H310151   3.342   2.052  14.961  0.7008  0.2334  1.8008
  686MPD2     N10152   3.248   1.671  15.184  0.0078  0.1518 -0.1116
  686MPD2    H510153   3.320   1.627  15.128 -0.5516 -0.8512 -0.0304
  686MPD2    N110154   2.957   2.063  15.199  0.2708  0.0439  0.4320
  686MPD2    H710155   2.949   2.154  15.154 -2.1491 -0.2815  0.1966
  687TMC3    C110156   3.104   1.657  15.379  0.3318  0.3154 -0.0922
  687TMC3    C210157   2.990   1.590  15.418  0.0183 -0.2007 -0.1704
  687TMC3    C310158   2.927   1.629  15.533 -0.0524 -0.5870 -0.6626
  687TMC3    C410159   3.170   1.751  15.452  0.5370 -0.4447  0.0245
  687TMC3    C510160   3.103   1.787  15.566 -0.9164 -0.5507 -0.6297
  687TMC3    C610161   2.987   1.726  15.608 -0.2616 -0.3291  0.4187
  687TMC3     C10162   3.174   1.591  15.265  0.3702 -0.5950 -0.0589
  687TMC3     O10163   3.211   1.473  15.276 -0.3126 -0.2005  0.7615
  687TMC3     H10164   2.955   1.503  15.363  0.9721  0.9239 -2.5529
  687TMC3    H110165   3.260   1.791  15.406 -1.6466  2.3299 -1.8497
  687TMC3    H210166   2.931   1.763  15.692  0.6434  0.6757  0.5817
  687TMC3    C710167   3.175   1.872  15.664  0.7060  0.0050  0.7093
  687TMC3    C810168   2.790   1.613  15.548  0.7448 -0.0929 -0.0656
  687TMC3    O110169   3.110   1.910  15.763 -0.2548  0.4116  0.4304
  687TMC3    O210170   2.760   1.560  15.652 -0.4993  0.2970  0.1967
  688MPD2     C10171   2.452   1.385  17.101 -0.1846 -0.6232 -0.1568
  688MPD2    C110172   2.559   1.308  17.146  0.1382 -0.0893 -0.3651
  688MPD2    C210173   2.669   1.310  17.058 -0.1708  0.3372 -0.2116
  688MPD2    C310174   2.671   1.374  16.938 -0.5154  0.3990  0.5230
  688MPD2    C410175   2.560   1.442  16.903 -0.2658 -0.2305  0.2567
  688MPD2    C510176   2.449   1.453  16.986  0.8384  0.2381 -0.1041
  688MPD2     H10177   2.755   1.255  17.092 -1.6859 -2.1186 -0.3381
  688MPD2    H110178   2.559   1.505  16.815 -0.9808  1.0886  1.2114
  688MPD2    H210179   2.366   1.391  17.166 -0.1682 -1.9574 -0.0193
  688MPD2    H310180   2.358   1.504  16.956  1.3826  0.3156 -1.6543
  688MPD2     N10181   2.777   1.376  16.851  0.3009  0.6512  0.8511
  688MPD2    H510182   2.761   1.418  16.760 -0.4132  0.2673  0.8018
  688MPD2    N110183   2.569   1.226  17.258  0.0966 -0.4089 -0.0534
  688MPD2    H710184   2.650   1.170  17.283  1.6504  1.7399 -0.2813
  689TMC3    C110185   2.491   1.144  17.461 -0.7679  0.1830 -0.5697
  689TMC3    C210186   2.596   1.191  17.535 -0.6934  0.2217  0.5893
  689TMC3    C310187   2.596   1.168  17.669  0.2920 -0.1208 -0.0182
  689TMC3    C410188   2.389   1.067  17.517 -0.5524 -0.1047  0.1991
  689TMC3    C510189   2.393   1.040  17.654  0.7426  0.2596 -0.0269
  689TMC3    C610190   2.492   1.098   0.028  0.3613 -0.9716  0.7193
  689TMC3     C10191   2.459   1.202  17.338 -0.3932 -0.9718  0.6511
  689TMC3     O10192   2.344   1.230  17.320  0.6690  0.1224 -0.5815
  689TMC3     H10193   2.661   1.261  17.483 -0.8272 -0.4066 -0.4268
  689TMC3    H110194   2.338   1.018  17.435 -3.3158  2.2361  0.5201
  689TMC3    H210195   2.489   1.077   0.134 -0.0031  1.0645  1.1163
  689TMC3    C710196   2.325   0.920   0.001  0.1211  0.8546  0.0654
  689TMC3    C810197   2.720   1.174   0.047  0.5681 -0.9368  0.3185
  689TMC3    O110198   2.328   0.911   0.125  0.8970  0.7283  0.3798
  689TMC3    O210199   2.732   1.091   0.139 -1.1288 -0.5607 -0.4222
  690MPD2     C10200   4.588   3.005  15.885  0.3894  0.0110 -0.3714
  690MPD2    C110201   4.515   2.962  15.777 -0.2358 -0.0984 -0.1396
  690MPD2    C210202   4.553   3.002  15.652 -1.0558 -0.3353  0.1754
  690MPD2    C310203   4.674   3.068  15.628  0.3355 -0.7692 -0.7663
  690MPD2    C410204   0.007   3.116  15.738 -0.1235 -0.5005  0.0817
  690MPD2    C510205   4.700   3.078  15.867 -0.3734  0.1594  0.3906
  690MPD2     H10206   4.493   2.975  15.566 -0.3393 -2.2320  0.2759
  690MPD2    H110207   0.093   3.182  15.728 -1.2060  0.8850 -0.1532
  690MPD2    H210208   4.574   2.977  15.989  0.0779  1.6070  0.0100
  690MPD2    H310209   0.027   3.104  15.958  1.7796 -0.9109 -0.5370
  690MPD2     N10210   4.715   3.092  15.499 -0.2860  0.1238  0.1483
  690MPD2    H510211   4.654   3.050  15.430  0.0682  0.0850 -0.1357
  690MPD2    N110212   4.407   2.868  15.788  0.8836 -0.1115 -0.5664
  690MPD2    H710213   4.369   2.835  15.700 -1.8332  0.9793  0.1985
  691TMC3    C110214   4.255   2.711  15.878  0.8738  0.1549 -0.2377
  691TMC3    C210215   4.118   2.716  15.889 -0.1580  0.0169 -0.4931
  691TMC3    C310216   4.038   2.610  15.838 -0.6449  0.1394  0.7305
  691TMC3    C410217   4.317   2.599  15.824  0.0821  0.0362  0.6907
  691TMC3    C510218   4.239   2.500  15.772 -0.0469 -0.0493 -0.5794
  691TMC3    C610219   4.103   2.496  15.790  0.0718 -0.8252  0.3546
  691TMC3     C10220   4.338   2.830  15.904  0.3043 -0.0059  0.4035
  691TMC3     O10221   4.340   2.872  16.018 -0.7361 -0.6181  0.2959
  691TMC3     H10222   4.084   2.794  15.956  1.1224  1.5008 -1.5888
  691TMC3    H110223   4.426   2.597  15.819 -0.0392 -3.2562 -1.2980
  691TMC3    H210224   4.046   2.413  15.752 -1.8218  0.4367  0.4414
  691TMC3    C710225   4.296   2.441  15.651 -0.2125 -0.0996 -0.2253
  691TMC3    C810226   3.897   2.605  15.874 -0.9235 -0.0019  0.0941
  691TMC3    O110227   4.411   2.474  15.618  0.4078 -0.0363  0.2137
  691TMC3    O210228   3.847   2.496  15.890  0.3479 -0.2538 -0.5481
  692TMC3    C110229   1.352   3.818  15.766  0.1669  0.3682 -0.2307
  692TMC3    C210230   1.456   3.855  15.845  0.5332 -0.3153  0.8652
  692TMC3    C310231   1.547   3.768  15.895  0.4884 -0.5095 -0.3741
  692TMC3    C410232   1.317   3.689  15.756 -0.2417  0.2106 -0.0801
  692TMC3    C510233   1.403   3.601  15.818 -0.2617  1.0933  0.2807
  692TMC3    C610234   1.510   3.636  15.896 -0.5032 -0.5031  0.9048
  692TMC3     C10235   1.242   3.916  15.756 -0.1254 -0.1258  0.4041
  692TMC3     O10236   1.135   3.871  15.788  0.4414 -0.2602  0.4019
  692TMC3     H10237   1.501   3.954  15.835 -2.3664  0.9963  0.8196
  692TMC3    H110238   1.235   3.664  15.689  0.3116 -2.9211  0.4053
  692TMC3    H210239   1.583   3.561  15.925  1.9317  0.8776 -1.6049
  692TMC3    C710240   1.356   3.462  15.809  0.0680 -0.1712  0.3695
  692TMC3    C810241   1.572   3.790  16.041  0.2564  0.2349  0.4059
  692TMC3    O110242   1.321   3.429  15.699 -0.1560 -0.0798  0.3314
  692TMC3    O210243   1.613   3.698  16.109 -0.1498  0.5203  0.3290
  693MPD2     C10244   0.316   1.808  10.207  0.2688 -0.2798  0.2075
  693MPD2    C110245   0.329   1.865  10.331 -0.0371  0.1087 -0.5767
  693MPD2    C210246   0.437   1.945  10.359  0.7985 -0.4862  0.4291
  693MPD2    C310247   0.534   1.965  10.260  0.0246 -0.8015  0.1022
  693MPD2    C410248   0.515   1.910  10.131  0.1323 -0.0046 -0.0116
  693MPD2    C510249   0.397   1.846  10.101  0.4663 -0.4821 -0.5038
  693MPD2     H10250   0.449   1.986  10.458  0.8573 -1.7116  0.9201
  693MPD2    H110251   0.588   1.924  10.053 -3.1250  0.8510 -2.9389
  693MPD2    H210252   0.231   1.745  10.182  0.1545  0.6840 -1.8589
  693MPD2    H310253   0.392   1.816   9.997 -0.1395  2.8544 -1.4552
  693MPD2     N10254   0.659   2.024  10.293  0.4349 -0.0819  0.3352
  693MPD2    H510255   0.733   2.029  10.224 -0.3765 -0.0458 -0.5332
  693MPD2    N110256   0.229   1.830  10.424  0.1260  0.3895 -0.0165
  693MPD2    H710257   0.160   1.761  10.394  0.1820  0.2821  0.1038
  694TMC3    C110258   0.106   1.819  10.633  0.3448 -0.4591 -0.0343
  694TMC3    C210259   0.007   1.749  10.565 -0.3394 -0.5409 -0.1686
  694TMC3    C310260   4.653   1.662  10.639 -0.1551 -0.2261  0.4389
  694TMC3    C410261   0.123   1.813  10.764  0.1468 -0.4551  0.4166
  694TMC3    C510262   0.050   1.726  10.832  0.3738  0.0992  0.4852
  694TMC3    C610263   4.677   1.647  10.775  0.5144  0.0643  0.2839
  694TMC3     C10264   0.216   1.877  10.557 -0.6779  0.7067 -0.9136
  694TMC3     O10265   0.268   1.977  10.613 -0.1480 -0.3813 -0.0019
  694TMC3     H10266   0.005   1.756  10.456 -0.5253  2.7012  0.0351
  694TMC3    H110267   0.196   1.874  10.816  1.3454 -0.5425 -1.1635
  694TMC3    H210268   4.627   1.571  10.834  2.9225 -0.9780  0.9640
  694TMC3    C710269   0.061   1.735  10.979 -0.0452  0.8059  0.4043
  694TMC3    C810270   4.558   1.578  10.577  0.2784  0.7519 -0.1639
  694TMC3    O110271   0.125   1.831  11.022 -0.7810 -0.1390  0.3897
  694TMC3    O210272   4.517   1.486  10.643 -0.4235 -0.0975 -0.1564
  695MPD2     C10273   1.693   3.326  13.686 -0.7655 -0.4269  0.2791
  695MPD2    C110274   1.635   3.439  13.739 -1.0270 -0.1465 -0.3496
  695MPD2    C210275   1.506   3.474  13.689  0.6370 -0.4130 -0.0877
  695MPD2    C310276   1.452   3.405  13.580  0.4549 -0.4979  0.6868
  695MPD2    C410277   1.510   3.290  13.538 -0.0514  0.7158 -0.0197
  695MPD2    C510278   1.634   3.253  13.586 -0.5383  0.1694  0.4356
  695MPD2     H10279   1.454   3.559  13.731 -0.2952 -2.0758  2.0719
  695MPD2    H110280   1.464   3.223  13.466 -1.9823  0.7168  1.2329
  695MPD2    H210281   1.786   3.282  13.720 -0.0706 -0.6151 -1.8446
  695MPD2    H310282   1.677   3.157  13.560 -1.3580  0.3974 -1.8317
  695MPD2     N10283   1.330   3.460  13.536  0.8525  0.0790 -0.2583
  695MPD2    H510284   1.293   3.533  13.598 -2.1782 -1.7075  0.0463
  695MPD2    N110285   1.692   3.519  13.839 -0.1460  0.0303  0.3927
  695MPD2    H710286   1.643   3.605  13.860 -2.1139 -0.3301 -2.6367
  696TMC3    C110287   1.126   3.472  13.413  0.3250  0.1606 -0.1721
  696TMC3    C210288   1.054   3.481  13.523  0.5828  0.4582 -0.2376
  696TMC3    C310289   0.933   3.535  13.507  0.2318 -0.4622  0.3738
  696TMC3    C410290   1.084   3.511  13.291  1.2027  0.7229 -0.0793
  696TMC3    C510291   0.971   3.580  13.285  0.7380  0.5767  0.7772
  696TMC3    C610292   0.888   3.587  13.384 -0.0373 -0.1531  0.2017
  696TMC3     C10293   1.265   3.429  13.420  0.0580 -0.2211  0.0037
  696TMC3     O10294   1.321   3.369  13.330  0.2491 -0.8161 -0.8336
  696TMC3     H10295   1.094   3.450  13.619  1.6098 -0.2205 -0.8877
  696TMC3    H110296   1.142   3.486  13.203  1.0975 -1.5092  0.4775
  696TMC3    H210297   0.791   3.636  13.383 -0.7087 -1.5100 -0.9580
  696TMC3    C710298   0.996   3.695  13.197 -0.1112 -0.0506 -0.3734
  696TMC3    C810299   0.917   3.644  13.597  0.0771  0.5262  0.2712
  696TMC3    O110300   1.045   3.665  13.088 -0.2537  0.7164 -0.1045
  696TMC3    O210301   0.917   3.760  13.549 -0.1497  0.5250  0.0886
  697MPD2     C10302   0.678   1.126  15.538 -0.1975 -0.4864 -0.2839
  697MPD2    C110303   0.746   1.047  15.452  0.0421  0.0706 -0.4407
  697MPD2    C210304   0.815   1.100  15.344  0.5492 -0.4389 -0.7432
  697MPD2    C310305   0.849   1.236  15.351  0.3771  0.3805 -0.2445
  697MPD2    C410306   0.789   1.312  15.450 -0.5178 -0.1459  0.3957
  697MPD2    C510307   0.697   1.260  15.530 -0.3123  0.5279 -0.0927
  697MPD2     H10308   0.864   1.032  15.275 -0.4546 -0.5657 -1.3349
  697MPD2    H110309   0.808   1.418  15.462  3.7951 -1.0723  1.7333
  697MPD2    H210310   0.605   1.098  15.614  1.1393  0.2240  1.2596
  697MPD2    H310311   0.633   1.327  15.586  0.1621  0.6123  0.3447
  697MPD2     N10312   0.954   1.278  15.263  0.3754  0.2842  0.3587
  697MPD2    H510313   0.997   1.206  15.205 -0.8851 -1.1436  1.1887
  697MPD2    N110314   0.758   0.910  15.458 -0.5785  0.2461 -0.5613
  697MPD2    H710315   0.806   0.859  15.384  0.7896 -1.1594  1.2737
  698TMC3    C110316   1.133   1.415  15.181  0.4206  0.2016  0.0843
  698TMC3    C210317   1.192   1.536  15.182 -0.4674 -0.2868  0.2036
  698TMC3    C310318   1.283   1.564  15.084 -0.0141  0.1704 -0.4772
  698TMC3    C410319   1.160   1.323  15.078 -0.1570 -0.4526  0.2290
  698TMC3    C510320   1.253   1.360  14.978  0.2770  0.3926  0.7494
  698TMC3    C610321   1.308   1.484  14.973 -0.2201 -0.1211 -0.5601
  698TMC3     C10322   1.007   1.401  15.263 -0.0253  0.0620 -0.4646
  698TMC3     O10323   0.956   1.500  15.312  0.4203 -0.1893  0.6853
  698TMC3     H10324   1.164   1.601  15.264 -0.9546  0.2211 -0.3680
  698TMC3    H110325   1.122   1.222  15.068 -0.7185 -0.3444  1.2860
  698TMC3    H210326   1.379   1.512  14.896  1.8604 -0.0090  1.4205
  698TMC3    C710327   1.238   1.291  14.853  0.5800 -0.5201  0.1474
  698TMC3    C810328   1.350   1.689  15.104  0.5924  0.6081 -0.6807
  698TMC3    O110329   1.121   1.256  14.826 -0.0661 -0.7940  0.0137
  698TMC3    O210330   1.325   1.733  15.215  0.6718  0.5509  0.4687
  699TMC3    C110331   0.812   3.637  12.840 -0.0190 -0.1673  0.5412
  699TMC3    C210332   0.889   3.543  12.900 -0.2200  0.5728 -0.0393
  699TMC3    C310333   0.824   3.439  12.970 -1.0599  0.0587  0.0236
  699TMC3    C410334   0.676   3.638  12.849 -0.0110  0.1034  0.1713
  699TMC3    C510335   0.619   3.526  12.911  0.2899 -0.0312  0.1346
  699TMC3    C610336   0.685   3.429  12.984  0.3745 -0.0317 -0.4776
  699TMC3     C10337   0.871   3.755  12.777 -0.0337 -1.0996 -0.4467
  699TMC3     O10338   0.800   3.820  12.706  0.2392 -0.1748  0.1954
  699TMC3     H10339   0.995   3.549  12.880 -0.2251  2.2520  0.4387
  699TMC3    H110340   0.621   3.704  12.783 -0.6423  0.6321  1.2355
  699TMC3    H210341   0.638   3.356  13.049  2.1436 -1.2026 -0.5267
  699TMC3    C710342   0.480   3.527  12.888  0.0313 -0.1719  0.1154
  699TMC3    C810343   0.901   3.324  13.016 -0.1342 -0.0835  0.8536
  699TMC3    O110344   0.421   3.633  12.859 -0.3570  0.5344  1.2579
  699TMC3    O210345   0.840   3.262  13.098  0.2193  0.2668 -0.4662
  700TMC3    C110346   0.059   1.257  16.960  0.7741  0.4643 -0.2925
  700TMC3    C210347   0.185   1.221  16.928 -0.3354  0.8514  0.2933
  700TMC3    C310348   0.272   1.185  17.027  0.0115 -0.0949 -0.2855
  700TMC3    C410349   0.029   1.293  17.096 -0.8716  0.2250  0.4148
  700TMC3    C510350   0.130   1.283  17.191  0.3770  0.2559 -0.1210
  700TMC3    C610351   0.246   1.224  17.156  1.1708 -0.1633  0.1472
  700TMC3     C10352   4.704   1.354  16.881  0.3158 -0.2022 -0.5148
  700TMC3     O10353   4.583   1.332  16.888  0.1811  0.1366 -0.1080
  700TMC3     H10354   0.219   1.207  16.826  0.2161  0.6482  0.5070
  700TMC3    H110355   4.652   1.327  17.112 -0.1520  1.9487  1.2572
  700TMC3    H210356   0.318   1.211  17.236 -0.6344 -2.4203  1.4168
  700TMC3    C710357   0.144   1.388  17.287 -0.4591  0.4500 -0.3012
  700TMC3    C810358   0.392   1.112  16.996  0.0942  0.4471  0.4333
  700TMC3    O110359   0.261   1.414  17.312  0.1703 -0.8009 -0.2294
  700TMC3    O210360   0.422   1.088  16.878 -0.0401  0.2734  0.6209
  701TMC3    C110361   0.519   4.660  15.129 -0.3707  0.5220  0.0453
  701TMC3    C210362   0.452   4.620  15.012  0.0120 -0.4380  0.7378
  701TMC3    C310363   0.367   4.716  14.962 -0.9188 -0.3351 -0.1015
  701TMC3    C410364   0.491   0.053  15.186  0.2932  0.4439 -0.5111
  701TMC3    C510365   0.405   0.140  15.126  0.2578  2.0019  0.2540
  701TMC3    C610366   0.348   0.118  15.007  0.0837  0.2146  0.2065
  701TMC3     C10367   0.563   4.560  15.219  0.1862 -0.4833 -0.2564
  701TMC3     O10368   0.508   4.451  15.197 -0.1081  0.1390 -0.1937
  701TMC3     H10369   0.468   4.521  14.970  0.0324 -1.0485  2.1674
  701TMC3    H110370   0.561   0.091  15.259  0.0632 -0.8963  0.3972
  701TMC3    H210371   0.289   0.200  14.965 -0.4140  1.3039  3.0212
  701TMC3    C710372   0.366   0.260  15.198  0.3759  0.2181 -0.2093
  701TMC3    C810373   0.339   4.690  14.822  0.7922 -0.0058 -0.1705
  701TMC3    O110374   0.321   0.354  15.133  0.7136  0.2996 -0.4363
  701TMC3    O210375   0.418   4.623  14.763 -0.1431 -0.8767 -0.5099
  702MPD2     C10376   4.048   2.743  10.166  0.8843 -0.3232 -0.0658
  702MPD2    C110377   3.967   2.858  10.186 -0.0092  0.2830 -0.1922
  702MPD2    C210378   4.004   2.980  10.127  0.3661 -0.1436  0.2408
  702MPD2    C310379   4.119   2.995  10.056 -0.3173  0.6969  0.2036
  702MPD2    C410380   4.203   2.886  10.035  0.1937  0.0819 -0.1958
  702MPD2    C510381   4.161   2.762  10.087 -0.2027 -0.4456  0.1117
  702MPD2     H10382   3.934   3.062  10.131 -0.0164 -0.3270 -2.3793
  702MPD2    H110383   4.298   2.890   9.983  1.0447  1.2288  1.4571
  702MPD2    H210384   4.028   2.645  10.207  4.3352 -1.1303 -0.3097
  702MPD2    H310385   4.220   2.673  10.070 -0.0967 -0.4495  0.5045
  702MPD2     N10386   4.155   3.132  10.023 -0.4057  0.1931 -0.3109
  702MPD2    H510387   4.089   3.202  10.055  2.7275  4.2683 -2.8853
  702MPD2    N110388   3.847   2.847  10.264 -0.5485  0.2076 -0.5022
  702MPD2    H710389   3.794   2.933  10.273 -0.1321  0.8379 -4.1439
  703TMC3    C110390   4.265   3.323   9.941  0.3407  0.4247  0.1126
  703TMC3    C210391   4.182   3.402  10.014  0.7696  0.1036 -0.2093
  703TMC3    C310392   4.225   3.533  10.032 -0.5496 -0.0445  0.1783
  703TMC3    C410393   4.373   3.374   9.872 -0.2206 -0.1203  0.4910
  703TMC3    C510394   4.402   3.512   9.883  0.4398  0.3331  0.1197
  703TMC3    C610395   4.332   3.587   9.963 -0.0039 -0.3140  0.3206
  703TMC3     C10396   4.264   3.173   9.954  0.2521  0.5703 -0.3377
  703TMC3     O10397   4.357   3.113   9.901 -0.6113 -0.2902  0.2235
  703TMC3     H10398   4.101   3.366  10.076  0.5294  3.2033  1.3060
  703TMC3    H110399   4.412   3.316   9.789  2.9965  1.9540  0.5951
  703TMC3    H210400   4.370   3.685   9.989 -1.9117  0.6215 -0.3938
  703TMC3    C710401   4.550   3.535   9.886  0.2461 -0.0179 -0.0065
  703TMC3    C810402   4.148   3.629  10.121 -0.1369  0.1002 -0.1663
  703TMC3    O110403   4.588   3.653   9.877 -0.0043  0.0506 -0.2512
  703TMC3    O210404   4.195   3.736  10.159  0.3120  0.2673  0.0754
  704TMC3    C110405   2.914   1.354  11.886 -0.8597  0.6084  0.5879
  704TMC3    C210406   2.832   1.307  11.786 -0.1378  0.4000  0.1702
  704TMC3    C310407   2.899   1.241  11.684 -0.5677  0.3108 -0.2497
  704TMC3    C410408   3.050   1.328  11.890 -0.2740  0.2278  0.6398
  704TMC3    C510409   3.103   1.259  11.787  0.5813 -0.0516  0.2656
  704TMC3    C610410   3.027   1.211  11.689 -0.2100 -0.3465  1.0415
  704TMC3     C10411   2.845   1.339  12.017  0.1755 -1.0392 -0.3394
  704TMC3     O10412   2.909   1.344  12.119  0.2237 -0.1861  0.3624
  704TMC3     H10413   2.729   1.337  11.769  0.6190  2.2087 -1.1387
  704TMC3    H110414   3.109   1.369  11.971  0.0263  0.6047  0.2323
  704TMC3    H210415   3.080   1.147  11.620  0.1560 -0.2657  1.2479
  704TMC3    C710416   3.241   1.221  11.779  0.3375 -0.6322 -0.1952
  704TMC3    C810417   2.811   1.159  11.598  0.5047  0.5502  0.6453
  704TMC3    O110418   3.280   1.222  11.664 -0.0107 -0.1761  0.0115
  704TMC3    O210419   2.692   1.145  11.637 -0.5472  0.0701  0.4527
  705MPD2     C10420   1.801   3.511  16.634  0.2536 -0.2518 -0.1998
  705MPD2    C110421   1.748   3.627  16.571  0.5181 -0.3913  0.2395
  705MPD2    C210422   1.632   3.674  16.617 -0.2957  0.4053 -0.7089
  705MPD2    C310423   1.568   3.622  16.732  0.5940  0.2266 -0.7581
  705MPD2    C410424   1.626   3.520  16.801  0.4875  0.2152  0.3068
  705MPD2    C510425   1.737   3.465  16.746 -0.1836  0.2701  0.5427
  705MPD2     H10426   1.588   3.758  16.565 -1.7383  0.4993  0.6624
  705MPD2    H110427   1.576   3.482  16.890  0.8754 -2.0117 -0.4115
  705MPD2    H210428   1.902   3.476  16.621  0.2140  0.0957 -1.4140
  705MPD2    H310429   1.792   3.389  16.801 -0.1183 -1.7329 -2.3358
  705MPD2     N10430   1.440   3.669  16.769  0.2323  0.5849 -0.4299
  705MPD2    H510431   1.400   3.618  16.847  0.4620  1.4530  0.2546
  705MPD2    N110432   1.812   3.700  16.469 -0.3756  0.2010  0.1978
  705MPD2    H710433   1.773   3.789  16.439 -0.8891 -0.4235 -0.9972
  706TMC3    C110434   1.928   3.751  16.057 -0.1204  0.0599 -0.3112
  706TMC3    C210435   1.941   3.885  16.065  0.6614 -0.7547  0.8487
  706TMC3    C310436   1.956   3.944  16.184  0.0967 -0.2498  0.2262
  706TMC3    C410437   1.940   3.669  16.167 -0.4327 -0.1498  0.0048
  706TMC3    C510438   1.950   3.730  16.289  0.2321  0.1369 -0.7369
  706TMC3    C610439   1.953   3.866  16.302 -0.1804  0.0095  0.2237
  706TMC3     C10440   1.891   3.690  15.929  0.1293  0.1381  0.3515
  706TMC3     O10441   1.830   3.748  15.842 -0.3296 -0.4582  0.0696
  706TMC3     H10442   1.954   3.937  15.971  1.1226 -0.6280  0.9816
  706TMC3    H110443   1.935   3.561  16.162  0.0725 -0.1419 -0.8081
  706TMC3    H210444   1.963   3.895  16.406 -0.8241  1.5721 -0.1617
  706TMC3    C710445   1.918   3.651  16.399 -0.5978 -0.6419  0.6757
  706TMC3    C810446   1.930   4.084  16.181 -0.4735 -0.1268 -0.3376
  706TMC3    O110447   1.948   3.536  16.393 -0.6300 -0.4233 -0.9024
  706TMC3    O210448   1.881   4.126  16.079  0.5765 -0.1296 -0.1417
  707TMC3    C110449   4.142   2.786   1.674  0.2816  0.6795 -0.0356
  707TMC3    C210450   4.172   2.672   1.738  0.2368 -0.4408  0.8265
  707TMC3    C310451   4.094   2.628   1.839 -0.1815  0.2539  0.3403
  707TMC3    C410452   4.038   2.865   1.704 -0.0839 -0.5161 -0.0950
  707TMC3    C510453   3.954   2.823   1.806 -0.2024 -0.5843  0.7209
  707TMC3    C610454   3.985   2.710   1.876  0.1240  0.6167 -0.1130
  707TMC3     C10455   4.237   2.824   1.568  0.7122 -0.0016 -0.0702
  707TMC3     O10456   4.352   2.770   1.577  0.0829 -0.0511 -0.0235
  707TMC3     H10457   4.250   2.605   1.704  0.7720  0.5065  0.2008
  707TMC3    H110458   4.034   2.961   1.654  1.9347  0.3307  1.3294
  707TMC3    H210459   3.919   2.677   1.955  0.8288 -1.5815 -0.4324
  707TMC3    C710460   3.808   2.859   1.803  0.5795  0.2002  0.3955
  707TMC3    C810461   4.118   2.514   1.924  0.4675 -0.2802  0.0258
  707TMC3    O110462   3.734   2.805   1.883 -0.1335  0.3819  0.4575
  707TMC3    O210463   4.071   2.521   2.039  0.3947  0.4563  0.8320
  708MPD2     C10464   0.759   2.248  13.175  0.3185 -0.3684 -0.3974
  708MPD2    C110465   0.628   2.269  13.209 -0.0940 -0.1242 -0.0416
  708MPD2    C210466   0.574   2.232  13.329  0.2568  0.9035  0.0317
  708MPD2    C310467   0.655   2.168  13.421 -1.7267  0.8581 -0.3698
  708MPD2    C410468   0.789   2.143  13.396  0.2168 -0.1858 -0.5527
  708MPD2    C510469   0.840   2.190  13.275 -0.3589 -0.3861 -0.0179
  708MPD2     H10470   0.469   2.254  13.346  0.0983 -0.1718  0.4686
  708MPD2    H110471   0.853   2.088  13.464 -0.5630 -0.1073  0.2469
  708MPD2    H210472   0.803   2.289  13.085 -1.7845  1.8720 -0.3820
  708MPD2    H310473   0.943   2.177  13.245  0.3069  3.2064  0.7558
  708MPD2     N10474   0.582   2.129  13.544 -0.0345 -0.0282 -0.4593
  708MPD2    H510475   0.481   2.128  13.543 -0.0615  1.7347  0.5095
  708MPD2    N110476   0.559   2.352  13.113  0.2745  0.4870 -0.4492
  708MPD2    H710477   0.599   2.363  13.021 -1.1836  0.8980 -1.0336
  709TMC3    C110478   0.382   2.486  13.035 -0.1231 -0.3842 -0.3311
  709TMC3    C210479   0.369   2.407  12.922 -0.1744  0.4715  0.0715
  709TMC3    C310480   0.249   2.407  12.854  0.2413 -0.0019 -0.3311
  709TMC3    C410481   0.273   2.560  13.066 -0.1801 -0.6305 -0.4672
  709TMC3    C510482   0.152   2.543  13.009  0.0497 -0.3242 -0.9086
  709TMC3    C610483   0.139   2.467  12.895 -0.3492  0.1943  0.1740
  709TMC3     C10484   0.445   2.428  13.151 -0.6212 -0.0373 -0.0815
  709TMC3     O10485   0.390   2.440  13.259 -0.2771 -0.6628  0.4226
  709TMC3     H10486   0.442   2.335  12.886 -0.7747  0.3791 -0.9617
  709TMC3    H110487   0.278   2.608  13.164  2.6653 -1.7672 -0.0467
  709TMC3    H210488   0.038   2.438  12.870 -0.5714  0.6483  0.5594
  709TMC3    C710489   0.048   2.519  13.108  0.3339 -0.2637  0.5358
  709TMC3    C810490   0.248   2.366  12.715 -0.8275  0.0112 -0.2058
  709TMC3    O110491   4.660   2.568  13.094 -0.2838  0.0226 -0.5000
  709TMC3    O210492   0.344   2.293  12.681  0.4505  0.1361  0.2456
  710TMC3    C110493   0.895   3.779   0.484 -0.7537  0.7690 -0.1917
  710TMC3    C210494   0.973   3.742   0.377  0.1307 -0.1405  0.3723
  710TMC3    C310495   1.052   3.640   0.409  0.4086  0.4073  0.0046
  710TMC3    C410496   0.914   3.741   0.615 -0.0021  0.4684 -0.1565
  710TMC3    C510497   0.977   3.618   0.633 -0.1203 -0.0024  0.8126
  710TMC3    C610498   1.051   3.576   0.529  0.5386 -0.7265  0.6545
  710TMC3     C10499   0.827   3.908   0.465  0.1939 -0.1918  0.3468
  710TMC3     O10500   0.723   3.898   0.398 -0.9854 -0.4728  0.2361
  710TMC3     H10501   0.964   3.793   0.282  1.3316 -1.5789 -0.5151
  710TMC3    H110502   0.846   3.786   0.686  0.3468  0.8024 -0.0346
  710TMC3    H210503   1.118   3.493   0.551  2.3750  0.5019 -0.2386
  710TMC3    C710504   1.012   3.581   0.770 -0.3776 -0.8904  0.4072
  710TMC3    C810505   1.149   3.610   0.297  0.3701  0.2917 -0.2218
  710TMC3    O110506   1.102   3.502   0.782 -0.5523 -0.1533 -0.2941
  710TMC3    O210507   1.141   3.674   0.191  0.0416 -0.5991 -0.5700
  711TMC3    C110508   0.940   0.001  14.962  0.1015 -0.4003 -0.2216
  711TMC3    C210509   0.889   0.081  15.056  0.2502 -0.5088  0.6571
  711TMC3    C310510   0.974   0.161  15.124 -1.2290 -0.3756  0.1846
  711TMC3    C410511   1.066   4.716  14.927  0.5339  0.3337 -0.0312
  711TMC3    C510512   1.155   0.080  14.988 -0.0758 -0.0195 -0.3832
  711TMC3    C610513   1.107   0.165  15.086 -0.1497 -0.0397 -1.0004
  711TMC3     C10514   0.862   4.612  14.936  0.3320  0.2356  0.2467
  711TMC3     O10515   0.752   4.626  14.882 -0.7911  0.2863 -0.2253
  711TMC3     H10516   0.782   0.084  15.072 -0.2763 -1.0628 -2.7345
  711TMC3    H110517   1.082   4.647  14.845 -2.8979  0.5780 -0.9079
  711TMC3    H210518   1.181   0.226  15.137 -0.7735 -0.1531  0.0479
  711TMC3    C710519   1.289   0.025  15.002  0.4841 -0.1473 -0.0167
  711TMC3    C810520   0.947   0.158  15.265 -0.5171  0.0137  0.3498
  711TMC3    O110521   1.344   0.054  15.108 -0.0831  0.2524 -0.2151
  711TMC3    O210522   0.835   0.116  15.295 -0.3178 -0.3634  0.0060
  712MPD2     C10523   2.664   1.050  13.849  0.1424  0.7001  0.1724
  712MPD2    C110524   2.606   1.034  13.722 -0.2113 -0.2915 -0.4263
  712MPD2    C210525   2.636   1.134  13.636 -0.1929  0.1497  0.0067
  712MPD2    C310526   2.723   1.233  13.663  0.0065  0.1285  0.3130
  712MPD2    C410527   2.792   1.237  13.778  0.7865  0.0355 -0.1660
  712MPD2    C510528   2.756   1.150  13.874 -0.1552  0.1091 -0.6507
  712MPD2     H10529   2.578   1.147  13.545  0.2266  0.9652 -0.1498
  712MPD2    H110530   2.850   1.324  13.803  0.5963  0.6065 -1.7235
  712MPD2    H210531   2.644   0.983  13.932  0.8382  1.0332  0.6091
  712MPD2    H310532   2.800   1.157  13.973  0.4012  0.5717 -0.9364
  712MPD2     N10533   2.737   1.346  13.579  0.5870  0.0450 -0.3961
  712MPD2    H510534   2.811   1.413  13.598  0.4566 -0.2799  1.2342
  712MPD2    N110535   2.504   0.935  13.697  0.6562  0.0445 -0.0876
  712MPD2    H710536   2.468   0.939  13.602  1.3744 -0.9164 -0.3992
  713TMC3    C110537   2.672   1.511  13.413 -0.3175 -0.3195  0.1325
  713TMC3    C210538   2.796   1.564  13.407  0.1037  0.2273  0.0206
  713TMC3    C310539   2.807   1.682  13.344 -0.2211 -0.2271  0.3371
  713TMC3    C410540   2.558   1.573  13.363  0.2645  0.1535  0.0264
  713TMC3    C510541   2.578   1.687  13.295  0.4065 -0.1367 -0.1914
  713TMC3    C610542   2.708   1.732  13.268 -0.1110  0.1402  0.2263
  713TMC3     C10543   2.651   1.379  13.477 -0.1060  0.3425 -0.1513
  713TMC3     O10544   2.537   1.332  13.460 -0.1360 -0.1620 -0.5583
  713TMC3     H10545   2.875   1.509  13.457 -2.1317 -2.8322  0.1969
  713TMC3    H110546   2.462   1.525  13.372  0.3206  0.3973  1.8298
  713TMC3    H210547   2.727   1.830  13.225 -1.1575  1.2816  2.3688
  713TMC3    C710548   2.484   1.787  13.326  0.1419  0.7087  0.0704
  713TMC3    C810549   2.927   1.760  13.352 -0.4868  0.0944 -0.1277
  713TMC3    O110550   2.523   1.897  13.353 -0.2765  0.0523 -0.3131
  713TMC3    O210551   2.946   1.834  13.257 -0.1184 -0.1866 -0.1015
  714MPD2     C10552   0.312   4.310   2.047  0.3158 -0.2887 -0.3374
  714MPD2    C110553   0.278   4.223   1.951  0.4460  0.0272  0.1114
  714MPD2    C210554   0.182   4.256   1.857  0.0979 -0.6003  0.6152
  714MPD2    C310555   0.132   4.379   1.844 -1.0117 -0.2414  0.0932
  714MPD2    C410556   0.161   4.467   1.949  0.2170  0.7585  0.8021
  714MPD2    C510557   0.245   4.428   2.051 -0.1494  0.1973 -0.5940
  714MPD2     H10558   0.149   4.189   1.778  0.1608  0.2445 -0.1380
  714MPD2    H110559   0.118   4.566   1.959 -0.0903  0.6980  0.1175
  714MPD2    H210560   0.387   4.292   2.122 -0.5463 -2.0087  0.1064
  714MPD2    H310561   0.266   4.489   2.137  0.1047  0.4584 -0.8394
  714MPD2     N10562   0.045   4.395   1.742 -0.6533 -0.1456  0.2827
  714MPD2    H510563   0.029   4.317   1.678  0.8100  1.1227 -1.6378
  714MPD2    N110564   0.346   4.095   1.951  0.6882  0.5721 -0.9489
  714MPD2    H710565   0.427   4.088   2.012  0.6662  1.6416 -0.7901
  715TMC3    C110566   0.424   3.895   1.876 -0.5228 -0.0402 -0.5765
  715TMC3    C210567   0.387   3.778   1.824 -0.1452 -0.0041 -0.2118
  715TMC3    C310568   0.469   3.668   1.835  0.3693  0.0119  0.3835
  715TMC3    C410569   0.544   3.926   1.938  0.4072  0.9861 -0.2861
  715TMC3    C510570   0.622   3.815   1.957  0.1354  0.3986 -0.3609
  715TMC3    C610571   0.588   3.690   1.907  0.1101 -0.7878 -0.6365
  715TMC3     C10572   0.331   3.998   1.853 -0.4430 -0.0285  0.0168
  715TMC3     O10573   0.236   3.973   1.782  0.2273 -0.6069 -0.3294
  715TMC3     H10574   0.290   3.761   1.779  0.2874  0.6137 -1.3811
  715TMC3    H110575   0.567   4.022   1.983  0.1989  1.2094 -0.6541
  715TMC3    H210576   0.646   3.604   1.938  1.1224  0.8807  2.1293
  715TMC3    C710577   0.758   3.825   2.016  0.0820  0.0178 -0.4810
  715TMC3    C810578   0.470   3.575   1.720 -0.2753  0.4388  0.0645
  715TMC3    O110579   0.833   3.726   2.011 -0.2695 -0.4501  0.1196
  715TMC3    O210580   0.437   3.621   1.612  0.2764  0.3706 -0.4297
  716MPD2     C10581   3.811   1.524   9.706  0.8142  0.0281  0.5542
  716MPD2    C110582   3.689   1.508   9.647  0.1109  0.0838 -0.3857
  716MPD2    C210583   3.641   1.381   9.635  0.6112 -0.7799 -0.3528
  716MPD2    C310584   3.713   1.267   9.678  0.0927 -0.7405 -0.1307
  716MPD2    C410585   3.844   1.292   9.721 -0.1231  0.1266 -0.2477
  716MPD2    C510586   3.892   1.418   9.733  0.0886  0.0540 -0.0714
  716MPD2     H10587   3.536   1.375   9.608  0.3733 -0.3646  0.5018
  716MPD2    H110588   3.905   1.206   9.745 -2.2653 -1.5323 -0.6971
  716MPD2    H210589   3.852   1.624   9.723  1.5339 -0.5902  2.4794
  716MPD2    H310590   3.988   1.431   9.783  0.1375 -3.3312  0.6858
  716MPD2     N10591   3.659   1.143   9.641 -0.3529  0.0324 -0.1131
  716MPD2    H510592   3.572   1.144   9.588 -0.3730  1.1237 -0.0461
  716MPD2    N110593   3.616   1.628   9.613  0.0611  0.7829  0.2891
  716MPD2    H710594   3.666   1.714   9.632  0.3467  0.7919 -0.5103
  717TMC3    C110595   3.657   0.914   9.607  0.3303  0.2514 -0.2942
  717TMC3    C210596   3.531   0.899   9.660 -0.2442 -0.0531 -0.0501
  717TMC3    C310597   3.450   0.796   9.622 -0.1175 -0.0021  0.9155
  717TMC3    C410598   3.717   0.834   9.508 -0.0314  0.1269  0.2835
  717TMC3    C510599   3.627   0.737   9.459 -0.4458  0.0340 -0.3193
  717TMC3    C610600   3.500   0.715   9.513 -0.4161  0.3027  0.6701
  717TMC3     C10601   3.732   1.026   9.639 -1.0302 -0.0394 -0.7874
  717TMC3     O10602   3.838   0.990   9.689  0.2163  0.9653  0.1647
  717TMC3     H10603   3.492   0.977   9.724 -0.7317 -1.4204  1.2999
  717TMC3    H110604   3.819   0.855   9.476 -0.1751 -0.5124 -0.5938
  717TMC3    H210605   3.445   0.628   9.479 -1.4567  1.2848 -0.1499
  717TMC3    C710606   3.668   0.663   9.338 -0.1998 -0.1025  0.9324
  717TMC3    C810607   3.313   0.825   9.643  0.0087 -0.6514  0.0275
  717TMC3    O110608   3.775   0.699   9.296 -0.3473 -0.0911 -0.0658
  717TMC3    O210609   3.284   0.934   9.668  0.0757 -0.3631  0.5129
  718MPD2     C10610   4.250   1.279  13.127 -0.3917 -0.6154 -0.4108
  718MPD2    C110611   4.267   1.261  12.990 -0.6490 -0.8121  0.8803
  718MPD2    C210612   4.281   1.133  12.942  0.0114  0.6735 -0.0569
  718MPD2    C310613   4.257   1.023  13.023  0.0214  0.2242 -0.1531
  718MPD2    C410614   4.222   1.040  13.153  0.9103 -0.1339 -0.0579
  718MPD2    C510615   4.222   1.170  13.207 -0.4803  0.3129  0.4068
  718MPD2     H10616   4.296   1.111  12.837 -0.0387  0.1794  0.0383
  718MPD2    H110617   4.176   0.961  13.211  0.1825  0.0731 -0.3454
  718MPD2    H210618   4.253   1.380  13.166  2.2998 -0.0993 -1.9716
  718MPD2    H310619   4.209   1.178  13.314  0.2802  0.8458  0.4563
  718MPD2     N10620   4.233   0.902  12.951 -0.1268 -0.0450  0.1228
  718MPD2    H510621   4.270   0.907  12.857 -1.3112 -0.1811 -0.3496
  718MPD2    N110622   4.273   1.376  12.912 -0.4126 -0.0828 -0.2539
  718MPD2    H710623   4.266   1.460  12.969 -0.5864 -1.0176  1.0997
  719TMC3    C110624   4.280   1.526  12.725 -0.4004 -0.9614 -0.5255
  719TMC3    C210625   4.150   1.563  12.732 -0.5202  0.0344 -0.1374
  719TMC3    C310626   4.103   1.641  12.630  0.2784 -0.1658  0.4022
  719TMC3    C410627   4.369   1.579  12.633  0.5223  0.0585  0.3374
  719TMC3    C510628   4.314   1.666  12.540  0.3023 -0.0718  0.5695
  719TMC3    C610629   4.186   1.703  12.538  0.5190  0.0873 -0.4415
  719TMC3     C10630   4.303   1.391  12.777  0.2876  0.7619  0.4985
  719TMC3     O10631   4.356   1.308  12.700 -0.2806 -0.3239  0.0715
  719TMC3     H10632   4.092   1.525  12.816  1.5120 -0.7124  0.9279
  719TMC3    H110633   4.472   1.544  12.631  0.1549 -1.0053  0.4992
  719TMC3    H210634   4.138   1.754  12.455  0.4246  0.3284 -0.2382
  719TMC3    C710635   4.384   1.687  12.411 -0.1093 -0.5643 -0.8754
  719TMC3    C810636   4.009   1.557  12.559  0.0423  0.1684 -0.0778
  719TMC3    O110637   4.320   1.705  12.314  0.4503  0.6405 -0.6513
  719TMC3    O210638   3.948   1.605  12.465 -0.1931 -0.7423  0.2596
  720MPD2     C10639   2.125   2.905  13.954 -0.1671  0.1259 -0.8913
  720MPD2    C110640   2.225   2.996  13.919 -0.2253 -0.9546  0.1229
  720MPD2    C210641   2.345   2.983  13.988  0.4360  0.1423  0.6446
  720MPD2    C310642   2.357   2.900  14.098 -0.7878 -0.1441 -0.4186
  720MPD2    C410643   2.254   2.812  14.123 -0.6220 -0.3123  0.2808
  720MPD2    C510644   2.140   2.808  14.049  0.0755 -0.3848 -0.0719
  720MPD2     H10645   2.438   3.034  13.967  1.1310 -1.4871 -0.1809
  720MPD2    H110646   2.269   2.735  14.198  2.7347 -0.8667 -0.9266
  720MPD2    H210647   2.030   2.916  13.904  0.4846 -0.1270 -2.1971
  720MPD2    H310648   2.066   2.732  14.074  1.4515 -1.4767  0.6855
  720MPD2     N10649   2.482   2.908  14.163 -0.5191  0.4901  0.3239
  720MPD2    H510650   2.547   2.983  14.142 -0.1178 -0.4750 -1.8993
  720MPD2    N110651   2.211   3.084  13.806 -0.0237 -0.5523  0.4734
  720MPD2    H710652   2.288   3.128  13.757 -0.5871  2.0346  1.8913
  721TMC3    C110653   2.632   2.900  14.335 -0.2294 -0.5310 -0.6537
  721TMC3    C210654   2.645   2.895  14.469  0.3948  0.1796  0.2399
  721TMC3    C310655   2.765   2.940  14.509 -0.5240  0.3036  0.8407
  721TMC3    C410656   2.740   2.931  14.248 -0.0599  0.1538 -0.3326
  721TMC3    C510657   2.862   2.969  14.302 -0.2871  0.2289  0.3109
  721TMC3    C610658   2.875   2.979  14.433 -0.8228 -0.5253  0.2452
  721TMC3     C10659   2.509   2.850  14.280 -0.1763 -0.2059  0.8349
  721TMC3     O10660   2.441   2.776  14.352  0.1363  0.3237 -0.2386
  721TMC3     H10661   2.558   2.897  14.533 -1.4788 -0.0594 -2.2705
  721TMC3    H110662   2.725   2.925  14.141  2.5422  0.2475 -0.7030
  721TMC3    H210663   2.963   3.029  14.471  0.0341 -1.6267 -0.2886
  721TMC3    C710664   2.978   2.956  14.222  0.3929  0.4224  0.1537
  721TMC3    C810665   2.784   2.950  14.653  0.3127  0.1835  0.4564
  721TMC3    O110666   2.973   3.013  14.111 -0.2358  0.2531  0.8565
  721TMC3    O210667   2.863   3.032  14.693  0.1294  0.3343 -0.3869
  722MPD2     C10668   1.304   1.480  13.124  0.2845  0.7000 -0.0463
  722MPD2    C110669   1.270   1.597  13.054 -0.0183 -0.4687  0.1637
  722MPD2    C210670   1.137   1.628  13.034 -0.6376 -0.0513  0.1774
  722MPD2    C310671   1.040   1.563  13.104  0.6668 -0.0058  0.6412
  722MPD2    C410672   1.071   1.456  13.183 -0.5588 -0.3705  0.1842
  722MPD2    C510673   1.200   1.404  13.179  0.0997  0.1069 -0.8054
  722MPD2     H10674   1.105   1.709  12.970  1.1340  1.7564  1.5924
  722MPD2    H110675   1.010   1.399  13.252 -1.8358  0.4303 -0.2802
  722MPD2    H210676   1.400   1.433  13.137 -0.7986 -0.9945  1.7671
  722MPD2    H310677   1.221   1.307  13.223 -0.1811  1.5226  2.4678
  722MPD2     N10678   0.908   1.612  13.095  0.2401  0.5371 -0.9145
  722MPD2    H510679   0.888   1.669  13.013  0.0999  2.7926  0.6906
  722MPD2    N110680   1.365   1.682  13.004  0.2050 -0.2019 -0.2015
  722MPD2    H710681   1.333   1.773  12.971 -0.9902 -0.1426  1.1482
  723TMC3    C110682   0.673   1.617  13.094 -0.2060 -0.4164 -0.6320
  723TMC3    C210683   0.576   1.525  13.079  0.1005 -0.5527 -0.1494
  723TMC3    C310684   0.472   1.559  12.997  0.6733  0.4205  0.7495
  723TMC3    C410685   0.683   1.738  13.027  0.2683 -0.0549  0.1730
  723TMC3    C510686   0.564   1.771  12.966  0.4438  0.8269 -0.0798
  723TMC3    C610687   0.464   1.684  12.942  0.1713  0.8609  0.3670
  723TMC3     C10688   0.799   1.558  13.158  0.1292  0.0344 -0.0596
  723TMC3     O10689   0.777   1.480  13.247 -0.5282 -0.3367 -0.4439
  723TMC3     H10690   0.581   1.435  13.139 -1.3718 -0.4353  0.1679
  723TMC3    H110691   0.763   1.811  13.037  0.2905  0.0705 -0.8520
  723TMC3    H210692   0.377   1.718  12.888  0.5385 -3.0548 -2.6295
  723TMC3    C710693   0.568   1.879  12.870 -0.4305 -0.4782 -0.3510
  723TMC3    C810694   0.375   1.461  12.962  0.5251  0.2297 -0.6366
  723TMC3    O110695   0.464   1.942  12.861  0.0163  0.1189 -0.1694
  723TMC3    O210696   0.259   1.499  12.943 -0.0214  0.6071  0.0948
  724TMC3    C110697   0.194   4.581   9.785  0.2715  0.5697 -0.7015
  724TMC3    C210698   0.098   4.673   9.738  0.0142  0.1509  0.4238
  724TMC3    C310699   4.723   4.636   9.649 -0.3843  0.1490  0.1622
  724TMC3    C410700   0.177   4.447   9.758 -0.4192  0.4173  0.1874
  724TMC3    C510701   0.083   4.414   9.665 -0.3225  0.5580  0.3903
  724TMC3    C610702   4.717   4.506   9.612 -0.0576  0.0189 -0.4747
  724TMC3     C10703   0.301   4.639   9.868 -0.2369  0.2612 -0.5588
  724TMC3     O10704   0.349   0.014   9.818 -0.2925  0.0426  0.1568
  724TMC3     H10705   0.121   0.049   9.772  3.3529 -0.0607 -1.1856
  724TMC3    H110706   0.255   4.380   9.792 -1.0012 -0.2956  0.1257
  724TMC3    H210707   4.651   4.487   9.528 -1.0570  0.5880  0.1930
  724TMC3    C710708   0.143   4.338   9.563 -0.3526 -0.3604  0.4254
  724TMC3    C810709   4.711   0.001   9.542 -0.6910 -0.3516 -0.3750
  724TMC3    O110710   0.134   4.372   9.445 -0.2664 -0.1837  0.1339
  724TMC3    O210711   4.598   0.022   9.501 -0.4570 -0.2741  0.6207
  725TMC3    C110712   2.556   3.464  12.948  0.4964  0.7961  0.7751
  725TMC3    C210713   2.467   3.470  12.847  0.0550 -0.1811  0.7081
  725TMC3    C310714   2.488   3.396  12.739 -0.1184 -0.0278 -0.3712
  725TMC3    C410715   2.666   3.387  12.947 -0.8986  0.0795 -0.5812
  725TMC3    C510716   2.680   3.302  12.836  0.2459  0.4491  0.6455
  725TMC3    C610717   2.588   3.303  12.740 -0.2444 -0.3835  0.8492
  725TMC3     C10718   2.565   3.592  13.008 -0.5586 -0.2322  0.3465
  725TMC3     O10719   2.550   3.680  12.928 -0.2409  0.5292  0.6612
  725TMC3     H10720   2.377   3.530  12.846  1.2553  1.6112 -0.0462
  725TMC3    H110721   2.743   3.387  13.024 -1.7357  1.2325  0.2626
  725TMC3    H210722   2.605   3.249  12.648  0.9459 -0.2209  0.9720
  725TMC3    C710723   2.807   3.238  12.800 -0.5108 -0.0711 -0.4511
  725TMC3    C810724   2.407   3.410  12.615 -0.6165 -0.3989  0.6917
  725TMC3    O110725   2.797   3.143  12.721  0.5024  0.2312  0.0289
  725TMC3    O210726   2.383   3.307  12.554  0.4445  0.1431 -0.0569
  726MPD2     C10727   0.689   4.682  10.651  0.2942  0.5953  0.4578
  726MPD2    C110728   0.576   4.725  10.587  0.0193  0.2286  0.2025
  726MPD2    C210729   0.461   4.703  10.656  0.1573 -0.4116  0.1280
  726MPD2    C310730   0.456   4.642  10.783 -0.3196 -0.5820 -0.1643
  726MPD2    C410731   0.571   4.593  10.838  0.8805  0.8166 -0.1623
  726MPD2    C510732   0.694   4.613  10.771  0.1873 -1.0844 -0.0249
  726MPD2     H10733   0.369   0.011  10.608 -0.7809 -2.2459  0.6829
  726MPD2    H110734   0.580   4.552  10.938  1.6159  1.8989  0.2087
  726MPD2    H210735   0.787   4.692  10.604  0.0945  0.2327 -0.0433
  726MPD2    H310736   0.786   4.591  10.825  0.9842  0.8445 -0.5681
  726MPD2     N10737   0.335   4.617  10.851 -0.7048  0.2944  0.2621
  726MPD2    H510738   0.345   4.561  10.935 -0.6007 -1.3769 -0.8638
  726MPD2    N110739   0.577   0.056  10.456  0.4528  0.2580 -0.4203
  726MPD2    H710740   0.486   0.079  10.420 -0.2698 -0.0061  1.2283
  727TMC3    C110741   0.652   0.183  10.275 -0.2944 -0.8133 -0.2907
  727TMC3    C210742   0.745   0.275  10.236  0.6010  0.1346 -0.0406
  727TMC3    C310743   0.702   0.379  10.160  0.8137 -0.3162  0.0138
  727TMC3    C410744   0.533   0.177  10.221 -0.5805 -0.0677  0.2461
  727TMC3    C510745   0.496   0.277  10.141 -0.6150  0.1279 -0.2313
  727TMC3    C610746   0.576   0.380  10.097 -0.3322  0.1254 -0.6945
  727TMC3     C10747   0.690   0.093  10.388  0.0060  0.6732  0.1120
  727TMC3     O10748   0.807   0.082  10.408  0.9124 -0.5449  0.0649
  727TMC3     H10749   0.846   0.282  10.274  0.3337  0.8197  0.5248
  727TMC3    H110750   0.457   0.104  10.245 -1.0396 -0.3336 -2.0364
  727TMC3    H210751   0.543   0.458  10.030  1.4221  1.1189 -0.3941
  727TMC3    C710752   0.358   0.273  10.093 -0.3883  0.2515 -0.4994
  727TMC3    C810753   0.778   0.501  10.156 -0.2774 -0.1240  0.3900
  727TMC3    O110754   0.274   0.216  10.161  0.6448  0.2859 -0.0380
  727TMC3    O210755   0.896   0.483  10.172 -0.8807  0.3065  0.0271
  728TMC3    C110756   0.109   3.169  15.316  0.1658  1.5155 -0.0427
  728TMC3    C210757   0.233   3.141  15.260  0.3158 -0.8143  0.0931
  728TMC3    C310758   0.258   3.151  15.126 -1.1276  0.7834  0.1830
  728TMC3    C410759   0.001   3.194  15.238  0.0695 -0.4412  0.8205
  728TMC3    C510760   0.030   3.199  15.104 -0.0320 -0.0815 -0.1690
  728TMC3    C610761   0.152   3.186  15.046  0.2285  0.4407 -0.1626
  728TMC3     C10762   0.096   3.172  15.464  0.4424 -0.2797 -0.2135
  728TMC3     O10763   0.189   3.215  15.534 -0.1175  0.1560 -0.1120
  728TMC3     H10764   0.312   3.110  15.327  1.1720  0.3706 -0.3588
  728TMC3    H110765   4.623   3.205  15.270  0.0606 -1.8773  1.3257
  728TMC3    H210766   0.155   3.171  14.938  0.3205 -1.8027  0.1584
  728TMC3    C710767   4.663   3.271  15.019 -0.5772  0.0485  0.9537
  728TMC3    C810768   0.385   3.120  15.072  0.4814 -0.2470 -0.1930
  728TMC3    O110769   4.539   3.259  15.020 -0.1194 -0.3641  0.4257
  728TMC3    O210770   0.460   3.048  15.132 -0.5201  0.0666  0.1468
  729MPD2     C10771   2.240   4.711  16.852  0.2102 -0.3763 -0.1165
  729MPD2    C110772   2.345   4.649  16.916  0.4819 -0.3903 -0.3123
  729MPD2    C210773   2.361   4.662  17.048 -0.6272  0.2157 -0.2940
  729MPD2    C310774   2.266   0.010  17.123 -0.7853 -0.0316  0.4584
  729MPD2    C410775   2.149   0.063  17.068 -0.0349 -0.0740  1.2549
  729MPD2    C510776   2.146   0.053  16.932  0.1500  0.8509  0.6737
  729MPD2     H10777   2.460   4.641  17.086 -0.8915  1.6214  1.2099
  729MPD2    H110778   2.078   0.128  17.118 -0.9130 -0.3390  0.3608
  729MPD2    H210779   2.209   4.697  16.749  0.5274 -1.2952 -0.0829
  729MPD2    H310780   2.062   0.102  16.885 -0.6203 -3.2076 -2.1739
  729MPD2     N10781   2.294   0.036  17.260  0.0583  0.0844 -0.1728
  729MPD2    H510782   2.237   0.103  17.311 -0.0789 -1.2039  1.3579
  729MPD2    N110783   2.437   4.582  16.831 -0.9837  0.9640 -0.2165
  729MPD2    H710784   2.433   4.604  16.732  4.4003  1.5974 -0.2586
  730TMC3    C110785   2.417   0.039  17.468 -0.1136 -0.5146 -0.1311
  730TMC3    C210786   2.524   4.714  17.537  0.0654 -0.1486  0.2699
  730TMC3    C310787   2.577   0.061  17.641 -0.6655 -0.0330 -0.3984
  730TMC3    C410788   2.375   0.166  17.490  0.2694  0.1473  0.9448
  730TMC3    C510789   2.458   0.246  17.559 -0.2982  0.5027 -0.0925
  730TMC3    C610790   2.556   0.197  17.641 -0.1155 -0.0239  0.1052
  730TMC3     C10791   2.400   4.704  17.336 -0.6859 -0.3373  0.2579
  730TMC3     O10792   2.460   4.599  17.312 -0.7439 -0.2782 -0.1617
  730TMC3     H10793   2.542   4.607  17.525  2.4101  0.1422  1.1462
  730TMC3    H110794   2.298   0.214  17.430  0.1337 -0.8134  0.3400
  730TMC3    H210795   2.620   0.261  17.701  1.2774 -0.5311 -0.8403
  730TMC3    C710796   2.483   0.365  17.487 -0.2486 -0.1650 -0.1645
  730TMC3    C810797   2.685   4.723   0.012 -0.3769 -0.3672 -0.1415
  730TMC3    O110798   2.468   0.355  17.366 -0.3128 -0.1481  0.2447
  730TMC3    O210799   2.731   4.622  17.667 -0.5492  0.3481 -0.2912
  731MPD2     C10800   2.147   2.501  12.189 -0.2416 -0.2114 -0.2786
  731MPD2    C110801   2.232   2.608  12.217 -0.0750  0.3489 -0.0430
  731MPD2    C210802   2.285   2.622  12.343  0.5712 -0.0713 -0.1840
  731MPD2    C310803   2.266   2.528  12.443  0.4653  0.4181 -0.8365
  731MPD2    C410804   2.179   2.420  12.413 -0.5389  0.1579  0.3543
  731MPD2    C510805   2.130   2.407  12.286  0.0572 -0.6975 -0.5372
  731MPD2     H10806   2.347   2.707  12.368 -1.0312  0.7170  1.1239
  731MPD2    H110807   2.145   2.342  12.479 -1.8252 -0.8820 -1.5434
  731MPD2    H210808   2.086   2.488  12.100 -2.1151  0.6362  0.8744
  731MPD2    H310809   2.061   2.326  12.269 -0.1892 -1.1023  2.2883
  731MPD2     N10810   2.335   2.543  12.562  0.6294 -0.0788  0.0253
  731MPD2    H510811   2.394   2.623  12.581  1.1757  0.1907 -2.8676
  731MPD2    N110812   2.260   2.693  12.112  0.0219 -0.2291  0.3686
  731MPD2    H710813   2.215   2.683  12.021 -1.1689 -1.7704  1.1350
  732TMC3    C110814   2.344   2.890  12.005  0.0898  0.7786 -0.6318
  732TMC3    C210815   2.269   2.867  11.892  0.4118  0.0800  0.8062
  732TMC3    C310816   2.302   2.947  11.782 -0.7268  0.1481 -0.0478
  732TMC3    C410817   2.466   2.960  11.999 -0.3212 -0.0692  0.1546
  732TMC3    C510818   2.506   3.015  11.875 -0.4416  0.1124 -0.0658
  732TMC3    C610819   2.424   3.005  11.771  0.8627  0.5244 -0.0650
  732TMC3     C10820   2.330   2.816  12.128 -0.2035 -0.3112 -0.1010
  732TMC3     O10821   2.418   2.837  12.209  0.2109 -0.8213  0.6655
  732TMC3     H10822   2.177   2.811  11.904  0.0177  0.4779 -0.3271
  732TMC3    H110823   2.526   2.969  12.089  0.8183 -1.3131 -0.4735
  732TMC3    H210824   2.449   3.056  11.678  3.1006  0.0812  0.2873
  732TMC3    C710825   2.648   3.023  11.852 -0.1717  0.1724  0.6526
  732TMC3    C810826   2.232   2.928  11.655  0.0982 -0.0989 -0.8407
  732TMC3    O110827   2.686   3.066  11.741 -0.7511  0.0274 -0.0249
  732TMC3    O210828   2.280   2.973  11.555  0.3128 -0.1921 -0.1030
  733TMC3    C110829   3.924   0.594  12.824 -0.1993  0.2077  0.0880
  733TMC3    C210830   4.018   0.627  12.923  0.4460  0.7524 -0.5391
  733TMC3    C310831   4.113   0.715  12.884 -0.3705 -0.8236  0.7641
  733TMC3    C410832   3.939   0.636  12.698  0.1644 -0.5420 -0.0036
  733TMC3    C510833   4.042   0.726  12.661 -0.1126  1.0182  0.7046
  733TMC3    C610834   4.127   0.768  12.759  0.6405 -0.1930 -0.6976
  733TMC3     C10835   3.786   0.594  12.872 -0.5092  0.7506 -0.8240
  733TMC3     O10836   3.705   0.620  12.785 -0.2586 -1.0000 -0.2930
  733TMC3     H10837   4.010   0.587  13.023  0.3363 -1.3898 -1.4108
  733TMC3    H110838   3.863   0.615  12.624  1.1172 -0.4708 -1.0082
  733TMC3    H210839   4.214   0.825  12.727  0.6991 -0.5097 -1.0912
  733TMC3    C710840   4.014   0.823  12.562 -0.1147 -0.3419  0.0968
  733TMC3    C810841   4.165   0.790  12.996  0.0247  0.5988 -0.5205
  733TMC3    O110842   3.952   0.789  12.462  0.4391  0.0185  0.2311
  733TMC3    O210843   4.108   0.766  13.103 -0.1924 -0.3324  0.1491
  734MPD2     C10844   0.240   3.801  12.197 -0.2480  0.2470  0.2973
  734MPD2    C110845   0.150   3.714  12.132 -0.2000  0.1278 -0.1793
  734MPD2    C210846   0.163   3.690  12.000 -1.0424 -0.3567 -0.2438
  734MPD2    C310847   0.254   3.762  11.920 -0.2432 -0.4238  0.3089
  734MPD2    C410848   0.335   3.860  11.981 -0.1177  0.3536  0.5687
  734MPD2    C510849   0.325   3.868  12.115 -0.1758  0.4642 -0.5183
  734MPD2     H10850   0.092   3.625  11.950 -2.0723  1.0478 -0.6013
  734MPD2    H110851   0.405   3.923  11.927 -1.1735  0.0168 -1.2009
  734MPD2    H210852   0.240   3.829  12.302 -2.0378 -0.3850  0.4637
  734MPD2    H310853   0.393   3.939  12.161  1.0449 -1.1931  0.2289
  734MPD2     N10854   0.278   3.716  11.786 -0.3429 -0.1519  0.4890
  734MPD2    H510855   0.241   3.623  11.766  0.5956 -0.0648 -1.6533
  734MPD2    N110856   0.052   3.644  12.209 -0.1377 -0.7780  1.0711
  734MPD2    H710857   0.054   3.655  12.310  1.9371 -0.6349  1.0107
  735TMC3    C110858   4.623   3.458  12.231  0.8083 -0.0995 -0.0573
  735TMC3    C210859   4.511   3.402  12.172 -0.5570 -0.2984 -0.0293
  735TMC3    C310860   4.505   3.266  12.150  0.1662 -0.1064  0.5081
  735TMC3    C410861   0.003   3.378  12.269  0.0683  0.0689  0.3013
  735TMC3    C510862   4.712   3.241  12.252  0.2223  0.1064  0.6705
  735TMC3    C610863   4.606   3.182  12.185 -0.5110 -0.5333  0.2543
  735TMC3     C10864   4.671   3.570  12.152 -0.2094  0.9346  0.7744
  735TMC3     O10865   4.608   3.602  12.051 -0.4969  0.0165  0.5155
  735TMC3     H10866   4.425   3.462  12.145 -0.3358  1.5897  3.4807
  735TMC3    H110867   0.097   3.418  12.307 -0.6009  2.7639 -0.8173
  735TMC3    H210868   4.612   3.084  12.140  3.3931  0.6771 -1.9303
  735TMC3    C710869   0.112   3.175  12.250 -0.3505 -0.5032  0.5082
  735TMC3    C810870   4.464   3.235  12.014 -0.4694  0.2071 -0.2095
  735TMC3    O110871   0.157   3.154  12.137  0.2421  0.3042  0.2733
  735TMC3    O210872   4.392   3.141  11.987 -0.1188 -0.0387 -0.1668
  736MPD2     C10873   0.339   3.091  12.523 -0.3106  0.3694 -0.4080
  736MPD2    C110874   0.300   3.103  12.400  0.6276  0.3264  0.4753
  736MPD2    C210875   0.398   3.084  12.304 -0.5104 -0.1539  0.5844
  736MPD2    C310876   0.524   3.043  12.334  0.1255 -0.8023 -0.5362
  736MPD2    C410877   0.556   3.026  12.465  0.8292  0.4612 -0.0412
  736MPD2    C510878   0.463   3.062  12.560 -0.1969  0.3182 -0.1598
  736MPD2     H10879   0.374   3.113  12.202 -0.2977 -0.4780  0.4424
  736MPD2    H110880   0.654   2.996  12.498  0.4591 -0.5041  0.1651
  736MPD2    H210881   0.267   3.116  12.600 -1.5074  1.2574 -1.7902
  736MPD2    H310882   0.486   3.056  12.665  0.2074 -0.1170 -0.2727
  736MPD2     N10883   0.625   3.020  12.233  0.4535 -0.0638 -0.5192
  736MPD2    H510884   0.715   3.000  12.275  0.9626 -1.3043 -2.1991
  736MPD2    N110885   0.166   3.151  12.378  0.0905  0.2369 -0.2682
  736MPD2    H710886   0.101   3.156  12.457  0.1685 -0.2465 -0.1768
  737TMC3    C110887   0.728   3.055  12.026  0.1890 -0.2655 -0.3627
  737TMC3    C210888   0.727   3.140  11.918 -0.5805 -1.4720  0.1030
  737TMC3    C310889   0.822   3.126  11.824  0.5314  0.2719  0.3906
  737TMC3    C410890   0.812   2.954  12.039  0.3121 -0.0611 -0.4904
  737TMC3    C510891   0.898   2.932  11.938 -0.0530 -0.0826  0.3061
  737TMC3    C610892   0.913   3.024  11.835 -0.3679  0.1794 -0.2585
  737TMC3     C10893   0.605   3.044  12.095  0.2120  0.4595  0.1045
  737TMC3     O10894   0.511   3.068  12.026 -0.1825 -0.2138 -0.9104
  737TMC3     H10895   0.666   3.230  11.913  1.0877 -0.3102  1.0165
  737TMC3    H110896   0.791   2.874  12.110  1.6621 -0.8092 -0.9236
  737TMC3    H210897   0.996   3.017  11.766  0.0780 -0.3147  0.3251
  737TMC3    C710898   0.981   2.814  11.939 -0.4784  0.0250  0.0475
  737TMC3    C810899   0.829   3.232  11.725 -0.0929  0.2073  0.7051
  737TMC3    O110900   0.995   2.755  12.046 -0.4919 -0.2791 -0.4024
  737TMC3    O210901   0.724   3.286  11.691  0.4989 -0.3895  0.3311
  738MPD2     C10902   1.509   1.940  15.123  0.5110 -0.4141  0.2098
  738MPD2    C110903   1.533   1.842  15.023  0.2465  0.2718 -0.4879
  738MPD2    C210904   1.635   1.860  14.935  0.0241 -0.3177  0.2782
  738MPD2    C310905   1.725   1.970  14.954 -0.4349  0.2391 -0.0616
  738MPD2    C410906   1.708   2.061  15.060  1.3013  0.4650 -0.3484
  738MPD2    C510907   1.591   2.046  15.136  0.1854  0.7648 -0.0055
  738MPD2     H10908   1.646   1.798  14.847  1.8237 -1.4003  1.2704
  738MPD2    H110909   1.768   2.147  15.090 -0.2126  1.3510  0.1195
  738MPD2    H210910   1.433   1.939  15.200 -1.0780  3.0211 -1.3152
  738MPD2    H310911   1.566   2.117  15.214  0.3471 -0.7628  1.4423
  738MPD2     N10912   1.835   1.986  14.876  0.3936  0.1697  0.4296
  738MPD2    H510913   1.903   2.054  14.910  1.6000  0.0422 -1.7541
  738MPD2    N110914   1.454   1.720  15.022 -0.2188 -0.2045 -0.2447
  738MPD2    H710915   1.483   1.642  14.964  1.3477 -0.2455  0.5761
  739TMC3    C110916   1.984   1.961  14.701  0.1776  0.9009  0.2011
  739TMC3    C210917   1.982   2.027  14.577  0.2527 -0.3314  0.1706
  739TMC3    C310918   2.103   2.088  14.536 -0.0553 -0.5219  1.2639
  739TMC3    C410919   2.100   1.936  14.768 -0.3893 -0.1228 -0.6696
  739TMC3    C510920   2.216   1.988  14.711 -0.5673 -0.0820 -0.1902
  739TMC3    C610921   2.223   2.065  14.600  0.0783  0.8026  0.1069
  739TMC3     C10922   1.854   1.926  14.752 -0.2516 -0.7240 -0.7213
  739TMC3     O10923   1.767   1.883  14.668 -0.4392 -0.7809  0.0859
  739TMC3     H10924   1.886   2.047  14.530 -0.7812 -1.8464  1.6275
  739TMC3    H110925   2.101   1.872  14.856  0.4542 -0.1657 -0.7132
  739TMC3    H210926   2.316   2.087  14.550 -0.5288  0.5273 -1.1332
  739TMC3    C710927   2.340   1.951  14.771 -0.1529  0.4659  0.3951
  739TMC3    C810928   2.094   2.194  14.432 -0.0606  0.0070 -0.1208
  739TMC3    O110929   2.417   2.044  14.769  0.0504 -0.2910  0.2891
  739TMC3    O210930   1.987   2.204  14.373 -0.2383  0.4253 -0.0149
  740TMC3    C110931   2.159   3.372  14.430  0.5315 -0.4788  0.4546
  740TMC3    C210932   2.223   3.333  14.544 -0.6104  0.7872  0.3641
  740TMC3    C310933   2.355   3.285  14.527 -0.0354  0.6262  0.0178
  740TMC3    C410934   2.214   3.381  14.304  0.4787 -0.4777 -0.1839
  740TMC3    C510935   2.341   3.326  14.295 -1.0514 -0.3473  0.2732
  740TMC3    C610936   2.415   3.278  14.402  0.8171 -0.2514 -0.5870
  740TMC3     C10937   2.019   3.405  14.447 -0.3750  0.0687  0.3018
  740TMC3     O10938   1.973   3.494  14.378  0.0493 -0.4627 -0.1340
  740TMC3     H10939   2.171   3.338  14.639  1.6989  2.1942  1.5649
  740TMC3    H110940   2.150   3.410  14.221  0.6159 -0.8362 -0.4182
  740TMC3    H210941   2.509   3.223  14.397  1.0849 -0.0138  1.5496
  740TMC3    C710942   2.407   3.294  14.168  0.1227  0.0436 -0.1318
  740TMC3    C810943   2.410   3.200  14.628  0.2489  0.1203 -0.3080
  740TMC3    O110944   2.504   3.219  14.170 -0.7381  0.3423  0.3736
  740TMC3    O210945   2.449   3.087  14.611  0.1414  0.4440 -0.3754
  741TMC3    C110946   1.738   2.485  14.567 -0.6437  0.5060  0.0482
  741TMC3    C210947   1.728   2.358  14.524 -0.7371 -0.5621  0.4842
  741TMC3    C310948   1.688   2.262  14.614  0.0383  0.5878 -0.0341
  741TMC3    C410949   1.728   2.514  14.704 -0.3670 -0.1973 -0.2112
  741TMC3    C510950   1.705   2.418  14.795  0.2663  0.5711  0.0771
  741TMC3    C610951   1.682   2.290  14.749 -0.3939  0.2969  0.6801
  741TMC3     C10952   1.741   2.589  14.470 -0.2540  0.3378  0.6390
  741TMC3     O10953   1.766   2.700  14.514  0.1654 -0.5077  0.3471
  741TMC3     H10954   1.781   2.326  14.435  0.6760  0.8415  0.8417
  741TMC3    H110955   1.708   2.619  14.725 -0.8773  0.2641 -2.9176
  741TMC3    H210956   1.667   2.219  14.829 -0.0389 -0.1673  0.3359
  741TMC3    C710957   1.696   2.455  14.936 -0.6011  0.1312 -0.1729
  741TMC3    C810958   1.592   2.168  14.556  0.4623  0.3790 -0.3439
  741TMC3    O110959   1.648   2.372  15.014  0.3009 -0.1658 -0.1304
  741TMC3    O210960   1.578   2.183  14.437 -0.7326  0.4374 -0.5333
  742TMC3    C110961   1.598   0.826  15.593 -0.6132  0.2647  0.5010
  742TMC3    C210962   1.526   0.858  15.480  0.4254  0.4897 -0.3822
  742TMC3    C310963   1.589   0.929  15.383  0.0237  0.3591 -0.6587
  742TMC3    C410964   1.720   0.895  15.621 -0.1196 -0.2611 -0.3920
  742TMC3    C510965   1.771   0.972  15.520 -0.4839  0.4949  0.6695
  742TMC3    C610966   1.711   0.985  15.401 -0.1554  0.1659  0.4680
  742TMC3     C10967   1.556   0.711  15.671 -0.5954 -0.2454  0.0599
  742TMC3     O10968   1.500   0.618  15.612 -0.2188  0.1986  0.3006
  742TMC3     H10969   1.445   0.791  15.454 -1.2313  1.4937  2.1961
  742TMC3    H110970   1.771   0.867  15.712  2.5707  1.7475 -1.2956
  742TMC3    H210971   1.755   1.046  15.323  1.0157  1.1252  1.8510
  742TMC3    C710972   1.910   1.000  15.529  0.2075  0.1193 -0.2286
  742TMC3    C810973   1.523   0.942  15.256 -0.0443  0.9437 -0.0181
  742TMC3    O110974   1.950   1.049  15.634 -0.2528  0.4371 -0.0250
  742TMC3    O210975   1.607   0.966  15.170  0.9129  0.2845  0.1404
  743MPD2     C10976   0.243   1.737   2.016 -0.8929 -0.4315  0.0849
  743MPD2    C110977   0.252   1.716   1.883  0.3388 -0.7812 -0.1500
  743MPD2    C210978   0.373   1.671   1.828 -0.3493  0.2812  0.3108
  743MPD2    C310979   0.483   1.636   1.912  0.0474 -0.3378 -0.0784
  743MPD2    C410980   0.467   1.667   2.049 -0.2620  0.3211  0.1866
  743MPD2    C510981   0.354   1.722   2.090 -0.5186 -0.1881 -0.0781
  743MPD2     H10982   0.378   1.657   1.720 -0.7143  3.0336 -0.0658
  743MPD2    H110983   0.553   1.660   2.115  0.3287 -0.4940 -0.6616
  743MPD2    H210984   0.148   1.760   2.065 -2.3726  0.4506 -3.1764
  743MPD2    H310985   0.341   1.742   2.195  0.8533  0.6339 -0.0551
  743MPD2     N10986   0.605   1.586   1.859 -0.8978  0.2486  0.2460
  743MPD2    H510987   0.613   1.578   1.758  2.3810  0.0475  0.5399
  743MPD2    N110988   0.136   1.741   1.804  1.0285 -0.8017 -0.2464
  743MPD2    H710989   0.058   1.778   1.858  1.0223 -3.0445  1.3255
  744TMC3    C110990   0.008   1.771   1.601  0.2782 -0.2530  0.4377
  744TMC3    C210991   4.670   1.881   1.662  0.5440  0.5481  0.1364
  744TMC3    C310992   4.581   1.951   1.591  0.7763 -0.2617  0.6009
  744TMC3    C410993   4.711   1.735   1.476  0.3044  0.3845 -0.0836
  744TMC3    C510994   4.614   1.799   1.405  0.8883 -0.2638  0.2934
  744TMC3    C610995   4.556   1.913   1.459  0.5512 -0.6461 -0.3558
  744TMC3     C10996   0.119   1.708   1.671 -0.5132  0.1771 -0.3412
  744TMC3     O10997   0.175   1.612   1.618 -0.4748 -0.5817  0.0943
  744TMC3     H10998   4.695   1.921   1.759 -0.1208  1.4850 -0.0774
  744TMC3    H110999   0.043   1.653   1.433 -1.5166 -1.5069  1.0857
  744TMC3    H211000   4.486   1.967   1.396  0.5170  1.0214  1.1151
  744TMC3    C711001   4.620   1.790   1.264  0.2428  0.5753  0.3238
  744TMC3    C811002   4.501   2.062   1.647 -0.0881  0.3705 -0.3040
  744TMC3    O111003   4.724   1.752   1.211  0.0497  0.5032 -0.1913
  744TMC3    O211004   4.430   2.134   1.575 -0.2906  0.0184 -0.3774
  745TMC3    C111005   2.334   0.771  13.722 -0.2507 -0.2983  0.3035
  745TMC3    C211006   2.210   0.808  13.762  0.1875 -0.3668 -0.1028
  745TMC3    C311007   2.100   0.778  13.690  0.4719 -0.3142  0.1908
  745TMC3    C411008   2.351   0.731  13.592 -0.1203  0.7904  0.3560
  745TMC3    C511009   2.236   0.709  13.519 -0.6755  0.4754  0.0922
  745TMC3    C611010   2.115   0.723  13.567 -0.1938  0.7552  0.4929
  745TMC3     C11011   2.446   0.839  13.784 -0.7768 -0.8948 -0.5041
  745TMC3     O11012   2.443   0.848  13.906  0.1192 -0.2589 -0.1619
  745TMC3     H11013   2.200   0.838  13.865  0.0737 -0.5815 -0.0525
  745TMC3    H111014   2.454   0.734  13.558 -0.0313  0.1894  0.5719
  745TMC3    H211015   2.031   0.707  13.500  1.6463 -1.2624 -1.3525
  745TMC3    C711016   2.246   0.671  13.377  0.2129 -0.2396 -0.0009
  745TMC3    C811017   2.022   0.899  13.679  0.1562  0.4504  0.8171
  745TMC3    O111018   2.143   0.660  13.314  0.6074 -0.3849 -0.0233
  745TMC3    O211019   1.908   0.884  13.643  0.0176  0.4750  0.6177
  746TMC3    C111020   3.577   2.904  10.586  0.4894  0.0673 -0.1329
  746TMC3    C211021   3.660   2.878  10.476  0.1607 -0.4010  0.2709
  746TMC3    C311022   3.671   2.767  10.403 -0.0287 -0.1137  0.1756
  746TMC3    C411023   3.505   2.799  10.625  0.1775  0.5558 -0.3092
  746TMC3    C511024   3.497   2.685  10.544 -0.9658 -0.4890  0.0601
  746TMC3    C611025   3.584   2.666  10.433 -0.4577 -0.2776 -0.5465
  746TMC3     C11026   3.597   3.029  10.673  0.0147 -0.8531 -0.0922
  746TMC3     O11027   3.560   3.007  10.787 -0.3042 -0.4785 -0.0105
  746TMC3     H11028   3.743   2.946  10.455  0.7485 -1.1053  0.3094
  746TMC3    H111029   3.436   2.822  10.705 -1.6340 -0.4931 -1.5595
  746TMC3    H211030   3.593   2.573  10.378  2.9868 -0.7617  0.8509
  746TMC3    C711031   3.437   2.570  10.608 -0.4433 -0.1338 -0.2526
  746TMC3    C811032   3.787   2.735  10.320 -0.4416 -0.3161  0.4682
  746TMC3    O111033   3.392   2.478  10.539  0.0604 -0.6318  0.4793
  746TMC3    O211034   3.827   2.619  10.314 -0.2259  0.4047  0.5252
  747TMC3    C111035   1.559   2.294  11.212  0.3971  0.0438  0.3266
  747TMC3    C211036   1.445   2.266  11.287  0.1219 -0.1541 -0.3347
  747TMC3    C311037   1.357   2.370  11.318 -0.3843  0.1638 -0.2837
  747TMC3    C411038   1.588   2.415  11.168  0.2076  0.7237  0.4048
  747TMC3    C511039   1.502   2.510  11.200 -0.2680  0.1481 -0.4234
  747TMC3    C611040   1.388   2.493  11.274 -0.7010  0.2081  0.6655
  747TMC3     C11041   1.629   2.179  11.157  0.2001  0.0419  0.2876
  747TMC3     O11042   1.560   2.084  11.126  0.2836  0.1205  0.5206
  747TMC3     H11043   1.425   2.165  11.320 -1.7682  0.0331 -0.8838
  747TMC3    H111044   1.651   2.418  11.081 -0.5037  0.3500 -0.1268
  747TMC3    H211045   1.329   2.580  11.299 -0.9408  0.2174  0.0523
  747TMC3    C711046   1.532   2.649  11.166  0.1860  0.2297 -0.2465
  747TMC3    C811047   1.297   2.361  11.448 -0.0069  0.4242  0.4618
  747TMC3    O111048   1.461   2.730  11.217  1.1208  0.4102  0.1972
  747TMC3    O211049   1.314   2.253  11.503 -0.5163 -0.7116  0.1604
  748MPD2     C11050   3.632   3.302   1.902 -0.4292  0.1736 -0.0053
  748MPD2    C111051   3.706   3.353   1.805  0.2523 -0.1111  0.0831
  748MPD2    C211052   3.844   3.319   1.801 -0.6539 -0.9246 -0.1870
  748MPD2    C311053   3.901   3.241   1.897  0.4029  0.1722 -0.3480
  748MPD2    C411054   3.816   3.184   1.992  0.3310 -0.0728 -0.3492
  748MPD2    C511055   3.688   3.221   1.996  0.1632  0.7651  0.1508
  748MPD2     H11056   3.906   3.364   1.723  0.7227 -1.7306  0.4508
  748MPD2    H111057   3.839   3.099   2.055 -1.2783 -0.6179 -0.4866
  748MPD2    H211058   3.529   3.333   1.914 -0.7988 -1.2515  0.4459
  748MPD2    H311059   3.621   3.185   2.072  0.8870  0.3568  0.5986
  748MPD2     N11060   4.036   3.198   1.883  0.1529  0.2811  0.0616
  748MPD2    H511061   4.084   3.214   1.795 -0.3554 -0.4521 -0.3554
  748MPD2    N111062   3.639   3.436   1.711  0.3287 -0.4370 -0.2310
  748MPD2    H711063   3.538   3.428   1.718  0.3156  0.5134  0.8159
  749TMC3    C111064   4.242   3.096   1.949 -0.4191  0.0335 -0.2155
  749TMC3    C211065   4.276   2.963   1.967 -0.3280  0.1667  0.2943
  749TMC3    C311066   4.383   2.919   1.893 -0.6619  0.2774 -0.3659
  749TMC3    C411067   4.309   3.176   1.855 -0.0649  0.3457 -0.0503
  749TMC3    C511068   4.405   3.117   1.780  0.1049 -0.2227  0.3374
  749TMC3    C611069   4.451   2.989   1.789  0.0987 -0.0232 -0.3074
  749TMC3     C11070   4.103   3.115   1.977  0.2552 -0.8248  0.1188
  749TMC3     O11071   4.056   3.025   2.046 -0.2523  0.2469 -0.0697
  749TMC3     H11072   4.227   2.896   2.037 -0.7943  0.1515 -0.0519
  749TMC3    H111073   4.288   3.280   1.837 -0.9315  0.2659  0.5257
  749TMC3    H211074   4.546   2.966   1.744 -0.2226 -2.4176  0.2495
  749TMC3    C711075   4.495   3.195   1.705  0.2215 -0.0203 -0.0314
  749TMC3    C811076   4.443   2.794   1.935 -0.4011 -0.5950  0.0237
  749TMC3    O111077   4.544   3.290   1.761  0.8058 -0.2271 -0.2860
  749TMC3    O211078   4.388   2.748   2.035 -0.6091 -0.3940 -0.0759
  750MPD2     C11079   4.247   4.510  11.516  0.2058  0.0672  0.9618
  750MPD2    C111080   4.115   4.498  11.497  0.4129  0.1388  0.4140
  750MPD2    C211081   4.064   4.398  11.425  0.7554 -0.5552  0.4626
  750MPD2    C311082   4.152   4.307  11.372 -0.4861  0.4954  0.6306
  750MPD2    C411083   4.286   4.322  11.390  0.2221  0.6536 -0.1685
  750MPD2    C511084   4.333   4.424  11.463 -0.4312 -0.3468 -0.4138
  750MPD2     H11085   3.958   4.383  11.404  0.7485 -0.6869  0.5933
  750MPD2    H111086   4.351   4.251  11.340 -1.1955 -0.3473 -0.5841
  750MPD2    H211087   4.288   4.582  11.585  0.1295 -0.5881  1.6892
  750MPD2    H311088   4.439   4.438  11.479 -0.8962  0.7410  1.6491
  750MPD2     N11089   4.116   4.196  11.298 -0.1634 -0.1893  0.7111
  750MPD2    H511090   4.192   4.135  11.267  0.7239  0.7509  1.0088
  750MPD2    N111091   4.039   4.604  11.542  0.1624 -0.4495  0.3893
  750MPD2    H711092   4.092   4.672  11.596  0.9763 -1.0393  0.3219
  751TMC3    C111093   3.991   4.059  11.167 -0.2048  0.0935 -0.3983
  751TMC3    C211094   3.873   4.012  11.128  0.1439  0.4094 -0.4277
  751TMC3    C311095   3.861   3.944  11.007 -0.3995  0.0039  0.5467
  751TMC3    C411096   4.098   4.052  11.077  0.0766 -0.4639 -0.3895
  751TMC3    C511097   4.074   3.996  10.955 -0.1383  0.2486 -0.0789
  751TMC3    C611098   3.960   3.937  10.918 -0.5594  0.4603  0.3868
  751TMC3     C11099   3.987   4.167  11.267  0.0662 -0.2076  0.1836
  751TMC3     O11100   3.879   4.203  11.304  0.0411  0.4184  0.5366
  751TMC3     H11101   3.793   4.017  11.201 -2.3046 -0.9581 -2.9810
  751TMC3    H111102   4.199   4.086  11.099 -0.1916  1.1743 -1.6456
  751TMC3    H211103   3.944   3.887  10.824 -1.6928 -0.5725  1.1311
  751TMC3    C711104   4.186   3.960  10.866  0.4940  0.4536 -0.1676
  751TMC3    C811105   3.737   3.892  10.945  0.2397 -0.8899  0.1472
  751TMC3    O111106   4.269   4.044  10.845  0.1258  0.4607 -0.6498
  751TMC3    O211107   3.736   3.865  10.825 -0.0864  0.3696  0.1468
  752TMC3    C111108   2.688   4.271   0.053  0.2278  0.0089  0.6751
  752TMC3    C211109   2.562   4.237   0.008  0.0408  0.0910 -0.3313
  752TMC3    C311110   2.447   4.278   0.069 -0.3212  0.6098 -0.0240
  752TMC3    C411111   2.705   4.356   0.159 -0.1414 -0.1469 -0.0382
  752TMC3    C511112   2.588   4.395   0.214  0.2391  0.4800  0.3463
  752TMC3    C611113   2.459   4.358   0.180  0.2156 -0.2875 -0.1591
  752TMC3     C11114   2.808   4.269  17.668  0.4455  0.2059  0.2462
  752TMC3     O11115   2.908   4.214   0.018 -0.3915  0.0610  0.0852
  752TMC3     H11116   2.550   4.168  17.627  1.1930  0.1535 -0.5570
  752TMC3    H111117   2.796   4.407   0.187 -0.8303  1.0410  0.0321
  752TMC3    H211118   2.376   4.393   0.241  1.1854  1.0023  0.4364
  752TMC3    C711119   2.598   4.516   0.284  0.1134  0.3013  0.3738
  752TMC3    C811120   2.327   4.208   0.045  0.3520  0.4851  0.0363
  752TMC3    O111121   2.700   4.519   0.349  0.7101  0.7354 -0.0053
  752TMC3    O211122   2.319   4.092   0.009 -0.2453 -0.0061 -0.4848
  753TMC3    C111123   0.479   0.384  13.524 -0.1950 -0.1143 -0.1187
  753TMC3    C211124   0.593   0.341  13.593  0.2111 -0.5305  0.5054
  753TMC3    C311125   0.588   0.217  13.655  0.0286  0.0679  0.7008
  753TMC3    C411126   0.361   0.306  13.521  0.2072  0.1529 -0.3722
  753TMC3    C511127   0.360   0.187  13.587 -0.3777 -0.2814  0.0573
  753TMC3    C611128   0.472   0.141  13.651 -0.4546  0.4091 -0.1202
  753TMC3     C11129   0.471   0.507  13.447  0.6419 -0.4661  0.6102
  753TMC3     O11130   0.364   0.564  13.443 -0.1071  0.3373  0.3708
  753TMC3     H11131   0.671   0.416  13.604  0.5479 -0.9975  1.2718
  753TMC3    H111132   0.279   0.334  13.455 -0.5720  2.2009  1.4667
  753TMC3    H211133   0.456   0.044  13.696 -1.1331  1.1036  1.1147
  753TMC3    C711134   0.256   0.104  13.560  0.6220 -0.0525 -0.4753
  753TMC3    C811135   0.686   0.191  13.762 -0.2814  0.6483 -0.2213
  753TMC3    O111136   0.281   4.711  13.527 -0.3212  0.2967  0.3272
  753TMC3    O211137   0.702   0.073  13.801  0.4307  0.4927 -0.1677
  754MPD2     C11138   3.342   3.654  12.741 -0.4220 -0.0255  0.5484
  754MPD2    C111139   3.415   3.764  12.780  0.1209  0.5694 -0.1680
  754MPD2    C211140   3.355   3.885  12.821 -0.7512  0.3069  0.2590
  754MPD2    C311141   3.218   3.889  12.800  0.0092  0.3257  0.1611
  754MPD2    C411142   3.151   3.785  12.744  0.4351  0.3350 -0.9013
  754MPD2    C511143   3.206   3.659  12.733  0.3935 -0.4263 -0.2320
  754MPD2     H11144   3.414   3.970  12.853 -1.6612 -0.0810  2.9138
  754MPD2    H111145   3.048   3.792  12.709  1.7143 -0.5734 -4.8568
  754MPD2    H211146   3.392   3.561  12.721  0.4505  0.2812  1.2983
  754MPD2    H311147   3.154   3.573  12.693  0.2214  0.4353 -1.8885
  754MPD2     N11148   3.144   3.998  12.839 -0.7456  0.0991  0.3400
  754MPD2    H511149   3.043   3.985  12.842 -0.7886 -0.0733 -1.4923
  754MPD2    N111150   3.557   3.740  12.801 -0.3850  0.6914  0.6100
  754MPD2    H711151   3.586   3.644  12.785  1.2713  1.2998 -0.0393
  755MPD2     C11152   3.366   4.600  13.597  0.8949 -0.6667  0.3455
  755MPD2    C111153   3.237   4.638  13.561 -0.7225  1.0953 -0.3206
  755MPD2    C211154   3.181   4.567  13.460 -0.3141  0.2421 -0.6060
  755MPD2    C311155   3.247   4.468  13.386  0.7439 -0.5287  0.2932
  755MPD2    C411156   3.376   4.436  13.424 -0.5114  0.1646 -0.4322
  755MPD2    C511157   3.431   4.508  13.522 -1.1736  0.0452 -0.4233
  755MPD2     H11158   3.077   4.583  13.435 -0.2680  1.7534  0.2347
  755MPD2    H111159   3.428   4.362  13.365 -1.1704 -0.8962  0.3173
  755MPD2    H211160   3.429   4.651  13.669  0.4009  0.0274  0.2882
  755MPD2    H311161   3.538   4.507  13.544 -1.6372  1.5126  1.8729
  755MPD2     N11162   3.188   4.396  13.276  0.4025  0.1643  0.0038
  755MPD2    H511163   3.245   4.321  13.239  0.8862  0.7569 -0.4689
  755MPD2    N111164   3.156   0.006  13.629  0.1710 -0.6018 -0.3427
  755MPD2    H711165   3.067   0.035  13.591  0.1410 -0.4536 -0.1600
  756MPD2     C11166   4.315   4.606   9.717 -0.0538  0.4560 -0.2331
  756MPD2    C111167   4.221   4.545   9.803  0.2081 -0.5897 -0.4154
  756MPD2    C211168   4.179   4.415   9.782  0.0258 -0.0420  0.1750
  756MPD2    C311169   4.231   4.344   9.676 -0.5093 -0.7485 -0.0256
  756MPD2    C411170   4.320   4.402   9.586  0.0824 -1.0914 -0.4427
  756MPD2    C511171   4.359   4.533   9.612 -0.0261 -0.3750 -0.7782
  756MPD2     H11172   4.125   4.365   9.862 -0.1011 -0.8704 -0.4177
  756MPD2    H111173   4.356   4.373   9.488  0.4686  0.0795 -0.6406
  756MPD2    H211174   4.349   4.708   9.728 -1.1249  0.7851 -0.0360
  756MPD2    H311175   4.431   4.582   9.548 -0.2289 -0.4552 -1.0672
  756MPD2     N11176   4.190   4.215   9.653  0.1115  0.0489  0.6105
  756MPD2    H511177   4.118   4.175   9.712 -0.6423  0.1427 -0.2439
  756MPD2    N111178   4.174   4.605   9.921 -0.5625  0.3744  0.4722
  756MPD2    H711179   4.094   4.565   9.970  0.5034  1.2432  2.9352
  757MPD2     C11180   3.387   3.638   9.715 -0.3947 -0.8158  0.2982
  757MPD2    C111181   3.446   3.583   9.602 -0.0214 -0.2622  0.1249
  757MPD2    C211182   3.567   3.626   9.558 -0.2760 -0.8513 -0.2428
  757MPD2    C311183   3.624   3.737   9.617 -0.3195  0.0257  0.0895
  757MPD2    C411184   3.565   3.801   9.727  1.0078  0.2134 -0.1116
  757MPD2    C511185   3.452   3.744   9.777 -0.3908 -0.5719 -0.3266
  757MPD2     H11186   3.614   3.582   9.471 -1.4773  0.4886 -1.5566
  757MPD2    H111187   3.599   3.895   9.769 -1.2722  2.2192 -2.8367
  757MPD2    H211188   3.288   3.602   9.742 -0.2772 -0.2264  1.4725
  757MPD2    H311189   3.411   3.778   9.871  0.5009 -1.4203  0.3666
  757MPD2     N11190   3.751   3.782   9.563 -0.2141  0.0378 -0.0149
  757MPD2    H511191   3.788   3.730   9.484  0.7379 -0.2167  0.5896
  757MPD2    N111192   3.377   3.482   9.538  0.7108 -0.1874 -0.3087
  757MPD2    H711193   3.292   3.454   9.586  0.4910  0.0115 -0.5788
  758MPD2     C11194   4.009   3.556  15.961 -0.8219  0.8451  0.1734
  758MPD2    C111195   4.135   3.560  16.020  0.1247  1.1305  0.4727
  758MPD2    C211196   4.149   3.614  16.147  0.0042 -0.8776  0.1403
  758MPD2    C311197   4.044   3.650  16.221  0.5095 -0.5854  0.0986
  758MPD2    C411198   3.915   3.642  16.160  0.6878 -0.3077 -0.2254
  758MPD2    C511199   3.900   3.594  16.032  0.6085 -0.3652 -0.6222
  758MPD2     H11200   4.249   3.609  16.188  0.5364  1.8897 -0.8380
  758MPD2    H111201   3.832   3.671  16.222  1.1975  2.1756 -0.7251
  758MPD2    H211202   3.997   3.529  15.857  3.3879 -0.4941  0.0509
  758MPD2    H311203   3.804   3.597  15.982 -0.1930 -0.8460  0.8808
  758MPD2     N11204   4.048   3.684  16.361  0.9718  0.5544  0.0623
  758MPD2    H511205   3.955   3.698  16.400  1.4234 -0.0243  1.3478
  758MPD2    N111206   4.255   3.530  15.954  0.2245 -0.7380  0.3672
  758MPD2    H711207   4.337   3.533  16.015 -0.2276 -0.3579  0.9579
  759MPD2     C11208   2.098   2.128   9.203 -0.0967  0.1875  0.3702
  759MPD2    C111209   2.142   2.079   9.322 -0.1386 -0.3544  0.1827
  759MPD2    C211210   2.266   2.115   9.362 -0.0937 -1.0066 -0.4203
  759MPD2    C311211   2.349   2.202   9.292 -0.4690 -0.0367  0.9878
  759MPD2    C411212   2.294   2.252   9.178  0.1153  0.1654 -0.2972
  759MPD2    C511213   2.171   2.224   9.135  0.4010  0.3088 -0.1351
  759MPD2     H11214   2.308   2.074   9.453  0.3828 -0.2724 -0.3143
  759MPD2    H111215   2.350   2.324   9.119 -1.9058 -0.4850 -2.9716
  759MPD2    H211216   1.997   2.106   9.171  0.9317 -2.2571 -1.2006
  759MPD2    H311217   2.138   2.275   9.046 -0.3160  0.7053  0.3596
  759MPD2     N11218   2.476   2.234   9.352 -0.0315 -0.4273 -0.1057
  759MPD2    H511219   2.490   2.191   9.443  1.8389  0.7321  0.1680
  759MPD2    N111220   2.062   1.984   9.392  0.2733  0.7009 -0.2723
  759MPD2    H711221   2.111   1.961   9.478 -0.7851 -1.8581 -0.3766
  760MPD2     C11222   1.904   0.037  11.922 -0.0816 -0.1596  0.6101
  760MPD2    C111223   2.037   0.032  11.882  0.3878  0.0842 -0.0248
  760MPD2    C211224   2.104   4.639  11.910  0.1918 -0.4193  0.4116
  760MPD2    C311225   2.047   4.542  11.988 -0.7427 -0.4430 -0.6144
  760MPD2    C411226   1.917   4.547  12.034  1.3231  0.8274  0.4543
  760MPD2    C511227   1.850   4.666  12.004  0.0463  0.2971  0.1738
  760MPD2     H11228   2.204   4.635  11.868  0.8010  0.1072  1.8226
  760MPD2    H111229   1.875   4.473  12.101 -1.4896  0.9428 -1.1432
  760MPD2    H211230   1.849   0.122  11.885  0.2159  0.7736  2.3083
  760MPD2    H311231   1.749   4.684  12.041  0.7588  0.3724  2.0740
  760MPD2     N11232   2.119   4.419  12.018  0.5795  0.1780  0.4203
  760MPD2    H511233   2.066   4.352  12.073  0.4602 -0.5080 -0.5303
  760MPD2    N111234   2.106   0.130  11.805 -0.1522  0.2986  0.0057
  760MPD2    H711235   2.204   0.115  11.783 -0.3404  1.9905 -1.9067
  761MPD2     C11236   3.270   3.706  11.032  0.1657  0.3618 -0.1307
  761MPD2    C111237   3.353   3.694  10.921  0.8921  0.2464  0.2484
  761MPD2    C211238   3.470   3.766  10.918  0.0288 -0.0045  0.6778
  761MPD2    C311239   3.509   3.840  11.029 -0.4564  0.1891  0.2898
  761MPD2    C411240   3.418   3.859  11.133  0.4483 -0.8653 -0.0191
  761MPD2    C511241   3.300   3.795  11.129 -0.6277 -0.5728  0.1739
  761MPD2     H11242   3.534   3.758  10.832 -0.3196  2.2187  0.2257
  761MPD2    H111243   3.429   3.918  11.223 -0.6253 -0.2370 -0.2993
  761MPD2    H211244   3.181   3.647  11.049  0.4747 -0.3793 -1.1750
  761MPD2    H311245   3.231   3.812  11.210  0.4614 -0.2924  1.0382
  761MPD2     N11246   3.640   3.902  11.037 -0.7464 -0.2540  0.0617
  761MPD2    H511247   3.650   3.967  11.114  0.1441  0.4698 -0.6724
  761MPD2    N111248   3.318   3.602  10.824  0.0054  0.2087  0.0219
  761MPD2    H711249   3.236   3.545  10.843  0.6999  0.2920  3.2637
  762MPD2     C11250   3.769   3.705  10.463  0.2646  0.4426  0.1962
  762MPD2    C111251   3.731   3.601  10.385  0.7254 -0.8040  0.9213
  762MPD2    C211252   3.811   3.567  10.280 -0.2074 -0.8931 -0.5785
  762MPD2    C311253   3.939   3.621  10.267 -0.6925  1.0393  0.3864
  762MPD2    C411254   3.985   3.708  10.362 -0.6536 -0.2877 -0.2140
  762MPD2    C511255   3.897   3.743  10.463 -0.0589 -0.9134 -0.4880
  762MPD2     H11256   3.781   3.483  10.218  1.9112 -1.1051 -1.3162
  762MPD2    H111257   4.084   3.753  10.359  0.1418 -2.0421 -0.2973
  762MPD2    H211258   3.708   3.741  10.546 -0.4882 -0.7417  0.1543
  762MPD2    H311259   3.925   3.800  10.550 -1.7615 -2.5025  1.1164
  762MPD2     N11260   4.025   3.578  10.158 -0.2061  0.6221  0.2114
  762MPD2    H511261   3.986   3.505  10.100  1.5941  1.5391 -2.1742
  762MPD2    N111262   3.600   3.549  10.403 -0.5432  0.0669  0.2924
  762MPD2    H711263   3.549   3.593  10.479  0.3980 -0.8602  1.4549
  763MPD2     C11264   1.259   3.702  16.212 -0.5847 -0.4896 -1.0836
  763MPD2    C111265   1.163   3.758  16.128 -0.2693  0.7117  0.8039
  763MPD2    C211266   1.128   3.889  16.137  0.1983 -0.0922  0.0826
  763MPD2    C311267   1.187   3.969  16.233 -0.1450 -0.1186  0.1864
  763MPD2    C411268   1.277   3.915  16.322  0.5170 -0.3181  0.2116
  763MPD2    C511269   1.311   3.781  16.312  0.0286  0.1804 -0.7187
  763MPD2     H11270   1.066   3.933  16.060 -0.7481  2.0781  2.0828
  763MPD2    H111271   1.346   3.977  16.377 -0.3554  0.7385  0.1075
  763MPD2    H211272   1.286   3.597  16.212 -0.1496 -0.3764 -1.9112
  763MPD2    H311273   1.392   3.738  16.370 -1.2482 -1.4233 -0.1403
  763MPD2     N11274   1.152   4.110  16.246 -0.6913  0.2970 -0.1816
  763MPD2    H511275   1.087   4.144  16.176 -1.0293 -0.4812 -0.2466
  763MPD2    N111276   1.111   3.678  16.024  0.4805  0.1605  0.1193
  763MPD2    H711277   1.066   3.733  15.952  3.6298 -0.1987 -2.1275
  764MPD2     C11278   4.681   1.097   0.403 -0.5555 -0.5638  0.4586
  764MPD2    C111279   4.604   1.007   0.329  0.3212 -0.7621  0.9257
  764MPD2    C211280   4.505   0.936   0.391  0.0979  0.2015 -0.7172
  764MPD2    C311281   4.497   0.953   0.532  0.4529 -0.2024  0.1650
  764MPD2    C411282   4.580   1.044   0.606 -0.5105 -0.1931 -0.1743
  764MPD2    C511283   4.668   1.121   0.533  0.3212  0.5737  0.8210
  764MPD2     H11284   4.450   0.856   0.343 -1.7237 -0.0684  1.8080
  764MPD2    H111285   4.589   1.041   0.713 -0.8238 -2.1172 -0.1947
  764MPD2    H211286   0.030   1.154   0.349 -1.1971  1.3219  1.5462
  764MPD2    H311287   0.010   1.188   0.585 -1.1364  1.8729  1.0056
  764MPD2     N11288   4.413   0.862   0.601  0.0180 -0.0761 -0.6219
  764MPD2    H511289   4.346   0.803   0.553  0.7393 -0.6472 -0.9102
  764MPD2    N111290   4.612   0.985   0.192  0.1472 -0.0373 -0.3209
  764MPD2    H711291   4.553   0.912   0.154  2.6757 -1.8192 -0.8057
  765MPD2     C11292   3.436   2.810  15.932 -0.0684 -0.4752  0.4821
  765MPD2    C111293   3.516   2.909  15.884  0.3524 -0.3450 -0.2010
  765MPD2    C211294   3.649   2.873  15.868  0.3877 -0.2362 -0.9199
  765MPD2    C311295   3.699   2.751  15.895 -0.0643 -0.2258 -0.0525
  765MPD2    C411296   3.614   2.650  15.944  0.1407 -0.0202 -0.1734
  765MPD2    C511297   3.480   2.686  15.976  0.7373  0.0265 -0.1359
  765MPD2     H11298   3.714   2.955  15.841  0.0991 -0.0437 -1.0321
  765MPD2    H111299   3.637   2.549  15.975 -1.8803 -0.5846 -0.4625
  765MPD2    H211300   3.334   2.837  15.953 -0.0677 -0.9218  1.0538
  765MPD2    H311301   3.417   2.608  16.018 -0.9974  0.4385 -1.9854
  765MPD2     N11302   3.833   2.726  15.865  0.2291  0.2808 -0.5621
  765MPD2    H511303   3.894   2.795  15.822  0.9132 -0.7504 -1.2482
  765MPD2    N111304   3.470   3.036  15.849 -0.1421  0.3077  0.0079
  765MPD2    H711305   3.373   3.062  15.865  0.7360  1.6158  3.1734
  766MPD2     C11306   3.010   3.162  15.297  0.5850  0.2458  0.7189
  766MPD2    C111307   3.141   3.196  15.311  0.2653  0.4608 -0.9085
  766MPD2    C211308   3.212   3.215  15.188  0.0127 -0.0340  0.6681
  766MPD2    C311309   3.145   3.214  15.061 -0.5510 -0.1290 -0.0353
  766MPD2    C411310   3.009   3.174  15.056  0.5471  0.2357  0.3335
  766MPD2    C511311   2.943   3.147  15.173  0.2662 -0.7457 -0.0152
  766MPD2     H11312   3.313   3.255  15.194 -0.3614  0.9847  0.1739
  766MPD2    H111313   2.955   3.169  14.962  0.4136 -1.6809  0.4976
  766MPD2    H211314   2.948   3.139  15.383  1.5647  0.1419  1.3891
  766MPD2    H311315   2.840   3.113  15.173  0.2550 -0.7101  0.9955
  766MPD2     N11316   3.212   3.251  14.939 -0.4989  0.1602 -0.2885
  766MPD2    H511317   3.157   3.256  14.854  1.5634 -2.7910 -1.7763
  766MPD2    N111318   3.206   3.226  15.432 -0.0606  0.4270 -0.2218
  766MPD2    H711319   3.303   3.253  15.418  0.9050 -2.0490  1.5713
  767MPD2     C11320   2.798   3.437  15.030  1.2332  0.9811  0.0101
  767MPD2    C111321   2.905   3.501  14.975  0.5114  0.2766  0.0527
  767MPD2    C211322   2.932   3.484  14.838 -0.5624  0.6662 -0.1753
  767MPD2    C311323   2.849   3.417  14.752  0.3203  0.1470 -0.1511
  767MPD2    C411324   2.736   3.363  14.807 -0.1428 -0.6089 -0.2840
  767MPD2    C511325   2.711   3.363  14.945 -0.3411  0.7635  0.0858
  767MPD2     H11326   3.027   3.520  14.801  0.1070 -1.3740 -0.4017
  767MPD2    H111327   2.669   3.305  14.745 -1.5055  2.2122 -1.4594
  767MPD2    H211328   2.785   3.430  15.138 -1.0683 -1.9590 -0.4914
  767MPD2    H311329   2.628   3.305  14.984 -0.1331  0.7841  0.5634
  767MPD2     N11330   2.882   3.395  14.614  0.3974  0.2203  0.8081
  767MPD2    H511331   2.975   3.420  14.582 -0.6922  0.7297 -1.9279
  767MPD2    N111332   2.989   3.569  15.064  0.0069  0.2774 -0.0005
  767MPD2    H711333   2.974   3.564  15.164 -1.1844 -0.0451 -0.2005
  768MPD2     C11334   3.041   1.778  10.617 -0.1041  0.2525 -0.4105
  768MPD2    C111335   3.074   1.889  10.696  0.8117 -0.2487  1.1087
  768MPD2    C211336   3.205   1.902  10.732  0.6184  0.0158  0.0477
  768MPD2    C311337   3.299   1.811  10.697 -0.2230 -0.0008 -0.1069
  768MPD2    C411338   3.255   1.692  10.638 -0.3709 -0.5009  0.0361
  768MPD2    C511339   3.130   1.683  10.588 -0.8004  0.1247  0.2038
  768MPD2     H11340   3.227   1.983  10.801  1.4158 -0.3855  0.2699
  768MPD2    H111341   3.321   1.606  10.630  0.8784  0.4536  0.0644
  768MPD2    H211342   2.940   1.765  10.580 -1.1659 -1.3264  3.0305
  768MPD2    H311343   3.097   1.597  10.530 -3.2795  0.4930  1.0984
  768MPD2     N11344   3.435   1.827  10.728  0.7513 -0.0541 -0.1985
  768MPD2    H511345   3.490   1.742  10.718 -1.3120 -1.2172 -1.6044
  768MPD2    N111346   2.987   1.981  10.748 -0.2617 -0.2674  1.1204
  768MPD2    H711347   3.034   2.045  10.812  1.7442  2.1882 -2.8032
  769MPD2     C11348   0.023   0.013  14.408  0.1826 -0.4703  0.3055
  769MPD2    C111349   4.686   0.056  14.517 -0.0728 -0.2595 -0.6653
  769MPD2    C211350   0.027   0.061  14.644  0.4603  0.9844 -0.2803
  769MPD2    C311351   0.153   0.009  14.655 -0.4934  0.4945 -0.4372
  769MPD2    C411352   0.212   4.679  14.544 -0.4439 -0.6313 -0.8159
  769MPD2    C511353   0.154   4.683  14.426 -0.1222 -0.2435 -0.7901
  769MPD2     H11354   4.719   0.115  14.732 -1.9302 -0.3693 -0.3566
  769MPD2    H111355   0.312   4.637  14.540 -0.2687 -0.4468  1.9394
  769MPD2    H211356   4.710   0.002  14.307  0.4536  3.0543 -0.1693
  769MPD2    H311357   0.198   4.636  14.339  1.1853  1.9036 -1.3150
  769MPD2     N11358   0.217   0.009  14.787 -0.5150 -0.1535  0.1229
  769MPD2    H511359   0.160   0.048  14.862 -1.1638 -1.1299  0.1355
  769MPD2    N111360   4.549   0.094  14.500  0.2435  0.0106 -0.5767
  769MPD2    H711361   4.505   0.070  14.412  0.9643  3.3522 -1.8549
  770MPD2     C11362   4.029   4.346  15.066  0.3582  0.1402 -0.8436
  770MPD2    C111363   4.105   4.322  14.953  0.8208 -0.0574 -0.3028
  770MPD2    C211364   4.118   4.417  14.849 -0.1996  0.3429  0.2704
  770MPD2    C311365   4.054   4.535  14.865  0.2614 -0.5542 -0.1692
  770MPD2    C411366   3.994   4.568  14.991 -0.3231 -0.1763  1.0600
  770MPD2    C511367   3.979   4.470  15.086  0.1347 -0.6479  0.6015
  770MPD2     H11368   4.186   4.401  14.766  0.8681 -0.6947  1.3463
  770MPD2    H111369   3.956   4.666  15.019 -1.9257 -0.1289 -1.2449
  770MPD2    H211370   4.020   4.270  15.143  1.0435  0.7705 -0.1431
  770MPD2    H311371   3.936   4.488  15.183  1.6321 -2.7519  1.6466
  770MPD2     N11372   4.075   4.635  14.765  0.9613 -0.0033 -0.4246
  770MPD2    H511373   4.107   4.598  14.676  1.5554  0.1204 -0.2627
  770MPD2    N111374   4.163   4.194  14.946  0.4275  0.3668  0.9082
  770MPD2    H711375   4.136   4.137  15.025  2.2246 -0.6674  0.7899
  771MPD2     C11376   0.484   2.880  13.147 -0.0742 -0.3609 -0.4976
  771MPD2    C111377   0.583   2.793  13.108  0.1937 -0.1563  0.0339
  771MPD2    C211378   0.590   2.758  12.974 -0.3519 -0.0189  0.5527
  771MPD2    C311379   0.485   2.788  12.886  0.3277 -0.2944 -0.3303
  771MPD2    C411380   0.382   2.868  12.929  0.2242  0.6299  0.2409
  771MPD2    C511381   0.384   2.911  13.061  0.2073  1.0298 -0.7104
  771MPD2     H11382   0.659   2.680  12.943  1.4437  1.2168  1.4973
  771MPD2    H111383   0.290   2.885  12.875 -1.1875 -0.9175  2.1509
  771MPD2    H211384   0.465   2.906  13.251 -0.1310 -1.2220 -0.2903
  771MPD2    H311385   0.307   2.973  13.105 -3.2596 -2.8849 -1.1865
  771MPD2     N11386   0.489   2.736  12.753 -0.3366  0.0701  0.1085
  771MPD2    H511387   0.574   2.687  12.726  0.2653  0.8041  0.6706
  771MPD2    N111388   0.686   2.750  13.195 -0.7466 -0.0393  0.0229
  771MPD2    H711389   0.763   2.697  13.155  0.3577  0.5186  1.4290
  772MPD2     C11390   0.877   3.150  13.844 -0.2832 -0.7673  0.7665
  772MPD2    C111391   0.789   3.090  13.762 -0.0664 -0.0370 -0.3429
  772MPD2    C211392   0.655   3.131  13.779 -0.0856 -0.4645  0.4442
  772MPD2    C311393   0.625   3.227  13.873  0.1234 -0.7643 -0.0259
  772MPD2    C411394   0.718   3.292  13.943 -0.1386 -0.0043 -0.1685
  772MPD2    C511395   0.844   3.245  13.928 -0.1159 -0.0910 -0.8158
  772MPD2     H11396   0.578   3.095  13.712 -0.2652  0.0119  0.3945
  772MPD2    H111397   0.698   3.365  14.022 -1.9564  0.6806 -1.2580
  772MPD2    H211398   0.977   3.110  13.854  0.3766  0.3030 -1.4311
  772MPD2    H311399   0.925   3.272  13.995 -1.8561  2.5900  0.2301
  772MPD2     N11400   0.493   3.267  13.896 -0.0804  0.0530 -0.7874
  772MPD2    H511401   0.477   3.354  13.944  1.7322 -0.2308  0.3245
  772MPD2    N111402   0.810   2.966  13.683 -0.0324 -0.0341 -0.1500
  772MPD2    H711403   0.732   2.926  13.632  1.7802 -2.2433 -1.1275
  773MPD2     C11404   4.568   3.982   0.557  1.4129  0.5210  0.0080
  773MPD2    C111405   4.533   3.871   0.493 -0.1120  0.2471  0.2041
  773MPD2    C211406   4.607   3.757   0.525 -0.1249 -0.6529  0.6469
  773MPD2    C311407   0.007   3.762   0.588 -0.4692  0.8218  0.0424
  773MPD2    C411408   0.040   3.877   0.654 -0.6312 -0.8986  0.6051
  773MPD2    C511409   4.680   3.985   0.640  0.3498 -0.4670 -0.4285
  773MPD2     H11410   4.581   3.660   0.483  0.3774 -0.8688  0.8426
  773MPD2    H111411   0.122   3.871   0.724 -2.5350 -3.1000  2.6357
  773MPD2    H211412   4.525   4.079   0.537 -0.8469 -1.2029 -3.4712
  773MPD2    H311413   4.719   4.071   0.694  0.1596  0.7536 -2.2224
  773MPD2     N11414   0.085   3.649   0.569 -0.4741 -0.0586  0.5040
  773MPD2    H511415   0.042   3.570   0.522 -0.9525 -0.4164  1.5455
  773MPD2    N111416   4.425   3.868   0.402  0.1298 -0.0580  0.1116
  773MPD2    H711417   4.389   3.777   0.378 -0.1601 -0.3519  1.6450
  774MPD2     C11418   3.653   3.154  13.477 -0.2629  0.2781 -0.5511
  774MPD2    C111419   3.662   3.281  13.524 -0.0913  0.3662  1.0927
  774MPD2    C211420   3.709   3.382  13.446 -0.0171 -0.3480  0.8498
  774MPD2    C311421   3.752   3.350  13.321  0.0027 -0.5110 -0.2104
  774MPD2    C411422   3.734   3.228  13.270  1.0084 -0.2199 -0.2509
  774MPD2    C511423   3.678   3.133  13.347  0.8773  0.0656 -0.1900
  774MPD2     H11424   3.729   3.481  13.484  1.1659 -0.4711  0.5535
  774MPD2    H111425   3.760   3.200  13.168  1.1383 -0.4867 -0.1442
  774MPD2    H211426   3.608   3.068  13.524  2.6333 -0.1626  1.4493
  774MPD2    H311427   3.667   3.037  13.297  0.2330 -0.1444  0.3546
  774MPD2     N11428   3.799   3.459  13.247 -0.3079  0.1748 -0.4240
  774MPD2    H511429   3.811   3.543  13.303  3.3679 -1.1528  0.8160
  774MPD2    N111430   3.629   3.302  13.663 -0.1455 -0.6149  0.5361
  774MPD2    H711431   3.620   3.220  13.722  2.4945 -1.2462  0.0917
  775MPD2     C11432   0.529   4.651  15.810 -0.0698 -0.3165 -0.5479
  775MPD2    C111433   0.545   0.030  15.905 -0.1667  0.5117 -0.2042
  775MPD2    C211434   0.598   0.148  15.856  0.3578 -0.2309 -0.4985
  775MPD2    C311435   0.641   0.164  15.722 -0.2170  0.0737  0.1688
  775MPD2    C411436   0.627   0.057  15.635  0.1445  0.5110 -0.1852
  775MPD2    C511437   0.569   4.660  15.680  0.3393 -0.1963  0.6907
  775MPD2     H11438   0.611   0.234  15.921 -2.0089 -1.3777  1.4308
  775MPD2    H111439   0.667   0.050  15.534  1.2238  1.6456  0.1623
  775MPD2    H211440   0.498   4.551  15.838  0.4654  0.2777  2.2147
  775MPD2    H311441   0.553   4.583  15.605  2.1772 -2.0131  2.1715
  775MPD2     N11442   0.709   0.281  15.678 -0.0085  0.1060  0.5260
  775MPD2    H511443   0.738   0.290  15.581  3.0969  0.3473  1.4783
  775MPD2    N111444   0.498   0.004  16.037 -0.1474  0.1912  0.4396
  775MPD2    H711445   0.454   4.641  16.060 -0.6491 -0.1600 -1.8179
  776MPD2     C11446   4.366   0.361  11.750 -0.9591 -0.4770 -0.1672
  776MPD2    C111447   4.282   0.405  11.645  1.0466  0.0475  0.0389
  776MPD2    C211448   4.318   0.521  11.573  0.1837 -0.1453  0.1177
  776MPD2    C311449   4.431   0.587  11.607 -0.4130 -0.1683  0.2468
  776MPD2    C411450   4.516   0.524  11.695 -0.1688  0.4601  0.2482
  776MPD2    C511451   4.483   0.422  11.770 -0.5839  0.3166 -0.2367
  776MPD2     H11452   4.257   0.561  11.492  0.3553  0.2514  0.1859
  776MPD2    H111453   4.605   0.579  11.723  0.2358  0.4632 -1.0735
  776MPD2    H211454   4.353   0.284  11.825 -0.0086 -0.3845  0.0922
  776MPD2    H311455   4.546   0.394  11.854 -1.0358  0.5746  0.1890
  776MPD2     N11456   4.463   0.712  11.549  0.7313 -0.2026 -0.1826
  776MPD2    H511457   4.553   0.751  11.575 -0.0705  0.6726  1.2463
  776MPD2    N111458   4.166   0.330  11.615 -0.2544  0.4467 -0.0390
  776MPD2    H711459   4.162   0.238  11.656 -0.0477  1.7222  2.8558
  777MPD2     C11460   0.233   2.634   0.949 -0.0698 -0.4335 -0.0518
  777MPD2    C111461   0.274   2.517   1.002 -0.1605  0.4113  0.3093
  777MPD2    C211462   0.271   2.401   0.930 -0.1680  0.0057  0.3455
  777MPD2    C311463   0.215   2.398   0.804 -0.3206 -0.0629 -0.8741
  777MPD2    C411464   0.170   2.519   0.757 -0.0562 -0.1863 -0.0486
  777MPD2    C511465   0.193   2.636   0.819  0.0112  0.3480 -0.5677
  777MPD2     H11466   0.305   2.304   0.966 -1.8388 -0.1658  1.4656
  777MPD2    H111467   0.108   2.526   0.669  1.0515  1.0356 -0.7306
  777MPD2    H211468   0.242   2.725   1.007 -1.3579  0.6092 -1.4968
  777MPD2    H311469   0.161   2.726   0.767 -0.1510  0.9222  0.5218
  777MPD2     N11470   0.192   2.280   0.731 -0.1512  0.3359  0.2773
  777MPD2    H511471   0.200   2.193   0.781 -0.2834 -0.1566 -0.5467
  777MPD2    N111472   0.333   2.523   1.132 -0.2946 -0.1554 -0.0731
  777MPD2    H711473   0.299   2.602   1.184 -0.7382 -2.2198  2.7750
  778MPD2     C11474   1.044   2.866  15.117  0.2336  0.4022  0.9957
  778MPD2    C111475   1.060   2.800  14.994 -0.4487  0.2192  0.6182
  778MPD2    C211476   1.113   2.877  14.888  0.7028  0.4559 -0.0883
  778MPD2    C311477   1.153   3.014  14.909  0.2729  0.7631  0.1607
  778MPD2    C411478   1.142   3.070  15.033  0.2226 -0.2031 -0.1150
  778MPD2    C511479   1.071   3.001  15.125  0.0483  0.4273  0.4667
  778MPD2     H11480   1.139   2.839  14.790 -2.4243 -2.6498  0.2973
  778MPD2    H111481   1.179   3.169  15.056 -3.7736  0.6290  2.7149
  778MPD2    H211482   0.999   2.818  15.203  2.3813 -1.2142  1.2038
  778MPD2    H311483   1.057   3.045  15.223 -0.2604 -2.2917  1.6455
  778MPD2     N11484   1.210   3.075  14.800 -0.8913  0.4649 -0.0940
  778MPD2    H511485   1.183   3.032  14.712 -2.4304  2.7744 -0.7550
  778MPD2    N111486   1.024   2.667  14.972  0.3095 -0.5123  0.2895
  778MPD2    H711487   1.006   2.632  14.878  0.9484  1.3968 -0.5424
  779MPD2     C11488   0.663   1.287  14.020  0.4754  0.1483  0.1637
  779MPD2    C111489   0.758   1.303  14.125  0.3124  0.2054  0.1212
  779MPD2    C211490   0.830   1.415  14.133  0.7738  0.3266 -0.3315
  779MPD2    C311491   0.816   1.515  14.034 -0.5378  0.5532 -0.3268
  779MPD2    C411492   0.722   1.507  13.936  0.4018 -0.2390  0.0995
  779MPD2    C511493   0.640   1.398  13.934 -0.8525 -0.4887 -0.0214
  779MPD2     H11494   0.908   1.433  14.206  0.7832  2.7516 -0.9434
  779MPD2    H111495   0.712   1.585  13.861  1.4586 -1.0319 -0.8527
  779MPD2    H211496   0.599   1.200  14.010  2.3557 -1.3033  0.7307
  779MPD2    H311497   0.561   1.391  13.860 -0.8220  1.1736 -0.1983
  779MPD2     N11498   0.914   1.619  14.031  0.8527 -0.5129 -0.4701
  779MPD2    H511499   0.966   1.635  14.117 -2.4039  1.4877  1.1407
  779MPD2    N111500   0.790   1.196  14.219 -0.0507  0.1933 -0.0454
  779MPD2    H711501   0.857   1.219  14.293 -0.4691  1.0165  0.0750
  780MPD2     C11502   0.880   1.684   0.873  0.0819  0.7705 -0.1420
  780MPD2    C111503   0.833   1.590   0.788 -0.2388 -0.3657 -0.1058
  780MPD2    C211504   0.815   1.618   0.651  0.0348 -0.0589 -0.5338
  780MPD2    C311505   0.821   1.751   0.605 -0.7897 -0.3462  0.3834
  780MPD2    C411506   0.856   1.850   0.695  0.1562 -0.1607  0.1461
  780MPD2    C511507   0.882   1.811   0.821  0.7072  0.4342  0.0053
  780MPD2     H11508   0.790   1.544   0.577  2.5690 -0.9946 -0.4826
  780MPD2    H111509   0.857   1.958   0.681  1.0355 -0.0462  1.1782
  780MPD2    H211510   0.925   1.666   0.970  2.0905  0.9807 -1.0315
  780MPD2    H311511   0.905   1.893   0.888 -0.9634 -0.0725  1.2017
  780MPD2     N11512   0.777   1.762   0.467 -0.3713 -0.4484  0.4155
  780MPD2    H511513   0.747   1.674   0.425 -0.2403 -0.8874  1.2327
  780MPD2    N111514   0.809   1.458   0.843  0.6151 -0.0760 -0.5599
  780MPD2    H711515   0.836   1.438   0.938 -2.8626  1.0482  0.6622
  781MPD2     C11516   1.456   3.572  12.102  0.3447  0.0951 -0.8971
  781MPD2    C111517   1.549   3.481  12.065 -0.9060 -0.4756  0.8097
  781MPD2    C211518   1.580   3.446  11.935 -0.9180  0.2203 -0.7690
  781MPD2    C311519   1.520   3.519  11.839 -0.3435 -0.6837 -0.2059
  781MPD2    C411520   1.417   3.606  11.870  0.5044 -0.6603  0.1607
  781MPD2    C511521   1.381   3.630  11.999  0.3340 -0.0640 -0.2216
  781MPD2     H11522   1.661   3.378  11.911 -1.7112  0.0624 -2.9457
  781MPD2    H111523   1.357   3.665  11.802  1.6662 -1.0275 -1.1835
  781MPD2    H211524   1.427   3.600  12.203 -0.5941  0.8454 -1.3790
  781MPD2    H311525   1.311   3.710  12.020  0.7571  0.5043 -0.9741
  781MPD2     N11526   1.554   3.512  11.702 -0.4363 -0.0625 -0.2786
  781MPD2    H511527   1.492   3.563  11.640 -1.1202 -1.2623 -0.5862
  781MPD2    N111528   1.631   3.426  12.159  0.4418 -0.1565  0.1156
  781MPD2    H711529   1.698   3.356  12.130  0.0849 -0.0517 -0.9527
  782MPD2     C11530   4.245   4.455  10.413  0.0764 -0.1613 -0.0628
  782MPD2    C111531   4.384   4.429  10.406  0.6900  0.2427 -0.6478
  782MPD2    C211532   4.473   4.478  10.503  0.1075 -0.7995  0.2813
  782MPD2    C311533   4.415   4.556  10.606 -0.5474  0.1823 -0.3719
  782MPD2    C411534   4.284   4.574  10.608  0.0193  0.4795  0.2103
  782MPD2    C511535   4.198   4.527  10.516  0.9034 -0.1897 -0.2312
  782MPD2     H11536   4.580   4.458  10.508  0.2671  0.2200  0.9060
  782MPD2    H111537   4.244   4.609  10.702  1.0577  1.9947  0.0959
  782MPD2    H211538   4.173   4.429  10.337  2.8819  1.9951 -3.4763
  782MPD2    H311539   4.093   4.552  10.526  0.5079 -1.5456 -1.0359
  782MPD2     N11540   4.503   4.585  10.711 -0.1507 -0.4682  0.0357
  782MPD2    H511541   4.601   4.566  10.693 -0.0802  0.5582 -0.6026
  782MPD2    N111542   4.422   4.334  10.311  0.3211 -0.5520  0.3367
  782MPD2    H711543   4.342   4.295  10.261  1.8427 -1.8527 -1.0699
  783MPD2     C11544   4.191   3.638  10.692  0.3142 -0.1837  0.2859
  783MPD2    C111545   4.221   3.772  10.712 -0.3339 -0.4452 -0.9170
  783MPD2    C211546   4.291   3.847  10.620 -0.6722  0.0831  0.4392
  783MPD2    C311547   4.329   3.786  10.500 -0.6267 -0.2632 -0.3134
  783MPD2    C411548   4.294   3.657  10.479  0.0749  0.2461  0.0649
  783MPD2    C511549   4.236   3.577  10.577 -0.1598 -0.0722 -0.8710
  783MPD2     H11550   4.323   3.949  10.639  1.1046  0.3734 -4.0671
  783MPD2    H111551   4.307   3.621  10.378 -1.6568 -0.6114  0.1555
  783MPD2    H211552   4.114   3.597  10.756 -1.1943  1.6197 -0.3572
  783MPD2    H311553   4.218   3.475  10.547  1.0648  0.0067 -1.8554
  783MPD2     N11554   4.407   3.862  10.411 -0.4814  0.4486 -0.6064
  783MPD2    H511555   4.407   3.959  10.440 -1.9697  0.2415  0.0931
  783MPD2    N111556   4.166   3.836  10.826  0.9714  0.6824 -0.5127
  783MPD2    H711557   4.112   3.774  10.886  0.8146  0.3836 -0.9585
  784MPD2     C11558   3.036   4.004   0.805  0.9176  0.1969 -0.2227
  784MPD2    C111559   3.077   4.111   0.736  0.0707  0.5810  0.7266
  784MPD2    C211560   2.994   4.225   0.730 -0.3732  0.1016 -0.0505
  784MPD2    C311561   2.861   4.217   0.767 -0.1780 -0.5905 -0.4055
  784MPD2    C411562   2.806   4.097   0.814 -0.4930  0.0293  0.0717
  784MPD2    C511563   2.899   3.996   0.838 -0.1034 -0.0204 -0.4483
  784MPD2     H11564   3.032   4.314   0.681  0.4941 -1.6599 -2.5401
  784MPD2    H111565   2.703   4.085   0.844 -0.4841 -2.3000 -0.8979
  784MPD2    H211566   3.093   3.913   0.821  2.8737  1.6231  0.9040
  784MPD2    H311567   2.877   3.907   0.895 -2.4637  0.8016 -0.0500
  784MPD2     N11568   2.783   4.335   0.742 -0.2283 -0.4101  0.5141
  784MPD2    H511569   2.835   4.418   0.715 -1.3748 -0.6030 -2.2133
  784MPD2    N111570   3.208   4.125   0.680  0.6583  0.0214  0.1151
  784MPD2    H711571   3.227   4.215   0.636  2.4253  0.2508  1.3598
  785MPD2     C11572   2.242   1.459  10.245  0.5921 -0.3024  0.5077
  785MPD2    C111573   2.257   1.598  10.246  0.4354 -0.3182  0.0663
  785MPD2    C211574   2.148   1.668  10.207  0.5561 -0.1057  0.2346
  785MPD2    C311575   2.023   1.610  10.166 -0.1465 -0.4683  0.0003
  785MPD2    C411576   2.014   1.477  10.145 -0.3169 -0.6108 -0.0089
  785MPD2    C511577   2.126   1.407  10.189 -1.3527  0.2192  1.0428
  785MPD2     H11578   2.140   1.775  10.218 -1.3411 -0.3914  1.5678
  785MPD2    H111579   1.932   1.429  10.093 -1.0516  0.3458  0.2668
  785MPD2    H211580   2.312   1.385  10.282 -0.1271 -0.2195  2.0503
  785MPD2    H311581   2.135   1.300  10.176  1.5295  0.6297 -0.4599
  785MPD2     N11582   1.923   1.707  10.142 -0.2045  0.0886 -0.8882
  785MPD2    H511583   1.945   1.806  10.146  0.0997  0.0449 -1.4381
  785MPD2    N111584   2.367   1.669  10.287  0.0625  0.1206 -0.1335
  785MPD2    H711585   2.461   1.631  10.283 -0.6296 -1.2694 -3.5569
  786MPD2     C11586   1.154   0.902  14.917  0.1719 -0.7414  0.2686
  786MPD2    C111587   1.292   0.910  14.907 -0.7525 -0.2018  0.7241
  786MPD2    C211588   1.363   0.922  15.024  0.5689  0.1142  0.1356
  786MPD2    C311589   1.305   0.926  15.146 -0.7276  0.6036  0.4373
  786MPD2    C411590   1.164   0.936  15.162 -0.5509 -0.3527  0.4262
  786MPD2    C511591   1.099   0.928  15.043  0.1347  0.2724 -0.1947
  786MPD2     H11592   1.470   0.921  15.006  0.8844  0.3110  1.9962
  786MPD2    H111593   1.114   0.952  15.257 -1.0607  0.4644  0.0253
  786MPD2    H211594   1.089   0.883  14.833  0.9879 -2.2268 -0.0320
  786MPD2    H311595   0.992   0.939  15.051 -0.0638  0.5997 -3.1302
  786MPD2     N11596   1.387   0.927  15.265  0.3047  0.3344  0.1556
  786MPD2    H511597   1.345   0.939  15.356  0.4393 -1.4772  0.4643
  786MPD2    N111598   1.363   0.893  14.786  0.6179  0.5792  0.2797
  786MPD2    H711599   1.464   0.909  14.787  0.5293  1.0546  2.5446
  787MPD2     C11600   1.677   0.635  15.051 -0.0356 -0.7684  0.3669
  787MPD2    C111601   1.693   0.562  14.935 -0.5591 -0.7001 -0.4246
  787MPD2    C211602   1.727   0.427  14.948 -0.1967  0.5485  0.5489
  787MPD2    C311603   1.750   0.363  15.063 -0.6390 -0.1540 -0.2331
  787MPD2    C411604   1.752   0.441  15.174  0.1070 -0.2433  0.1838
  787MPD2    C511605   1.707   0.575  15.167 -0.2771 -0.6689  0.3152
  787MPD2     H11606   1.743   0.366  14.860  4.0451 -0.4505  2.0152
  787MPD2    H111607   1.788   0.403  15.268 -1.9807 -1.3513  0.5302
  787MPD2    H211608   1.638   0.736  15.046 -2.1713 -1.7045 -1.9560
  787MPD2    H311609   1.702   0.628  15.261 -2.5318  2.1729 -1.4302
  787MPD2     N11610   1.782   0.223  15.056  0.2202 -0.4683 -0.2550
  787MPD2    H511611   1.764   0.174  14.968 -0.7661  0.4007 -0.5426
  787MPD2    N111612   1.667   0.622  14.809 -0.0610 -0.3210  0.8254
  787MPD2    H711613   1.639   0.719  14.816 -0.2149 -0.3451  0.5640
  788MPD2     C11614   3.469   3.385   0.911 -0.0797  0.6191 -0.1570
  788MPD2    C111615   3.369   3.328   0.831  0.2539 -0.0993 -0.0583
  788MPD2    C211616   3.270   3.417   0.779 -0.2628  0.2148 -1.0824
  788MPD2    C311617   3.284   3.551   0.810 -0.5706 -0.3228 -0.0266
  788MPD2    C411618   3.386   3.600   0.890  0.0662 -0.3793 -0.0834
  788MPD2    C511619   3.475   3.515   0.944  0.2721  1.1226  0.1488
  788MPD2     H11620   3.188   3.381   0.717 -0.0609 -1.2329 -0.5096
  788MPD2    H111621   3.378   3.703   0.920 -0.8322 -0.3022 -0.5923
  788MPD2    H211622   3.538   3.322   0.966 -1.7822 -1.0435  0.0822
  788MPD2    H311623   3.541   3.550   1.023  1.0197 -2.2906  1.0280
  788MPD2     N11624   3.201   3.645   0.750  0.8578  0.2862  0.2624
  788MPD2    H511625   3.217   3.745   0.760 -0.5821  0.3892  1.4857
  788MPD2    N111626   3.367   3.189   0.798 -0.0734 -0.7644 -0.4887
  788MPD2    H711627   3.291   3.172   0.732 -1.1872 -1.4004  0.9574
  789MPD2     C11628   3.688   3.893  16.597  0.4406 -0.6463  0.0488
  789MPD2    C111629   3.676   3.802  16.707  0.5574  0.3519 -0.2500
  789MPD2    C211630   3.603   3.840  16.818  0.2171 -0.6325  0.0950
  789MPD2    C311631   3.543   3.962  16.831 -0.4975 -0.6551  0.5049
  789MPD2    C411632   3.557   4.051  16.728  0.2298  0.0768  0.0732
  789MPD2    C511633   3.632   4.017  16.611  0.7402 -0.1864  0.0556
  789MPD2     H11634   3.592   3.763  16.893 -3.8693  0.1165  0.2429
  789MPD2    H111635   3.504   4.146  16.726  0.3569  0.1836  1.7039
  789MPD2    H211636   3.755   3.878  16.514  1.9733  2.9277  0.6436
  789MPD2    H311637   3.644   4.084  16.527  0.8406 -0.4846 -0.1671
  789MPD2     N11638   3.433   3.982  16.923  0.2126 -0.5233 -0.9518
  789MPD2    H511639   3.381   4.068  16.907 -0.2639 -0.5011  0.6568
  789MPD2    N111640   3.711   3.663  16.693 -0.1705 -0.2019  0.1647
  789MPD2    H711641   3.695   3.602  16.773  0.4890 -1.0415 -0.3473
  790MPD2     C11642   4.361   0.762  13.867  0.3766 -0.4593 -0.0729
  790MPD2    C111643   4.466   0.670  13.866 -0.2399 -0.0442 -0.0068
  790MPD2    C211644   4.508   0.612  13.745  0.5513  0.0383 -0.2413
  790MPD2    C311645   4.445   0.637  13.625 -0.3088  0.5446  0.2557
  790MPD2    C411646   4.333   0.717  13.639 -0.0178  1.0306 -0.6304
  790MPD2    C511647   4.292   0.776  13.750  0.4535  0.3285 -0.5103
  790MPD2     H11648   4.596   0.549  13.745  0.1218 -0.5632 -0.3209
  790MPD2    H111649   4.274   0.747  13.553 -0.8631  0.9075 -0.0958
  790MPD2    H211650   4.322   0.805  13.959  0.4257 -0.0676 -0.2366
  790MPD2    H311651   4.204   0.840  13.753  0.4697  0.3661 -0.8561
  790MPD2     N11652   4.504   0.594  13.505 -0.2858 -0.2452  0.3803
  790MPD2    H511653   4.580   0.527  13.509 -1.0797 -1.1648 -0.0304
  790MPD2    N111654   4.518   0.634  13.995  0.5516 -0.3530 -0.6208
  790MPD2    H711655   4.486   0.684  14.078  2.1336 -0.0819 -0.1658
  791MPD2     C11656   4.324   0.407  12.659 -0.0036 -0.0850 -0.3377
  791MPD2    C111657   4.266   0.355  12.771 -1.1636  0.4548  0.5812
  791MPD2    C211658   4.128   0.314  12.773 -0.2561  0.1378  0.8127
  791MPD2    C311659   4.049   0.329  12.658  0.5713 -0.3231 -0.4365
  791MPD2    C411660   4.109   0.392  12.556 -0.6424 -0.1786 -0.6927
  791MPD2    C511661   4.244   0.429  12.553 -0.5453  0.4587  0.2479
  791MPD2     H11662   4.081   0.269  12.860  0.2342  0.3259  1.1709
  791MPD2    H111663   4.051   0.437  12.476  0.2138  1.1197 -0.5947
  791MPD2    H211664   4.427   0.440  12.651 -0.3493  0.7234 -1.5067
  791MPD2    H311665   4.275   0.490  12.470 -0.9385  2.0512  1.2678
  791MPD2     N11666   3.914   0.285  12.653  0.4235  0.0935 -0.8105
  791MPD2    H511667   3.891   0.236  12.740  1.2477  0.5884 -0.3153
  791MPD2    N111668   4.349   0.359  12.886  0.0176 -0.4693  0.2057
  791MPD2    H711669   4.443   0.396  12.876 -0.6168  0.9062 -0.7025
  792MPD2     C11670   4.319   0.261  11.267  0.1164 -0.3118  0.4722
  792MPD2    C111671   4.198   0.317  11.227  0.0460  0.3479  0.3357
  792MPD2    C211672   4.084   0.236  11.210  0.4341  0.2081  0.3444
  792MPD2    C311673   4.093   0.098  11.225 -0.5467  0.7894  0.1954
  792MPD2    C411674   4.214   0.049  11.269 -0.5320  0.2952  0.1601
  792MPD2    C511675   4.320   0.128  11.285  0.0672  0.2337 -0.0273
  792MPD2     H11676   3.992   0.279  11.174  0.2963 -0.0767  0.3531
  792MPD2    H111677   4.228   4.667  11.279 -1.2275  0.1223 -0.7522
  792MPD2    H211678   4.416   0.309  11.259  0.0884 -0.3363 -0.0484
  792MPD2    H311679   4.414   0.079  11.308  0.4630  0.0922 -1.9792
  792MPD2     N11680   3.987   0.010  11.198  0.0945 -0.6207  0.0271
  792MPD2    H511681   4.012   4.638  11.218  1.0873 -0.1739  0.9663
  792MPD2    N111682   4.206   0.447  11.175  0.0305 -0.2064 -0.3501
  792MPD2    H711683   4.289   0.504  11.191  1.9182 -3.1813  0.4316
  793MPD2     C11684   3.605   4.627  10.414 -0.4502  0.4276 -0.2729
  793MPD2    C111685   3.706   4.690  10.480 -0.0224  0.3635 -0.0862
  793MPD2    C211686   3.699   4.716  10.614 -0.4692  0.7198  0.3686
  793MPD2    C311687   3.593   4.677  10.688  0.5271 -0.1191  0.5358
  793MPD2    C411688   3.488   4.627  10.627 -0.1356 -0.3528 -0.4340
  793MPD2    C511689   3.489   4.599  10.488  0.1168 -0.2774  1.0473
  793MPD2     H11690   3.780   0.032  10.673 -0.9812  1.4186  0.5830
  793MPD2    H111691   3.398   4.591  10.675  1.2149 -0.6479  1.8540
  793MPD2    H211692   3.608   4.598  10.310  1.4125  0.2750 -0.1700
  793MPD2    H311693   3.406   4.544  10.444  0.6279  0.4907 -0.8591
  793MPD2     N11694   3.604   4.682  10.829  0.4225 -0.1263  0.1115
  793MPD2    H511695   3.694   4.703  10.870  0.6711 -1.1544  0.0730
  793MPD2    N111696   3.822   0.014  10.417 -0.0908  0.3577  0.0033
  793MPD2    H711697   3.891   0.054  10.480 -2.9644  2.1974  1.9600
  794MPD2     C11698   4.112   3.996  17.386  0.5573 -0.0899  0.9957
  794MPD2    C111699   4.145   4.092  17.478  0.5220  0.3696  0.9849
  794MPD2    C211700   4.203   4.210  17.429  0.8687  0.0809 -0.2821
  794MPD2    C311701   4.222   4.226  17.293  0.3462 -0.3895  0.0925
  794MPD2    C411702   4.186   4.128  17.204  0.1052  0.4768 -0.3022
  794MPD2    C511703   4.129   4.019  17.252 -0.5354  0.0859  0.1361
  794MPD2     H11704   4.206   4.288  17.504 -0.9212  1.1446 -1.3239
  794MPD2    H111705   4.190   4.148  17.097  0.5943 -1.2193 -0.5946
  794MPD2    H211706   4.081   3.895  17.411 -2.3419  0.4268 -0.5627
  794MPD2    H311707   4.108   3.935  17.186 -1.9586  0.2824  0.3500
  794MPD2     N11708   4.273   4.344  17.236  0.8403 -0.2712  0.6541
  794MPD2    H511709   4.268   4.351  17.135 -1.0581 -1.8752  0.6472
  794MPD2    N111710   4.131   4.074  17.611  0.2117  0.3692  0.3129
  794MPD2    H711711   4.173   4.133  17.682  0.8665  0.5881 -0.2534
  795MPD2     C11712   2.019   2.004  13.339 -0.4933  0.1685 -0.0608
  795MPD2    C111713   2.021   1.910  13.237  0.0556  0.1698 -0.5981
  795MPD2    C211714   2.134   1.829  13.219 -0.2922 -0.3314  0.4444
  795MPD2    C311715   2.245   1.849  13.296  0.0910 -0.7386  0.3630
  795MPD2    C411716   2.240   1.948  13.393 -0.6153 -0.0444 -0.0898
  795MPD2    C511717   2.127   2.022  13.414  0.2199  0.8432 -0.4535
  795MPD2     H11718   2.138   1.751  13.145  2.0269 -0.7482  1.0100
  795MPD2    H111719   2.323   1.961  13.462  0.1239  0.0962 -1.0156
  795MPD2    H211720   1.928   2.059  13.362  0.2820  1.1189  0.7118
  795MPD2    H311721   2.119   2.096  13.493 -1.0408 -0.5390  0.7062
  795MPD2     N11722   2.356   1.762  13.271 -1.0077  0.0720  0.7437
  795MPD2    H511723   2.344   1.692  13.199 -0.1623 -1.3439  1.9623
  795MPD2    N111724   1.912   1.893  13.153  0.6193 -0.4416  0.1972
  795MPD2    H711725   1.904   1.807  13.099  0.3931 -0.0060 -0.4592
  796MPD2     C11726   1.383   2.986  15.958 -0.2743 -0.1784 -0.3253
  796MPD2    C111727   1.368   3.062  16.075 -0.4675  0.1721  0.1701
  796MPD2    C211728   1.361   3.199  16.063 -0.9280 -0.5191 -0.3528
  796MPD2    C311729   1.363   3.261  15.940  0.6455 -0.6849  0.0659
  796MPD2    C411730   1.372   3.180  15.831 -0.2080 -0.5504  0.3762
  796MPD2    C511731   1.375   3.045  15.835  0.7924 -0.5681 -0.7141
  796MPD2     H11732   1.354   3.266  16.148  1.7820 -0.2573 -0.3362
  796MPD2    H111733   1.376   3.221  15.730 -1.0627 -1.7586 -0.1565
  796MPD2    H211734   1.399   2.879  15.956 -0.6104 -0.2087 -1.2572
  796MPD2    H311735   1.386   2.987  15.744 -0.2247 -0.5016 -0.8774
  796MPD2     N11736   1.375   3.396  15.928  0.3868 -0.7449 -0.2770
  796MPD2    H511737   1.402   3.453  16.008 -1.6773  0.3153 -0.3219
  796MPD2    N111738   1.383   2.992  16.195  0.6018  0.5667  0.2111
  796MPD2    H711739   1.402   2.893  16.182 -1.2847  0.3964 -1.3627
  797MPD2     C11740   2.850   3.143  17.547  0.6596 -0.5735 -0.1288
  797MPD2    C111741   2.781   3.250  17.523  0.8764  0.2483  0.1460
  797MPD2    C211742   2.646   3.246  17.510  0.4140  0.4707  0.3705
  797MPD2    C311743   2.579   3.124  17.499  0.4494  0.0505 -0.0424
  797MPD2    C411744   2.655   3.009  17.501 -0.1169  0.2658 -0.1133
  797MPD2    C511745   2.789   3.025  17.525 -0.3231 -0.2347  0.7738
  797MPD2     H11746   2.595   3.341  17.497  0.7078  0.5072 -0.4899
  797MPD2    H111747   2.611   2.911  17.487  1.0385  0.1589 -2.9606
  797MPD2    H211748   2.958   3.139  17.550  0.5892 -2.4772 -0.1516
  797MPD2    H311749   2.844   2.932  17.523 -0.6160 -0.4379  2.1736
  797MPD2     N11750   2.434   3.117  17.482 -0.3961  0.2780  0.0173
  797MPD2    H511751   2.394   3.210  17.481  1.1377  0.9343 -0.4145
  797MPD2    N111752   2.832   3.376  17.511 -0.1716  0.8772  0.6636
  797MPD2    H711753   2.773   3.458  17.519 -3.0902 -1.2916  1.1888
  798MPD2     C11754   2.235   3.679  17.155 -0.6673  0.7269 -0.3405
  798MPD2    C111755   2.282   3.584  17.244  0.2130  0.0661  0.0166
  798MPD2    C211756   2.417   3.576  17.262  0.1498 -0.0298  0.1310
  798MPD2    C311757   2.506   3.656  17.200 -0.4799  0.0236 -0.2393
  798MPD2    C411758   2.457   3.758  17.121 -0.7432 -0.4489  0.1282
  798MPD2    C511759   2.323   3.762  17.096  0.4112  0.3044  0.1265
  798MPD2     H11760   2.458   3.500  17.328  0.1124  0.8354  1.1570
  798MPD2    H111761   2.523   3.834  17.081  0.2587  0.2087  3.0167
  798MPD2    H211762   2.130   3.685  17.129 -1.3431 -1.7488  1.8303
  798MPD2    H311763   2.305   3.843  17.026 -0.4944  1.0147  1.1912
  798MPD2     N11764   2.648   3.636  17.234 -0.7435 -0.3918 -0.3967
  798MPD2    H511765   2.666   3.544  17.273 -0.3844 -0.1197  0.0849
  798MPD2    N111766   2.190   3.502  17.307 -0.6472  0.4875 -0.5220
  798MPD2    H711767   2.093   3.514  17.281 -0.3292  1.3151 -1.3771
  799MPD2     C11768   0.807   4.521  14.372 -0.4739  0.2341  0.1544
  799MPD2    C111769   0.795   4.406  14.299 -0.1005  0.5896 -0.6984
  799MPD2    C211770   0.764   4.416  14.165 -0.1394  0.7918  0.3924
  799MPD2    C311771   0.775   4.538  14.102  0.2593 -0.3065  0.3293
  799MPD2    C411772   0.802   4.649  14.177  0.0217 -0.6321  0.5202
  799MPD2    C511773   0.807   4.639  14.314 -0.0487 -0.5816  0.0914
  799MPD2     H11774   0.761   4.322  14.111  1.4957  0.7812  0.3294
  799MPD2    H111775   0.794   0.022  14.132  0.2170 -1.6639 -1.7312
  799MPD2    H211776   0.818   4.525  14.480  0.6805  1.7566 -0.0248
  799MPD2    H311777   0.797   0.002  14.376 -0.3169 -0.5024 -0.0664
  799MPD2     N11778   0.770   4.556  13.958  0.2607  0.1730  0.3198
  799MPD2    H511779   0.778   4.647  13.916 -0.3226  0.8978  1.7676
  799MPD2    N111780   0.791   4.280  14.360  0.8004  0.1165  0.0706
  799MPD2    H711781   0.799   4.204  14.294  0.4536 -1.5061  1.8889
  800MPD2     C11782   2.044   1.418  13.703 -0.1624  0.3093 -0.7021
  800MPD2    C111783   2.171   1.362  13.723  0.2272  0.4532 -0.0431
  800MPD2    C211784   2.190   1.226  13.722  0.1514  0.3077 -0.1939
  800MPD2    C311785   2.084   1.145  13.696  0.3107 -0.0263 -0.1732
  800MPD2    C411786   1.957   1.199  13.668  0.9663  0.0414 -0.4961
  800MPD2    C511787   1.944   1.334  13.666 -0.4702 -0.2285 -0.3493
  800MPD2     H11788   2.288   1.183  13.741  0.1801  0.6060  0.3505
  800MPD2    H111789   1.876   1.130  13.646  1.2115  0.3288 -2.3492
  800MPD2    H211790   2.037   1.526  13.712 -1.7492  0.1520 -0.0981
  800MPD2    H311791   1.845   1.373  13.644 -0.9518 -1.5566 -0.4989
  800MPD2     N11792   2.112   1.004  13.699  0.2346  0.0463  0.6468
  800MPD2    H511793   2.208   0.984  13.725  0.5400  2.4159  1.3836
  800MPD2    N111794   2.268   1.458  13.757 -0.4460 -0.0127 -0.2522
  800MPD2    H711795   2.239   1.555  13.748  0.9865  0.2888 -1.7746
  801MPD2     C11796   2.153   1.979  14.058  0.7474  0.1201  0.4346
  801MPD2    C111797   2.205   1.858  14.104 -0.0917 -0.1210 -0.0792
  801MPD2    C211798   2.137   1.773  14.191 -0.0821  0.0156 -0.7906
  801MPD2    C311799   2.007   1.813  14.228  0.3423  0.7057  0.1349
  801MPD2    C411800   1.956   1.930  14.180 -0.3411 -0.1105 -0.4213
  801MPD2    C511801   2.028   2.013  14.094  0.3832 -0.0704  0.1935
  801MPD2     H11802   2.164   1.676  14.229 -1.3246 -0.0407 -0.0482
  801MPD2    H111803   1.871   1.977  14.227  0.3395  0.4528  0.2532
  801MPD2    H211804   2.212   2.055  14.008  0.1156  2.4886  3.2789
  801MPD2    H311805   1.991   2.111  14.065  1.0669  0.4617  1.0917
  801MPD2     N11806   1.923   1.742  14.318  0.4465 -0.5367 -0.6492
  801MPD2    H511807   1.825   1.768  14.316  0.6367  0.2778  0.6098
  801MPD2    N111808   2.322   1.803  14.046  0.0169  0.0178 -0.1658
  801MPD2    H711809   2.351   1.717  14.090 -1.9097  0.3267  1.7159
  802MPD2     C11810   0.944   2.702  17.306  0.4269 -0.2093 -0.4320
  802MPD2    C111811   0.953   2.654  17.439  0.2760 -0.1352  0.3709
  802MPD2    C211812   0.961   2.520  17.462  0.6658  0.8545 -0.4789
  802MPD2    C311813   0.954   2.429  17.363 -0.5707  0.2171 -0.8344
  802MPD2    C411814   0.913   2.474  17.238  0.1901  0.7060 -0.5010
  802MPD2    C511815   0.922   2.607  17.212 -0.2642  0.2235 -0.5152
  802MPD2     H11816   0.992   2.479  17.557 -0.5461 -0.2763 -0.5753
  802MPD2    H111817   0.898   2.410  17.151 -1.1763  0.2391  0.0871
  802MPD2    H211818   0.913   2.801  17.274  1.4567 -0.5014 -2.3877
  802MPD2    H311819   0.902   2.643  17.112 -0.6467  2.6706  0.4233
  802MPD2     N11820   0.982   2.299  17.396 -0.0844  0.3755  0.3169
  802MPD2    H511821   1.027   2.285  17.485  1.7149 -3.9127 -1.2724
  802MPD2    N111822   0.951   2.738  17.547 -0.3046  0.3597 -0.4534
  802MPD2    H711823   0.957   2.679  17.629  1.0230 -3.7929 -3.5569
  803MPD2     C11824   2.052   0.647  11.822  0.1277  0.6523 -0.1732
  803MPD2    C111825   2.166   0.693  11.761 -0.0516  0.3353  0.1871
  803MPD2    C211826   2.273   0.731  11.840 -0.1634 -0.3491  0.3617
  803MPD2    C311827   2.283   0.707  11.979  0.0180  1.6714  0.0402
  803MPD2    C411828   2.168   0.631  12.027 -0.1562 -0.3340 -0.7095
  803MPD2    C511829   2.059   0.607  11.951 -0.5854 -0.7951  0.0243
  803MPD2     H11830   2.354   0.777  11.784  1.2047 -1.9496  1.0220
  803MPD2    H111831   2.156   0.621  12.135 -1.9450 -1.2709 -0.9939
  803MPD2    H211832   1.961   0.625  11.768  0.0392 -0.8099  0.5676
  803MPD2    H311833   1.966   0.564  11.984  0.6861 -2.8441  0.9118
  803MPD2     N11834   2.396   0.717  12.066  0.3182 -0.2808  0.0277
  803MPD2    H511835   2.384   0.674  12.157 -0.7718 -1.3616 -0.6111
  803MPD2    N111836   2.175   0.722  11.621 -0.0710  0.3588  0.1528
  803MPD2    H711837   2.252   0.785  11.600 -0.8369  1.0519 -0.5548
  804MPD2     C11838   2.036   1.569  16.940  0.7307  0.3060 -0.2572
  804MPD2    C111839   2.081   1.545  17.066 -0.2276 -0.2476 -0.5525
  804MPD2    C211840   2.161   1.640  17.123 -0.1128  0.0718 -0.1377
  804MPD2    C311841   2.197   1.753  17.056  0.0986  0.3644 -0.5268
  804MPD2    C411842   2.150   1.774  16.927  0.2144 -0.1625 -0.3903
  804MPD2    C511843   2.072   1.678  16.867 -0.5565  0.2234  0.5391
  804MPD2     H11844   2.206   1.624  17.220 -0.5026 -2.2619 -0.3532
  804MPD2    H111845   2.181   1.864  16.874 -0.4660  0.4448  0.2300
  804MPD2    H211846   1.980   1.497  16.881  1.6735  1.2689 -2.3455
  804MPD2    H311847   2.053   1.688  16.760 -1.1566 -1.7560  0.4622
  804MPD2     N11848   2.292   1.829  17.116 -0.4901  0.1467 -0.2548
  804MPD2    H511849   2.322   1.795  17.206  0.2372 -1.2973 -1.0478
  804MPD2    N111850   2.059   1.431  17.144 -0.2901  0.3317 -0.3397
  804MPD2    H711851   2.105   1.426  17.234  2.3393 -0.2093 -1.7278
  805MPD2     C11852   0.975   0.112  15.562 -0.2433 -0.2960  0.3933
  805MPD2    C111853   1.079   0.143  15.482 -0.1633 -0.2404 -0.2637
  805MPD2    C211854   1.203   0.147  15.538 -0.1651  0.0855  0.7069
  805MPD2    C311855   1.221   0.111  15.677  0.0192 -0.4195 -0.1229
  805MPD2    C411856   1.109   0.073  15.750 -0.4383  0.2498 -0.2956
  805MPD2    C511857   0.990   0.085  15.690 -0.1000 -0.7958  0.0040
  805MPD2     H11858   1.292   0.182  15.486  0.3220 -0.8454  0.9023
  805MPD2    H111859   1.113   0.053  15.857 -2.2385  1.2242 -0.0289
  805MPD2    H211860   0.874   0.103  15.524 -0.0876 -1.5626  0.2872
  805MPD2    H311861   0.900   0.071  15.748 -0.1092  0.7611  0.3598
  805MPD2     N11862   1.355   0.111  15.732 -0.2027  0.3721  0.4900
  805MPD2    H511863   1.432   0.135  15.671  0.3452  0.0397  1.0600
  805MPD2    N111864   1.063   0.161  15.342  0.1027 -0.1692  0.0159
  805MPD2    H711865   1.149   0.186  15.295 -0.5980  1.1634 -0.5448
  806MPD2     C11866   1.549   4.349   1.070  0.5337 -0.4248  0.8518
  806MPD2    C111867   1.667   4.295   1.032  0.1078  0.6377  0.0387
  806MPD2    C211868   1.720   4.325   0.909  0.0124 -0.6980  0.0076
  806MPD2    C311869   1.655   4.418   0.832 -0.6223 -0.0528  0.1183
  806MPD2    C411870   1.531   4.465   0.865 -0.1925  0.1954 -0.1917
  806MPD2    C511871   1.485   4.440   0.992  0.3539  0.5642 -0.0458
  806MPD2     H11872   1.806   4.273   0.867  1.6037  0.7424  1.5073
  806MPD2    H111873   1.480   4.539   0.805 -1.7557  0.8755  1.9541
  806MPD2    H211874   1.503   4.333   1.167 -0.1822 -1.0457  0.4131
  806MPD2    H311875   1.392   4.484   1.026 -0.6593 -0.1130 -1.9690
  806MPD2     N11876   1.722   4.457   0.716 -0.2643  0.2899 -0.0999
  806MPD2    H511877   1.815   4.418   0.709  0.7229  2.4656  0.8836
  806MPD2    N111878   1.732   4.202   1.122 -0.3215 -0.0551 -0.0133
  806MPD2    H711879   1.682   4.202   1.211 -0.0362  2.5053  0.1357
  807MPD2     C11880   1.576   3.642   1.666 -0.1955 -0.2811  0.9405
  807MPD2    C111881   1.712   3.667   1.653  0.5823 -0.7377  0.2424
  807MPD2    C211882   1.796   3.591   1.734 -0.3855 -0.0728  0.0275
  807MPD2    C311883   1.752   3.485   1.810  0.9072 -0.4522 -0.1062
  807MPD2    C411884   1.616   3.464   1.822 -0.3438  0.3286 -0.4492
  807MPD2    C511885   1.527   3.546   1.757 -0.1282  1.0358 -0.2318
  807MPD2     H11886   1.902   3.600   1.718 -0.3003 -0.2729  0.4930
  807MPD2    H111887   1.565   3.379   1.865  1.1539 -0.1844  0.3340
  807MPD2    H211888   1.497   3.701   1.622  1.4109  1.1710 -0.0112
  807MPD2    H311889   1.419   3.537   1.759  0.2142 -2.3688  2.1703
  807MPD2     N11890   1.842   3.396   1.866 -0.2466 -0.1776 -0.4265
  807MPD2    H511891   1.940   3.420   1.874 -0.4366  0.4837 -0.0969
  807MPD2    N111892   1.777   3.749   1.556  0.0277  0.5586  0.7656
  807MPD2    H711893   1.878   3.759   1.560  0.0270  0.0449  2.0268
  808MPD2     C11894   1.276   0.095   9.554  0.3299  0.2490  0.2104
  808MPD2    C111895   1.237   0.213   9.501  0.1725 -0.6134  0.1798
  808MPD2    C211896   1.320   0.318   9.505  0.2889 -0.1007 -0.2367
  808MPD2    C311897   1.439   0.322   9.582 -0.4357  0.7805  0.1407
  808MPD2    C411898   1.472   0.207   9.649  0.3461 -0.1259  0.4390
  808MPD2    C511899   1.394   0.095   9.622  0.0446  0.0288 -0.0650
  808MPD2     H11900   1.293   0.405   9.447  0.8838  0.9869  1.1121
  808MPD2    H111901   1.569   0.199   9.696 -0.3077 -0.2770  1.7471
  808MPD2    H211902   1.219   0.005   9.537 -1.7618  1.5210  0.4673
  808MPD2    H311903   1.428   4.725   9.660  0.1835  0.0284 -0.1921
  808MPD2     N11904   1.534   0.429   9.586 -0.6450 -0.0909 -0.0195
  808MPD2    H511905   1.599   0.427   9.664  1.1819  1.5347 -1.5261
  808MPD2    N111906   1.122   0.226   9.421  0.1401 -0.0592 -0.7836
  808MPD2    H711907   1.094   0.316   9.384 -0.5323  0.2548  0.4778
  809MPD2     C11908   2.459   0.527   9.380 -0.1601  0.3767 -0.9163
  809MPD2    C111909   2.401   0.481   9.497 -0.5816 -0.7303 -0.1676
  809MPD2    C211910   2.276   0.525   9.529  0.8188  0.0681  0.5083
  809MPD2    C311911   2.202   0.606   9.448 -0.0304 -0.3739  0.6398
  809MPD2    C411912   2.260   0.656   9.334 -1.0517 -0.4879 -1.0578
  809MPD2    C511913   2.387   0.615   9.302 -0.1780 -0.4290 -0.9802
  809MPD2     H11914   2.236   0.497   9.626  0.9646 -1.7294  0.0392
  809MPD2    H111915   2.210   0.725   9.267 -0.7081  0.3520 -0.4482
  809MPD2    H211916   2.562   0.507   9.351  0.2482 -0.6437  1.2277
  809MPD2    H311917   2.435   0.669   9.221  0.8287  0.1672  0.0172
  809MPD2     N11918   2.068   0.642   9.475  0.5657  0.3114 -0.2418
  809MPD2    H511919   2.023   0.703   9.408 -0.6064 -2.1284 -1.6739
  809MPD2    N111920   2.463   0.392   9.585 -0.2170 -0.9968 -0.2171
  809MPD2    H711921   2.409   0.370   9.669 -1.8950  3.1314 -0.2287
  810MPD2     C11922   1.689   0.260  10.204  0.6198 -0.1313 -0.0999
  810MPD2    C111923   1.560   0.300  10.174  0.6860  0.4705  0.2676
  810MPD2    C211924   1.512   0.421  10.214  0.7032 -0.1107  0.0265
  810MPD2    C311925   1.594   0.511  10.273  0.0315  0.1200 -0.2242
  810MPD2    C411926   1.729   0.482  10.281  0.0565 -0.0525 -0.4972
  810MPD2    C511927   1.778   0.357  10.246 -0.2642  0.1152 -0.4767
  810MPD2     H11928   1.407   0.446  10.218  1.0729  1.2811  0.9943
  810MPD2    H111929   1.791   0.565  10.311 -0.0357 -0.3142  0.4425
  810MPD2    H211930   1.728   0.159  10.192  2.4591  0.3362  1.9522
  810MPD2    H311931   1.882   0.328  10.249  0.0555  1.2399 -0.9188
  810MPD2     N11932   1.547   0.644  10.288 -0.1533  0.2981 -0.1959
  810MPD2    H511933   1.623   0.709  10.306 -0.3694  0.1666  1.1893
  810MPD2    N111934   1.492   0.196  10.110  0.6178 -0.1323  0.0331
  810MPD2    H711935   1.545   0.115  10.078 -0.2622 -0.6575 -0.0980
  811MPD2     C11936   0.678   0.209   9.720 -0.0972  0.1165  0.9291
  811MPD2    C111937   0.785   0.256   9.797  0.1617  0.0953  0.6079
  811MPD2    C211938   0.794   0.391   9.835  0.4676  0.6304 -1.2739
  811MPD2    C311939   0.702   0.480   9.793  0.3543 -0.3096 -0.0941
  811MPD2    C411940   0.597   0.438   9.712 -0.8113 -0.2907 -0.2639
  811MPD2    C511941   0.585   0.303   9.683  0.3119 -0.3706  0.3310
  811MPD2     H11942   0.875   0.432   9.894  2.1224 -2.0427 -1.6343
  811MPD2    H111943   0.532   0.513   9.669 -0.1459  0.4399 -0.0031
  811MPD2    H211944   0.676   0.101   9.708  1.5277  0.3976 -1.7794
  811MPD2    H311945   0.497   0.272   9.628  1.6609  0.6000 -2.3796
  811MPD2     N11946   0.737   0.619   9.812 -0.2429 -0.7561  0.6903
  811MPD2    H511947   0.805   0.644   9.884  3.5247 -0.4641 -2.9740
  811MPD2    N111948   0.886   0.158   9.828 -0.4244  0.2868  0.6876
  811MPD2    H711949   0.877   0.064   9.791  0.4169 -1.0830  3.9258
  812MPD2     C11950   0.711   0.744  12.464  0.0183  0.3869 -0.1701
  812MPD2    C111951   0.588   0.700  12.506 -0.4964 -0.2371 -0.3834
  812MPD2    C211952   0.568   0.567  12.558  0.1980  0.3737 -0.0976
  812MPD2    C311953   0.677   0.492  12.573  0.8782 -0.0620 -0.0654
  812MPD2    C411954   0.802   0.534  12.542  0.1989  0.3130  0.0931
  812MPD2    C511955   0.815   0.660  12.486  0.1435 -0.1169  0.4429
  812MPD2     H11956   0.470   0.526  12.581  0.9915  0.8709  4.1091
  812MPD2    H111957   0.880   0.459  12.547  0.1714  0.3805  1.3853
  812MPD2    H211958   0.724   0.837  12.411 -1.1575  0.5867 -0.1029
  812MPD2    H311959   0.905   0.703  12.443  1.1242  0.4476  3.0526
  812MPD2     N11960   0.654   0.362  12.638  0.6900  0.2719  0.5759
  812MPD2    H511961   0.560   0.326  12.644 -0.2029  2.0223 -2.9100
  812MPD2    N111962   0.478   0.773  12.455  0.5419 -0.3928 -0.0637
  812MPD2    H711963   0.503   0.848  12.391  1.4875 -0.9463 -0.3452
  813MPD2     C11964   4.094   2.218  12.343  0.0192  0.0715 -1.2311
  813MPD2    C111965   4.079   2.353  12.369 -0.5795 -0.2679 -1.0154
  813MPD2    C211966   4.045   2.393  12.501 -0.1175 -0.5015  0.4267
  813MPD2    C311967   4.041   2.296  12.603 -0.9655 -0.2488 -0.5046
  813MPD2    C411968   4.053   2.162  12.576 -0.3756  0.5692  0.7129
  813MPD2    C511969   4.069   2.129  12.441 -0.0437  0.0985 -0.1016
  813MPD2     H11970   4.031   2.495  12.534 -1.3251 -0.5564  0.0820
  813MPD2    H111971   4.061   2.089  12.655 -2.4369 -0.3161  0.1034
  813MPD2    H211972   4.118   2.184  12.243  0.8408  0.0890 -1.0398
  813MPD2    H311973   4.075   2.022  12.424 -1.3816 -0.0746  0.4411
  813MPD2     N11974   4.026   2.344  12.735 -0.2640  0.1757  0.3378
  813MPD2    H511975   4.043   2.443  12.745 -0.0774  0.1381  0.3945
  813MPD2    N111976   4.116   2.445  12.264 -0.0454  0.9642  0.2853
  813MPD2    H711977   4.160   2.411  12.179 -0.5433  0.5666  0.1848
  814MPD2     C11978   4.206   3.528  12.266  0.3827  0.4929  0.4471
  814MPD2    C111979   4.202   3.607  12.152 -0.4602  0.5351  0.4245
  814MPD2    C211980   4.259   3.733  12.153  0.4752 -0.0790  0.2101
  814MPD2    C311981   4.323   3.782  12.274  0.2528  0.0705 -0.7095
  814MPD2    C411982   4.339   3.697  12.381  0.2821 -0.2054 -0.0038
  814MPD2    C511983   4.275   3.573  12.370  0.8530  0.0128  0.5773
  814MPD2     H11984   4.265   3.802  12.070 -0.0769 -0.4599 -0.1452
  814MPD2    H111985   4.401   3.729  12.464 -0.3365  0.4579  0.2075
  814MPD2    H211986   4.182   3.423  12.265 -1.8802  1.0174  0.1505
  814MPD2    H311987   4.292   3.498  12.447  0.6815 -0.1431  0.4620
  814MPD2     N11988   4.400   3.908  12.275  0.4845  0.1392 -0.4383
  814MPD2    H511989   4.451   3.925  12.361  0.5282 -1.2969 -0.1662
  814MPD2    N111990   4.141   3.560  12.038  0.7421  0.7952  0.4782
  814MPD2    H711991   4.159   3.616  11.955 -1.5345  2.0028  0.7949
  815MPD2     C11992   0.278   2.142  11.236  0.2835  0.2226 -0.7126
  815MPD2    C111993   0.283   2.015  11.297 -0.0362  0.4891 -0.5503
  815MPD2    C211994   0.202   2.002  11.410  0.6132  0.1281  0.2654
  815MPD2    C311995   0.108   2.095  11.451 -0.4478 -0.5780 -0.2512
  815MPD2    C411996   0.108   2.217  11.395 -0.4804 -0.0060  0.0713
  815MPD2    C511997   0.197   2.238  11.296  0.4159  0.9556  0.0111
  815MPD2     H11998   0.201   1.905  11.457  0.3779  0.4185  0.8601
  815MPD2    H111999   0.046   2.304  11.415 -0.5941 -0.0861  0.0727
  815MPD2    H212000   0.348   2.162  11.155 -0.6928 -2.1983 -2.1868
  815MPD2    H312001   0.210   2.340  11.261 -0.5168  0.7330 -0.9928
  815MPD2     N12002   0.030   2.053  11.561  0.6399  0.0759 -0.4517
  815MPD2    H512003   0.044   1.962  11.603 -1.1997 -0.0192 -0.0117
  815MPD2    N112004   0.355   1.911  11.238  0.2014 -0.4165 -0.2275
  815MPD2    H712005   0.381   1.915  11.139 -0.6085 -1.5514 -0.4876
  816MPD2     C12006   0.528   0.824  17.190  0.1587 -0.9853  0.5574
  816MPD2    C112007   0.529   0.931  17.102  0.4870 -0.4179 -0.0829
  816MPD2    C212008   0.632   0.927  17.012 -0.5400 -0.2721 -0.6463
  816MPD2    C312009   0.723   0.822  17.011 -0.1461 -0.3191 -0.3981
  816MPD2    C412010   0.727   0.728  17.109  0.4284 -0.5612  0.5268
  816MPD2    C512011   0.622   0.729  17.195 -1.0221  0.4198 -0.3016
  816MPD2     H12012   0.648   1.001  16.935  0.0676  0.0542 -0.2028
  816MPD2    H112013   0.810   0.658  17.113  2.0884  1.4371  0.6406
  816MPD2    H212014   0.457   0.819  17.271 -0.8891 -0.1412 -0.3126
  816MPD2    H312015   0.612   0.647  17.265 -0.0554  0.9146  0.4157
  816MPD2     N12016   0.823   0.837  16.911  0.0840  0.3218 -0.7710
  816MPD2    H512017   0.814   0.925  16.862  0.3567  0.8045  0.0428
  816MPD2    N112018   0.421   1.030  17.104  0.0955 -0.1374  0.2351
  816MPD2    H712019   0.355   1.029  17.181 -1.1471  0.6621 -0.8207
  817MPD2     C12020   3.697   2.016   9.284  0.1915 -0.2558  0.4354
  817MPD2    C112021   3.659   1.894   9.231  0.0871 -0.4027  0.6303
  817MPD2    C212022   3.555   1.883   9.146 -1.0218  0.0501 -0.2171
  817MPD2    C312023   3.466   1.986   9.130 -0.4730 -0.4040 -0.5293
  817MPD2    C412024   3.495   2.109   9.188  0.3970  0.8570 -0.7721
  817MPD2    C512025   3.609   2.118   9.268 -1.1183  0.5243 -0.2802
  817MPD2     H12026   3.526   1.790   9.099 -0.7905 -0.7530  1.2287
  817MPD2    H112027   3.432   2.196   9.175  0.0782  0.9784  1.4720
  817MPD2    H212028   3.790   2.028   9.338  1.6305 -0.4775 -1.9507
  817MPD2    H312029   3.634   2.207   9.324  2.3805 -1.4649  1.2806
  817MPD2     N12030   3.359   1.972   9.039  0.2161 -0.1725  0.0946
  817MPD2    H512031   3.342   1.884   8.991 -1.7234 -0.0827  0.6459
  817MPD2    N112032   3.732   1.771   9.250 -0.7572  0.1829  0.2072
  817MPD2    H712033   3.713   1.695   9.186  0.2183 -0.2904  0.4819
  818MPD2     C12034   3.572   2.850  10.024  0.7314 -0.5501  0.0675
  818MPD2    C112035   3.465   2.784  10.075 -0.7157  0.3008 -0.7355
  818MPD2    C212036   3.471   2.648  10.066 -1.1258  0.3306  0.3292
  818MPD2    C312037   3.583   2.581  10.006  0.6844  0.4536  0.1769
  818MPD2    C412038   3.692   2.654   9.964  0.1576  0.2386 -0.5221
  818MPD2    C512039   3.686   2.786   9.978  0.4994 -0.4540  0.1969
  818MPD2     H12040   3.390   2.583  10.096 -2.9787  2.4162 -0.1922
  818MPD2    H112041   3.773   2.603   9.913  0.1781  0.6915 -0.9352
  818MPD2    H212042   3.578   2.958  10.036  2.0782 -0.3034 -2.8278
  818MPD2    H312043   3.773   2.836   9.937 -0.1010  0.2986 -0.1485
  818MPD2     N12044   3.588   2.437   9.992 -0.3754  0.4086 -0.1646
  818MPD2    H512045   3.681   2.405   9.969 -0.4913  1.6192 -2.2903
  818MPD2    N112046   3.361   2.844  10.150  0.5261 -0.1799 -1.0129
  818MPD2    H712047   3.300   2.778  10.197 -2.6073  0.7881 -3.7327
  819MPD2     C12048   1.985   4.639  15.819  0.5938  0.9129  0.0407
  819MPD2    C112049   1.963   4.506  15.786 -0.4887 -0.7760 -0.2196
  819MPD2    C212050   2.024   4.414  15.873 -0.5142 -0.2164  0.1039
  819MPD2    C312051   2.089   4.449  15.987  0.5988 -0.1631 -0.0620
  819MPD2    C412052   2.093   4.581  16.026  0.3162 -0.1359 -0.7958
  819MPD2    C512053   2.049   4.675  15.939 -0.0432  0.1091  0.1863
  819MPD2     H12054   2.022   4.308  15.852 -1.6580 -0.3119  0.7180
  819MPD2    H112055   2.130   4.609  16.124  0.1351 -0.8184 -0.5268
  819MPD2    H212056   1.948   4.721  15.759  2.6887  1.4844 -0.4319
  819MPD2    H312057   2.058   0.057  15.955  2.5820  0.2803 -2.2932
  819MPD2     N12058   2.159   4.347  16.058  0.3135 -0.1087  0.2650
  819MPD2    H512059   2.166   4.258  16.011  1.9281  1.5876 -2.6982
  819MPD2    N112060   1.893   4.467  15.673 -0.0415 -0.3287 -0.5474
  819MPD2    H712061   1.866   4.537  15.605 -0.9200  0.3095  0.4792
  820MPD2     C12062   1.474   4.562  14.750 -0.1723 -0.4165  0.3873
  820MPD2    C112063   1.440   4.598  14.876 -0.4787  0.4021  1.1714
  820MPD2    C212064   1.505   4.548  14.989 -0.3791 -0.6798 -0.2699
  820MPD2    C312065   1.595   4.446  14.975  0.0271  0.0338 -0.5746
  820MPD2    C412066   1.597   4.388  14.849  0.2433  0.5700 -0.3041
  820MPD2    C512067   1.550   4.452  14.738 -0.6667  0.1144 -0.4105
  820MPD2     H12068   1.479   4.573  15.091 -0.9084  2.6521 -1.2411
  820MPD2    H112069   1.646   4.291  14.846 -0.2956  0.3453 -1.7835
  820MPD2    H212070   1.429   4.609  14.663  0.5658  0.5058  0.5063
  820MPD2    H312071   1.576   4.438  14.634 -2.4319  1.7722 -1.0586
  820MPD2     N12072   1.654   4.377  15.084 -0.2115 -0.3784 -0.3696
  820MPD2    H512073   1.696   4.290  15.054  2.2913  1.9871 -3.6704
  820MPD2    N112074   1.328   4.688  14.889 -0.5842 -0.2755 -0.3077
  820MPD2    H712075   1.275   4.698  14.803  1.9227 -3.1721 -2.2177
  821MPD2     C12076   2.319   0.745  13.113 -0.2699  0.3612 -0.9669
  821MPD2    C112077   2.412   0.699  13.201 -0.3623 -0.1833 -0.3676
  821MPD2    C212078   2.549   0.710  13.173  0.2025 -0.0472 -0.5861
  821MPD2    C312079   2.592   0.773  13.057  0.3002 -0.0863  0.3596
  821MPD2    C412080   2.496   0.818  12.968  0.7397 -0.0015 -0.4353
  821MPD2    C512081   2.360   0.790  12.997  0.8602  0.6881  0.9754
  821MPD2     H12082   2.620   0.669  13.244 -0.0920 -0.7482 -0.6957
  821MPD2    H112083   2.532   0.864  12.876  1.7767 -0.4556 -0.2613
  821MPD2    H212084   2.211   0.744  13.122 -0.0690 -1.0111  1.1746
  821MPD2    H312085   2.291   0.822  12.920  2.8390  0.7579 -0.7655
  821MPD2     N12086   2.725   0.806  13.029 -0.3345  0.2361  0.3343
  821MPD2    H512087   2.752   0.866  12.952 -1.3351  0.4873  0.1907
  821MPD2    N112088   2.379   0.666  13.334  0.6499  0.2583 -0.4175
  821MPD2    H712089   2.452   0.649  13.402 -0.4540 -0.6381  0.5629
  822MPD2     C12090   2.831   0.806  15.668 -0.1345  0.1556  0.8941
  822MPD2    C112091   2.820   0.798  15.808  0.7407  0.1855  0.4316
  822MPD2    C212092   2.741   0.885  15.878 -0.2180  0.0882  0.6756
  822MPD2    C312093   2.664   0.975  15.813  0.4305  1.2092 -0.2282
  822MPD2    C412094   2.665   0.983  15.676  0.1728 -0.0400  0.6051
  822MPD2    C512095   2.747   0.894  15.605  0.2560 -0.1365  0.4296
  822MPD2     H12096   2.744   0.880  15.986 -2.7319  1.6904  0.8226
  822MPD2    H112097   2.606   1.055  15.621  1.1489  0.9263  0.8254
  822MPD2    H212098   2.877   0.727  15.610 -0.1998  0.5648  0.2844
  822MPD2    H312099   2.747   0.897  15.497  0.5738  0.0611  0.4380
  822MPD2     N12100   2.577   1.052  15.896  0.0758 -0.0567  0.4695
  822MPD2    H512101   2.565   1.040  15.996  0.9845 -1.3023  0.4216
  822MPD2    N112102   2.890   0.712  15.889 -0.2681 -0.2705 -0.8784
  822MPD2    H712103   2.873   0.718  15.989  1.4553 -0.3547 -0.5820
  823MPD2     C12104   2.196   1.258  16.619 -0.4368  0.9001 -0.0190
  823MPD2    C112105   2.297   1.209  16.540  0.4850 -0.2284  0.5043
  823MPD2    C212106   2.406   1.140  16.599  0.4898 -0.6832 -0.3011
  823MPD2    C312107   2.415   1.116  16.734 -0.3809  0.1924  0.1461
  823MPD2    C412108   2.311   1.163  16.810 -0.3053  0.0478 -0.1350
  823MPD2    C512109   2.206   1.231  16.755  0.2353 -0.3903 -0.0104
  823MPD2     H12110   2.486   1.129  16.527  1.0676  0.3306  0.1965
  823MPD2    H112111   2.314   1.146  16.917  1.0724  2.1445  0.1655
  823MPD2    H212112   2.111   1.318  16.590 -0.6346  0.5437 -0.1709
  823MPD2    H312113   2.127   1.263  16.821  0.9420 -1.9480  1.5939
  823MPD2     N12114   2.519   1.048  16.798  0.2057 -0.6356  0.2847
  823MPD2    H512115   2.511   1.041  16.899  0.5565 -1.4834  0.2602
  823MPD2    N112116   2.293   1.240  16.407  0.4970  0.4445  0.6052
  823MPD2    H712117   2.228   1.310  16.374  0.6521 -0.4446 -1.6692
  824MPD2     C12118   3.233   4.695  15.982 -0.1793  0.2012 -0.6110
  824MPD2    C112119   3.261   0.056  15.879  0.2597  0.1045  0.1985
  824MPD2    C212120   3.286   0.015  15.750  0.1606 -0.3253 -0.4389
  824MPD2    C312121   3.312   4.607  15.732 -0.0977 -0.5182  0.3220
  824MPD2    C412122   3.300   4.518  15.841  0.0390 -0.1797  0.6381
  824MPD2    C512123   3.259   4.561  15.969  0.8775 -0.2188 -0.7830
  824MPD2     H12124   3.284   0.081  15.664 -1.2878  0.0935 -0.0856
  824MPD2    H112125   3.319   4.412  15.827 -0.4855 -0.4802  2.2641
  824MPD2    H212126   3.199   4.725  16.080 -1.2508 -2.0396 -0.3069
  824MPD2    H312127   3.245   4.488  16.048  2.5172 -0.0784 -0.3570
  824MPD2     N12128   3.363   4.563  15.604  0.2378  0.5188 -0.1445
  824MPD2    H512129   3.384   4.638  15.538  0.8323 -0.1998 -0.7707
  824MPD2    N112130   3.235   0.193  15.909  0.3412  0.5169  0.4193
  824MPD2    H712131   3.216   0.255  15.831 -0.6833  0.4628  0.6296
  825MPD2     C12132   3.688   4.567  14.815  0.0425 -0.3558  0.2675
  825MPD2    C112133   3.644   4.631  14.927 -0.2776 -0.2762 -0.4183
  825MPD2    C212134   3.627   0.044  14.929  0.5159  0.1550  0.2084
  825MPD2    C312135   3.666   0.116  14.811 -0.1522  0.0501 -0.5627
  825MPD2    C412136   3.718   0.048  14.705  0.8205  0.3134  0.4882
  825MPD2    C512137   3.718   4.640  14.702 -0.3147 -0.2223  0.3051
  825MPD2     H12138   3.592   0.096  15.017  1.5023 -0.7874  1.1500
  825MPD2    H112139   3.744   0.100  14.614 -1.6197  1.4521  0.4365
  825MPD2    H212140   3.705   4.460  14.815  1.0576 -0.1893 -2.4280
  825MPD2    H312141   3.744   4.585  14.612  1.9912  1.9571 -0.3652
  825MPD2     N12142   3.670   0.256  14.798  0.1323  0.1106 -0.2608
  825MPD2    H512143   3.726   0.289  14.720  0.8083  0.0341  0.1892
  825MPD2    N112144   3.623   4.550  15.042  0.4652 -0.0845  0.6156
  825MPD2    H712145   3.622   4.451  15.023  0.9224 -0.0542  0.4348
  826MPD2     C12146   3.549   0.270  13.564 -0.1022  0.2640  0.1024
  826MPD2    C112147   3.452   0.272  13.462 -0.2087 -0.3314 -1.0990
  826MPD2    C212148   3.352   0.372  13.461 -0.1754  0.2454 -0.3034
  826MPD2    C312149   3.353   0.468  13.565 -0.5871  0.3598 -0.3246
  826MPD2    C412150   3.461   0.463  13.653 -0.2634  0.1668 -0.9284
  826MPD2    C512151   3.558   0.361  13.656  0.4021  0.1743 -0.1406
  826MPD2     H12152   3.271   0.356  13.390  0.4712  1.1303 -1.2339
  826MPD2    H112153   3.455   0.535  13.734  1.5413 -0.0753 -0.6003
  826MPD2    H212154   3.633   0.201  13.573 -1.4127 -1.0615  2.0893
  826MPD2    H312155   3.633   0.362  13.734  1.2214 -0.5091 -0.9249
  826MPD2     N12156   3.253   0.563  13.594 -0.2407 -0.4424  0.5612
  826MPD2    H512157   3.247   0.602  13.688  2.2762  2.8243 -0.6426
  826MPD2    N112158   3.454   0.155  13.372 -0.6983  0.3450  0.6656
  826MPD2    H712159   3.522   0.086  13.401 -1.1923  0.0917  1.2140
  827MPD2     C12160   3.682   0.676  10.153 -0.0605  0.2086 -0.6366
  827MPD2    C112161   3.812   0.697  10.117 -0.4270  0.5408 -0.3616
  827MPD2    C212162   3.858   0.649   9.998  0.6396  0.1796 -0.0036
  827MPD2    C312163   3.775   0.593   9.901  0.5552 -0.2456 -0.2464
  827MPD2    C412164   3.642   0.597   9.934  0.0984 -0.0016  0.1262
  827MPD2    C512165   3.600   0.624  10.063  0.3435  0.1774  0.3566
  827MPD2     H12166   3.963   0.667   9.976  0.5403 -0.3538 -0.9256
  827MPD2    H112167   3.563   0.579   9.862  1.1976 -0.9542 -0.8345
  827MPD2    H212168   3.648   0.715  10.248  1.2726  0.0176 -0.0767
  827MPD2    H312169   3.494   0.615  10.087  0.4156  0.0749  0.6384
  827MPD2     N12170   3.820   0.563   9.769 -0.1776 -0.2283  0.3151
  827MPD2    H512171   3.920   0.570   9.752 -0.3434  1.1412 -0.0729
  827MPD2    N112172   3.899   0.764  10.220  0.1392 -0.0548  0.6604
  827MPD2    H712173   3.849   0.780  10.308 -0.4742 -0.9797  0.4761
  828MPD2     C12174   2.469   1.503  11.740 -0.2366  0.0145  0.0619
  828MPD2    C112175   2.374   1.410  11.704 -0.1738  0.0274 -0.3549
  828MPD2    C212176   2.385   1.338  11.592  0.8481 -0.3216  0.0606
  828MPD2    C312177   2.493   1.352  11.514  0.0569  0.2685  0.1369
  828MPD2    C412178   2.592   1.432  11.554 -0.2361  0.7080 -0.6694
  828MPD2    C512179   2.582   1.510  11.660  0.1944  0.5297 -0.4725
  828MPD2     H12180   2.307   1.273  11.556  1.6413 -0.8805 -0.6540
  828MPD2    H112181   2.676   1.434  11.486  2.0204  2.1194  2.1710
  828MPD2    H212182   2.463   1.555  11.835  0.0714  1.5106 -0.7353
  828MPD2    H312183   2.661   1.581  11.682  0.2563  0.4954 -0.5848
  828MPD2     N12184   2.508   1.299  11.384  0.7368 -0.2084  0.0456
  828MPD2    H512185   2.589   1.327  11.329  0.0901  0.8631 -0.3609
  828MPD2    N112186   2.263   1.368  11.781 -0.1117 -0.0070  0.2820
  828MPD2    H712187   2.193   1.306  11.744  1.4409 -0.7641 -1.3787
  829MPD2     C12188   1.628   1.322  11.286 -0.0676 -0.6787  0.0614
  829MPD2    C112189   1.555   1.340  11.398 -0.6399  0.1026 -0.6799
  829MPD2    C212190   1.614   1.349  11.523  0.1429  0.2017 -0.0433
  829MPD2    C312191   1.752   1.331  11.527 -0.1557  0.8202  0.0566
  829MPD2    C412192   1.817   1.291  11.413  0.3996  0.0235  0.6813
  829MPD2    C512193   1.757   1.278  11.296  0.0310  0.0313 -0.3250
  829MPD2     H12194   1.551   1.366  11.610  0.8683 -3.1299  1.1375
  829MPD2    H112195   1.924   1.275  11.412  0.4270  0.3531 -1.8084
  829MPD2    H212196   1.582   1.319  11.187  0.8686  0.4056 -0.4057
  829MPD2    H312197   1.811   1.254  11.205  1.9377 -1.7985  1.3018
  829MPD2     N12198   1.830   1.337  11.646 -0.3142  0.3948  0.3969
  829MPD2    H512199   1.929   1.318  11.633  0.1026  2.1516  0.9662
  829MPD2    N112200   1.416   1.369  11.372 -0.3769 -0.0924  0.0329
  829MPD2    H712201   1.390   1.387  11.276  0.9874  1.7874  0.0143
  830MPD2     C12202   2.373   3.920  15.675  0.4930  0.2759 -0.9235
  830MPD2    C112203   2.472   3.995  15.731  0.0239 -0.4357 -0.2304
  830MPD2    C212204   2.561   4.053  15.644 -0.3364 -0.1216 -0.1120
  830MPD2    C312205   2.557   4.036  15.504 -0.0201  0.3165  0.0084
  830MPD2    C412206   2.451   3.955  15.457 -0.3944  1.0415 -0.1698
  830MPD2    C512207   2.365   3.899  15.538 -0.2415 -0.0184  0.4301
  830MPD2     H12208   2.636   4.121  15.684  0.0806  0.1107 -1.2975
  830MPD2    H112209   2.432   3.920  15.356 -0.2993  1.1739 -0.2335
  830MPD2    H212210   2.296   3.878  15.739  3.0029 -4.3394 -0.9838
  830MPD2    H312211   2.278   3.848  15.498  0.1513 -0.6815  0.4306
  830MPD2     N12212   2.655   4.089  15.408  0.4591 -0.3424 -0.3634
  830MPD2    H512213   2.620   4.087  15.313  0.4633  0.4192 -0.3815
  830MPD2    N112214   2.465   4.029  15.871 -0.1410 -0.4190  0.3743
  830MPD2    H712215   2.382   3.998  15.920 -1.7576 -0.3923 -2.3943
  831MPD2     C12216   2.808   1.218  16.137  0.1738 -0.5687  0.4376
  831MPD2    C112217   2.882   1.104  16.112  0.9852 -0.3401 -0.5724
  831MPD2    C212218   2.854   0.991  16.185 -0.9081 -0.1900 -0.1289
  831MPD2    C312219   2.759   0.991  16.282 -0.3074  1.0789 -0.8219
  831MPD2    C412220   2.699   1.111  16.318 -0.0112 -0.2006  0.8865
  831MPD2    C512221   2.730   1.221  16.246  0.4131 -0.2479  0.4996
  831MPD2     H12222   2.911   0.904  16.155  0.8733  1.4713 -1.5908
  831MPD2    H112223   2.626   1.118  16.398  0.3575 -1.5793  1.3370
  831MPD2    H212224   2.814   1.309  16.080  2.1164  0.3627  2.1502
  831MPD2    H312225   2.689   1.318  16.270 -0.7999 -0.5711 -0.2877
  831MPD2     N12226   2.713   0.876  16.341 -0.4200 -0.7366 -0.2701
  831MPD2    H512227   2.672   0.889  16.432 -1.3286  0.3119 -0.8266
  831MPD2    N112228   2.956   1.101  15.991  0.2289  0.5841  0.3145
  831MPD2    H712229   2.923   1.166  15.921  0.6288  0.3928 -0.0497
  832MPD2     C12230   1.072   2.020  16.941  0.9084  0.1773  0.4696
  832MPD2    C112231   1.032   2.153  16.935 -0.3844  0.3717  0.4596
  832MPD2    C212232   0.903   2.189  16.888  0.5826 -0.6665  0.2789
  832MPD2    C312233   0.815   2.085  16.851 -0.6977 -0.1772  0.5288
  832MPD2    C412234   0.864   1.957  16.861  0.9155  0.7426 -0.8680
  832MPD2    C512235   0.990   1.927  16.905  0.1593 -0.3984 -0.1796
  832MPD2     H12236   0.877   2.293  16.882 -0.5973 -0.9754  0.1591
  832MPD2    H112237   0.797   1.876  16.833  0.7322  0.4377  0.4533
  832MPD2    H212238   1.174   1.993  16.966  0.6160  0.1066  1.5988
  832MPD2    H312239   1.022   1.823  16.910 -1.4005 -0.8825 -0.0763
  832MPD2     N12240   0.681   2.098  16.809  0.3745 -0.2200  0.0090
  832MPD2    H512241   0.634   2.013  16.782  2.7145 -1.6009  0.3140
  832MPD2    N112242   1.131   2.252  16.983 -0.3506  0.0748  0.8331
  832MPD2    H712243   1.207   2.218  17.041 -1.3152 -1.6898  1.0374
  833MPD2     C12244   2.805   4.124  12.590 -0.7562 -0.1712 -0.0000
  833MPD2    C112245   2.813   4.210  12.484 -0.7146  0.1217 -0.7846
  833MPD2    C212246   2.893   4.183  12.378  0.1760 -0.3890 -0.1243
  833MPD2    C312247   2.965   4.071  12.383  0.6767  0.4718  0.0213
  833MPD2    C412248   2.964   3.985  12.491 -0.0207 -0.5658  0.5713
  833MPD2    C512249   2.883   4.011  12.595 -0.5339 -0.7707  0.1420
  833MPD2     H12250   2.899   4.243  12.289 -0.3850  0.3543  0.3352
  833MPD2    H112251   3.024   3.895  12.497 -1.0216 -1.2050  0.9595
  833MPD2    H212252   2.760   4.151  12.685 -1.4368 -0.8034 -0.1409
  833MPD2    H312253   2.875   3.950  12.685 -0.9470 -1.6021 -0.4633
  833MPD2     N12254   3.051   4.056  12.276 -0.1106  0.0823 -0.0904
  833MPD2    H512255   3.044   4.119  12.197 -0.0519  1.0751  0.6865
  833MPD2    N112256   2.722   4.317  12.483  0.0728  0.2935  0.2238
  833MPD2    H712257   2.661   4.332  12.563  0.8175 -0.2646  0.9076
  834MPD2     C12258   2.686   3.385  11.815  0.4812  0.0595 -0.1012
  834MPD2    C112259   2.780   3.426  11.726 -0.4710 -0.1769  0.0210
  834MPD2    C212260   2.878   3.521  11.761  0.3600  0.4847  0.4271
  834MPD2    C312261   2.878   3.574  11.884  0.0109 -0.0339  0.3771
  834MPD2    C412262   2.785   3.533  11.974 -0.9442 -0.6848 -0.3998
  834MPD2    C512263   2.688   3.444  11.938  0.2264 -0.2465  0.3900
  834MPD2     H12264   2.953   3.545  11.687 -0.4615 -2.5721 -1.3758
  834MPD2    H112265   2.777   3.567  12.076 -0.6838 -1.0394 -0.2610
  834MPD2    H212266   2.617   3.304  11.793  0.7147  0.3450 -1.8563
  834MPD2    H312267   2.623   3.416  12.020 -0.6137  0.0374 -0.1765
  834MPD2     N12268   2.959   3.680  11.929 -0.5064 -0.1233 -0.3591
  834MPD2    H512269   2.941   3.718  12.021  0.4523 -1.2069  0.2797
  834MPD2    N112270   2.776   3.363  11.598 -0.0553 -0.3734 -0.7976
  834MPD2    H712271   2.703   3.293  11.589  0.2229 -0.8386  0.6947
  835MPD2     C12272   3.136   0.979  10.841  0.2464  0.4419 -0.0863
  835MPD2    C112273   3.025   1.062  10.866 -0.1518 -0.0951  0.5450
  835MPD2    C212274   3.043   1.160  10.971  0.1508 -0.6971 -0.4897
  835MPD2    C312275   3.145   1.148  11.059 -0.6574 -0.1615  0.1220
  835MPD2    C412276   3.248   1.056  11.042 -1.1475 -0.7939 -0.3652
  835MPD2    C512277   3.240   0.974  10.929 -0.4131  0.7548 -0.6938
  835MPD2     H12278   2.965   1.232  10.993  0.0991 -0.4773 -1.4016
  835MPD2    H112279   3.337   1.047  11.102 -0.5087  1.0002 -1.0250
  835MPD2    H212280   3.137   0.907  10.759 -0.3607  1.2818 -0.8286
  835MPD2    H312281   3.328   0.914  10.911 -0.4673  0.3108  0.5032
  835MPD2     N12282   3.163   1.225  11.173  0.0196  0.7788 -0.4874
  835MPD2    H512283   3.230   1.178  11.234 -1.0111 -1.7752 -1.3461
  835MPD2    N112284   2.904   1.068  10.792  0.7454  0.2213  0.2001
  835MPD2    H712285   2.831   1.129  10.827 -0.1588 -0.4628 -0.5127
  836MPD2     C12286   3.139   1.904  11.814  0.6588 -0.6028  0.0382
  836MPD2    C112287   3.071   1.787  11.778 -0.3972  0.7263 -0.4716
  836MPD2    C212288   2.970   1.737  11.862  0.8613  0.2358 -0.0482
  836MPD2    C312289   2.942   1.794  11.984 -0.3757 -0.4450  0.0201
  836MPD2    C412290   3.026   1.893  12.024 -0.2170  0.7356 -0.4366
  836MPD2    C512291   3.116   1.948  11.938 -0.1791 -0.0123 -0.2148
  836MPD2     H12292   2.913   1.649  11.837  2.1138 -0.7126  0.4065
  836MPD2    H112293   3.011   1.938  12.122  0.5758 -2.1422  1.0008
  836MPD2    H212294   3.210   1.957  11.750  0.2405 -1.3931 -1.0697
  836MPD2    H312295   3.182   2.026  11.976  3.4239 -2.0939 -2.2039
  836MPD2     N12296   2.860   1.735  12.084 -0.3068  0.3472  0.4935
  836MPD2    H512297   2.887   1.761  12.178 -0.2547 -0.5309  0.7203
  836MPD2    N112298   3.101   1.736  11.651 -0.2276  0.9607  1.0777
  836MPD2    H712299   3.169   1.788  11.597  0.7501 -1.2045  0.2334
  837MPD2     C12300   1.282   1.170  10.025 -0.4185 -0.3114 -0.0245
  837MPD2    C112301   1.177   1.208   9.941 -0.3569  0.3475  0.0106
  837MPD2    C212302   1.168   1.342   9.918  0.2151  0.4633  0.2443
  837MPD2    C312303   1.255   1.433   9.982  0.0649 -0.3384  0.1212
  837MPD2    C412304   1.356   1.393  10.068 -0.1180 -0.1078 -0.2727
  837MPD2    C512305   1.378   1.261  10.088  0.2910  0.8775 -0.0464
  837MPD2     H12306   1.085   1.370   9.854  0.1799  1.3414  0.6712
  837MPD2    H112307   1.424   1.468  10.109  0.4170  0.4951 -2.2337
  837MPD2    H212308   1.307   1.066  10.045 -1.2510 -0.0538  2.3749
  837MPD2    H312309   1.461   1.223  10.146 -1.4822 -1.0043  1.2406
  837MPD2     N12310   1.230   1.567   9.952  0.1498  0.5145 -0.3142
  837MPD2    H512311   1.160   1.582   9.879 -1.6759 -1.5907  1.0442
  837MPD2    N112312   1.079   1.120   9.886  0.2412  0.2103  0.0830
  837MPD2    H712313   1.010   1.179   9.840 -1.5713 -1.5229  0.5679
  838MPD2     C12314   3.961   4.666  11.934 -0.1777 -1.2604 -0.6762
  838MPD2    C112315   3.936   4.526  11.946  0.0188  0.3829  0.2185
  838MPD2    C212316   3.804   4.475  11.965  0.3464 -0.4347  0.1064
  838MPD2    C312317   3.701   4.571  11.974  0.0805  0.2040  0.8564
  838MPD2    C412318   3.730   4.702  11.975  0.3731  0.5527 -0.0135
  838MPD2    C512319   3.855   0.026  11.948 -0.0516  0.0538  0.7269
  838MPD2     H12320   3.771   4.371  11.964  0.1714 -0.3842  0.3185
  838MPD2    H112321   3.659   0.055  12.000 -0.7210 -0.6764  0.7816
  838MPD2    H212322   4.063   4.699  11.914 -0.6688  0.6273 -0.0427
  838MPD2    H312323   3.876   0.131  11.961  1.2978 -0.1600  0.2516
  838MPD2     N12324   3.567   4.523  11.970  0.2964 -0.2079  0.1624
  838MPD2    H512325   3.560   4.422  11.975  1.3426 -0.2628  0.4935
  838MPD2    N112326   4.038   4.433  11.931  0.3836 -0.4921  0.4199
  838MPD2    H712327   4.025   4.337  11.960  0.1082 -0.5665  0.0465
  839MPD2     C12328   3.646   4.087  11.521 -0.0560 -0.1163  0.4577
  839MPD2    C112329   3.737   3.984  11.517  0.1182  0.3015  0.7373
  839MPD2    C212330   3.867   4.003  11.565  0.2951 -0.0627 -0.2045
  839MPD2    C312331   3.898   4.121  11.628  0.1693  0.0025 -0.2275
  839MPD2    C412332   3.800   4.223  11.630  0.6619  0.4193 -0.0430
  839MPD2    C512333   3.678   4.207  11.579  0.3317 -0.3359  0.4280
  839MPD2     H12334   3.936   3.918  11.563  0.0876 -0.1736 -2.1415
  839MPD2    H112335   3.822   4.321  11.672 -1.4712  1.1804 -0.7107
  839MPD2    H212336   3.549   4.077  11.473 -0.4227  1.2818  0.9012
  839MPD2    H312337   3.607   4.289  11.574  0.7406 -0.0091 -0.0768
  839MPD2     N12338   4.027   4.148  11.686 -0.6354 -0.6709 -0.1962
  839MPD2    H512339   4.040   4.240  11.724  0.1814 -0.3134 -1.3414
  839MPD2    N112340   3.700   3.860  11.462  0.1821 -0.0159 -0.0437
  839MPD2    H712341   3.766   3.783  11.467  0.5450  0.3779  1.0966
  840MPD2     C12342   4.306   1.394  10.159 -0.1885  0.6845 -0.5317
  840MPD2    C112343   4.298   1.359  10.295  0.3989 -0.4800  0.1877
  840MPD2    C212344   4.370   1.426  10.393  0.4826 -0.3128  0.2287
  840MPD2    C312345   4.448   1.534  10.358  0.6043 -0.2612 -0.3726
  840MPD2    C412346   4.441   1.582  10.232 -0.1732 -0.9778 -0.6350
  840MPD2    C512347   4.372   1.510  10.138 -0.5006 -0.2342  0.2183
  840MPD2     H12348   4.367   1.385  10.493  1.3900 -2.0141 -0.4369
  840MPD2    H112349   4.480   1.679  10.202 -0.3527 -0.2633  1.4982
  840MPD2    H212350   4.255   1.334  10.084  0.4013  0.8609 -1.0673
  840MPD2    H312351   4.378   1.547  10.036  0.3777  1.2506  0.8117
  840MPD2     N12352   4.530   1.609  10.443 -0.7167  0.3550 -0.5204
  840MPD2    H512353   4.579   1.687  10.399 -0.2128 -0.4821 -1.4292
  840MPD2    N112354   4.239   1.234  10.318 -0.1049  0.1683  0.4936
  840MPD2    H712355   4.200   1.199  10.231  0.2919 -0.0318  0.3953
  841MPD2     C12356   4.294   1.688  14.494 -0.1605 -0.1896 -0.2253
  841MPD2    C112357   4.342   1.615  14.380 -0.2926  0.0464  0.9033
  841MPD2    C212358   4.427   1.673  14.293 -0.2576  0.3022  0.1367
  841MPD2    C312359   4.487   1.795  14.327 -0.0779  0.1059  0.7201
  841MPD2    C412360   4.458   1.844  14.455  0.2113  0.2247  0.8249
  841MPD2    C512361   4.350   1.806  14.527  0.1420  0.1593 -0.4979
  841MPD2     H12362   4.446   1.626  14.198  1.2740 -1.0919  1.1216
  841MPD2    H112363   4.509   1.937  14.480  3.6313 -1.6988  1.0288
  841MPD2    H212364   4.218   1.648  14.561 -0.6075  0.4067 -0.3739
  841MPD2    H312365   4.314   1.845  14.621 -1.4594  0.1687 -1.1086
  841MPD2     N12366   4.577   1.847  14.235 -0.6057  0.4754 -0.0945
  841MPD2    H512367   4.589   1.789  14.152  1.1712  1.2302 -0.3646
  841MPD2    N112368   4.309   1.480  14.345  0.2108 -0.2052  0.5695
  841MPD2    H712369   4.348   1.442  14.259  0.3044  2.0011 -0.3682
  842MPD2     C12370   0.292   2.665  16.498  0.3106 -0.3492  0.3158
  842MPD2    C112371   0.186   2.586  16.524 -0.0792  1.0652 -0.3648
  842MPD2    C212372   0.193   2.514  16.646  0.9556  0.1340  0.2675
  842MPD2    C312373   0.287   2.543  16.743 -0.2052  0.6389 -0.0997
  842MPD2    C412374   0.386   2.632  16.710  0.0587  0.0491 -0.6387
  842MPD2    C512375   0.387   2.690  16.588 -0.2586  0.3503  0.3159
  842MPD2     H12376   0.115   2.445  16.675 -1.1605  1.8569 -1.3427
  842MPD2    H112377   0.459   2.656  16.787 -0.8588 -0.1894  0.3140
  842MPD2    H212378   0.302   2.714  16.401 -0.9462 -0.1989  0.2674
  842MPD2    H312379   0.465   2.762  16.566  1.0217 -0.3266  2.5556
  842MPD2     N12380   0.300   2.476  16.869  0.2571 -0.2709  0.0585
  842MPD2    H512381   0.388   2.492  16.917  0.4058 -1.3528  0.1388
  842MPD2    N112382   0.097   2.568  16.422 -0.2305 -0.0218 -0.0469
  842MPD2    H712383   0.114   2.631  16.345 -1.3554  0.0874 -0.2113
  843MPD2     C12384   2.546   2.142   0.280  0.1974 -0.0246 -0.4517
  843MPD2    C112385   2.464   2.238   0.334 -0.2705 -0.0994  0.3360
  843MPD2    C212386   2.495   2.370   0.305 -0.2938 -0.0236  0.0208
  843MPD2    C312387   2.594   2.399   0.213 -0.1743 -0.4095 -0.8505
  843MPD2    C412388   2.665   2.303   0.152 -0.0430 -0.7571  0.2566
  843MPD2    C512389   2.636   2.176   0.182  0.2417 -0.1517  0.4002
  843MPD2     H12390   2.427   2.446   0.341 -1.5819  0.1881 -2.8310
  843MPD2    H112391   2.741   2.325   0.077 -1.7265 -1.6718 -1.6990
  843MPD2    H212392   2.519   2.040   0.304 -0.1342  0.7885  2.6476
  843MPD2    H312393   2.685   2.103   0.118  0.7527  0.2969  0.2748
  843MPD2     N12394   2.640   2.525   0.184 -0.3766 -0.1440 -0.3636
  843MPD2    H512395   2.723   2.528   0.126 -0.5921 -1.8296 -0.7659
  843MPD2    N112396   2.379   2.194   0.435 -0.0165 -0.5366 -0.3294
  843MPD2    H712397   2.374   2.093   0.448  1.5791 -0.6713 -0.7392
  844MPD2     C12398   0.664   1.866  16.385 -0.2187 -0.5691 -0.0236
  844MPD2    C112399   0.786   1.829  16.329 -0.6619  0.1315 -0.3513
  844MPD2    C212400   0.902   1.902  16.361 -0.1475 -0.2524 -0.2840
  844MPD2    C312401   0.893   2.007  16.447 -0.1370  0.5457 -0.4346
  844MPD2    C412402   0.767   2.048  16.490  0.9709 -0.0777 -0.8138
  844MPD2    C512403   0.655   1.970  16.473 -0.2185 -0.9838  0.1294
  844MPD2     H12404   1.001   1.873  16.329 -0.7057 -0.0758 -2.1898
  844MPD2    H112405   0.751   2.138  16.547  0.4416  0.5447 -1.9499
  844MPD2    H212406   0.571   1.823  16.349 -0.0220  0.7071 -2.0779
  844MPD2    H312407   0.555   2.004  16.497 -1.0754 -1.4367 -2.8087
  844MPD2     N12408   1.012   2.079  16.483 -0.4550  0.6478 -0.0046
  844MPD2    H512409   1.100   2.043  16.445 -0.5119  0.4852  0.0184
  844MPD2    N112410   0.791   1.715  16.242 -0.1654 -0.0211 -0.4728
  844MPD2    H712411   0.872   1.693  16.185 -1.1228  0.6694 -2.0815
  845MPD2     C12412   0.995   3.038  16.568  0.4090  0.7420  0.3547
  845MPD2    C112413   1.001   2.955  16.675 -0.2585  0.7065 -0.6075
  845MPD2    C212414   1.066   2.835  16.664 -0.0639  0.5483  0.7870
  845MPD2    C312415   1.123   2.795  16.544  0.5989 -0.1362 -0.4330
  845MPD2    C412416   1.093   2.867  16.430 -0.3414  0.9541  0.2158
  845MPD2    C512417   1.025   2.991  16.437  0.1900 -0.0364  0.1189
  845MPD2     H12418   1.073   2.760  16.742 -0.7222 -0.1829  0.1475
  845MPD2    H112419   1.113   2.825  16.332 -0.2761  0.5481  0.4070
  845MPD2    H212420   0.961   3.140  16.580 -0.0218  0.6056  0.2972
  845MPD2    H312421   1.006   3.047  16.346  0.2052 -2.4537 -1.3649
  845MPD2     N12422   1.191   2.674  16.525 -0.2578  0.4024  0.0205
  845MPD2    H512423   1.175   2.625  16.438 -1.9783  2.5014 -0.8200
  845MPD2    N112424   0.948   2.998  16.799 -0.1615  0.2118 -0.0881
  845MPD2    H712425   0.917   3.093  16.811 -2.3710 -0.3612 -1.2652
  846MPD2     C12426   2.525   3.361  13.660  0.7044 -0.0249  0.2320
  846MPD2    C112427   2.424   3.445  13.697 -0.4067  0.3765 -0.5598
  846MPD2    C212428   2.370   3.440  13.826  0.0842  0.3625  0.0229
  846MPD2    C312429   2.419   3.357  13.923  0.1974 -0.2383 -0.3318
  846MPD2    C412430   2.500   3.263  13.881  0.3378  0.1371 -0.7041
  846MPD2    C512431   2.556   3.263  13.753 -0.2833 -0.0508  0.4713
  846MPD2     H12432   2.290   3.510  13.850 -0.1037 -0.3579  1.5019
  846MPD2    H112433   2.539   3.191  13.952 -1.0678  0.7910  0.7281
  846MPD2    H212434   2.580   3.364  13.567  2.6442 -3.9044  1.2662
  846MPD2    H312435   2.629   3.184  13.737 -1.6644 -0.5983 -3.0121
  846MPD2     N12436   2.356   3.363  14.056 -0.0397 -0.1058  0.0727
  846MPD2    H512437   2.292   3.440  14.072  0.0928  0.1688 -0.7111
  846MPD2    N112438   2.381   3.546  13.610 -0.2722  0.5831  0.5616
  846MPD2    H712439   2.318   3.615  13.651 -0.3531  1.8967 -1.7273
  847MPD2     C12440   2.202   3.830  14.416 -0.2226  0.5578 -0.3066
  847MPD2    C112441   2.320   3.892  14.372 -0.8915  0.4696  0.0902
  847MPD2    C212442   2.446   3.852  14.407 -0.0547 -0.3238 -0.6443
  847MPD2    C312443   2.458   3.751  14.501 -0.4679  0.2497  0.6365
  847MPD2    C412444   2.342   3.685  14.541  0.0394  0.6117  0.3254
  847MPD2    C512445   2.219   3.720  14.498  0.5395 -1.3327  0.3136
  847MPD2     H12446   2.534   3.894  14.360  0.9568  0.8427  2.2839
  847MPD2    H112447   2.348   3.617  14.625 -0.7493 -1.6541 -1.4659
  847MPD2    H212448   2.100   3.853  14.388 -1.9221 -0.7620  4.7664
  847MPD2    H312449   2.135   3.672  14.548 -0.6905 -0.7215 -1.1687
  847MPD2     N12450   2.578   3.709  14.565 -0.1456  0.9476  0.3059
  847MPD2    H512451   2.574   3.664  14.656 -1.8574 -0.6181 -0.5390
  847MPD2    N112452   2.318   4.007  14.288  0.2427  0.1018  0.2804
  847MPD2    H712453   2.404   4.044  14.250 -0.9210 -0.0565 -2.5062
  848MPD2     C12454   0.361   2.400  16.142 -0.0191 -0.7183 -0.4934
  848MPD2    C112455   0.414   2.455  16.254  0.1589  0.0872  0.2188
  848MPD2    C212456   0.481   2.575  16.247  0.0154  0.1856  0.7697
  848MPD2    C312457   0.488   2.641  16.128 -0.1234  0.1931  0.0032
  848MPD2    C412458   0.415   2.603  16.020 -0.2881  0.0399  0.5452
  848MPD2    C512459   0.355   2.481  16.024 -0.2693 -0.1244 -0.1280
  848MPD2     H12460   0.529   2.612  16.336 -0.3023  0.8529  0.6653
  848MPD2    H112461   0.418   2.656  15.925  0.6505  0.3063  0.7279
  848MPD2    H212462   0.323   2.299  16.134  1.4182 -1.1453 -1.9366
  848MPD2    H312463   0.299   2.454  15.936 -1.6710  1.7760  0.1967
  848MPD2     N12464   0.558   2.763  16.125 -0.3751  0.4993  0.4318
  848MPD2    H512465   0.583   2.806  16.036  0.5903  1.1150  1.0147
  848MPD2    N112466   0.412   2.379  16.378 -0.9553  0.0302 -0.3110
  848MPD2    H712467   0.467   2.423  16.451 -0.1773 -1.0695 -0.2416
  849MPD2     C12468   4.647   2.428  13.371  0.1101  0.2823 -0.9747
  849MPD2    C112469   0.050   2.409  13.337 -0.1356  0.7857  0.2608
  849MPD2    C212470   0.134   2.352  13.426 -0.2119  0.3552  0.0517
  849MPD2    C312471   0.084   2.316  13.554 -0.4267  0.6420 -0.0932
  849MPD2    C412472   4.683   2.343  13.587 -0.4947  0.4124 -0.0172
  849MPD2    C512473   4.597   2.398  13.497 -0.1944  0.0345  1.1241
  849MPD2     H12474   0.237   2.339  13.396 -0.1634 -0.4710  0.5747
  849MPD2    H112475   4.640   2.319  13.683  0.9393  1.5941  0.9173
  849MPD2    H212476   4.580   2.480  13.303 -0.2376  0.8288 -0.2176
  849MPD2    H312477   4.500   2.434  13.529 -0.6118 -0.6890  0.6923
  849MPD2     N12478   0.151   2.243  13.653  0.2285 -0.2311 -0.2684
  849MPD2    H512479   0.126   2.248  13.752 -0.3605  0.4115 -0.4471
  849MPD2    N112480   0.105   2.456  13.218  0.6174 -0.4050 -0.7427
  849MPD2    H712481   0.205   2.440  13.211  0.2185 -2.2870 -2.1785
  850MPD2     C12482   2.473   0.243  14.576 -0.3315  0.1650  0.4142
  850MPD2    C112483   2.490   0.336  14.674 -0.2997 -0.4192 -0.7054
  850MPD2    C212484   2.615   0.369  14.717 -0.3654 -0.5616 -0.1294
  850MPD2    C312485   2.724   0.312  14.663  0.1091 -0.0569 -0.2293
  850MPD2    C412486   2.710   0.210  14.570  0.2799 -0.6705  0.4228
  850MPD2    C512487   2.586   0.178  14.526  0.2265  0.2485  0.4322
  850MPD2     H12488   2.636   0.453  14.782  1.1528 -1.0837  0.0610
  850MPD2    H112489   2.793   0.150  14.537 -1.2730 -2.4741 -0.1990
  850MPD2    H212490   2.375   0.225  14.534 -0.0661 -0.5072  0.0767
  850MPD2    H312491   2.577   0.091  14.463 -0.7515 -0.6867  1.8584
  850MPD2     N12492   2.846   0.359  14.711  0.1072  0.8388 -0.4209
  850MPD2    H512493   2.838   0.431  14.782 -1.4730  0.0354  0.2493
  850MPD2    N112494   2.374   0.408  14.715 -0.2520  0.1374 -0.8104
  850MPD2    H712495   2.299   0.405  14.647 -0.6860 -0.8785 -0.2944
  851MPD2     C12496   2.984   0.271  15.306 -0.5560 -0.5181 -0.4465
  851MPD2    C112497   2.892   0.210  15.231  0.0666  0.7029  0.0458
  851MPD2    C212498   2.902   0.086  15.190 -0.4335 -0.1738 -0.3288
  851MPD2    C312499   2.995   0.010  15.260  0.4394  0.2327 -0.5127
  851MPD2    C412500   3.091   0.060  15.343  1.0652  0.3112 -0.0848
  851MPD2    C512501   3.087   0.195  15.362  0.0840  0.3017 -0.5382
  851MPD2     H12502   2.829   0.030  15.132  1.0209 -1.8929 -0.5141
  851MPD2    H112503   3.165   4.719  15.386  1.9107  1.3232 -0.0012
  851MPD2    H212504   2.979   0.378  15.321  0.1667 -0.6978  1.0529
  851MPD2    H312505   3.173   0.241  15.411 -0.5994  1.4103 -0.3713
  851MPD2     N12506   2.985   4.599  15.238 -0.0832  0.7298 -0.0965
  851MPD2    H512507   2.918   4.573  15.167  0.5680  0.7691 -0.7251
  851MPD2    N112508   2.777   0.285  15.199 -0.2850 -0.2260 -0.4495
  851MPD2    H712509   2.792   0.378  15.237  0.5677  0.2225 -1.8717
  852MPD2     C12510   1.696   2.172   9.557  0.2954  0.1119  0.3502
  852MPD2    C112511   1.781   2.184   9.661 -0.5018  0.1191  0.6069
  852MPD2    C212512   1.891   2.267   9.653 -0.7244  0.1145 -0.3989
  852MPD2    C312513   1.919   2.326   9.531  0.1946 -0.4088  0.0114
  852MPD2    C412514   1.827   2.324   9.428  0.1625  0.5590 -0.0691
  852MPD2    C512515   1.712   2.247   9.445 -0.2804 -0.5164 -0.0586
  852MPD2     H12516   1.952   2.279   9.741  0.8129 -1.0460 -1.3040
  852MPD2    H112517   1.846   2.378   9.335 -0.8881 -1.4256 -1.4451
  852MPD2    H212518   1.609   2.108   9.553 -0.0133  0.6581 -1.5763
  852MPD2    H312519   1.636   2.229   9.370 -0.4800 -0.8551  0.2257
  852MPD2     N12520   2.038   2.402   9.517  0.2832  0.1434  0.6609
  852MPD2    H512521   2.106   2.411   9.592 -0.3066 -0.3573  1.2557
  852MPD2    N112522   1.761   2.106   9.778  0.0576  0.3038  0.4613
  852MPD2    H712523   1.821   2.131   9.855  1.3256  2.0919 -1.1060
  853MPD2     C12524   4.108   3.030  11.889 -0.4489 -0.5616 -0.4941
  853MPD2    C112525   3.974   3.026  11.909 -0.0357  0.0223 -0.3293
  853MPD2    C212526   3.885   3.004  11.807 -0.1338 -0.3009  0.6425
  853MPD2    C312527   3.945   2.968  11.683 -0.1526  0.7135 -0.2612
  853MPD2    C412528   4.079   2.958  11.674  0.3234  0.1736  0.1689
  853MPD2    C512529   4.161   3.004  11.766  0.2991 -0.5532 -0.4463
  853MPD2     H12530   3.778   3.022  11.813 -0.0365  0.2563  0.7893
  853MPD2    H112531   4.116   2.922  11.579 -0.4343  0.0468 -0.0699
  853MPD2    H212532   4.177   3.044  11.971  0.0566 -0.1994 -0.9853
  853MPD2    H312533   4.268   3.004  11.748  0.3318  0.0785 -0.2330
  853MPD2     N12534   3.864   2.920  11.576  0.3676  0.3482  0.3663
  853MPD2    H512535   3.914   2.888  11.494 -0.1983  0.0996  0.1182
  853MPD2    N112536   3.929   3.060  12.039 -0.4340 -0.3203  0.2387
  853MPD2    H712537   4.000   3.068  12.111  0.7226 -2.4486 -0.6656
  854MPD2     C12538   1.522   3.237  12.678  0.1227 -0.7195  0.0014
  854MPD2    C112539   1.516   3.156  12.568  0.8134 -0.6958  0.4385
  854MPD2    C212540   1.576   3.030  12.581  0.6041  0.6717 -0.2294
  854MPD2    C312541   1.659   2.990  12.688 -0.0557  0.1766 -0.1805
  854MPD2    C412542   1.666   3.074  12.795  1.0125 -0.0612 -0.5780
  854MPD2    C512543   1.585   3.188  12.791  0.2271  0.2771 -0.0668
  854MPD2     H12544   1.556   2.966  12.496 -3.5558  3.5789 -1.4596
  854MPD2    H112545   1.727   3.049  12.880  1.7599 -0.6050 -1.2782
  854MPD2    H212546   1.480   3.336  12.671  3.7727  0.7859 -0.7829
  854MPD2    H312547   1.590   3.249  12.880 -0.3427  0.6370 -0.2825
  854MPD2     N12548   1.723   2.865  12.700 -0.0056  0.2364 -0.0871
  854MPD2    H512549   1.779   2.840  12.781  0.1766 -1.1096 -0.6355
  854MPD2    N112550   1.447   3.204  12.449  0.1725 -0.5431  0.5978
  854MPD2    H712551   1.396   3.291  12.455  1.9717  0.5372  0.5025
  855MPD2     C12552   2.224   2.747  13.290 -0.4818  0.0649 -0.1101
  855MPD2    C112553   2.131   2.644  13.273  0.2099 -0.6873 -0.2584
  855MPD2    C212554   2.098   2.593  13.148  0.6263 -0.9825 -0.0585
  855MPD2    C312555   2.142   2.658  13.040 -0.7216  0.1100 -0.1554
  855MPD2    C412556   2.228   2.763  13.052 -0.1302  0.0700 -0.3992
  855MPD2    C512557   2.276   2.800  13.175 -0.1940  0.4813  0.2916
  855MPD2     H12558   2.034   2.505  13.141 -0.1407 -0.4970  0.7965
  855MPD2    H112559   2.287   2.801  12.970  0.5355  0.1346  0.1090
  855MPD2    H212560   2.261   2.764  13.391 -1.5302  0.5295  0.1861
  855MPD2    H312561   2.364   2.863  13.179 -0.4430  0.8612 -0.2577
  855MPD2     N12562   2.104   2.636  12.906  0.0533 -0.1490 -0.2492
  855MPD2    H512563   2.130   2.701  12.832 -1.0401 -0.7450 -1.1728
  855MPD2    N112564   2.063   2.587  13.382  0.8406  0.4082 -0.3706
  855MPD2    H712565   2.005   2.508  13.354 -3.1460  2.7245  1.3781
  856MPD2     C12566   3.579   3.826  13.336 -0.2063  0.4072 -0.4729
  856MPD2    C112567   3.601   3.855  13.468 -0.4718  0.6792  0.1449
  856MPD2    C212568   3.502   3.925  13.533 -0.5518  0.1210 -0.0442
  856MPD2    C312569   3.397   3.982  13.474 -0.3627  0.0990 -0.9101
  856MPD2    C412570   3.363   3.934  13.346 -0.2209  0.2692  0.0472
  856MPD2    C512571   3.456   3.856  13.280 -0.0794  0.3271  0.0448
  856MPD2     H12572   3.522   3.930  13.640  0.1439  0.7778 -0.2082
  856MPD2    H112573   3.271   3.959  13.294 -0.7344 -3.6987 -0.9795
  856MPD2    H212574   3.646   3.764  13.277 -0.3099 -0.7980  0.6759
  856MPD2    H312575   3.433   3.815  13.183  1.4398  0.8449 -0.5364
  856MPD2     N12576   3.318   4.082  13.537 -0.2742 -0.9533  0.0604
  856MPD2    H512577   3.230   4.105  13.492  0.5981  1.3851 -0.4920
  856MPD2    N112578   3.712   3.819  13.546 -0.0502  0.0923  0.4601
  856MPD2    H712579   3.705   3.859  13.639  1.8080  0.3671  0.4799
  857MPD2     C12580   0.301   0.958  12.841 -0.3104  0.3674 -0.2950
  857MPD2    C112581   0.433   0.991  12.846 -0.4462  0.5265  0.4561
  857MPD2    C212582   0.473   1.122  12.867 -0.2498 -0.2576 -0.1574
  857MPD2    C312583   0.376   1.215  12.902  0.2642 -0.4302  0.3280
  857MPD2    C412584   0.237   1.185  12.900 -0.3865 -0.5564  0.2667
  857MPD2    C512585   0.205   1.054  12.878  0.2707 -0.8216 -0.3439
  857MPD2     H12586   0.575   1.156  12.879 -0.5024 -0.0532  1.4124
  857MPD2    H112587   0.161   1.259  12.921 -0.0557 -0.3355  0.6685
  857MPD2    H212588   0.269   0.858  12.814 -1.3448 -0.0661  2.4546
  857MPD2    H312589   0.099   1.033  12.882  0.1989  0.3459  3.8880
  857MPD2     N12590   0.434   1.338  12.935  0.0929 -0.9751 -0.1302
  857MPD2    H512591   0.535   1.347  12.932  0.2100 -1.8492  1.1249
  857MPD2    N112592   0.527   0.887  12.839 -0.5030  0.3461  0.2995
  857MPD2    H712593   0.498   0.791  12.823  0.1222  0.1603  0.2873
  858MPD2     C12594   1.175   4.333  16.900 -0.2461  0.3612  0.0998
  858MPD2    C112595   1.215   4.446  16.831 -0.2486 -0.1103  0.0971
  858MPD2    C212596   1.271   4.550  16.900  0.2660  0.4165  0.1201
  858MPD2    C312597   1.282   4.538  17.033  0.0311  0.3812  0.4003
  858MPD2    C412598   1.251   4.417  17.100  0.2048  0.1218 -0.6683
  858MPD2    C512599   1.187   4.319  17.036 -0.5470  0.1611  0.3344
  858MPD2     H12600   1.305   4.637  16.846 -1.6941 -1.0382 -3.4462
  858MPD2    H112601   1.278   4.405  17.205 -0.4058 -0.2027 -0.5476
  858MPD2    H212602   1.132   4.244  16.857  0.3958 -0.9618  2.2188
  858MPD2    H312603   1.146   4.232  17.086  0.9697 -0.4694  0.4860
  858MPD2     N12604   1.320   4.647  17.119  0.6832 -0.2164 -0.4921
  858MPD2    H512605   1.305   4.635  17.219  2.1667  1.2856 -0.0940
  858MPD2    N112606   1.202   4.434  16.692 -0.1051  0.7046  0.2722
  858MPD2    H712607   1.167   4.350  16.646 -0.7327  0.4341  1.2364
  859MPD2     C12608   4.580   1.980  15.298 -0.1725  1.0079  0.1685
  859MPD2    C112609   4.574   1.990  15.162  0.7825 -0.5828  0.5885
  859MPD2    C212610   4.507   1.893  15.090 -0.3546 -0.1308 -0.1330
  859MPD2    C312611   4.440   1.790  15.156  0.0769 -0.3586  0.2642
  859MPD2    C412612   4.443   1.776  15.296 -0.1378  0.7556 -0.2221
  859MPD2    C512613   4.517   1.877  15.356  0.0845  0.1444 -0.1562
  859MPD2     H12614   4.497   1.897  14.982 -1.9422 -1.2638 -0.0183
  859MPD2    H112615   4.397   1.692  15.347  0.7692 -0.5767 -1.5987
  859MPD2    H212616   4.647   2.047  15.350 -0.8583  0.8124  1.3195
  859MPD2    H312617   4.529   1.888  15.463 -2.9676  0.4459  0.1541
  859MPD2     N12618   4.370   1.692  15.080  0.4973 -0.2363  0.0451
  859MPD2    H512619   4.331   1.616  15.136 -0.0833  1.0566  1.3794
  859MPD2    N112620   4.636   2.106  15.098  0.5321  0.6410  0.2670
  859MPD2    H712621   4.682   2.175  15.155  1.3122  2.6250 -2.7450
  860MPD2     C12622   2.069   2.770  11.470  0.0365  0.2650 -0.0858
  860MPD2    C112623   2.019   2.827  11.585 -0.0164 -0.2184  0.2825
  860MPD2    C212624   1.890   2.808  11.631  0.8166  0.6237 -0.5640
  860MPD2    C312625   1.806   2.735  11.555 -0.9663  0.3459  0.2983
  860MPD2    C412626   1.855   2.675  11.439  0.4972  0.0169 -0.4228
  860MPD2    C512627   1.985   2.690  11.398 -0.2252  0.0576  0.1382
  860MPD2     H12628   1.867   2.851  11.728  0.7417 -0.7720  0.0409
  860MPD2    H112629   1.793   2.611  11.377  1.6810 -0.7330 -0.8448
  860MPD2    H212630   2.176   2.771  11.456  0.1724 -2.2761  0.7200
  860MPD2    H312631   2.028   2.635  11.315  0.4210  0.9536 -0.1264
  860MPD2     N12632   1.680   2.702  11.603 -0.2845 -0.5270 -0.0404
  860MPD2    H512633   1.656   2.747  11.690 -2.4842  1.5993 -1.7726
  860MPD2    N112634   2.099   2.902  11.674 -0.8331 -0.4647  0.2493
  860MPD2    H712635   2.058   2.915  11.766  0.6367  2.4070  0.4568
  861MPD2     C12636   0.887   0.686  10.772  0.3966  0.4006 -0.9438
  861MPD2    C112637   0.772   0.685  10.847 -0.5624  0.3510 -0.1000
  861MPD2    C212638   0.653   0.703  10.782  0.4056 -1.4174 -0.2496
  861MPD2    C312639   0.651   0.737  10.645  0.0797 -0.1824 -0.0384
  861MPD2    C412640   0.765   0.757  10.577  0.4266 -0.4271 -0.1642
  861MPD2    C512641   0.885   0.729  10.643  0.3836 -1.0509 -0.3497
  861MPD2     H12642   0.562   0.674  10.832  0.4662 -2.2819 -0.6501
  861MPD2    H112643   0.773   0.810  10.483 -0.6816 -0.5329 -0.3271
  861MPD2    H212644   0.984   0.667  10.816  0.2432 -1.2883 -1.3537
  861MPD2    H312645   0.980   0.739  10.591  0.1289 -1.6800 -0.9290
  861MPD2     N12646   0.535   0.761  10.568 -0.3711  0.1876 -0.6774
  861MPD2    H512647   0.549   0.791  10.472  0.0849 -0.6188 -0.8609
  861MPD2    N112648   0.771   0.665  10.989 -0.4698  0.3568  0.5698
  861MPD2    H712649   0.682   0.688  11.032 -0.8737 -1.4893  0.7071
  862MPD2     C12650   0.029   0.684  10.068  0.3786 -0.6593  0.2800
  862MPD2    C112651   0.154   0.693  10.119 -0.6979 -0.3880 -0.1381
  862MPD2    C212652   0.214   0.599  10.199 -0.5354 -0.1081  0.0677
  862MPD2    C312653   0.137   0.496  10.253 -0.1681 -0.7994 -0.3362
  862MPD2    C412654   0.011   0.482  10.208  0.2276 -0.1423  0.4024
  862MPD2    C512655   4.688   0.571  10.112 -0.6406 -0.0145 -0.0850
  862MPD2     H12656   0.321   0.602  10.214 -0.7551 -4.3280  2.1907
  862MPD2    H112657   4.672   0.406  10.252 -0.5004  0.6538  0.7052
  862MPD2    H212658   4.698   0.744   9.997  2.3745  0.9347  0.0606
  862MPD2    H312659   4.584   0.581  10.086 -0.4200 -0.3924 -1.1176
  862MPD2     N12660   0.176   0.418  10.362  0.3302  0.2999 -0.3177
  862MPD2    H512661   0.112   0.345  10.392  0.8580 -0.4232 -0.9273
  862MPD2    N112662   0.218   0.810  10.087  0.5275  0.0576  0.6308
  862MPD2    H712663   0.191   0.847   9.996 -0.7022 -0.0697  0.9472
  863MPD2     C12664   4.725   3.739  16.789 -0.0937 -0.1160  0.2385
  863MPD2    C112665   4.611   3.693  16.846 -0.0235  0.0742 -0.0539
  863MPD2    C212666   4.613   3.613  16.955  0.0073 -0.3993  0.0574
  863MPD2    C312667   0.010   3.585  17.016  0.7532  0.5034 -0.1283
  863MPD2    C412668   0.128   3.627  16.960 -0.9400  0.4923 -0.0800
  863MPD2    C512669   0.117   3.691  16.842 -0.1231  0.1116 -0.0806
  863MPD2     H12670   4.523   3.584  17.009  0.6446 -0.1588  1.2562
  863MPD2    H112671   0.226   3.613  17.003 -0.1054  1.8685 -1.5232
  863MPD2    H212672   0.002   3.793  16.695 -0.5638 -1.6369 -0.6563
  863MPD2    H312673   0.207   3.726  16.794  0.2636 -2.2033 -1.0353
  863MPD2     N12674   0.017   3.522  17.135  0.8393 -0.5596 -0.3190
  863MPD2    H512675   0.111   3.519  17.174  1.7122  0.7303 -2.3172
  863MPD2    N112676   4.490   3.734  16.789  0.2332  0.7988  0.1785
  863MPD2    H712677   4.481   3.779  16.699 -1.9128  0.0526  0.0263
  864MPD2     C12678   0.044   4.534  17.484  0.1945  0.2210  1.3847
  864MPD2    C112679   0.110   4.472  17.383 -0.1477 -0.2508 -0.4290
  864MPD2    C212680   0.198   4.545  17.301  0.1642  0.3451  0.2029
  864MPD2    C312681   0.212   4.681  17.322  0.2638 -0.1150 -0.1128
  864MPD2    C412682   0.148   0.016  17.422 -0.2920  0.5598  0.2110
  864MPD2    C512683   0.062   4.665  17.500 -0.1831 -0.2412  0.5207
  864MPD2     H12684   0.262   4.491  17.232  0.6293  2.4416 -1.0289
  864MPD2    H112685   0.167   0.119  17.454  2.2705  0.5133 -1.1964
  864MPD2    H212686   4.700   4.483  17.550 -0.1277  0.3986  1.1860
  864MPD2    H312687   0.000   4.711  17.577  0.2018  0.0789  0.6349
  864MPD2     N12688   0.307   0.032  17.250 -0.5206  0.3438  0.1828
  864MPD2    H512689   0.330   0.127  17.279 -0.5263  0.2873  0.3761
  864MPD2    N112690   0.089   4.332  17.359  0.1167 -0.1375 -0.5859
  864MPD2    H712691   0.010   4.289  17.405  0.6246 -0.3881  0.0451
  865MPD2     C12692   0.517   0.551  16.541  0.6298  0.3100  0.7356
  865MPD2    C112693   0.460   0.442  16.609  0.0738  0.9852 -0.1969
  865MPD2    C212694   0.425   0.454  16.742  0.4500 -0.5743 -0.5619
  865MPD2    C312695   0.460   0.561  16.818 -0.3266 -0.2614 -0.7472
  865MPD2    C412696   0.518   0.674  16.751  0.2775  0.9783 -0.2132
  865MPD2    C512697   0.540   0.665  16.613  0.1924  0.9179  0.3789
  865MPD2     H12698   0.377   0.371  16.792 -2.1194  0.6919 -0.9418
  865MPD2    H112699   0.555   0.765  16.796  2.0220 -0.4717  1.2434
  865MPD2    H212700   0.525   0.534  16.434  0.0548  1.3535  0.5288
  865MPD2    H312701   0.578   0.749  16.557  0.3573  0.3595 -0.3584
  865MPD2     N12702   0.437   0.572  16.960 -0.0352 -0.0455  0.1228
  865MPD2    H512703   0.439   0.662  17.007  2.0534 -0.2020  0.3033
  865MPD2    N112704   0.456   0.325  16.537  0.4715 -0.4330  0.0602
  865MPD2    H712705   0.476   0.331  16.438 -1.2312 -0.4277 -0.2892
  866MPD2     C12706   1.355   0.983  11.000 -0.5697 -0.2569 -0.3187
  866MPD2    C112707   1.307   0.922  10.886  0.7462 -0.1689  0.2399
  866MPD2    C212708   1.176   0.963  10.845 -0.4558  0.2572 -0.1432
  866MPD2    C312709   1.101   1.039  10.936 -0.1361 -0.0278 -0.5941
  866MPD2    C412710   1.146   1.080  11.058  0.3908  0.1194 -0.6288
  866MPD2    C512711   1.277   1.048  11.085  0.7652  0.1567 -0.4775
  866MPD2     H12712   1.135   0.928  10.751  0.8018 -0.0283 -0.5819
  866MPD2    H112713   1.080   1.119  11.134  0.1975  0.3604 -0.9165
  866MPD2    H212714   1.452   0.950  11.032  0.2510  2.0385 -0.3910
  866MPD2    H312715   1.316   1.081  11.181  3.9497 -0.1048 -1.6840
  866MPD2     N12716   0.969   1.067  10.906  0.1148  0.1274  0.1201
  866MPD2    H512717   0.910   1.085  10.986  2.2620  2.3093  1.2305
  866MPD2    N112718   1.387   0.830  10.821 -0.1856 -0.1232  0.5526
  866MPD2    H712719   1.474   0.806  10.866  0.5786  0.4579 -0.6143
  867MPD2     C12720   4.591   0.208  17.670  1.1017  0.2520 -0.1455
  867MPD2    C112721   4.568   0.257  17.540 -0.5389 -0.1097 -0.0135
  867MPD2    C212722   4.589   0.393  17.521  0.6421  0.2477  0.1572
  867MPD2    C312723   4.636   0.470  17.626  0.5492  0.7602  0.2923
  867MPD2    C412724   4.661   0.413   0.046  0.2036 -0.3001 -0.6487
  867MPD2    C512725   4.636   0.286   0.075  0.2221  0.2242  0.2272
  867MPD2     H12726   4.571   0.436  17.422 -2.7645  1.4444  1.2970
  867MPD2    H112727   4.717   0.470   0.120 -0.5440  1.2923 -1.3222
  867MPD2    H212728   4.580   0.103  17.696  0.8283  0.1460 -0.7014
  867MPD2    H312729   4.650   0.229   0.166  2.4708  2.5714  1.3633
  867MPD2     N12730   4.658   0.607  17.615 -0.0410  0.8532  0.1508
  867MPD2    H512731   4.704   0.653  17.692 -1.6820  1.1741  0.9239
  867MPD2    N112732   4.508   0.164  17.457 -0.3351  0.7256  0.1397
  867MPD2    H712733   4.489   0.077  17.504  0.6056  0.4706  0.0498
  868MPD2     C12734   0.281   3.207  12.874 -0.3026  0.5348  0.1287
  868MPD2    C112735   0.306   3.345  12.878 -0.2884  0.0450  0.2492
  868MPD2    C212736   0.194   3.423  12.900 -1.0979 -0.2941 -0.2836
  868MPD2    C312737   0.064   3.377  12.921 -0.0253  0.4501 -0.6046
  868MPD2    C412738   0.043   3.234  12.922  0.7138 -0.7582  0.6330
  868MPD2    C512739   0.151   3.155  12.894 -0.0361 -0.0387  0.5882
  868MPD2     H12740   0.212   3.530  12.911  2.2003 -0.8353 -0.3340
  868MPD2    H112741   4.673   3.187  12.944  0.0060 -0.5848 -2.0889
  868MPD2    H212742   0.360   3.134  12.859 -3.4299 -3.0259  1.0931
  868MPD2    H312743   0.133   3.048  12.891 -0.5421  0.0208  1.5734
  868MPD2     N12744   4.686   3.477  12.938 -0.0179  0.5733 -0.4779
  868MPD2    H512745   4.712   3.575  12.934  0.7923  0.3636 -0.3236
  868MPD2    N112746   0.441   3.399  12.883  0.1051  0.2513 -0.0819
  868MPD2    H712747   0.520   3.335  12.878  0.9585  1.4228 -1.7538
  869MPD2     C12748   3.063   2.952   1.412 -0.2168 -0.0293 -0.0099
  869MPD2    C112749   3.027   2.823   1.384  0.2439 -0.8754  0.1057
  869MPD2    C212750   2.894   2.793   1.371 -0.7815  0.4425  0.0855
  869MPD2    C312751   2.801   2.889   1.373 -0.6488  0.0790 -0.3710
  869MPD2    C412752   2.834   3.020   1.397  0.4300  0.0197  0.3596
  869MPD2    C512753   2.961   3.049   1.421  0.1557 -0.0730  0.5198
  869MPD2     H12754   2.868   2.694   1.333  0.5295  0.1933 -0.1547
  869MPD2    H112755   2.757   3.097   1.403  1.8666  1.3135  2.1837
  869MPD2    H212756   3.166   2.984   1.423  0.2008 -0.3112 -3.0316
  869MPD2    H312757   2.984   3.155   1.426 -0.3219  0.0734 -0.3924
  869MPD2     N12758   2.660   2.872   1.375 -0.2270  0.6457 -0.3509
  869MPD2    H512759   2.603   2.955   1.387 -1.4872 -0.2229 -0.3405
  869MPD2    N112760   3.131   2.727   1.358  0.3121 -0.5823  0.5809
  869MPD2    H712761   3.221   2.762   1.388  0.6903 -1.5446  0.5655
  870MPD2     C12762   2.386   1.614   1.735  0.3079 -0.1000 -0.3901
  870MPD2    C112763   2.368   1.487   1.688 -0.2985 -0.3032  0.1099
  870MPD2    C212764   2.245   1.444   1.644 -0.4827 -0.5083  0.3765
  870MPD2    C312765   2.150   1.538   1.614  1.1441 -0.2982 -0.3211
  870MPD2    C412766   2.159   1.662   1.671 -0.0686  0.2723 -0.0571
  870MPD2    C512767   2.280   1.702   1.726 -0.1936  0.4667 -0.4576
  870MPD2     H12768   2.233   1.343   1.606  0.6475 -0.4202 -0.2137
  870MPD2    H112769   2.074   1.730   1.677 -0.6555 -0.5411  1.0078
  870MPD2    H212770   2.486   1.649   1.757  0.1912  1.6434 -2.5547
  870MPD2    H312771   2.296   1.805   1.757 -2.0289  0.8003 -0.6266
  870MPD2     N12772   2.034   1.482   1.557 -0.3991 -0.3682  0.1530
  870MPD2    H512773   2.038   1.388   1.518 -0.8961 -0.9488  1.5181
  870MPD2    N112774   2.483   1.404   1.663  0.4510  0.6931  0.0442
  870MPD2    H712775   2.573   1.450   1.658 -0.1603  1.7393 -1.3118
  871MPD2     C12776   2.952   0.451  16.499  0.0681  0.1556  0.6098
  871MPD2    C112777   2.893   0.447  16.623  0.4810 -0.0855 -0.2044
  871MPD2    C212778   2.847   0.327  16.669  0.3765 -0.1715  0.7715
  871MPD2    C312779   2.872   0.205  16.603 -1.1060  0.3547 -0.3126
  871MPD2    C412780   2.936   0.215  16.476 -0.0220  0.6135  0.3951
  871MPD2    C512781   2.981   0.334  16.432 -0.0735  0.7015 -0.4019
  871MPD2     H12782   2.800   0.314  16.766 -1.4942  0.3950 -0.0619
  871MPD2    H112783   2.947   0.128  16.412  1.7546  0.5738  0.7667
  871MPD2    H212784   2.993   0.545  16.464  2.0306 -1.4451 -1.3919
  871MPD2    H312785   3.034   0.348  16.339 -0.5783 -3.9410 -1.3656
  871MPD2     N12786   2.834   0.082  16.661  0.1455  0.3786 -0.1834
  871MPD2    H512787   2.794   0.087  16.754 -2.5174 -0.7208 -1.2731
  871MPD2    N112788   2.883   0.566  16.698 -0.1737  0.1327 -0.9758
  871MPD2    H712789   2.906   0.649  16.645  2.1243  0.7305  0.9236
  872MPD2     C12790   3.481   2.878  14.241 -0.6367 -0.2127 -0.4317
  872MPD2    C112791   3.418   2.971  14.168 -0.0217 -0.0935 -0.0496
  872MPD2    C212792   3.277   2.966  14.168  0.2018 -0.0129 -1.3619
  872MPD2    C312793   3.215   2.880  14.250  0.4421  0.1838  0.2310
  872MPD2    C412794   3.284   2.785  14.324 -0.0077 -0.1179 -0.4452
  872MPD2    C512795   3.420   2.785  14.320  0.2886  0.0283  0.3443
  872MPD2     H12796   3.218   3.034  14.106  1.1504  0.1612 -2.0691
  872MPD2    H112797   3.238   2.706  14.383  3.0080 -0.4808  1.3928
  872MPD2    H212798   3.588   2.875  14.229 -0.6152  0.2878 -0.3884
  872MPD2    H312799   3.475   2.704  14.368  0.8375 -0.3060 -0.8472
  872MPD2     N12800   3.076   2.887  14.283  0.2662 -0.4308  0.0424
  872MPD2    H512801   3.049   2.837  14.367 -2.3028  2.0403  0.6940
  872MPD2    N112802   3.485   3.074  14.100 -0.2252 -0.2972 -0.5158
  872MPD2    H712803   3.427   3.142  14.052 -0.5478  0.4187  0.8759
  873MPD2     C12804   0.769   2.429   0.762  0.0882  0.4233 -0.0544
  873MPD2    C112805   0.744   2.381   0.889  0.5134 -0.4473  0.2347
  873MPD2    C212806   0.689   2.258   0.898 -0.1183  0.0242  0.7900
  873MPD2    C312807   0.653   2.190   0.785 -0.6544  0.6578 -0.3830
  873MPD2    C412808   0.682   2.236   0.661 -0.5325  0.0388 -0.1850
  873MPD2    C512809   0.727   2.357   0.654  0.1943 -0.5266  0.2823
  873MPD2     H12810   0.669   2.213   0.995 -0.0401  0.0338  0.8099
  873MPD2    H112811   0.648   2.186   0.571  1.6385 -0.7694 -0.5491
  873MPD2    H212812   0.808   2.529   0.747 -0.0235  0.2773 -1.2698
  873MPD2    H312813   0.732   2.394   0.552 -0.8840 -1.9668 -0.2909
  873MPD2     N12814   0.591   2.063   0.782  0.3405  0.1968 -0.8720
  873MPD2    H512815   0.563   2.027   0.691  2.2974  2.6510 -2.4374
  873MPD2    N112816   0.787   2.457   0.993 -0.6724  0.2861  0.5257
  873MPD2    H712817   0.812   2.553   0.971 -1.5224  0.4194  0.1408
  874MPD2     C12818   0.169   2.804  15.729  0.0550  0.0316 -0.3942
  874MPD2    C112819   0.175   2.792  15.861 -0.1750  0.1702  0.2548
  874MPD2    C212820   0.266   2.861  15.935 -0.0699 -0.1322  0.0106
  874MPD2    C312821   0.357   2.941  15.872  0.6110 -0.4189  0.5168
  874MPD2    C412822   0.359   2.952  15.740  0.3747  0.3323 -0.3766
  874MPD2    C512823   0.268   2.882  15.670  0.5406 -0.4581 -0.2742
  874MPD2     H12824   0.278   2.850  16.042 -2.2346  1.5097  0.4241
  874MPD2    H112825   0.427   3.022  15.691 -1.0453  1.4774 -0.7301
  874MPD2    H212826   0.108   2.736  15.670  1.7756  0.5485 -2.7522
  874MPD2    H312827   0.267   2.910  15.565 -1.8330  0.3526 -0.0550
  874MPD2     N12828   0.451   3.009  15.956 -0.0772  0.3636 -0.0494
  874MPD2    H512829   0.442   3.009  16.057 -2.9178  1.2229 -0.3055
  874MPD2    N112830   0.070   2.718  15.923  0.1894  0.6436  0.1153
  874MPD2    H712831   0.000   2.677  15.861 -1.6279  2.4188  1.0041
  875MPD2     C12832   1.433   1.078  14.429 -0.8840  0.2992 -0.4073
  875MPD2    C112833   1.306   1.105  14.469  0.1977 -0.1475 -0.0674
  875MPD2    C212834   1.280   1.162  14.589 -0.4984 -0.2522  0.6653
  875MPD2    C312835   1.380   1.204  14.669  0.0307 -1.1231 -0.5240
  875MPD2    C412836   1.506   1.176  14.629 -0.5142  0.3421 -0.3688
  875MPD2    C512837   1.536   1.130  14.500 -0.2759  0.7296 -0.1159
  875MPD2     H12838   1.176   1.185  14.610 -0.9862 -1.8081 -0.0906
  875MPD2    H112839   1.587   1.223  14.684 -1.7263 -0.8664  2.4054
  875MPD2    H212840   1.456   1.026  14.337  1.9819 -0.5178  0.7673
  875MPD2    H312841   1.639   1.112  14.473 -0.6526  0.0403 -1.0824
  875MPD2     N12842   1.363   1.275  14.792  0.0893 -0.5228 -0.0197
  875MPD2    H512843   1.445   1.293  14.849  0.7384  0.6656 -1.3222
  875MPD2    N112844   1.193   1.054  14.403 -0.9187 -0.0819 -0.7485
  875MPD2    H712845   1.106   1.088  14.444  1.1176  1.2888  2.3936
  876MPD2     C12846   4.627   2.317  15.902  0.0476  1.0878 -0.3243
  876MPD2    C112847   0.032   2.294  15.868 -0.4758 -0.2656  0.1578
  876MPD2    C212848   0.102   2.199  15.948 -0.3881 -0.2742 -0.1073
  876MPD2    C312849   0.040   2.118  16.041 -0.2141  0.0725 -0.1541
  876MPD2    C412850   4.626   2.133  16.054  0.4604  0.7645  0.3210
  876MPD2    C512851   4.564   2.239  15.995 -0.2808 -0.0433  0.3828
  876MPD2     H12852   0.209   2.185  15.947 -0.2744  0.0585  3.9947
  876MPD2    H112853   4.572   2.064  16.117 -0.8714  1.8634  0.4023
  876MPD2    H212854   4.570   2.392  15.849 -0.6706  0.6543 -0.1662
  876MPD2    H312855   4.458   2.255  16.009 -0.3317 -1.3086  1.3927
  876MPD2     N12856   0.110   2.014  16.107  0.0128  0.0553 -0.3210
  876MPD2    H512857   0.211   2.017  16.093  0.0176 -0.4870 -0.3969
  876MPD2    N112858   0.094   2.370  15.762 -0.1655 -0.4331  0.9410
  876MPD2    H712859   0.041   2.447  15.723 -0.0479  0.6502  2.9177
  877MPD2     C12860   4.707   2.787  15.134 -0.0894  0.1301  0.1404
  877MPD2    C112861   0.116   2.754  15.132  0.3382 -0.9663  0.3303
  877MPD2    C212862   0.184   2.773  15.008  0.5806  0.2845  0.0386
  877MPD2    C312863   0.121   2.840  14.908 -0.3104  0.5137 -0.1818
  877MPD2    C412864   4.715   2.880  14.918 -0.5539  0.1560  0.1688
  877MPD2    C512865   4.651   2.860  15.033 -0.6858 -0.2088  0.4382
  877MPD2     H12866   0.290   2.751  15.000  0.0669 -1.6188 -1.5070
  877MPD2    H112867   4.669   2.945  14.845 -0.8090 -1.8231 -1.4301
  877MPD2    H212868   4.643   2.766  15.219  1.5880 -1.2942  1.0630
  877MPD2    H312869   4.547   2.888  15.040  0.0897  2.1712  2.5409
  877MPD2     N12870   0.186   2.871  14.785  0.2355  0.6317  0.3396
  877MPD2    H512871   0.135   2.934  14.725  0.8698  0.1466 -0.7118
  877MPD2    N112872   0.188   2.698  15.241 -0.0601 -0.0413  0.7516
  877MPD2    H712873   0.281   2.664  15.222  0.0900  1.7677 -1.7058
  878MPD2     C12874   0.001   2.350  12.266  0.3516 -0.1188 -0.3644
  878MPD2    C112875   4.672   2.450  12.343  0.1134 -0.3765 -0.1086
  878MPD2    C212876   0.010   2.477  12.465  0.1736 -0.9905  0.1912
  878MPD2    C312877   0.117   2.403  12.518 -0.0014 -0.0446 -0.3727
  878MPD2    C412878   0.167   2.303  12.437  0.2607 -0.1297 -1.0305
  878MPD2    C512879   0.114   2.286  12.315  0.2491 -0.2037  0.3516
  878MPD2     H12880   4.702   2.561  12.525  2.3248  0.1177 -0.1666
  878MPD2    H112881   0.251   2.246  12.475 -1.0415 -1.8864 -0.7542
  878MPD2    H212882   4.697   2.316  12.167  2.3429 -0.2469 -0.8969
  878MPD2    H312883   0.166   2.219  12.247 -0.8604  0.3107 -1.0051
  878MPD2     N12884   0.154   2.430  12.648  0.0957  0.4755 -0.4331
  878MPD2    H512885   0.108   2.506  12.696  0.5511  1.2655 -1.2372
  878MPD2    N112886   4.576   2.535  12.276 -0.1678  0.9979  0.1822
  878MPD2    H712887   4.538   2.509  12.186 -2.6039 -0.9173  1.7714
  879MPD2     C12888   0.648   3.880  17.001  0.7034 -0.2748 -0.3146
  879MPD2    C112889   0.639   3.762  17.078 -0.0789 -0.2015 -0.5273
  879MPD2    C212890   0.573   3.653  17.014  0.6215 -0.1874 -0.4278
  879MPD2    C312891   0.528   3.664  16.882 -0.2899 -0.0984 -0.3196
  879MPD2    C412892   0.550   3.779  16.812 -0.2275 -0.3581 -0.4190
  879MPD2    C512893   0.603   3.886  16.871  0.7438 -0.7851  0.1395
  879MPD2     H12894   0.564   3.556  17.062 -1.9878 -0.3464 -1.2486
  879MPD2    H112895   0.523   3.785  16.707  2.2453  2.1628 -0.8881
  879MPD2    H212896   0.683   3.970  17.048  2.1203 -0.6323 -0.6732
  879MPD2    H312897   0.606   3.979  16.815 -0.6793 -1.1299 -0.4831
  879MPD2     N12898   0.464   3.555  16.808  0.1577 -0.6283 -0.5287
  879MPD2    H512899   0.443   3.576  16.711  2.1798 -0.9423 -1.0313
  879MPD2    N112900   0.701   3.752  17.204 -0.2095 -0.2806  0.8882
  879MPD2    H712901   0.745   3.838  17.236  1.9523 -1.0278 -0.0975
  880MPD2     C12902   1.856   0.163   0.744  0.0856 -0.1861 -0.2482
  880MPD2    C112903   1.936   0.238   0.660 -0.0664 -0.4382 -0.6337
  880MPD2    C212904   2.065   0.188   0.623  0.3790  0.0117 -0.4502
  880MPD2    C312905   2.100   0.061   0.656 -0.3554  0.0711 -0.0473
  880MPD2    C412906   2.010   4.707   0.728  0.1522  0.6351 -0.2578
  880MPD2    C512907   1.900   0.037   0.781  0.3012 -0.2308  0.5710
  880MPD2     H12908   2.139   0.252   0.577 -2.5887  1.7474 -2.7890
  880MPD2    H112909   2.026   4.602   0.747  0.7664  0.2354 -3.0065
  880MPD2    H212910   1.767   0.211   0.782  0.0858 -0.1832 -0.2514
  880MPD2    H312911   1.828   4.705   0.840  0.3565  0.1525  1.0104
  880MPD2     N12912   2.233   0.015   0.620  0.1171  0.4587  0.3037
  880MPD2    H512913   2.301   0.087   0.595  2.0825 -1.2469  0.7143
  880MPD2    N112914   1.889   0.369   0.634  0.5768  0.1869  0.0644
  880MPD2    H712915   1.801   0.395   0.676  1.5332  1.7344  1.1314
  881MPD2     C12916   1.725   1.273   0.048 -0.5504 -0.1431  0.2145
  881MPD2    C112917   1.833   1.191   0.026  0.0113  0.1012 -0.7349
  881MPD2    C212918   1.857   1.093   0.120 -0.5849  0.0082 -0.4893
  881MPD2    C312919   1.788   1.088   0.241  0.1079 -0.1633  0.1488
  881MPD2    C412920   1.689   1.183   0.260 -0.0732 -0.6148  0.4113
  881MPD2    C512921   1.651   1.269   0.160  0.0725 -0.4401 -0.3944
  881MPD2     H12922   1.932   1.016   0.102 -0.2096  0.6757 -1.7760
  881MPD2    H112923   1.645   1.183   0.359 -0.1343  0.7968  0.3851
  881MPD2    H212924   1.697   1.340  17.669 -3.4541 -1.0995  0.3984
  881MPD2    H312925   1.579   1.348   0.174 -0.5891 -1.3363  1.2403
  881MPD2     N12926   1.806   0.996   0.348  0.5748 -0.4401  0.5616
  881MPD2    H512927   1.744   1.002   0.428  0.1046 -1.0144  0.2350
  881MPD2    N112928   1.884   1.183  17.595 -0.1201  0.0372  0.6893
  881MPD2    H712929   1.822   1.222  17.525 -0.2011 -0.8660  0.2576
  882MPD2     C12930   0.127   2.747  14.010 -0.0051 -0.0750  0.1675
  882MPD2    C112931   0.102   2.836  14.111  0.5716  0.2554  0.4984
  882MPD2    C212932   4.695   2.883  14.111  0.0706 -0.8805  0.2137
  882MPD2    C312933   4.603   2.857  14.005 -0.0749  0.0830  0.0084
  882MPD2    C412934   4.637   2.761  13.911 -0.1314 -0.1669 -0.0798
  882MPD2    C512935   0.039   2.714  13.911 -0.0789  0.2758  0.1174
  882MPD2     H12936   4.669   2.944  14.197 -0.4598 -2.4028  1.1300
  882MPD2    H112937   4.572   2.743  13.827  0.8076 -0.8962 -0.6566
  882MPD2    H212938   0.230   2.715  14.005  0.0910  0.5403 -1.5178
  882MPD2    H312939   0.069   2.660  13.822  0.4004  0.8069 -0.0443
  882MPD2     N12940   4.468   2.903  14.011 -0.2696 -0.6475  0.1564
  882MPD2    H512941   4.403   2.863  13.943 -1.3227 -1.3768  1.5891
  882MPD2    N112942   0.193   2.868  14.206  0.3730  0.4495 -0.1192
  882MPD2    H712943   0.280   2.815  14.205  0.2151  0.2093 -1.1686
  883MPD2     C12944   2.019   2.738  16.746  0.1121 -0.7795 -0.5723
  883MPD2    C112945   2.099   2.791  16.646 -0.0674  0.8767 -1.0689
  883MPD2    C212946   2.216   2.848  16.676 -0.0166  0.7987  0.5879
  883MPD2    C312947   2.247   2.879  16.804  0.1972 -0.2194  0.1255
  883MPD2    C412948   2.186   2.817  16.905 -0.5231  0.1750 -0.2608
  883MPD2    C512949   2.073   2.750  16.869  0.7369  0.2639  0.7318
  883MPD2     H12950   2.281   2.883  16.596 -0.2727 -0.3425 -0.1153
  883MPD2    H112951   2.192   2.830  17.012  0.3886  0.7995 -0.3939
  883MPD2    H212952   1.919   2.701  16.725  1.3962 -3.6378 -1.5660
  883MPD2    H312953   2.014   2.727  16.957  1.2658 -0.6839  0.8412
  883MPD2     N12954   2.356   2.957  16.825 -0.1815  0.0146 -0.6366
  883MPD2    H512955   2.379   3.019  16.748 -1.1292  0.5299 -0.5015
  883MPD2    N112956   2.082   2.772  16.509  0.6215  0.0256 -0.8024
  883MPD2    H712957   2.157   2.808  16.452  0.3197 -1.9457 -2.4379
  884MPD2     C12958   3.952   3.513  15.032 -0.8275  0.0566  0.3035
  884MPD2    C112959   3.937   3.649  15.039 -0.5775  0.7259 -0.1829
  884MPD2    C212960   3.818   3.698  15.087 -0.3731 -0.5106 -0.4963
  884MPD2    C312961   3.706   3.615  15.106  0.5866 -0.1961 -0.0281
  884MPD2    C412962   3.727   3.476  15.086 -0.2494 -0.2933 -0.3973
  884MPD2    C512963   3.852   3.427  15.061 -0.2735  0.1154 -0.3737
  884MPD2     H12964   3.801   3.805  15.078  1.8618  0.0154  1.5768
  884MPD2    H112965   3.646   3.412  15.119  0.1216 -1.8228 -2.4918
  884MPD2    H212966   4.044   3.458  15.017 -1.3898 -0.5127 -1.1091
  884MPD2    H312967   3.873   3.321  15.062  2.2957  0.6237 -1.4257
  884MPD2     N12968   3.587   3.679  15.141  0.2930  0.0399  0.2251
  884MPD2    H512969   3.582   3.779  15.130 -0.7276 -0.1851 -1.4574
  884MPD2    N112970   4.045   3.734  14.986 -0.2316 -0.1333 -0.3114
  884MPD2    H712971   4.017   3.830  15.005  1.4260  0.1897  0.4917
  885MPD2     C12972   1.993   3.290   0.134 -0.3744  0.4627 -0.2178
  885MPD2    C112973   2.098   3.374   0.162  0.0456 -0.6421  0.3269
  885MPD2    C212974   2.124   3.481   0.080  0.4960 -0.8551 -0.2418
  885MPD2    C312975   2.043   3.503  17.674  0.0880 -0.5576 -0.3167
  885MPD2    C412976   1.948   3.412  17.634 -0.4528 -0.7034 -0.1464
  885MPD2    C512977   1.920   3.306   0.015  0.0330 -0.4505 -0.5330
  885MPD2     H12978   2.205   3.549   0.104 -0.9293  0.7567  0.0605
  885MPD2    H112979   1.885   3.418  17.546 -2.1539  0.2255  1.1330
  885MPD2    H212980   1.979   3.209   0.205 -0.2602 -0.2661 -1.0166
  885MPD2    H312981   1.844   3.232  17.696  0.7319 -1.2862 -0.0782
  885MPD2     N12982   2.059   3.630  17.605 -0.0691  0.3477 -0.0510
  885MPD2    H512983   2.127   3.693  17.647  0.4409 -1.7389  2.2791
  885MPD2    N112984   2.160   3.363   0.288  0.0277  0.2207 -0.0173
  885MPD2    H712985   2.140   3.274   0.332 -1.1875  2.0022  3.1033
  886MPD2     C12986   3.527   2.285  15.097  0.4978 -0.4506 -0.0688
  886MPD2    C112987   3.616   2.228  15.000  0.3188 -0.1365 -0.3769
  886MPD2    C212988   3.671   2.312  14.910  0.8038 -0.1234  0.3442
  886MPD2    C312989   3.614   2.433  14.890 -0.4694  0.2661  0.0193
  886MPD2    C412990   3.517   2.480  14.974 -0.0089  0.4895 -0.0520
  886MPD2    C512991   3.474   2.405  15.077 -0.4400  0.8571 -0.7108
  886MPD2     H12992   3.757   2.276  14.855  0.0586 -1.3287 -0.0497
  886MPD2    H112993   3.468   2.576  14.966 -1.3177 -0.2502 -0.8872
  886MPD2    H212994   3.483   2.227  15.177  0.6726  0.3188  0.5910
  886MPD2    H312995   3.407   2.449  15.150 -0.5660  0.0085 -0.3194
  886MPD2     N12996   3.650   2.523  14.784  0.0522  0.3649  0.2946
  886MPD2    H512997   3.595   2.608  14.773 -2.9274 -1.3412  1.8428
  886MPD2    N112998   3.680   2.099  15.021  0.1204  1.0541 -0.3915
  886MPD2    H712999   3.762   2.083  14.963  1.5813 -1.4568  2.3408
  887MPD2     C13000   4.288   2.155  15.227  0.2384  0.3766 -0.0480
  887MPD2    C113001   4.181   2.122  15.312  0.3010 -0.1908 -1.2462
  887MPD2    C213002   4.162   2.193  15.431 -0.2519 -0.2138 -0.4196
  887MPD2    C313003   4.246   2.296  15.467 -0.1708 -0.1769  0.3252
  887MPD2    C413004   4.351   2.329  15.374  0.5680  0.8004 -1.1498
  887MPD2    C513005   4.367   2.259  15.256 -0.5837 -0.9440  0.0235
  887MPD2     H13006   4.085   2.161  15.500 -0.9210 -1.5012 -1.7512
  887MPD2    H113007   4.425   2.408  15.387 -0.0065  1.0390  0.6633
  887MPD2    H213008   4.309   2.097  15.138 -0.2436  2.3231 -1.4399
  887MPD2    H313009   4.440   2.293  15.184  0.0131 -1.5351  0.3432
  887MPD2     N13010   4.214   2.353  15.591 -0.4058 -0.0051  0.2589
  887MPD2    H513011   4.127   2.322  15.633 -0.7722  0.7630  0.0603
  887MPD2    N113012   4.098   2.012  15.285  0.5177 -0.5670 -0.1341
  887MPD2    H713013   4.036   1.989  15.362  0.1441  0.6222 -0.0793
  888MPD2     C13014   1.226   2.178  14.805 -0.6045  0.9570 -0.2826
  888MPD2    C113015   1.222   2.213  14.940  0.8363  0.2666  0.3850
  888MPD2    C213016   1.264   2.334  14.983  0.4293  0.3044 -0.5423
  888MPD2    C313017   1.310   2.421  14.886 -0.3733 -0.2750  0.6731
  888MPD2    C413018   1.316   2.389  14.753  0.2587  0.8127  0.4212
  888MPD2    C513019   1.285   2.263  14.717 -0.8152 -0.0642  0.1365
  888MPD2     H13020   1.252   2.375  15.083  0.5026  2.7064 -1.5110
  888MPD2    H113021   1.342   2.453  14.669  0.2737  1.2425  0.7496
  888MPD2    H213022   1.200   2.075  14.784 -0.5355  0.9702 -0.4384
  888MPD2    H313023   1.281   2.231  14.614  1.3348  0.8521 -0.2286
  888MPD2     N13024   1.352   2.546  14.940  0.6222 -0.2337 -0.2106
  888MPD2    H513025   1.362   2.555  15.041  3.6203 -1.5487 -0.3742
  888MPD2    N113026   1.172   2.112  15.025  0.2904  0.5432 -0.7497
  888MPD2    H713027   1.126   2.041  14.970 -2.3468  1.4650  0.3019
  889MPD2     C13028   0.818   1.956  12.618 -0.0303 -0.1158  0.2094
  889MPD2    C113029   0.700   1.965  12.686  0.0283 -0.3981  0.3966
  889MPD2    C213030   0.627   2.085  12.667  0.1372 -0.2667 -0.2851
  889MPD2    C313031   0.670   2.176  12.569 -0.1247  0.7416 -0.1266
  889MPD2    C413032   0.780   2.158  12.494 -0.5885 -0.9803 -0.3673
  889MPD2    C513033   0.851   2.044  12.520  0.4058 -0.0981  0.3850
  889MPD2     H13034   0.538   2.117  12.720  0.9590 -0.1068  1.0092
  889MPD2    H113035   0.821   2.226  12.420 -0.4778  0.7059  1.2689
  889MPD2    H213036   0.887   1.873  12.630  0.8894  0.9923  2.7582
  889MPD2    H313037   0.947   2.029  12.471  1.3586  1.1250  1.8972
  889MPD2     N13038   0.583   2.282  12.549  0.1886  0.4171  0.1864
  889MPD2    H513039   0.509   2.298  12.617  0.9836  0.0239  1.1392
  889MPD2    N113040   0.682   1.875  12.792  0.2436 -0.0566  0.6660
  889MPD2    H713041   0.755   1.808  12.814  0.3817 -0.4797 -1.0690
  890MPD2     C13042   4.629   3.637  14.659  0.0167 -0.0579  0.1703
  890MPD2    C113043   0.026   3.644  14.721  0.8051 -0.3843 -0.0342
  890MPD2    C213044   0.048   3.547  14.824  0.6833 -0.2282 -0.5123
  890MPD2    C313045   4.683   3.451  14.855  0.3558  0.1904 -0.3786
  890MPD2    C413046   4.560   3.439  14.794 -0.0303 -0.7141 -0.8593
  890MPD2    C513047   4.535   3.530  14.692 -0.0964 -0.6209  0.6557
  890MPD2     H13048   0.133   3.556  14.891 -0.0708 -1.5551  0.6118
  890MPD2    H113049   4.491   3.360  14.819 -2.1241  1.6153  0.7711
  890MPD2    H213050   4.603   3.694  14.570 -1.4749 -0.0083  0.6438
  890MPD2    H313051   4.442   3.518  14.638 -0.6292  2.6157  0.8725
  890MPD2     N13052   0.008   3.371  14.957  0.0723  0.4334 -0.1053
  890MPD2    H513053   0.104   3.393  14.984  0.3089 -0.2036 -0.4223
  890MPD2    N113054   0.115   3.744  14.688  0.5902  0.2019  0.2899
  890MPD2    H713055   0.081   3.826  14.640  1.1381  0.1074 -0.2636
  891MPD2     C13056   2.882   2.010  16.410 -0.7951 -0.4831  0.0966
  891MPD2    C113057   2.815   2.087  16.501 -0.4035  0.4755 -0.4849
  891MPD2    C213058   2.894   2.175  16.573  0.3978 -0.7415 -0.0862
  891MPD2    C313059   3.030   2.190  16.555 -0.6082  0.0116 -0.6849
  891MPD2    C413060   3.096   2.108  16.464 -0.5611  0.0753  0.4708
  891MPD2    C513061   3.014   2.024  16.395  0.3876  0.6340 -0.4109
  891MPD2     H13062   2.848   2.247  16.640  0.4042 -0.4163 -0.4285
  891MPD2    H113063   3.201   2.112  16.438 -0.2272  1.1201  1.9860
  891MPD2    H213064   2.834   1.953  16.331  0.0782 -1.3267  0.1764
  891MPD2    H313065   3.049   1.953  16.321  0.3448 -0.6726  0.8037
  891MPD2     N13066   3.097   2.283  16.641  0.2096  0.9196  0.0817
  891MPD2    H513067   3.039   2.331  16.709  0.4874  1.2904  0.0563
  891MPD2    N113068   2.675   2.085  16.495  0.3340  0.2606  0.1606
  891MPD2    H713069   2.638   2.028  16.420 -0.2705 -1.4720  1.8049
  892MPD2     C13070   3.974   3.556  14.647 -0.1720 -0.2160 -0.6160
  892MPD2    C113071   3.896   3.448  14.616 -0.5699 -0.6386  0.0669
  892MPD2    C213072   3.950   3.349  14.538  0.3907  0.2053 -0.2867
  892MPD2    C313073   4.082   3.349  14.497 -0.0371  0.0741 -0.0946
  892MPD2    C413074   4.159   3.459  14.535 -0.2261 -0.4836 -0.6236
  892MPD2    C513075   4.108   3.560  14.605 -0.8143 -0.4199  0.2071
  892MPD2     H13076   3.892   3.259  14.523  2.7902 -1.3452 -0.2489
  892MPD2    H113077   4.263   3.469  14.506 -0.5748 -0.3431 -1.8363
  892MPD2    H213078   3.931   3.630  14.713 -1.0139  0.7310 -2.2284
  892MPD2    H313079   4.174   3.644  14.625  0.3415 -1.1082 -0.7468
  892MPD2     N13080   4.133   3.249  14.414  0.4364 -0.4571 -0.8481
  892MPD2    H513081   4.232   3.248  14.394  1.1249  1.3714  2.3852
  892MPD2    N113082   3.760   3.435  14.656  0.4180 -0.6649  0.2248
  892MPD2    H713083   3.716   3.347  14.632  0.6229 -0.4807 -0.8379
  893MPD2     C13084   2.155   2.161   1.566 -0.6803  0.0403  0.5481
  893MPD2    C113085   2.130   2.047   1.502  0.0178 -0.4917  0.6608
  893MPD2    C213086   1.999   2.007   1.469 -0.0230  0.3140  0.1929
  893MPD2    C313087   1.890   2.078   1.520  0.0402 -0.6910  0.2341
  893MPD2    C413088   1.923   2.197   1.588  0.4529  0.5350 -0.4239
  893MPD2    C513089   2.049   2.239   1.600  0.6415 -0.2076 -1.2030
  893MPD2     H13090   1.975   1.921   1.408 -1.3904  0.4374  0.5502
  893MPD2    H113091   1.841   2.261   1.619  0.0026 -1.0814  1.6991
  893MPD2    H213092   2.257   2.191   1.587 -0.2165  0.3948 -2.1739
  893MPD2    H313093   2.069   2.332   1.652  3.0793  0.2184 -2.9130
  893MPD2     N13094   1.753   2.048   1.484  0.0378  0.9743 -0.1895
  893MPD2    H513095   1.683   2.105   1.532 -1.1320 -0.4432 -0.2077
  893MPD2    N113096   2.246   1.965   1.476  0.1574 -0.1577 -0.1596
  893MPD2    H713097   2.332   1.985   1.526 -0.1157  2.9879 -0.9407
  894MPD2     C13098   4.662   3.941   0.999  0.5992  0.0803 -0.0764
  894MPD2    C113099   4.593   3.924   1.118  0.0650 -1.2157  0.0849
  894MPD2    C213100   4.587   4.029   1.208 -0.6302 -0.1211  0.1029
  894MPD2    C313101   4.655   4.145   1.184  0.3818  0.4116 -0.2534
  894MPD2    C413102   0.014   4.154   1.070 -0.5360  0.3015  0.3195
  894MPD2    C513103   0.008   4.057   0.976  0.2080 -0.5649 -0.0979
  894MPD2     H13104   4.539   4.019   1.304 -1.1389 -2.5578 -0.3916
  894MPD2    H113105   0.083   4.235   1.048 -0.7625  0.3790 -0.0959
  894MPD2    H213106   4.673   3.860   0.927 -0.6561 -0.1942  0.0310
  894MPD2    H313107   0.072   4.052   0.889 -1.2096  0.7663 -1.2194
  894MPD2     N13108   4.645   4.256   1.278 -0.1183 -0.0733 -0.1727
  894MPD2    H513109   4.603   4.237   1.368  0.7536 -0.4287  0.1595
  894MPD2    N113110   4.529   3.807   1.152 -0.0080  0.4399 -0.1620
  894MPD2    H713111   4.507   3.812   1.251  2.1993  1.1025  0.2906
  895MPD2     C13112   3.078   2.679  13.931 -0.3669  0.7279 -0.2726
  895MPD2    C113113   3.048   2.722  13.803 -0.1208  0.0613 -0.2790
  895MPD2    C213114   3.139   2.704  13.703  0.0936  0.3777 -0.0792
  895MPD2    C313115   3.243   2.619  13.715  0.0962  0.2217 -0.3199
  895MPD2    C413116   3.277   2.581  13.844  0.3942  0.6195 -1.0748
  895MPD2    C513117   3.200   2.623  13.948 -0.7363  0.2841 -0.8526
  895MPD2     H13118   3.120   2.740  13.603  1.4861 -0.0029 -0.4810
  895MPD2    H113119   3.362   2.515  13.856 -0.1090  0.0700 -0.5593
  895MPD2    H213120   3.020   2.696  14.021  1.2266 -2.2194  1.3007
  895MPD2    H313121   3.226   2.588  14.047 -1.4916  0.4498 -0.5976
  895MPD2     N13122   3.317   2.564  13.604 -0.0767  0.2944 -0.5802
  895MPD2    H513123   3.397   2.505  13.626 -0.0630  0.4641 -0.1662
  895MPD2    N113124   2.927   2.785  13.764 -0.1860 -0.4180 -0.2160
  895MPD2    H713125   2.909   2.790  13.664 -0.8162  0.0756 -0.0753
  896MPD2     C13126   1.833   4.624   1.704 -0.5984 -0.0143 -0.2517
  896MPD2    C113127   1.731   4.696   1.642 -0.2937 -0.1267  0.0262
  896MPD2    C213128   1.600   4.668   1.680  0.5073 -0.7580  0.7112
  896MPD2    C313129   1.570   4.569   1.770  0.3071 -0.4790  0.4948
  896MPD2    C413130   1.675   4.505   1.842  0.8420  0.0979  0.1537
  896MPD2    C513131   1.804   4.528   1.802 -0.2468 -0.0246 -0.6537
  896MPD2     H13132   1.515   4.717   1.635  1.7248  0.2873 -0.4701
  896MPD2    H113133   1.649   4.424   1.909  0.8470  1.0358  1.2766
  896MPD2    H213134   1.938   4.641   1.681 -0.7029  0.9047 -0.0512
  896MPD2    H313135   1.887   4.480   1.852 -0.3556  0.3552 -0.1121
  896MPD2     N13136   1.433   4.542   1.783  0.2416  0.4753  0.9263
  896MPD2    H513137   1.370   4.597   1.726 -0.6051 -1.9160 -0.4520
  896MPD2    N113138   1.751   0.074   1.547  0.5516  0.6497 -0.0834
  896MPD2    H713139   1.665   0.122   1.521  3.6982  4.4737 -3.4744
  897MPD2     C13140   1.379   1.425  10.451 -0.3999 -0.0967  0.8074
  897MPD2    C113141   1.413   1.514  10.553 -0.4199  1.1461 -0.6232
  897MPD2    C213142   1.354   1.637  10.555  0.3494 -0.1970  0.0028
  897MPD2    C313143   1.251   1.668  10.470 -0.1234 -0.0846  0.2489
  897MPD2    C413144   1.219   1.574  10.376  0.4715 -0.0203 -0.4463
  897MPD2    C513145   1.288   1.460  10.360  0.1929  0.4182 -0.4971
  897MPD2     H13146   1.369   1.700  10.643  2.0202  0.1086 -0.4900
  897MPD2    H113147   1.136   1.584  10.307  0.3281 -0.4341 -0.3401
  897MPD2    H213148   1.418   1.324  10.444  0.2642  0.1601  0.7992
  897MPD2    H313149   1.253   1.398  10.278 -1.5297 -0.9535  1.2812
  897MPD2     N13150   1.170   1.781  10.492 -0.2236 -0.2423 -0.2337
  897MPD2    H513151   1.169   1.830  10.580  0.7495  1.7840 -1.3309
  897MPD2    N113152   1.508   1.464  10.646  0.2895  0.1042 -0.0489
  897MPD2    H713153   1.519   1.363  10.641 -2.0695 -0.1661  0.2796
  898MPD2     C13154   3.902   2.560  17.647 -0.8082 -0.2375 -0.1827
  898MPD2    C113155   3.999   2.620  17.573  0.4616 -0.0277  0.0741
  898MPD2    C213156   3.971   2.739  17.510 -0.3419  0.2896 -0.4078
  898MPD2    C313157   3.841   2.790  17.510  0.1699  0.0812 -0.3562
  898MPD2    C413158   3.741   2.725  17.585  0.3373  0.1553  0.2321
  898MPD2    C513159   3.769   2.607  17.648 -0.9236 -0.4497  0.5196
  898MPD2     H13160   4.056   2.790  17.467  0.2404 -0.4400 -0.1117
  898MPD2    H113161   3.634   2.742  17.577  0.1860 -1.5016 -1.3998
  898MPD2    H213162   3.921   2.468  17.700 -0.8904 -0.2285 -0.1369
  898MPD2    H313163   3.695   2.547  17.700 -0.9150 -2.1259 -1.3951
  898MPD2     N13164   3.815   2.909  17.439 -0.1832  0.3778 -0.2978
  898MPD2    H513165   3.893   2.947  17.386  1.0659 -0.6822  0.7868
  898MPD2    N113166   4.125   2.566  17.573 -0.0358 -0.4962 -0.5424
  898MPD2    H713167   4.193   2.621  17.522 -2.4890  2.4692 -0.5896
  899MPD2     C13168   4.360   2.987  17.584 -1.0983 -0.4369 -0.1708
  899MPD2    C113169   4.417   3.094  17.652  0.5740  0.4428  0.3956
  899MPD2    C213170   4.420   3.078   0.088  0.4385  0.7514  0.1004
  899MPD2    C313171   4.372   2.975   0.154  0.4023 -0.1944 -0.2958
  899MPD2    C413172   4.311   2.874   0.079  0.1843 -0.5472  0.7457
  899MPD2    C513173   4.306   2.878  17.647  0.4159 -0.2854 -0.3783
  899MPD2     H13174   4.463   3.160   0.144  3.9167 -0.9651 -0.0454
  899MPD2    H113175   4.265   2.791   0.130 -3.1460  1.5997  1.2039
  899MPD2    H213176   4.349   2.988  17.476 -0.8029 -0.4558 -0.2017
  899MPD2    H313177   4.264   2.795  17.592  3.5709 -1.9214 -0.2895
  899MPD2     N13178   4.384   2.961   0.294  0.8298  0.4586  0.6666
  899MPD2    H513179   4.341   2.880   0.338 -1.9703  0.9356 -1.2097
  899MPD2    N113180   4.452   3.209  17.580  0.0522 -0.2826 -0.4638
  899MPD2    H713181   4.467   3.202  17.480 -1.0839  0.4221 -0.6894
  900MPD2     C13182   3.742   0.599  12.198 -0.9429  0.4918  0.0251
  900MPD2    C113183   3.648   0.509  12.164 -0.7558  0.0472  0.0273
  900MPD2    C213184   3.549   0.540  12.070 -0.0078 -0.0631 -0.3205
  900MPD2    C313185   3.546   0.671  12.020  0.4690  0.2537 -0.3412
  900MPD2    C413186   3.642   0.759  12.056 -0.0914  0.4113  0.2550
  900MPD2    C513187   3.738   0.726  12.147  0.1161 -0.0607  0.0139
  900MPD2     H13188   3.468   0.473  12.045  0.2788 -0.3814 -0.3858
  900MPD2    H113189   3.643   0.851  11.999 -0.0407  0.2262 -0.0413
  900MPD2    H213190   3.825   0.565  12.260 -0.8049 -1.6502 -1.3215
  900MPD2    H313191   3.820   0.793  12.169 -0.1214  0.1785  0.1543
  900MPD2     N13192   3.435   0.714  11.944  0.0941 -1.0510  0.2351
  900MPD2    H513193   3.352   0.655  11.946  0.1203 -1.1459 -1.4888
  900MPD2    N113194   3.668   0.376  12.213 -0.4616  0.3898 -0.5597
  900MPD2    H713195   3.750   0.367  12.272 -1.2940 -0.1384  0.5163
  901MPD2     C13196   3.359   4.103  12.516 -0.5372 -1.0344 -0.1443
  901MPD2    C113197   3.485   4.093  12.470  0.3809 -0.0447  0.4280
  901MPD2    C213198   3.534   4.201  12.399  0.7557 -0.4245 -0.0521
  901MPD2    C313199   3.468   4.327  12.394 -0.1153  1.0796  0.5938
  901MPD2    C413200   3.347   4.332  12.457  0.3632 -0.3657 -0.9323
  901MPD2    C513201   3.288   4.218  12.501  0.0621  0.3244  1.0202
  901MPD2     H13202   3.633   4.200  12.355 -0.3761  0.3306 -2.6311
  901MPD2    H113203   3.282   4.418  12.468  0.9776  0.0713 -0.7090
  901MPD2    H213204   3.313   4.019  12.567  0.3670 -0.2429  1.9381
  901MPD2    H313205   3.187   4.223  12.542 -0.6186  0.2419 -0.6559
  901MPD2     N13206   3.530   4.441  12.329  0.4688 -0.3057 -0.5402
  901MPD2    H513207   3.623   4.432  12.289  0.5588 -1.5637 -0.0337
  901MPD2    N113208   3.550   3.968  12.483 -0.2831  0.4162  0.3306
  901MPD2    H713209   3.486   3.890  12.478 -1.1178  1.0510  1.1078
  902MPD2     C13210   3.144   3.330  12.882  1.0170  0.4708 -0.0287
  902MPD2    C113211   3.047   3.266  12.814  1.1082 -0.4923 -0.2574
  902MPD2    C213212   3.084   3.181  12.710 -0.4216 -0.3122 -0.0731
  902MPD2    C313213   3.212   3.131  12.702 -0.4266 -0.0442 -0.5266
  902MPD2    C413214   3.306   3.193  12.778 -0.0855  0.4594  0.2052
  902MPD2    C513215   3.275   3.293  12.867  0.5124  0.8396 -1.0592
  902MPD2     H13216   3.005   3.132  12.653 -0.6093  1.3420 -1.2506
  902MPD2    H113217   3.408   3.156  12.767 -0.3410 -0.0074 -0.6057
  902MPD2    H213218   3.111   3.392  12.964 -0.6954  1.1914 -1.2679
  902MPD2    H313219   3.352   3.339  12.927  0.5893 -0.0848 -0.4456
  902MPD2     N13220   3.229   3.019  12.623  0.3943  0.4476  0.0529
  902MPD2    H513221   3.156   2.982  12.564  1.4821  0.4803 -1.3090
  902MPD2    N113222   2.919   3.294  12.853 -0.0759  0.9890  0.1397
  902MPD2    H713223   2.902   3.366  12.922  0.8200  0.8547  0.4959
  903MPD2     C13224   3.134   3.052  11.966  0.0661  0.6163 -0.4761
  903MPD2    C113225   3.077   2.955  12.051  0.9746 -0.0104 -0.0158
  903MPD2    C213226   2.939   2.937  12.044  0.8125 -0.2728  0.3193
  903MPD2    C313227   2.865   3.016  11.954  0.6041  0.5035  0.5886
  903MPD2    C413228   2.927   3.105  11.871  0.0347 -0.2624 -0.1560
  903MPD2    C513229   3.061   3.119  11.873 -0.4324 -0.0364  1.0581
  903MPD2     H13230   2.890   2.870  12.113 -3.5913  1.8440 -0.8036
  903MPD2    H113231   2.870   3.171  11.807 -1.1592 -1.2471 -0.1029
  903MPD2    H213232   3.242   3.068  11.965  0.0403  0.3966 -4.3898
  903MPD2    H313233   3.117   3.176  11.800  0.3326 -1.3349  0.6192
  903MPD2     N13234   2.728   3.003  11.958  0.0993  0.3471  0.1298
  903MPD2    H513235   2.690   2.957  12.040 -0.0129  3.3662  1.7655
  903MPD2    N113236   3.160   2.894  12.147 -0.1102 -0.6630  0.0735
  903MPD2    H713237   3.245   2.948  12.162 -0.9699  0.7736 -0.2862
  904MPD2     C13238   3.011   2.114  13.691  0.1435 -0.2768  0.2725
  904MPD2    C113239   3.047   1.997  13.760 -0.5547 -0.1589  0.3095
  904MPD2    C213240   3.167   2.001  13.815 -0.1342 -0.7676  0.0638
  904MPD2    C313241   3.245   2.113  13.812 -0.1372  0.1077  0.2713
  904MPD2    C413242   3.208   2.216  13.737  0.1046  0.4246  0.0126
  904MPD2    C513243   3.100   2.210  13.661  0.1271 -0.3339 -0.1846
  904MPD2     H13244   3.198   1.916  13.874  1.3111 -1.1911 -1.2990
  904MPD2    H113245   3.266   2.307  13.732 -1.2569  1.4178  2.1520
  904MPD2    H213246   2.918   2.133  13.640  0.4102  1.5314  0.4643
  904MPD2    H313247   3.072   2.300  13.607 -0.8243  0.7745  2.1237
  904MPD2     N13248   3.373   2.113  13.882 -0.1219  0.3909  0.7463
  904MPD2    H513249   3.388   2.028  13.936 -1.1976  0.4607  1.1535
  904MPD2    N113250   2.967   1.875  13.782 -0.0596 -0.1535 -0.8684
  904MPD2    H713251   3.011   1.793  13.820 -0.4833  0.0635  0.0742
  905MPD2     C13252   2.725   2.065  13.132  0.4147  0.8822  0.3645
  905MPD2    C113253   2.774   2.124  13.251 -0.1640 -0.6240  0.0062
  905MPD2    C213254   2.887   2.200  13.250  0.2120 -0.1401  0.0158
  905MPD2    C313255   2.955   2.217  13.129  1.0323  0.0620  1.0730
  905MPD2    C413256   2.914   2.150  13.017  0.2003  0.1002 -0.9257
  905MPD2    C513257   2.796   2.078  13.018  0.6978 -0.2203 -0.3555
  905MPD2     H13258   2.924   2.238  13.345 -0.8356  0.4188  0.2050
  905MPD2    H113259   2.968   2.149  12.924  0.2287  2.8346 -0.9319
  905MPD2    H213260   2.636   2.004  13.131  0.3943  0.8728  3.0365
  905MPD2    H313261   2.764   2.022  12.931 -0.5508 -0.4704  0.2690
  905MPD2     N13262   3.075   2.278  13.113 -0.2927  0.1293 -0.3242
  905MPD2    H513263   3.117   2.268  13.021  1.1704  0.9998  0.2479
  905MPD2    N113264   2.700   2.097  13.371  0.3417 -0.3572  0.0073
  905MPD2    H713265   2.627   2.027  13.366  0.9414 -1.0321  0.7350
  906MPD2     C13266   4.710   1.737  11.264 -0.2450  0.2702 -0.1809
  906MPD2    C113267   4.675   1.638  11.178 -0.1757  0.1068  0.0445
  906MPD2    C213268   4.588   1.544  11.224  0.0296  0.3877 -0.4378
  906MPD2    C313269   4.539   1.547  11.348 -0.1851  0.5165  0.0710
  906MPD2    C413270   4.576   1.645  11.436  1.2188  0.4788  0.3505
  906MPD2    C513271   4.667   1.741  11.396 -0.1736  0.2794  0.2578
  906MPD2     H13272   4.552   1.465  11.159 -1.1706  0.4102  0.2029
  906MPD2    H113273   4.554   1.657  11.541  0.7234 -0.4609  0.3552
  906MPD2    H213274   0.033   1.831  11.239 -0.9602  0.6048 -0.2823
  906MPD2    H313275   4.681   1.823  11.465 -1.1715  0.4677  0.2359
  906MPD2     N13276   4.450   1.445  11.383 -0.1374  0.2427  0.4818
  906MPD2    H513277   4.428   1.371  11.318  0.8181 -3.4294  4.3677
  906MPD2    N113278   4.701   1.643  11.040  0.4976 -0.4789 -0.5008
  906MPD2    H713279   4.652   1.574  10.984  0.2105 -0.1979 -0.5949
  907MPD2     C13280   3.496   0.922  15.338 -0.0139  0.0107 -0.1534
  907MPD2    C113281   3.582   0.814  15.334 -0.5246  0.0082  0.1539
  907MPD2    C213282   3.639   0.768  15.455  0.4059  0.1986  0.2749
  907MPD2    C313283   3.621   0.833  15.573  0.8558 -0.3199  0.8607
  907MPD2    C413284   3.530   0.930  15.578  0.3911 -0.5373  0.1530
  907MPD2    C513285   3.471   0.973  15.465 -0.6525 -0.4534  0.6090
  907MPD2     H13286   3.713   0.689  15.456 -0.2116 -0.2961  3.9989
  907MPD2    H113287   3.500   0.973  15.673  1.7521  0.7650 -0.0096
  907MPD2    H213288   3.435   0.957  15.255 -1.1204  1.7997  1.4141
  907MPD2    H313289   3.398   1.052  15.469  0.7146  0.8819 -0.9902
  907MPD2     N13290   3.706   0.798  15.683  0.1603 -0.2617 -0.5683
  907MPD2    H513291   3.782   0.734  15.661 -0.1110 -0.2008 -1.6776
  907MPD2    N113292   3.621   0.747  15.220 -0.1416 -0.0392 -0.0063
  907MPD2    H713293   3.692   0.675  15.228 -1.1735 -1.0815 -0.1427
  908MPD2     C13294   2.096   1.041  10.238 -0.3057  0.4620 -0.2719
  908MPD2    C113295   1.976   1.106  10.233 -0.2667  0.3184 -0.5894
  908MPD2    C213296   1.926   1.180  10.338 -0.2066  0.1559  0.5518
  908MPD2    C313297   1.998   1.185  10.456 -0.0444  0.6038  0.2041
  908MPD2    C413298   2.118   1.129  10.460 -0.4973  0.3654  0.3843
  908MPD2    C513299   2.161   1.048  10.358 -0.1451 -0.1220  1.4868
  908MPD2     H13300   1.826   1.221  10.339 -0.8898 -1.5193  0.0931
  908MPD2    H113301   2.184   1.135  10.545  1.7388  1.6141 -1.4270
  908MPD2    H213302   2.131   0.976  10.158  0.5648 -0.7411  1.1014
  908MPD2    H313303   2.256   0.997  10.370 -1.2955 -3.1636 -2.5087
  908MPD2     N13304   1.932   1.260  10.561 -0.3327  0.4570  0.4770
  908MPD2    H513305   1.843   1.300  10.535  0.5654  0.5496 -2.4734
  908MPD2    N113306   1.911   1.104  10.113 -0.2265  0.8038  0.1938
  908MPD2    H713307   1.950   1.039  10.046  1.1810  1.8024  0.0555
  909MPD2     C13308   1.981   4.130  11.913 -0.4754 -0.2634  0.5222
  909MPD2    C113309   1.937   4.199  11.806  1.0405 -0.0159 -0.7636
  909MPD2    C213310   1.819   4.269  11.814  0.8171  0.1265  0.3368
  909MPD2    C313311   1.742   4.277  11.930 -0.0390 -0.2822  0.2227
  909MPD2    C413312   1.793   4.218  12.039  0.1689  0.2337  0.2526
  909MPD2    C513313   1.912   4.145  12.030 -0.5053 -0.0784  0.5947
  909MPD2     H13314   1.785   4.311  11.720  0.2265  0.9224  0.9083
  909MPD2    H113315   1.754   4.218  12.140 -0.2734  0.0154  0.0829
  909MPD2    H213316   2.078   4.082  11.912 -0.7629 -0.8068 -1.7952
  909MPD2    H313317   1.940   4.084  12.115 -0.2479 -2.0994 -0.9313
  909MPD2     N13318   1.626   4.365  11.934 -0.1082  0.2019  0.3398
  909MPD2    H513319   1.587   4.395  11.846 -0.8880  0.5074  0.7887
  909MPD2    N113320   2.001   4.189  11.682 -0.3131  0.2275  0.6017
  909MPD2    H713321   1.958   4.242  11.607 -0.8423  0.5282  1.1235
  910MPD2     C13322   3.268   1.335  15.808  0.0681  0.2646  0.2300
  910MPD2    C113323   3.377   1.255  15.800 -0.0233 -0.1520  0.2711
  910MPD2    C213324   3.441   1.255  15.678 -0.6232 -0.4696 -0.5668
  910MPD2    C313325   3.399   1.334  15.573  0.9934 -0.1636 -0.0610
  910MPD2    C413326   3.277   1.390  15.576 -0.6049 -0.2075 -0.3792
  910MPD2    C513327   3.217   1.395  15.697 -0.3429  0.1554 -0.4243
  910MPD2     H13328   3.526   1.189  15.669 -0.2788 -0.2083  0.7205
  910MPD2    H113329   3.228   1.439  15.493  1.7205  2.2873 -0.3043
  910MPD2    H213330   3.223   1.344  15.906  2.0289  1.4613  1.0032
  910MPD2    H313331   3.118   1.438  15.710  0.4572  1.1273  2.5554
  910MPD2     N13332   3.460   1.332  15.444 -0.1747 -0.2955  0.0044
  910MPD2    H513333   3.402   1.368  15.369  0.2695  0.0262 -0.1914
  910MPD2    N113334   3.419   1.171  15.907  0.5497 -0.4828 -0.5345
  910MPD2    H713335   3.491   1.103  15.885  1.0835  0.1856 -0.8331
  911MPD2     C13336   1.151   1.868  15.963 -0.4308 -0.0336  0.4062
  911MPD2    C113337   1.175   1.917  16.087 -0.0567  0.2703  0.0293
  911MPD2    C213338   1.097   2.024  16.131 -0.4633 -1.0767  0.6043
  911MPD2    C313339   0.991   2.069  16.048 -0.4006 -0.1782  0.2030
  911MPD2    C413340   0.963   2.006  15.928 -0.0565 -0.2125  0.3220
  911MPD2    C513341   1.047   1.905  15.886  0.3734  0.7089  0.6038
  911MPD2     H13342   1.116   2.070  16.227 -3.6383 -1.5633  1.4698
  911MPD2    H113343   0.872   2.027  15.873 -0.5885  0.5788  1.5341
  911MPD2    H213344   1.217   1.798  15.914 -1.3869 -1.7268  1.5138
  911MPD2    H313345   1.025   1.860  15.789 -0.2751  1.0170  0.6079
  911MPD2     N13346   0.916   2.186  16.068  0.3887  0.6648 -0.3690
  911MPD2    H513347   0.835   2.213  16.013 -0.6089 -3.0076 -0.6732
  911MPD2    N113348   1.277   1.855  16.161  0.4357 -0.6246 -0.2709
  911MPD2    H713349   1.327   1.778  16.117  3.0145  1.0871 -0.3121
  912MPD2     C13350   0.690   2.144  15.604 -0.0172 -0.0053 -0.6263
  912MPD2    C113351   0.656   2.133  15.739  0.3935 -0.1183  0.6651
  912MPD2    C213352   0.638   2.007  15.792 -0.6100  0.1275 -0.3822
  912MPD2    C313353   0.679   1.889  15.725 -0.3106 -0.3646  0.5122
  912MPD2    C413354   0.721   1.903  15.595 -0.2400  0.3169 -0.5007
  912MPD2    C513355   0.724   2.030  15.538 -0.8917  0.5448 -0.1873
  912MPD2     H13356   0.618   1.992  15.898  0.4594 -0.3009 -0.2398
  912MPD2    H113357   0.736   1.818  15.530  1.2206  1.2177 -1.3365
  912MPD2    H213358   0.690   2.237  15.549 -0.5917  0.6591  0.4841
  912MPD2    H313359   0.746   2.030  15.432  0.3683  2.2438  0.0782
  912MPD2     N13360   0.670   1.769  15.798 -0.3015  0.3272  0.3215
  912MPD2    H513361   0.627   1.785  15.888  2.1741 -1.5945  1.8283
  912MPD2    N113362   0.659   2.248  15.816  0.6518  0.1606 -0.3768
  912MPD2    H713363   0.688   2.337  15.775  1.5456 -0.5443 -1.3082
  913MPD2     C13364   0.914   2.749  10.355 -0.0676  0.1186 -0.1770
  913MPD2    C113365   1.032   2.799  10.408 -0.4255  0.6710 -0.1202
  913MPD2    C213366   1.062   2.928  10.382  0.2354 -0.6163 -0.7381
  913MPD2    C313367   0.989   3.001  10.289 -0.0404  0.8276  0.1699
  913MPD2    C413368   0.882   2.943  10.232  0.3959  0.3598 -0.0288
  913MPD2    C513369   0.841   2.813  10.258 -0.2582 -0.0208 -0.1685
  913MPD2     H13370   1.148   2.977  10.426 -2.3503 -0.3229  3.9710
  913MPD2    H113371   0.818   2.986  10.155 -2.4954  0.1480  2.2588
  913MPD2    H213372   0.885   2.646  10.372  1.4474 -0.7501 -2.8408
  913MPD2    H313373   0.767   2.763  10.196 -0.0377 -1.9519  1.1069
  913MPD2     N13374   1.021   3.133  10.253 -0.6258 -0.3850 -0.2499
  913MPD2    H513375   0.967   3.171  10.175 -1.0068  0.6472  0.5118
  913MPD2    N113376   1.096   2.718  10.500  0.0681  0.0765 -0.5042
  913MPD2    H713377   1.071   2.620  10.503  2.6406 -0.5958 -0.5774
  914MPD2     C13378   3.386   3.830  11.784 -0.1537 -0.8182 -0.0935
  914MPD2    C113379   3.440   3.927  11.855  0.4019  0.8665  0.0160
  914MPD2    C213380   3.528   3.908  11.963  0.1913  0.3316 -0.0053
  914MPD2    C313381   3.573   3.784  11.983 -0.3801 -0.1252  0.4669
  914MPD2    C413382   3.524   3.674  11.911 -0.3965  0.1734 -0.0827
  914MPD2    C513383   3.430   3.703  11.812 -0.1395 -0.0468 -0.2887
  914MPD2     H13384   3.546   3.982  12.040  1.5319 -0.8543  0.8183
  914MPD2    H113385   3.563   3.576  11.936 -1.6737 -0.1786  0.4978
  914MPD2    H213386   3.321   3.853  11.701  0.1394 -1.9772 -0.6418
  914MPD2    H313387   3.401   3.620  11.749 -3.7050  0.4570  0.7277
  914MPD2     N13388   3.660   3.765  12.099  0.2440  0.0116  0.6454
  914MPD2    H513389   3.691   3.852  12.141  0.1300  0.4207 -0.1176
  914MPD2    N113390   3.403   4.055  11.813 -0.1069  0.3961  0.1579
  914MPD2    H713391   3.339   4.056  11.734 -2.2437 -0.6925  1.8871
  915MPD2     C13392   1.913   3.289  15.625 -0.2494 -0.2267  0.9785
  915MPD2    C113393   1.825   3.393  15.627  0.2005 -0.3353 -0.0345
  915MPD2    C213394   1.828   3.477  15.731 -0.7438 -0.2742  0.5892
  915MPD2    C313395   1.930   3.463  15.832  1.0969 -0.3866  0.7811
  915MPD2    C413396   2.010   3.342  15.826 -0.6588 -0.5189 -0.4459
  915MPD2    C513397   2.003   3.258  15.721 -0.3225  0.4582  0.0062
  915MPD2     H13398   1.767   3.566  15.719  0.8169  0.7681  0.3613
  915MPD2    H113399   2.081   3.320  15.906  0.2698 -2.7487 -1.8772
  915MPD2    H213400   1.902   3.221  15.541  0.2893  0.5363  0.2954
  915MPD2    H313401   2.060   3.167  15.710 -3.0186 -1.4763  1.8749
  915MPD2     N13402   1.944   3.559  15.934  0.6251  0.6172  0.2178
  915MPD2    H513403   2.003   3.533  16.013 -1.1440 -2.6068  0.4804
  915MPD2    N113404   1.733   3.422  15.521 -0.0515  0.1986 -1.2039
  915MPD2    H713405   1.671   3.501  15.529 -0.0502 -0.1582  2.1225
  916MPD2     C13406   0.399   1.681  15.657  0.1013  0.4230 -0.6435
  916MPD2    C113407   0.371   1.584  15.752  0.2109  0.1848 -0.0240
  916MPD2    C213408   0.354   1.452  15.710 -0.5398  0.2535 -1.3829
  916MPD2    C313409   0.367   1.419  15.578  0.3582  0.1525  0.6169
  916MPD2    C413410   0.403   1.522  15.490 -0.1209  0.1950 -0.6521
  916MPD2    C513411   0.424   1.647  15.530 -0.7142  1.0385  0.2276
  916MPD2     H13412   0.323   1.385  15.788 -0.3106  0.8100 -0.8161
  916MPD2    H113413   0.399   1.505  15.383 -0.4821 -1.8909 -0.2923
  916MPD2    H213414   0.409   1.781  15.696 -0.3877  1.2448 -2.6772
  916MPD2    H313415   0.443   1.724  15.457 -0.9623 -0.1837 -1.1344
  916MPD2     N13416   0.324   1.286  15.536  0.6603  0.1255  0.1283
  916MPD2    H513417   0.307   1.209  15.599 -0.3449  1.9607  2.0808
  916MPD2    N113418   0.341   1.638  15.884  0.2189  0.1318 -0.1581
  916MPD2    H713419   0.324   1.737  15.890 -0.8791  0.0906 -2.5038
  917MPD2     C13420   0.402   3.943  11.116  0.5673  0.6659 -0.2645
  917MPD2    C113421   0.422   4.032  11.227 -0.3991 -0.5421 -0.3997
  917MPD2    C213422   0.533   4.112  11.228 -0.7642  0.3325  0.8434
  917MPD2    C313423   0.625   4.103  11.131  0.6412  0.5462 -0.0275
  917MPD2    C413424   0.596   4.034  11.013  0.1750 -0.1975 -0.0932
  917MPD2    C513425   0.491   3.952  11.011  0.1195 -0.0252  0.2557
  917MPD2     H13426   0.550   4.179  11.312  0.4914  0.8916  0.1488
  917MPD2    H113427   0.651   4.046  10.921  0.0840 -2.2971 -0.4217
  917MPD2    H213428   0.307   3.891  11.112  0.6508  0.5072 -0.1803
  917MPD2    H313429   0.475   3.897  10.919 -2.4078 -0.0993  0.7432
  917MPD2     N13430   0.734   4.195  11.125 -0.1611 -0.2069 -0.0057
  917MPD2    H513431   0.796   4.190  11.045 -1.2886  0.9902 -0.9511
  917MPD2    N113432   0.321   4.041  11.323  0.2208 -0.1239 -0.6481
  917MPD2    H713433   0.226   4.013  11.299 -0.1635  1.8149 -1.4045
  918MPD2     C13434   0.482   4.455  12.174 -0.3404  0.1922  0.4524
  918MPD2    C113435   0.546   4.342  12.117 -0.1748 -0.3996 -0.1288
  918MPD2    C213436   0.475   4.260  12.034  0.4695  0.2092  0.2125
  918MPD2    C313437   0.343   4.280  12.010 -0.0665  0.2722 -0.4422
  918MPD2    C413438   0.275   4.378  12.079 -0.4922 -0.1890 -0.0472
  918MPD2    C513439   0.350   4.465  12.155  0.0756 -0.6025  0.2076
  918MPD2     H13440   0.522   4.172  11.991 -2.1828  0.3468 -2.9192
  918MPD2    H113441   0.174   4.408  12.055  0.1909 -0.8003 -3.6211
  918MPD2    H213442   0.533   4.523  12.240  0.6272  0.1211 -0.2237
  918MPD2    H313443   0.298   4.544  12.207 -1.6215 -0.0648 -2.3092
  918MPD2     N13444   0.284   4.195  11.910 -1.0638 -0.2368  0.0125
  918MPD2    H513445   0.351   4.130  11.871  1.5468  1.8627  1.0225
  918MPD2    N113446   0.686   4.319  12.134 -0.3967  0.0010 -0.3594
  918MPD2    H713447   0.728   4.242  12.084  0.1175 -0.5794  0.9627
  919MPD2     C13448   1.121   3.398  11.568 -0.2471  0.0244 -0.2786
  919MPD2    C113449   0.994   3.342  11.577  0.1609 -0.2757 -0.0510
  919MPD2    C213450   0.907   3.361  11.468  0.2111 -0.1010 -0.5071
  919MPD2    C313451   0.956   3.422  11.354 -0.3475  0.6961 -0.5281
  919MPD2    C413452   1.081   3.475  11.351 -0.0224 -0.0543  0.0903
  919MPD2    C513453   1.159   3.463  11.461  0.1200 -0.1542 -0.5738
  919MPD2     H13454   0.802   3.334  11.476  0.3142 -0.1822  0.6735
  919MPD2    H113455   1.110   3.541  11.270 -1.2978  0.4769  0.0647
  919MPD2    H213456   1.193   3.391  11.648 -1.0682  0.2418  0.4857
  919MPD2    H313457   1.262   3.491  11.443  0.5440  0.4311  2.9185
  919MPD2     N13458   0.889   3.424  11.230  0.0586  0.7435  0.5743
  919MPD2    H513459   0.944   3.454  11.150 -1.2086 -0.2103 -0.6537
  919MPD2    N113460   0.959   3.272  11.693  0.2610 -0.7797 -0.3838
  919MPD2    H713461   1.035   3.234  11.749 -0.9560 -0.0413  1.7750
  920MPD2     C13462   0.974   3.677  10.273 -0.2015  0.3478  0.2637
  920MPD2    C113463   0.840   3.640  10.271  0.0516 -0.6461  0.1258
  920MPD2    C213464   0.784   3.557  10.369 -0.5706  0.7748  0.1625
  920MPD2    C313465   0.853   3.525  10.479 -0.2609  0.2140 -0.1943
  920MPD2    C413466   0.983   3.565  10.483 -0.3647  0.6074  0.6063
  920MPD2    C513467   1.042   3.636  10.384 -0.0587 -0.7697  0.0625
  920MPD2     H13468   0.677   3.539  10.366 -0.4152 -0.0818 -0.3695
  920MPD2    H113469   1.053   3.526  10.557 -0.4131  0.2698  0.4741
  920MPD2    H213470   1.028   3.736  10.200 -1.0758  1.8495  0.8192
  920MPD2    H313471   1.147   3.661  10.378 -0.2850  0.1180 -0.2271
  920MPD2     N13472   0.797   3.465  10.597 -0.1691 -0.0111 -0.2949
  920MPD2    H513473   0.697   3.451  10.590 -0.1695 -0.3783  0.4602
  920MPD2    N113474   0.762   3.679  10.169 -0.1393  0.1274  0.0737
  920MPD2    H713475   0.669   3.644  10.148 -0.7787  0.6921  1.9594
  921MPD2     C13476   1.947   2.077  16.824  0.2418 -0.4677  0.1737
  921MPD2    C113477   1.977   1.997  16.715 -0.7924 -0.0424 -0.5555
  921MPD2    C213478   1.884   1.909  16.665  0.2551 -0.4605  0.5808
  921MPD2    C313479   1.754   1.904  16.719 -0.2203 -0.0111  0.1445
  921MPD2    C413480   1.718   1.987  16.823 -0.3381  0.4518 -0.4149
  921MPD2    C513481   1.817   2.069  16.871  0.2775  0.5963 -0.3756
  921MPD2     H13482   1.913   1.843  16.584  2.5925 -1.3809  2.1740
  921MPD2    H113483   1.618   1.989  16.865 -0.0346  2.1093  0.2255
  921MPD2    H213484   2.015   2.144  16.877  0.7747 -2.4441  1.9643
  921MPD2    H313485   1.797   2.130  16.958  1.2681  1.4330 -0.7457
  921MPD2     N13486   1.657   1.815  16.676 -0.4351  0.2372  0.4715
  921MPD2    H513487   1.564   1.831  16.714 -0.9455 -1.1210 -0.2170
  921MPD2    N113488   2.105   2.024  16.653  0.4693 -0.4415  0.2196
  921MPD2    H713489   2.154   2.110  16.677 -0.4483 -0.0392  0.6541
  922MPD2     C13490   3.083   4.724   0.330 -0.0297 -0.1131  0.5751
  922MPD2    C113491   2.997   0.106   0.368  0.2441 -0.3524  0.4310
  922MPD2    C213492   2.886   0.134   0.289  0.4291  0.4593  0.2781
  922MPD2    C313493   2.852   0.044   0.187  0.0471  0.1558 -0.8606
  922MPD2    C413494   2.928   4.661   0.160  0.5827 -0.2584  0.0081
  922MPD2    C513495   3.052   4.645   0.223  0.0995  0.2732 -0.3362
  922MPD2     H13496   2.829   0.224   0.309  3.9050  2.9424 -1.2007
  922MPD2    H113497   2.905   4.581   0.091  0.9565 -0.7410  0.4341
  922MPD2    H213498   3.181   4.707   0.374  1.2085  2.5770 -1.1230
  922MPD2    H313499   3.122   4.569   0.193 -1.6052 -2.3301  2.2957
  922MPD2     N13500   2.739   0.081   0.111  0.4062  0.0757 -0.1401
  922MPD2    H513501   2.684   0.161   0.141  2.7025  1.0994  1.3283
  922MPD2    N113502   3.037   0.205   0.461  0.5546 -0.2094  0.2936
  922MPD2    H713503   2.975   0.285   0.474 -0.4859 -0.9904  0.1359
  923MPD2     C13504   2.831   0.761   9.515 -0.5746  0.1643  0.1525
  923MPD2    C113505   2.912   0.877   9.524 -0.1213 -0.1557 -0.4974
  923MPD2    C213506   3.044   0.860   9.556  0.1929 -0.3367 -0.3245
  923MPD2    C313507   3.093   0.737   9.582 -0.7566 -0.0541 -0.1548
  923MPD2    C413508   3.016   0.625   9.577 -0.2427 -1.8615  0.8222
  923MPD2    C513509   2.882   0.635   9.541 -0.4606  0.2275 -1.2911
  923MPD2     H13510   3.105   0.950   9.552 -1.0522  0.4270 -2.1292
  923MPD2    H113511   3.048   0.526   9.608  3.5924 -1.0591 -0.5789
  923MPD2    H213512   2.729   0.778   9.482 -1.1189 -0.4500  1.5320
  923MPD2    H313513   2.823   0.543   9.544  1.5405 -1.0428 -1.0753
  923MPD2     N13514   3.234   0.722   9.602  0.6026  0.3262 -0.6711
  923MPD2    H513515   3.273   0.629   9.603 -0.8862 -0.3066 -0.5367
  923MPD2    N113516   2.853   1.000   9.499 -0.7347  0.0091  0.0313
  923MPD2    H713517   2.755   0.996   9.474 -0.9852 -0.5652  1.0792
  924MPD2     C13518   4.307   0.162  16.147 -0.2248  0.2069  0.0512
  924MPD2    C113519   4.350   0.287  16.195 -0.1534  0.3618 -0.1786
  924MPD2    C213520   4.296   0.403  16.140 -0.3201 -0.0729 -0.0004
  924MPD2    C313521   4.199   0.393  16.038  0.3194 -0.3800  0.1049
  924MPD2    C413522   4.160   0.265  15.997  0.0209  0.0190 -0.2922
  924MPD2    C513523   4.217   0.150  16.045  0.2039  0.6085 -0.1323
  924MPD2     H13524   4.316   0.500  16.185 -0.6663 -0.6555  1.4139
  924MPD2    H113525   4.083   0.259  15.920  0.5089 -2.1141 -0.6225
  924MPD2    H213526   4.352   0.072  16.186 -1.7955  0.3376  2.1823
  924MPD2    H313527   4.208   0.054  15.995  0.6914 -0.6604  2.2165
  924MPD2     N13528   4.163   0.517  15.988 -0.1773  0.2188  0.4060
  924MPD2    H513529   4.223   0.593  16.017  2.3127 -1.4090 -0.5286
  924MPD2    N113530   4.445   0.282  16.305  0.2541  0.2690  0.0728
  924MPD2    H713531   4.455   0.196  16.358  1.3052  1.1821  1.3478
  925MPD2     C13532   2.862   2.864  14.927  0.0098  1.1237 -0.6936
  925MPD2    C113533   2.759   2.810  14.854  0.0278 -1.2567 -0.5811
  925MPD2    C213534   2.697   2.695  14.906 -0.1944  0.0165  0.6026
  925MPD2    C313535   2.736   2.641  15.023  0.6705  0.1039  0.2217
  925MPD2    C413536   2.837   2.701  15.093 -0.4495  0.2777  0.4078
  925MPD2    C513537   2.910   2.806  15.045  1.1432 -0.1878  0.6057
  925MPD2     H13538   2.627   2.650  14.837  1.9487 -0.1226 -1.5043
  925MPD2    H113539   2.868   2.665  15.190  3.9827  2.0715 -0.3639
  925MPD2    H213540   2.914   2.953  14.893 -0.8044  1.9356  0.2097
  925MPD2    H313541   2.981   2.859  15.108 -0.3613  1.1405  1.1872
  925MPD2     N13542   2.652   2.548  15.084 -0.4181  0.0906 -0.5304
  925MPD2    H513543   2.659   2.543  15.185 -0.5182  0.2748 -0.5130
  925MPD2    N113544   2.721   2.852  14.723 -0.0466 -0.2289 -0.0568
  925MPD2    H713545   2.647   2.798  14.679  0.8825 -0.8118 -0.8834
  926MPD2     C13546   1.899   1.311  13.328  0.0212  1.2046  0.4418
  926MPD2    C113547   1.839   1.424  13.279  0.1635  0.3957  0.0840
  926MPD2    C213548   1.885   1.491  13.168 -0.2941  0.9824 -0.1471
  926MPD2    C313549   1.996   1.438  13.095 -0.6414  0.6869 -0.4978
  926MPD2    C413550   2.049   1.321  13.138 -0.2366 -0.8408  0.6115
  926MPD2    C513551   2.001   1.260  13.248 -0.3068  0.1792  0.4138
  926MPD2     H13552   1.850   1.590  13.141  0.3211  1.3976  0.5910
  926MPD2    H113553   2.129   1.279  13.079  0.5426  0.2380  0.8966
  926MPD2    H213554   1.871   1.261  13.420 -0.6673 -1.7305 -1.3625
  926MPD2    H313555   2.044   1.167  13.281  1.6727  1.9019  2.6309
  926MPD2     N13556   2.051   1.501  12.976  0.1685 -0.4135  0.2745
  926MPD2    H513557   2.128   1.453  12.931  0.9310  1.6483 -0.6231
  926MPD2    N113558   1.723   1.480  13.329  0.0958 -0.0134 -0.1943
  926MPD2    H713559   1.679   1.561  13.285  0.4261  0.6786  0.7442
  927MPD2     C13560   1.355   3.304   0.283 -0.0240 -0.2675  0.0235
  927MPD2    C113561   1.318   3.431   0.249  0.4126 -0.0663  1.3981
  927MPD2    C213562   1.373   3.486   0.136 -0.4011 -0.2570 -0.2039
  927MPD2    C313563   1.450   3.408   0.053 -0.1928  0.9017  0.3240
  927MPD2    C413564   1.489   3.281   0.093  0.0225 -0.3065  0.0724
  927MPD2    C513565   1.439   3.228   0.204 -0.1304 -0.4929  0.3823
  927MPD2     H13566   1.342   3.583   0.098 -3.2051 -1.6941 -1.4976
  927MPD2    H113567   1.566   3.222   0.045 -1.6412 -1.6978 -0.8982
  927MPD2    H213568   1.317   3.257   0.373  1.0497 -1.9150 -0.3735
  927MPD2    H313569   1.485   3.138   0.243  0.9919  0.3534  1.0335
  927MPD2     N13570   1.477   3.470  17.630 -0.1522  0.2406  0.0602
  927MPD2    H513571   1.432   3.557  17.605  1.6451  1.1597 -0.0097
  927MPD2    N113572   1.218   3.496   0.327 -0.6700  0.7036 -0.1175
  927MPD2    H713573   1.181   3.445   0.407 -1.8784  1.2424 -0.3304
  928MPD2     C13574   4.331   1.770   1.031 -0.1374 -0.4175  0.3412
  928MPD2    C113575   4.465   1.788   1.064  0.6559 -0.2965  0.3426
  928MPD2    C213576   4.551   1.821   0.962 -0.3116 -0.3570 -0.1386
  928MPD2    C313577   4.510   1.822   0.829  0.0618  0.1411 -0.1493
  928MPD2    C413578   4.379   1.795   0.801 -0.3825 -0.0132 -0.7260
  928MPD2    C513579   4.294   1.769   0.901 -0.1366  0.0889 -0.2583
  928MPD2     H13580   4.649   1.852   0.998  0.0781 -1.9832  0.1958
  928MPD2    H113581   4.351   1.808   0.697  2.5164  2.4415 -1.2140
  928MPD2    H213582   4.249   1.749   1.099 -0.4898  1.7157  0.5652
  928MPD2    H313583   4.189   1.745   0.886 -0.6276  1.0059  1.6769
  928MPD2     N13584   4.597   1.838   0.720 -0.4788  0.1853  0.1156
  928MPD2    H513585   4.554   1.852   0.629  0.0765 -0.1113 -0.1893
  928MPD2    N113586   4.497   1.786   1.204  0.1896  0.0602  0.0002
  928MPD2    H713587   4.417   1.776   1.265 -0.2637  2.1155 -0.2407
  929MPD2     C13588   3.966   1.747  10.558 -0.0037  0.6908 -0.4690
  929MPD2    C113589   3.836   1.706  10.564  0.2730  0.1186  0.5038
  929MPD2    C213590   3.745   1.759  10.473  0.2477 -0.1836  1.0312
  929MPD2    C313591   3.787   1.857  10.385 -0.0633 -0.5013  0.1568
  929MPD2    C413592   3.924   1.883  10.378 -0.4210  0.2545 -0.0586
  929MPD2    C513593   4.016   1.830  10.466  0.3415 -0.5809  0.0119
  929MPD2     H13594   3.639   1.740  10.477  0.5326 -2.4654 -2.4104
  929MPD2    H113595   3.967   1.951  10.305 -0.5539 -0.7779 -1.0990
  929MPD2    H213596   4.046   1.713  10.624 -1.5709 -1.3131  0.4134
  929MPD2    H313597   4.116   1.871  10.468 -0.1387  0.5038  2.3793
  929MPD2     N13598   3.687   1.912  10.296  0.8911 -0.1486 -0.0432
  929MPD2    H513599   3.588   1.888  10.307  0.2754  2.5559  0.3499
  929MPD2    N113600   3.798   1.615  10.669 -0.6477 -0.1899 -0.2645
  929MPD2    H713601   3.874   1.586  10.729 -0.6976  1.1715  0.4593
  930MPD2     C13602   0.870   3.854  14.066 -0.0001 -0.6928 -0.5442
  930MPD2    C113603   0.916   3.905  13.947  0.0147 -0.8131 -0.3806
  930MPD2    C213604   0.925   3.825  13.838  0.1867  0.0501 -0.1691
  930MPD2    C313605   0.889   3.694  13.837 -0.3393  0.1096  0.5062
  930MPD2    C413606   0.857   3.643  13.962  0.3081 -0.0740  0.2720
  930MPD2    C513607   0.856   3.717  14.078 -0.0444  0.1172  0.7519
  930MPD2     H13608   0.961   3.878  13.750 -1.9093 -2.6405 -2.6232
  930MPD2    H113609   0.833   3.538  13.960 -0.4318  0.1261 -1.1385
  930MPD2    H213610   0.866   3.921  14.151  0.3040  0.6985 -1.6272
  930MPD2    H313611   0.836   3.679  14.177 -1.8308 -0.4180  0.1751
  930MPD2     N13612   0.896   3.607  13.724 -0.2522 -0.6115 -0.3783
  930MPD2    H513613   0.867   3.512  13.742  1.1982 -1.3460 -1.8594
  930MPD2    N113614   0.956   4.043  13.941  0.1093  0.0619 -1.0059
  930MPD2    H713615   0.990   4.070  13.849  1.3456  3.2120  0.3802
  931MPD2     C13616   0.813   3.657   1.067  0.5144 -0.0792 -0.3873
  931MPD2    C113617   0.927   3.620   1.000 -0.1893  0.6377 -0.7108
  931MPD2    C213618   1.044   3.601   1.076  0.3237  0.6658 -0.2810
  931MPD2    C313619   1.038   3.590   1.208 -0.1768 -0.1471  0.2230
  931MPD2    C413620   0.920   3.611   1.275  0.1820 -0.8946 -0.3650
  931MPD2    C513621   0.807   3.653   1.204 -0.8944  0.4559  0.0665
  931MPD2     H13622   1.125   3.561   1.015 -1.1817 -0.8152 -1.3154
  931MPD2    H113623   0.917   3.606   1.383  0.4523  2.0622 -0.2265
  931MPD2    H213624   0.714   3.683   1.032  0.1808 -1.3027 -0.3507
  931MPD2    H313625   0.711   3.672   1.250  0.3592  3.6229  1.3565
  931MPD2     N13626   1.152   3.560   1.287 -0.0715  0.2705  0.1213
  931MPD2    H513627   1.139   3.549   1.387  1.6421 -0.4091  0.2647
  931MPD2    N113628   0.917   3.618   0.857  0.4864  0.2826  0.0736
  931MPD2    H713629   0.826   3.634   0.817 -0.0420  0.8042  1.4938
  932MPD2     C13630   2.471   2.739  11.359 -0.1438 -0.8577  0.0757
  932MPD2    C113631   2.547   2.810  11.452  0.0907  0.5122  0.3597
  932MPD2    C213632   2.562   2.752  11.580 -0.3513 -0.1699 -0.3261
  932MPD2    C313633   2.483   2.639  11.619  0.0064  0.5532  0.2545
  932MPD2    C413634   2.415   2.574  11.518 -0.3263 -0.5079 -0.4554
  932MPD2    C513635   2.407   2.626  11.391  0.0584 -0.4196  0.6722
  932MPD2     H13636   2.619   2.806  11.654  1.4618 -1.0173 -1.0992
  932MPD2    H113637   2.357   2.484  11.534  1.1326 -1.4937 -0.7033
  932MPD2    H213638   2.469   2.777  11.257  0.3721 -0.7572  0.1043
  932MPD2    H313639   2.351   2.580  11.311  1.3147 -0.2308 -0.3068
  932MPD2     N13640   2.492   2.572  11.743  0.1982 -1.0404 -0.6709
  932MPD2    H513641   2.442   2.483  11.750 -0.9608 -0.3641 -0.3116
  932MPD2    N113642   2.620   2.932  11.424 -0.1546 -0.2640  0.5858
  932MPD2    H713643   2.673   2.977  11.497 -1.6386  0.8941  0.9560
  933MPD2     C13644   4.455   2.138   2.001 -0.4218 -0.1995  0.2991
  933MPD2    C113645   4.450   2.163   1.864 -0.3446 -0.0199 -1.7851
  933MPD2    C213646   4.361   2.259   1.819  0.5578  0.6365  0.0357
  933MPD2    C313647   4.284   2.331   1.909 -0.6956  0.6675 -0.4972
  933MPD2    C413648   4.283   2.296   2.044 -0.1200 -0.4179 -0.6860
  933MPD2    C513649   4.366   2.199   2.085 -0.4177  0.3342 -0.1472
  933MPD2     H13650   4.362   2.298   1.718  1.0148 -1.3403 -0.7173
  933MPD2    H113651   4.221   2.346   2.119  0.8964 -0.7083  0.3483
  933MPD2    H213652   4.540   2.087   2.045  0.2866  1.1541  0.5023
  933MPD2    H313653   4.366   2.171   2.190  0.8455  2.7431  0.5057
  933MPD2     N13654   4.193   2.423   1.858  0.4123 -0.1716 -0.0121
  933MPD2    H513655   4.178   2.437   1.759 -0.8201  1.5840  0.4083
  933MPD2    N113656   4.521   2.074   1.782 -0.2816 -0.2475  1.0659
  933MPD2    H713657   4.565   1.995   1.827  0.9993 -0.3060 -0.2869
  934MPD2     C13658   1.154   4.060   2.265 -0.1429  0.0770 -0.2931
  934MPD2    C113659   1.150   3.965   2.168  0.3048 -0.4179  0.2917
  934MPD2    C213660   1.030   3.924   2.101 -0.1239  0.0228 -0.7021
  934MPD2    C313661   0.907   3.978   2.154 -0.0104  0.5276 -0.0654
  934MPD2    C413662   0.921   4.061   2.260  0.5246 -0.7130  0.4931
  934MPD2    C513663   1.034   4.101   2.313  0.1182  0.7593 -0.2666
  934MPD2     H13664   1.037   3.851   2.021  0.6008 -1.3016  0.5629
  934MPD2    H113665   0.827   4.106   2.291  1.1646  1.2144 -0.3912
  934MPD2    H213666   1.238   4.094   2.324 -1.2609 -0.8771  1.8657
  934MPD2    H313667   1.022   4.169   2.396 -0.2979  0.3450  0.0078
  934MPD2     N13668   0.783   3.940   2.088 -0.2398 -0.2104 -0.4122
  934MPD2    H513669   0.704   3.999   2.110 -0.6771 -0.7404 -0.5714
  934MPD2    N113670   1.262   3.913   2.113 -0.4269 -0.6084 -0.1109
  934MPD2    H713671   1.255   3.872   2.020  1.0974  0.5291 -0.7261
  935MPD2     C13672   0.788   3.248   1.507  0.4002  1.3908 -0.1388
  935MPD2    C113673   0.689   3.325   1.447  0.2511  0.1100  0.5559
  935MPD2    C213674   0.607   3.398   1.526 -0.6164  0.8590  0.9686
  935MPD2    C313675   0.632   3.405   1.662  0.1516  0.4698  0.4784
  935MPD2    C413676   0.730   3.328   1.720  0.5336  0.2143  0.0686
  935MPD2    C513677   0.810   3.251   1.642 -0.1782  0.0218  0.1785
  935MPD2     H13678   0.530   3.459   1.480 -0.1261  1.1608  0.5637
  935MPD2    H113679   0.753   3.330   1.826 -0.3340 -1.6337  0.2899
  935MPD2    H213680   0.853   3.181   1.452 -0.9985 -0.8541  0.9628
  935MPD2    H313681   0.888   3.191   1.687 -0.3082  0.8429  1.4836
  935MPD2     N13682   0.555   3.477   1.751 -0.0273 -0.2036  0.5147
  935MPD2    H513683   0.584   3.464   1.847  0.4164  1.1603  0.5624
  935MPD2    N113684   0.669   3.335   1.305 -0.5328  0.1416  0.4034
  935MPD2    H713685   0.598   3.403   1.281 -1.2438 -0.4505  0.8309
  936MPD2     C13686   3.974   1.071  12.393 -0.4857  0.3391  0.1154
  936MPD2    C113687   4.004   1.072  12.529  0.4205  0.0776 -0.3473
  936MPD2    C213688   4.006   1.188  12.595 -0.1224  0.4867  0.2720
  936MPD2    C313689   3.983   1.312  12.533  0.1284 -0.1122 -0.3009
  936MPD2    C413690   3.967   1.315  12.395  0.9675  0.2061 -0.0040
  936MPD2    C513691   3.964   1.195  12.332  0.2825 -0.0721 -0.8141
  936MPD2     H13692   4.014   1.195  12.703  1.0111 -3.2082  0.4337
  936MPD2    H113693   3.961   1.400  12.328 -1.8461  0.5916  0.7384
  936MPD2    H213694   3.965   0.983  12.331  0.0512  0.7205 -0.4976
  936MPD2    H313695   3.959   1.188  12.224 -2.6433 -0.2009 -0.6724
  936MPD2     N13696   3.995   1.429  12.614 -1.0985  0.7642 -0.3093
  936MPD2    H513697   4.020   1.414  12.711 -0.2173  1.3351 -0.4444
  936MPD2    N113698   4.025   0.951  12.609 -0.2235  0.2354  0.2611
  936MPD2    H713699   4.055   0.972  12.703 -0.9554  1.1643  0.2945
  937MPD2     C13700   1.054   2.530  11.871  0.0675  0.8710 -0.3119
  937MPD2    C113701   1.075   2.643  11.789  0.0228  0.3828 -0.3556
  937MPD2    C213702   1.126   2.617  11.660 -0.7997 -0.4001 -0.1756
  937MPD2    C313703   1.176   2.491  11.622 -0.1366  0.4040  1.0651
  937MPD2    C413704   1.163   2.389  11.715  0.0378  0.4576 -0.1243
  937MPD2    C513705   1.098   2.407  11.830  0.1756  0.2897 -0.1337
  937MPD2     H13706   1.138   2.693  11.584 -2.2703 -1.8916 -1.9192
  937MPD2    H113707   1.197   2.290  11.686  0.3017  0.3153  0.6829
  937MPD2    H213708   1.012   2.531  11.971 -0.9746  0.2752 -0.7389
  937MPD2    H313709   1.089   2.319  11.893 -3.6051  0.7177 -0.0517
  937MPD2     N13710   1.237   2.480  11.489  0.3958  0.5081  0.1306
  937MPD2    H513711   1.239   2.561  11.428 -3.6641  0.9696  0.6400
  937MPD2    N113712   1.019   2.773  11.814 -0.0566  0.5514 -0.4628
  937MPD2    H713713   1.006   2.827  11.730  2.2849  1.4613 -0.2492
  938MPD2     C13714   4.711   3.357   1.287  0.2578  0.0966 -0.8852
  938MPD2    C113715   4.691   3.422   1.407  0.4274 -0.2314 -0.3775
  938MPD2    C213716   4.626   3.358   1.507  0.3302 -0.1005 -0.0408
  938MPD2    C313717   4.587   3.223   1.487  0.0496 -0.4261 -0.0838
  938MPD2    C413718   4.604   3.156   1.365  0.6602  0.1896 -0.1509
  938MPD2    C513719   4.663   3.230   1.264  0.3714 -0.4528 -0.0363
  938MPD2     H13720   4.599   3.420   1.591 -1.4787  1.8549 -2.0686
  938MPD2    H113721   4.564   3.062   1.330 -0.2286  0.8343 -0.9004
  938MPD2    H213722   0.046   3.407   1.212 -0.3035  2.5772  0.3089
  938MPD2    H313723   4.677   3.206   1.160 -0.4801 -0.1196 -0.2235
  938MPD2     N13724   4.518   3.149   1.581  0.3104  0.0927  0.1682
  938MPD2    H513725   4.495   3.058   1.543  2.1862 -0.5199  0.5345
  938MPD2    N113726   0.012   3.555   1.441 -0.4297 -0.6898  0.0742
  938MPD2    H713727   4.708   3.588   1.533  2.6611 -0.6104  1.0380
  939MPD2     C13728   0.901   0.052   1.361  0.5211 -0.5345 -0.3361
  939MPD2    C113729   0.979   0.139   1.289 -0.0490 -0.2831 -0.4722
  939MPD2    C213730   0.965   0.153   1.151  0.6358  0.5488 -0.3962
  939MPD2    C313731   0.881   0.065   1.089 -0.0420  0.1961  0.7976
  939MPD2    C413732   0.802   4.701   1.156 -0.1792 -0.5588  0.3435
  939MPD2    C513733   0.816   4.700   1.293  0.5444  1.0348  0.0631
  939MPD2     H13734   1.017   0.226   1.090  1.8415 -1.1218 -1.3569
  939MPD2    H113735   0.731   4.635   1.107 -1.4106  0.0373  1.3060
  939MPD2    H213736   0.919   0.035   1.467  1.8320  0.6276 -0.3651
  939MPD2    H313737   0.760   4.639   1.363 -0.8921  3.4001  0.9819
  939MPD2     N13738   0.875   0.079   0.944  0.0300  0.2663 -0.1404
  939MPD2    H513739   0.933   0.148   0.898  1.2512 -0.3331  0.4838
  939MPD2    N113740   1.074   0.221   1.363  0.4303 -0.8384  0.2924
  939MPD2    H713741   1.073   0.201   1.463 -0.1409 -0.7507  0.3042
  940MPD2     C13742   4.710   0.552  12.917  0.3338 -0.4833  0.4431
  940MPD2    C113743   4.662   0.677  12.945  0.5378 -0.1231  0.1868
  940MPD2    C213744   4.588   0.751  12.845  0.2115 -0.3727  0.5912
  940MPD2    C313745   4.574   0.700  12.719  0.2740  0.1274 -0.0293
  940MPD2    C413746   4.639   0.581  12.687 -0.5124 -0.5866  0.2008
  940MPD2    C513747   4.702   0.509  12.789 -0.2384 -1.0359 -0.0352
  940MPD2     H13748   4.545   0.846  12.873  0.8120  0.1016 -0.1192
  940MPD2    H113749   4.648   0.541  12.586 -1.4335 -1.0529  0.3046
  940MPD2    H213750   0.047   0.499  12.988  0.7878  0.6881  0.9206
  940MPD2    H313751   0.020   0.415  12.758  0.1025 -0.0630 -2.5079
  940MPD2     N13752   4.505   0.771  12.613 -0.2490 -0.0076  0.2993
  940MPD2    H513753   4.522   0.735  12.519  0.1799  0.9072  0.0287
  940MPD2    N113754   4.674   0.748  13.067 -0.3408 -0.5225 -0.8046
  940MPD2    H713755   4.644   0.844  13.082 -1.8495 -1.0858 -0.2742
  941MPD2     C13756   3.996   4.255   9.329 -0.0329  0.3260  0.0622
  941MPD2    C113757   3.873   4.296   9.382  0.4746  0.4954 -0.0645
  941MPD2    C213758   3.774   4.198   9.382 -0.4668  0.8153  0.5579
  941MPD2    C313759   3.780   4.081   9.302  0.3034  0.5053  0.1687
  941MPD2    C413760   3.896   4.052   9.232  0.3118 -0.1296  0.1582
  941MPD2    C513761   4.003   4.136   9.258  0.8451  0.4429 -0.8290
  941MPD2     H13762   3.684   4.212   9.439 -0.2278 -0.4269  1.2440
  941MPD2    H113763   3.914   3.962   9.176 -1.4775 -0.5760  0.3214
  941MPD2    H213764   4.083   4.319   9.336  2.2034 -2.6444 -0.4378
  941MPD2    H313765   4.097   4.109   9.210  1.1562  1.3405 -0.7227
  941MPD2     N13766   3.683   3.974   9.303 -0.6529  0.3437  0.4277
  941MPD2    H513767   3.719   3.887   9.267  0.2637  0.6228  0.6784
  941MPD2    N113768   3.862   4.416   9.451  0.3627  0.4385 -0.3385
  941MPD2    H713769   3.778   4.425   9.506 -0.5339  3.2719 -2.1393
  942MPD2     C13770   2.687   1.430   9.744  0.5363 -0.4117  0.2523
  942MPD2    C113771   2.648   1.299   9.713 -0.4295  0.5555 -0.3762
  942MPD2    C213772   2.731   1.197   9.759  0.1577 -0.3990 -0.2964
  942MPD2    C313773   2.858   1.220   9.816  0.2506  0.5267  0.5257
  942MPD2    C413774   2.902   1.350   9.825  0.3736  0.5507 -0.1071
  942MPD2    C513775   2.811   1.457   9.805  0.5954  0.0621 -0.0409
  942MPD2     H13776   2.698   1.097   9.733 -1.1203 -0.5950  2.0468
  942MPD2    H113777   3.000   1.378   9.861  0.5899 -1.6353  1.0160
  942MPD2    H213778   2.614   1.510   9.740  0.1618 -0.8183 -0.9428
  942MPD2    H313779   2.847   1.558   9.819  0.5118  0.1837 -0.7146
  942MPD2     N13780   2.943   1.118   9.863 -0.1465 -0.1870 -0.5954
  942MPD2    H513781   3.030   1.152   9.901 -1.4566  1.7207  0.6455
  942MPD2    N113782   2.522   1.272   9.655 -0.2722  0.2558  0.3158
  942MPD2    H713783   2.482   1.182   9.679 -2.3145  1.0120 -0.2142
  943MPD2     C13784   1.648   4.557   9.438  0.3157  0.0583 -0.1200
  943MPD2    C113785   1.579   4.478   9.528  0.2673  0.3374  0.6255
  943MPD2    C213786   1.440   4.459   9.510  0.2968  0.5093 -0.7759
  943MPD2    C313787   1.374   4.520   9.406  0.3086 -0.8906  0.4711
  943MPD2    C413788   1.444   4.602   9.320 -0.1315 -0.0861 -0.2463
  943MPD2    C513789   1.578   4.618   9.335 -0.5219  0.0125 -0.2521
  943MPD2     H13790   1.400   4.383   9.576 -2.2744  1.8651 -0.7415
  943MPD2    H113791   1.383   4.645   9.240 -0.9160 -1.3741 -0.3408
  943MPD2    H213792   1.756   4.557   9.442  0.3199 -1.2604 -0.1136
  943MPD2    H313793   1.635   4.681   9.268 -1.5175 -1.8936 -2.8873
  943MPD2     N13794   1.241   4.497   9.367  0.9018  0.5842  0.5046
  943MPD2    H513795   1.213   4.520   9.272  4.1983  2.0990 -0.1158
  943MPD2    N113796   1.659   4.409   9.622 -0.2894 -0.1081  0.7885
  943MPD2    H713797   1.760   4.421   9.625 -0.1506 -1.4276  1.3274
  944MPD2     C13798   1.604   3.537  10.812 -0.1228 -0.0372 -1.1112
  944MPD2    C113799   1.701   3.492  10.894  0.2834  0.0246  0.6665
  944MPD2    C213800   1.723   3.555  11.012 -0.6018  0.3484 -0.1581
  944MPD2    C313801   1.655   3.673  11.040  0.5765  0.1456 -0.2535
  944MPD2    C413802   1.562   3.723  10.946  0.5118  0.3690 -0.3237
  944MPD2    C513803   1.534   3.650  10.834 -0.2343 -0.9722 -0.9251
  944MPD2     H13804   1.779   3.516  11.097  0.1821 -0.0769 -0.8618
  944MPD2    H113805   1.507   3.815  10.960 -0.3149  0.2423 -2.7426
  944MPD2    H213806   1.589   3.493  10.714 -0.2137 -2.1391 -0.1502
  944MPD2    H313807   1.466   3.688  10.759  0.5102 -1.2537 -1.7372
  944MPD2     N13808   1.696   3.746  11.156  0.0400 -0.3525 -0.1780
  944MPD2    H513809   1.766   3.701  11.214 -1.2157 -2.0544  0.0086
  944MPD2    N113810   1.756   3.370  10.854  0.1289  0.3594 -0.3603
  944MPD2    H713811   1.714   3.326  10.773 -0.4207  2.4499 -1.2122
    1TCq1    O113812   4.513   1.040  15.582  0.0059  0.1306 -0.1062
    1TCq1    C113813   4.546   0.939  15.496 -0.0064 -0.4216  0.5582
    1TCq1    O213814   4.607   0.838  15.527  0.2025  0.1159  0.4392
    1TCq1    C213815   4.527   0.989  15.366  0.5537  0.1039  0.1644
    1TCq1    C313816   4.517   0.905  15.258 -0.0387 -0.2869  0.3589
    1TCq1    C413817   4.514   0.960  15.130 -0.4369 -0.3906  0.1687
    1TCq1    C513818   4.535   1.093  15.110  0.0887  0.6263  0.4071
    1TCq1    C613819   4.569   1.166  15.221 -0.0377  0.3437  0.6243
    1TCq1    C713820   4.564   1.123  15.345 -0.4751  0.6072 -0.3884
    1TCq1    C813821   4.619   1.294  15.186 -0.2060  0.0779  0.0542
    1TCq1    O413822   4.587   1.389  15.257  0.3756  0.2295 -0.6383
    1TCq1    C913823   4.509   0.877  15.008  0.1871  0.0973 -0.3736
    1TCq1    O513824   4.456   0.932  14.907  0.1433 -0.1430 -0.0371
    1TCq1    O613825   4.515   0.750  15.020  0.2347  0.1543 -0.4123
    1TCq1    H113826   4.459   1.112  15.544  0.4581 -0.3055 -1.5944
    1TCq1    H213827   4.505   0.800  15.278 -0.6662 -0.0994  0.9432
    1TCq1    H313828   4.545   1.135  15.011 -1.7631  1.4718  0.5870
    1TCq1    H413829   4.587   1.182  15.433  0.0594  1.4588 -1.1076
    2MPD2     C13830   0.084   1.595  14.819  1.5554  0.4284  0.2667
    2MPD2    C113831   0.137   1.470  14.802  0.4635  0.1741 -0.1468
    2MPD2    C213832   0.094   1.375  14.890  0.4719 -0.6973  0.1384
    2MPD2    C313833   0.007   1.397  14.989  0.3078  0.1735  0.0647
    2MPD2    C413834   4.702   1.535  15.020  0.3097 -0.2686  0.3642
    2MPD2    C513835   0.011   1.632  14.928 -0.3811 -0.1493 -0.6939
    2MPD2     H13836   0.132   1.275  14.877  2.5214  0.0687  0.3141
    2MPD2    H113837   4.647   1.558  15.110 -0.0794 -0.4332  0.1684
    2MPD2    H213838   0.122   1.679  14.763 -0.4164 -0.0601 -1.7689
    2MPD2    H313839   4.716   1.737  14.946 -1.1048 -0.4493  0.2517
    2MPD2     N13840   4.699   1.290  15.074  0.1798 -0.0001  0.3475
    2MPD2    H513841   4.721   1.196  15.044  2.5304  0.2763  1.2171
    2MPD2    N113842   0.232   1.455  14.698  0.3243 -0.4247 -0.4348
    2MPD2    H713843   0.248   1.536  14.640 -0.5739  0.4732  0.5575
    3TMC2    C113844   0.387   1.351  14.564 -0.4599 -0.0026 -0.2735
    3TMC2    C213845   0.445   1.477  14.549 -0.4381  0.7288  0.0740
    3TMC2    C313846   0.505   1.507  14.430  0.0708 -0.5850  0.5828
    3TMC2    C413847   0.374   1.262  14.462 -0.0508 -0.3193  0.4404
    3TMC2    C513848   0.438   1.298  14.342 -0.4968  0.0105  0.3418
    3TMC2    C613849   0.508   1.417  14.325  0.3182 -0.7288  0.4702
    3TMC2     C13850   0.281   1.335  14.660 -0.7842  0.1228  0.4857
    3TMC2     O13851   0.253   1.220  14.689  0.2891  0.1259  0.6508
    3TMC2     H13852   0.471   1.537  14.635  0.8115  1.4983 -0.8510
    3TMC2    H113853   0.322   1.167  14.464 -1.9768  0.8118  3.6678
    3TMC2    H213854   0.559   1.446  14.234 -1.1292 -1.2854 -0.5343
    3TMC2    C713855   0.380   1.231  14.226  0.4176 -0.2397 -0.0535
    3TMC2    C813856   0.619   1.595  14.442 -0.1476 -0.4540  0.4961
    3TMC2    O113857   0.336   1.120  14.242  0.0706  0.2438 -0.3812
    3TMC2    O213858   0.713   1.586  14.364 -0.2109 -0.3773 -0.3372
    3TMC2    O513859   0.558   1.713  14.458  0.4307  0.6177  0.4694
    3TMC2    H513860   0.470   1.693  14.497  0.9167  0.7940  1.6535
    4MPD2     C13861   4.132   2.154  13.623 -0.3865 -0.0417  0.2494
    4MPD2    C113862   4.156   2.086  13.509  0.4480 -0.2409 -0.6094
    4MPD2    C213863   4.281   2.032  13.482 -0.1753  0.2647 -0.6306
    4MPD2    C313864   4.390   2.069  13.566 -0.4377 -1.1816  0.1579
    4MPD2    C413865   4.360   2.141  13.679 -0.7752  0.1906  0.0665
    4MPD2    C513866   4.237   2.189  13.700  0.0298 -0.5865  0.5897
    4MPD2     H13867   4.297   1.967  13.397  2.1257  0.7234 -0.5488
    4MPD2    H113868   4.443   2.169  13.743  1.6831 -2.9016 -1.7239
    4MPD2    H213869   4.033   2.195  13.640 -0.5122 -0.2877  0.1100
    4MPD2    H313870   4.216   2.251  13.787  0.1637 -1.6325  1.3673
    4MPD2     N13871   4.513   2.008  13.545 -0.4236 -0.9754  0.2190
    4MPD2    H513872   4.525   1.951  13.461 -1.8568 -0.9209 -0.0241
    4MPD2    N113873   4.049   2.065  13.427 -0.2432 -0.2820 -0.0668
    4MPD2    H713874   3.966   2.110  13.463  0.2550  1.2557 -0.8541
    5TCq2    C113875   4.605   1.983  13.643 -0.0848  0.1047 -0.3877
    5TCq2    O213876   4.617   2.027  13.756 -0.2781  0.2426 -0.0107
    5TCq2    C213877   4.703   1.887  13.599 -0.3327 -0.4353 -0.0290
    5TCq2    C313878   0.007   1.868  13.464 -0.2500 -0.0502  0.1347
    5TCq2    C413879   0.087   1.761  13.438 -0.0244 -1.1311 -0.0788
    5TCq2    C513880   0.144   1.676  13.533 -0.4407  0.0422  0.1929
    5TCq2    C613881   0.109   1.701  13.661  0.3229  0.0725 -0.2685
    5TCq2    C713882   0.027   1.804  13.693 -0.0510 -0.3874 -0.0540
    5TCq2    C813883   0.157   1.612  13.766 -0.1175 -0.0769  1.0455
    5TCq2    O413884   0.175   1.656  13.877 -0.0389  0.4565  0.2794
    5TCq2    C913885   0.107   1.741  13.296 -0.0967 -0.0564  0.6869
    5TCq2    O513886   0.007   1.768  13.227  0.3086  0.3419 -0.2864
    5TCq2    O613887   0.215   1.682  13.257 -0.0466 -0.5934  0.2013
    5TCq2    H213888   4.698   1.940  13.391  1.2596  1.7424  1.1820
    5TCq2    H313889   0.216   1.601  13.500  0.4043  1.1107 -0.4042
    5TCq2    H413890   4.713   1.809  13.794 -2.3876 -0.5109 -0.9551
    6MPD1     C13891   3.389   2.819  11.812 -0.1125  0.2095 -0.3653
    6MPD1    C113892   3.479   2.896  11.879  0.8358 -0.5618 -0.2635
    6MPD1    C213893   3.551   2.832  11.983 -0.2215  0.7799 -0.0421
    6MPD1    C313894   3.522   2.705  12.029 -0.4799  0.6408 -0.2127
    6MPD1    C413895   3.433   2.627  11.953  0.3689 -0.1874 -0.0139
    6MPD1    C513896   3.368   2.685  11.849 -0.5557  0.1502  0.5948
    6MPD1     H13897   3.630   2.880  12.039 -0.6004  0.1405  1.0436
    6MPD1    H113898   3.403   2.527  11.983 -1.0598  0.7730  1.7148
    6MPD1    H213899   3.325   2.869  11.740  0.7103  0.3432 -0.9993
    6MPD1    H313900   3.294   2.630  11.792 -2.1230  4.8015 -1.7590
    6MPD1     N13901   3.575   2.653  12.149 -0.0168 -0.2710  0.0662
    6MPD1    H513902   3.560   2.553  12.152  1.0719 -0.4282  0.3003
    6MPD1    N113903   3.485   3.035  11.861 -0.8225 -0.0704  0.0545
    6MPD1    H613904   3.573   3.076  11.892 -1.3022  0.8638  0.1905
    6MPD1    H713905   3.470   3.065  11.764  0.4533  0.6610  0.0785
    7MPD2     C13906   3.708   2.680  13.038  0.7466  0.2946 -0.1929
    7MPD2    C113907   3.685   2.568  12.960 -0.6712 -0.2452  0.1193
    7MPD2    C213908   3.668   2.445  13.023 -0.0136 -0.4853  0.2428
    7MPD2    C313909   3.699   2.430  13.155 -0.1854 -0.2208 -0.4304
    7MPD2    C413910   3.715   2.540  13.233 -0.4477  0.1677 -0.4165
    7MPD2    C513911   3.718   2.664  13.177  0.2299 -0.0574  0.6124
    7MPD2     H13912   3.655   2.360  12.957  1.3152  1.1651 -2.1460
    7MPD2    H113913   3.716   2.532  13.341 -0.2776 -0.8422 -0.4958
    7MPD2    H213914   3.718   2.779  12.995  2.1231  0.7345  1.1226
    7MPD2    H313915   3.724   2.755  13.235 -0.4107  1.4801 -1.7026
    7MPD2     N13916   3.717   2.300  13.206 -0.0999  0.1682 -0.0341
    7MPD2    H513917   3.757   2.290  13.299  0.9034 -1.4894 -0.6445
    7MPD2    N113918   3.682   2.559  12.818 -0.6912 -0.2081  0.0046
    7MPD2    H713919   3.647   2.470  12.784  0.5937 -0.5936 -0.2760
    8TMC3    C113920   3.695   2.065  13.226 -0.5502 -0.3253 -0.3394
    8TMC3    C213921   3.813   2.072  13.299  0.1648  0.1905 -0.9397
    8TMC3    C313922   3.911   1.987  13.259 -0.4703 -0.0284  0.0224
    8TMC3    C413923   3.675   1.957  13.140  0.3817  0.7173  0.1089
    8TMC3    C513924   3.781   1.876  13.114 -0.0873 -0.7148 -0.8724
    8TMC3    C613925   3.901   1.888  13.167 -0.1903 -0.0924 -0.2792
    8TMC3     C13926   3.666   2.183  13.151  0.4719 -0.0539 -0.7372
    8TMC3     O13927   3.623   2.164  13.036 -0.0982  0.0801 -1.1602
    8TMC3     H13928   3.846   2.157  13.359 -0.7213  0.4926 -0.8784
    8TMC3    H113929   3.578   1.942  13.094 -0.2858  1.6189  1.2085
    8TMC3    H213930   3.987   1.823  13.161  0.1765  0.5411 -1.8162
    8TMC3    C713931   3.779   1.830  12.976  0.3440 -0.6197  0.1824
    8TMC3    C813932   4.047   2.009  13.302  0.5924  0.0203 -0.3840
    8TMC3    O113933   3.858   1.748  12.931 -0.0825  0.1069 -0.7077
    8TMC3    O213934   4.140   1.963  13.238  0.1962  0.0655 -0.2408
    9TMC3    C113935   3.693   2.649  12.363  0.2038  0.5849  0.4203
    9TMC3    C213936   3.709   2.514  12.334  0.1830 -0.0739  0.3267
    9TMC3    C313937   3.723   2.431  12.446 -0.0364  0.0392 -0.6548
    9TMC3    C413938   3.689   2.699  12.488  0.8405 -0.7489 -0.3967
    9TMC3    C513939   3.726   2.611  12.599  0.1664 -0.9026  0.1868
    9TMC3    C613940   3.741   2.481  12.572  0.0646 -0.0548  0.0663
    9TMC3     C13941   3.627   2.727  12.256 -0.2443 -0.2356  0.9838
    9TMC3     O13942   3.605   2.848  12.267 -0.6898 -0.1647 -0.1419
    9TMC3     H13943   3.717   2.476  12.232 -1.9013 -1.3994  0.6524
    9TMC3    H113944   3.684   2.806  12.502  1.1525 -0.6255 -1.2412
    9TMC3    H213945   3.778   2.415  12.649  1.2618  2.7489  1.8839
    9TMC3    C713946   3.719   2.658  12.731 -0.8004 -0.0735 -0.2259
    9TMC3    C813947   3.710   2.293  12.428  0.4546  0.5509  0.5975
    9TMC3    O113948   3.742   2.777  12.746  0.0836  0.2095  0.1140
    9TMC3    O213949   3.720   2.239  12.316  0.5172 -0.3377 -0.0080
   10MPD2     C13950   3.753   1.840  12.677 -0.6183 -0.5521  0.4465
   10MPD2    C113951   3.718   1.938  12.765  0.0081  0.0558 -0.1045
   10MPD2    C213952   3.689   2.061  12.715 -0.0090 -0.5226 -0.0906
   10MPD2    C313953   3.714   2.098  12.582  0.2186  0.2596  0.1779
   10MPD2    C413954   3.757   1.998  12.493  0.5216 -0.4483 -1.0884
   10MPD2    C513955   3.785   1.876  12.548 -0.3734 -0.2691  0.1004
   10MPD2     H13956   3.660   2.142  12.781 -0.0985 -1.3936  0.9403
   10MPD2    H113957   3.787   2.027  12.393  2.1438 -0.9033 -0.7395
   10MPD2    H213958   3.762   1.739  12.714 -1.1648 -0.7400  0.0634
   10MPD2    H313959   3.815   1.793  12.484  0.5648 -0.1928  0.4397
   10MPD2     N13960   3.690   2.229  12.548 -0.5421  0.3814  0.2708
   10MPD2    H513961   3.676   2.291  12.626 -2.2910 -0.0949  0.3224
   10MPD2    N113962   3.711   1.922  12.904  0.2173 -0.3782  0.7530
   10MPD2    H713963   3.682   2.008  12.951 -0.2972  0.2174 -0.6628
   11MPD2     C13964   0.287   1.148  13.948 -0.5606  0.4894  0.6025
   11MPD2    C113965   0.297   1.281  13.999 -0.5025  0.5355  0.3668
   11MPD2    C213966   0.275   1.386  13.914 -0.0148 -0.0312  0.2050
   11MPD2    C313967   0.228   1.373  13.785 -0.5062 -0.8446 -0.3113
   11MPD2    C413968   0.222   1.249  13.734 -0.0955 -0.5212  0.0447
   11MPD2    C513969   0.258   1.142  13.814  0.4607  0.7672 -0.5721
   11MPD2     H13970   0.275   1.481  13.966 -0.2538  1.0368 -1.7343
   11MPD2    H113971   0.194   1.223  13.633 -1.6296 -1.8095  0.7898
   11MPD2    H213972   0.298   1.060  14.009  2.7225  0.5298  0.0616
   11MPD2    H313973   0.240   1.047  13.765  0.1213  0.5383 -0.0008
   11MPD2     N13974   0.171   1.480  13.713  0.1622  0.1621  0.2090
   11MPD2    H513975   0.153   1.452  13.617  0.4724 -0.4708  0.3343
   11MPD2    N113976   0.356   1.313  14.122 -0.8839  0.0942 -0.3181
   11MPD2    H713977   0.380   1.411  14.132 -1.1398 -0.0051  1.2332
    1MPD1     C13978   2.368   2.357  17.637  0.5394  0.0903 -0.0926
    1MPD1    C113979   2.274   2.294  17.556  0.3476  0.1286  0.3199
    1MPD1    C213980   2.270   2.341  17.424  0.1827  0.3509 -0.0831
    1MPD1    C313981   2.343   2.455  17.389  0.7915 -0.2522 -0.0285
    1MPD1    C413982   2.429   2.515  17.478  0.7048  0.9001 -0.6267
    1MPD1    C513983   2.440   2.459  17.598  0.0461  0.4393 -0.0879
    1MPD1     H13984   2.205   2.292  17.353  2.0390 -1.9056 -0.2158
    1MPD1    H113985   2.486   2.604  17.456  0.7804  1.5280  2.1524
    1MPD1    H213986   2.386   2.320   0.035 -1.7905 -0.6385  0.0729
    1MPD1    H313987   2.496   2.515  17.672 -0.4100  0.9215 -0.1002
    1MPD1     N13988   2.343   2.512  17.261 -0.9107 -0.1233  0.0210
    1MPD1    H513989   2.415   2.579  17.235  0.3011 -1.9662 -1.3825
    1MPD1    N113990   2.180   2.193  17.591  0.0613 -0.3097 -0.2176
    1MPD1    H613991   2.209   2.144  17.676  1.3088 -2.0295 -1.6399
    1MPD1    H713992   2.159   2.120  17.523  0.5866 -0.2488 -0.4487
    2MPD1     C13993   3.001   2.899  17.026 -0.0955 -0.1110 -0.5364
    2MPD1    C113994   2.901   2.915  17.126  0.1435 -0.8914  0.5406
    2MPD1    C213995   2.786   2.843  17.111  0.1157 -0.1881 -0.0449
    2MPD1    C313996   2.772   2.746  17.008 -0.5123 -0.8634  0.3601
    2MPD1    C413997   2.880   2.726  16.923  0.0774 -0.1470  0.2789
    2MPD1    C513998   2.993   2.806  16.926  0.5684 -0.1601 -0.3679
    2MPD1     H13999   2.702   2.875  17.171  0.3333  1.2095 -0.4656
    2MPD1    H114000   2.889   2.639  16.860 -1.6232  1.8445 -2.7506
    2MPD1    H214001   3.098   2.947  17.030  0.0869 -0.4260 -1.3268
    2MPD1    H314002   3.067   2.805  16.848  1.2725  0.1863  0.2975
    2MPD1     N14003   2.648   2.682  16.988  0.4998  0.2772  0.1028
    2MPD1    H514004   2.576   2.705  17.056 -0.0381 -3.2181  0.7084
    2MPD1    N114005   2.913   3.013  17.227  0.5958  0.3085  0.2004
    2MPD1    H614006   2.876   3.001  17.322  2.0208 -1.5973  0.5166
    2MPD1    H714007   2.999   3.067  17.226  1.4758 -1.0753  1.7329
    3TMC3    C114008   2.490   2.548  16.883  0.3585  0.4448 -1.0574
    3TMC3    C214009   2.426   2.499  16.772 -0.0694 -0.1155 -0.2684
    3TMC3    C314010   2.300   2.457  16.789  0.6066 -0.3970 -0.6306
    3TMC3    C414011   2.430   2.542  17.000 -0.2935  0.2069  0.3751
    3TMC3    C514012   2.306   2.500  17.017 -0.6924  0.2883  0.1290
    3TMC3    C614013   2.232   2.460  16.908 -0.0291 -0.0280 -0.5094
    3TMC3     C14014   2.622   2.601  16.881 -0.3339  0.4823 -0.6810
    3TMC3     O14015   2.687   2.556  16.790 -0.0608  0.0440 -0.5433
    3TMC3     H14016   2.476   2.493  16.676  1.0160  2.1894  0.1480
    3TMC3    H114017   2.491   2.543  17.090  1.5361 -0.7730 -0.8480
    3TMC3    H214018   2.127   2.436  16.917  0.3443 -1.8373 -0.9485
    3TMC3    C714019   2.266   2.459  17.154 -0.1447  0.0236  0.1726
    3TMC3    C814020   2.216   2.391  16.687 -1.2494  0.3687  0.1911
    3TMC3    O114021   2.156   2.399  17.164 -0.2858 -0.3823 -0.5769
    3TMC3    O214022   2.141   2.301  16.731  0.1613  0.0432 -0.3399
    4MPD1     C14023   2.076   2.290  16.209 -1.0011  0.8254 -0.7403
    4MPD1    C114024   2.196   2.351  16.198 -0.1185 -0.2889 -0.7048
    4MPD1    C214025   2.257   2.388  16.320 -0.5474  0.1874  1.0645
    4MPD1    C314026   2.198   2.366  16.443 -0.5756 -0.0812 -0.7130
    4MPD1    C414027   2.079   2.293  16.449  0.5269  0.5316  0.0420
    4MPD1    C514028   2.018   2.262  16.329 -1.0650 -0.5334  0.5873
    4MPD1     H14029   2.353   2.439  16.323 -0.6449  0.4039  0.5947
    4MPD1    H114030   2.028   2.276  16.543 -0.1505 -0.5039 -0.5119
    4MPD1    H214031   2.021   2.267  16.118 -0.8758  2.3186 -1.2031
    4MPD1    H314032   1.923   2.209  16.328 -0.8621 -0.8718 -1.4443
    4MPD1     N14033   2.261   2.424  16.562  0.0985  0.3176 -0.3474
    4MPD1    H514034   2.345   2.479  16.552  1.3745 -0.8382  4.2060
    4MPD1    N114035   2.252   2.385  16.074  0.1263  0.4098  0.3764
    4MPD1    H614036   2.354   2.377  16.073 -0.0668 -2.0011 -0.0376
    4MPD1    H714037   2.218   2.324  16.000  0.0742  0.1333  0.6310
    1TCq1    O114038   2.378   2.254  11.187  0.3953  0.1769  0.1669
    1TCq1    C114039   2.498   2.273  11.242 -0.6065  0.0156  0.5623
    1TCq1    O214040   2.525   2.243  11.360 -0.2500  0.4420 -0.0524
    1TCq1    C214041   2.582   2.367  11.170  0.1772  0.2099  0.3792
    1TCq1    C314042   2.530   2.423  11.063  0.7028  0.1452 -0.0671
    1TCq1    C414043   2.589   2.541  11.029  0.1962  0.5735  0.0339
    1TCq1    C514044   2.689   2.602  11.096 -0.0975  0.3962  0.0164
    1TCq1    C614045   2.749   2.530  11.199  0.1421 -0.0801 -0.3035
    1TCq1    C714046   2.693   2.410  11.232 -0.1857  0.0755  0.0444
    1TCq1    C814047   2.841   2.589  11.300 -0.2633  0.8230  0.8160
    1TCq1    O414048   2.889   2.515  11.384  0.0612 -0.1794  0.4512
    1TCq1    C914049   2.512   2.634  10.957 -0.7446 -0.2752  0.7972
    1TCq1    O514050   2.570   2.721  10.883 -0.0224 -0.5441  0.1450
    1TCq1    O614051   2.392   2.643  10.990  0.0959  0.0089 -0.2803
    1TCq1    H114052   2.382   2.247  11.089 -0.9192 -0.1249  0.1337
    1TCq1    H214053   2.434   2.395  11.023  0.3724 -1.7251  2.0282
    1TCq1    H314054   2.708   2.707  11.075  1.1810  0.2938  0.7015
    1TCq1    H414055   2.719   2.357  11.323 -1.5247  2.5258  1.8566
    2MPD1     C14056   3.040   2.988  11.543 -0.5561 -0.2373  0.6703
    2MPD1    C114057   3.085   2.997  11.408  0.5684  0.0563  0.2716
    2MPD1    C214058   3.033   2.898  11.329 -0.5947 -0.1106  0.6714
    2MPD1    C314059   2.952   2.792  11.378  0.1667 -0.0706  0.8122
    2MPD1    C414060   2.923   2.774  11.512  0.0231 -0.2073  0.0326
    2MPD1    C514061   2.967   2.880  11.588  0.2113  0.0182  0.2174
    2MPD1     H14062   3.039   2.908  11.222  1.2177 -1.6548  0.6221
    2MPD1    H114063   2.851   2.705  11.552  0.9754 -0.7216  0.8685
    2MPD1    H214064   3.072   3.050  11.625 -3.4084  2.6772 -0.4075
    2MPD1    H314065   2.943   2.875  11.694 -0.9363  0.0825 -0.0393
    2MPD1     N14066   2.896   2.712  11.276 -0.2741 -0.0367 -0.2197
    2MPD1    H514067   2.898   2.751  11.182 -1.2911 -0.0447 -0.2407
    2MPD1    N114068   3.141   3.113  11.356 -0.4999  0.2604  0.5010
    2MPD1    H614069   3.210   3.147  11.422  0.1479  0.4275 -0.2666
    2MPD1    H714070   3.192   3.082  11.273 -2.0470 -0.8000 -0.0489
    1TCq1    O114071   2.111   2.286   0.195 -0.1563  0.2286 -0.0514
    1TCq1    C114072   2.006   2.340   0.255  0.9896  0.3239 -0.2489
    1TCq1    O214073   2.004   2.446   0.317  0.1201  0.2167  0.0512
    1TCq1    C214074   1.889   2.254   0.228 -0.3289  0.1228 -0.0329
    1TCq1    C314075   1.793   2.239   0.326 -0.1995  0.3621  0.5835
    1TCq1    C414076   1.697   2.142   0.326  0.0142  0.0076  0.6075
    1TCq1    C514077   1.662   2.100   0.199 -0.2320 -0.2814  0.1190
    1TCq1    C614078   1.756   2.111   0.098  0.3126  0.6244  0.1821
    1TCq1    C714079   1.876   2.185   0.109 -0.2874  0.4578 -0.4500
    1TCq1    C814080   1.718   2.045  17.672 -0.0749 -0.3393 -0.1783
    1TCq1    O414081   1.644   1.950  17.674  0.0286 -0.2004  0.2031
    1TCq1    C914082   1.591   2.132   0.425 -0.2635  0.0983  0.0853
    1TCq1    O514083   1.524   2.025   0.417 -0.4755 -0.4216  0.7817
    1TCq1    O614084   1.616   2.203   0.525  0.3655  0.0086 -0.3240
    1TCq1    H114085   2.095   2.191   0.175  0.8376  0.7622 -3.3224
    1TCq1    H214086   1.815   2.281   0.424  0.0463 -1.1039  1.1641
    1TCq1    H314087   1.574   2.037   0.196 -0.0030 -0.5202 -1.8790
    1TCq1    H414088   1.950   2.189   0.030  1.8701 -0.2045  1.5250
    2MPD1     C14089   1.874   1.935  17.194  0.4889  0.7716  0.3996
    2MPD1    C114090   1.924   2.055  17.232 -0.3130  0.3262 -0.0809
    2MPD1    C214091   1.885   2.112  17.353  0.4900 -0.4780  0.5268
    2MPD1    C314092   1.791   2.047  17.436 -0.2617 -0.2765 -0.5298
    2MPD1    C414093   1.739   1.928  17.395 -0.1137  0.5376 -0.0855
    2MPD1    C514094   1.781   1.883  17.273  0.0399 -0.0311  0.1902
    2MPD1     H14095   1.932   2.198  17.398  1.5180  0.4857 -2.3910
    2MPD1    H114096   1.677   1.864  17.458 -1.1879 -0.0903 -1.7881
    2MPD1    H214097   1.899   1.881  17.103  1.4010  1.7372  0.0792
    2MPD1    H314098   1.741   1.792  17.229 -2.1708  0.8843  0.3074
    2MPD1     N14099   1.779   2.110  17.564 -0.3788 -0.2952  0.0683
    2MPD1    H514100   1.823   2.200  17.572  0.1579 -0.2946 -3.0501
    2MPD1    N114101   2.043   2.092  17.171  0.3761  0.4182  0.1620
    2MPD1    H614102   2.041   2.075  17.070 -0.8660  2.1879 -0.1050
    2MPD1    H714103   2.061   2.191  17.191  4.6272 -0.2262 -0.4433
    1MPD1     C14104   0.756   1.613  11.037  0.1190  0.0801 -0.6932
    1MPD1    C114105   0.758   1.609  11.178 -0.1542 -0.0225  0.4025
    1MPD1    C214106   0.755   1.730  11.251 -0.0640 -0.3282 -0.3243
    1MPD1    C314107   0.738   1.849  11.173 -0.1176  0.0227 -0.8839
    1MPD1    C414108   0.725   1.841  11.037  0.2567  0.0295  0.2747
    1MPD1    C514109   0.733   1.721  10.974 -0.1399  0.2106 -0.0182
    1MPD1     H14110   0.766   1.742  11.358 -0.0448  0.0331 -0.3670
    1MPD1    H114111   0.731   1.926  10.969 -0.0330 -1.8883 -2.1604
    1MPD1    H214112   0.770   1.529  10.970 -0.1568 -2.1864  2.0857
    1MPD1    H314113   0.730   1.720  10.865 -3.2685 -1.4808  0.0871
    1MPD1     N14114   0.743   1.981  11.243 -0.2066  0.2254  0.1915
    1MPD1    H514115   0.773   1.978  11.340 -1.7663  0.3717  0.6885
    1MPD1    N114116   0.801   1.493  11.249  0.5446  0.5184  0.0596
    1MPD1    H614117   0.774   1.410  11.197 -2.2670  2.8238 -2.1699
    1MPD1    H714118   0.769   1.495  11.346 -2.1940 -0.4842 -0.8066
    2MPD1     C14119   3.956   3.296  11.026  0.1533 -0.0511 -0.1733
    2MPD1    C114120   3.988   3.264  11.156 -0.2387  0.0810 -0.2416
    2MPD1    C214121   4.018   3.130  11.183 -0.8318  0.5828  0.3559
    2MPD1    C314122   4.026   3.040  11.079 -0.7134 -0.2750 -0.5316
    2MPD1    C414123   3.994   3.076  10.949 -0.0285 -0.9341  0.4525
    2MPD1    C514124   3.958   3.205  10.927 -0.0781  0.1685 -0.2816
    2MPD1     H14125   4.041   3.101  11.285  0.5105  1.8327  0.4111
    2MPD1    H114126   4.008   3.000  10.873 -2.8515 -0.8713 -0.1353
    2MPD1    H214127   3.919   3.393  10.995 -1.1368 -0.2610  0.7122
    2MPD1    H314128   3.928   3.227  10.826 -0.6441 -2.1831 -0.6372
    2MPD1     N14129   4.052   2.903  11.109  0.2559 -0.6190 -0.3807
    2MPD1    H514130   4.089   2.846  11.034 -1.1071  0.1184 -1.5963
    2MPD1    N114131   3.981   3.361  11.255 -0.1180  0.0807  0.2992
    2MPD1    H614132   4.043   3.349  11.334 -0.1638 -1.3816  0.1230
    2MPD1    H714133   3.984   3.456  11.221  0.3419 -0.4538 -1.1543
    3MPD1     C14134   4.187   2.258  10.557 -0.3683 -0.3352 -0.6260
    3MPD1    C114135   4.165   2.391  10.542 -0.2970 -0.8589 -0.3475
    3MPD1    C214136   4.194   2.476  10.642 -0.7009 -0.1578 -0.0976
    3MPD1    C314137   4.225   2.426  10.771  0.3294  0.0165 -0.2065
    3MPD1    C414138   4.239   2.292  10.787  0.7721 -0.0659 -0.5522
    3MPD1    C514139   4.230   2.207  10.679 -0.7287 -0.3260 -0.2624
    3MPD1     H14140   4.183   2.584  10.636  0.6077  0.1065  2.2711
    3MPD1    H114141   4.273   2.249  10.881  0.3028 -0.1436 -0.4186
    3MPD1    H214142   4.173   2.194  10.471 -0.0143 -0.8048 -0.3375
    3MPD1    H314143   4.268   2.106  10.691 -0.8658 -0.4958 -1.3235
    3MPD1     N14144   4.238   2.519  10.874  0.4121  0.2376 -0.2052
    3MPD1    H514145   4.227   2.616  10.848 -0.7071  0.0313 -0.4897
    3MPD1    N114146   4.105   2.433  10.422  0.1918 -0.0250  0.0756
    3MPD1    H614147   4.049   2.518  10.432 -2.2331 -1.4499 -1.3117
    3MPD1    H714148   4.041   2.367  10.380  0.2153 -0.9882  1.5713
    4MPD2     C14149   0.662   2.453  11.821 -0.0925  0.2745  0.7173
    4MPD2    C114150   0.690   2.512  11.698  0.0853  0.0819  0.9992
    4MPD2    C214151   0.642   2.641  11.679 -0.0839  0.4465  0.4791
    4MPD2    C314152   0.577   2.718  11.780 -0.1941 -0.3488 -0.0457
    4MPD2    C414153   0.553   2.659  11.900  0.2306  0.5307 -0.4181
    4MPD2    C514154   0.592   2.526  11.921  0.0852  0.0344  0.0079
    4MPD2     H14155   0.652   2.689  11.583  1.8195 -0.8442  0.0501
    4MPD2    H114156   0.493   2.704  11.978 -0.0334  1.1444 -0.9738
    4MPD2    H214157   0.707   2.357  11.842  0.7836  0.6497  0.5504
    4MPD2    H314158   0.582   2.490  12.022 -1.2816 -2.6265 -1.0904
    4MPD2     N14159   0.529   2.848  11.760  0.3921  0.8745  0.6753
    4MPD2    H514160   0.461   2.881  11.828  0.0484 -1.6036  1.5116
    4MPD2    N114161   0.758   2.448  11.593  0.5929  0.1394 -0.1220
    4MPD2    H714162   0.762   2.498  11.505 -0.2003  0.5446  0.0780
    5TMC3    C114163   0.852   2.285  11.451 -0.9064 -0.1550  0.7650
    5TMC3    C214164   0.765   2.188  11.400  0.2482 -0.3071  0.0255
    5TMC3    C314165   0.727   2.210  11.270 -0.8912 -0.0897  0.4968
    5TMC3    C414166   0.900   2.392  11.380  0.5514 -0.4082 -0.1996
    5TMC3    C514167   0.842   2.417  11.261  0.6663  0.4186 -0.3266
    5TMC3    C614168   0.759   2.323  11.194 -0.1440  0.0867 -0.1656
    5TMC3     C14169   0.821   2.326  11.589 -0.3470 -0.7302  0.1830
    5TMC3     O14170   0.796   2.232  11.664 -0.6767  0.4643  0.7246
    5TMC3     H14171   0.719   2.106  11.452 -2.3017  0.3452 -1.2113
    5TMC3    H114172   0.961   2.468  11.427 -0.2768 -0.7476  1.3995
    5TMC3    H214173   0.705   2.330  11.100  1.4713 -0.1189 -1.1116
    5TMC3    C714174   0.795   2.550  11.260 -0.3788  0.6166 -0.5168
    5TMC3    C814175   0.705   2.099  11.183 -0.1186  0.4291  0.1554
    5TMC3    O114176   0.791   2.598  11.373 -0.2849  0.2133 -0.0372
    5TMC3    O214177   0.665   2.122  11.069 -0.1497 -0.2186  0.1653
    6TMC3    C114178   4.137   2.730  11.231  0.4763 -0.1378  0.3214
    6TMC3    C214179   4.167   2.673  11.110 -0.8535 -0.1753 -0.4466
    6TMC3    C314180   4.283   2.601  11.097  0.0175  1.4403  0.5608
    6TMC3    C414181   4.220   2.714  11.337  0.2030  0.4780  0.6461
    6TMC3    C514182   4.336   2.646  11.322  0.0845  0.1249  0.7143
    6TMC3    C614183   4.373   2.587  11.205 -0.1372 -0.1092 -0.3436
    6TMC3     C14184   4.067   2.853  11.236 -0.0640 -0.1702 -0.5067
    6TMC3     O14185   4.045   2.895  11.352 -0.7827  0.1504  0.2878
    6TMC3     H14186   4.097   2.671  11.028  0.3407  0.9977 -1.4888
    6TMC3    H114187   4.202   2.754  11.436  1.1002  0.7039  0.7158
    6TMC3    H214188   4.462   2.527  11.190  0.6441  1.5933 -2.5180
    6TMC3    C714189   4.450   2.668  11.410 -0.6456 -0.1768 -0.1889
    6TMC3    C814190   4.294   2.496  10.998 -0.5593  0.4017  0.3638
    6TMC3    O114191   4.563   2.661  11.359  0.1940 -0.0518 -0.3100
    6TMC3    O214192   4.363   2.407  11.038  0.2272  0.2291 -0.5346
    7MPD2     C14193   0.528   2.934  11.047 -0.7975  0.1812 -0.4073
    7MPD2    C114194   0.573   2.921  11.180 -0.9752 -0.2089  0.3596
    7MPD2    C214195   0.653   2.811  11.209 -0.2691  0.4697 -0.5422
    7MPD2    C314196   0.680   2.720  11.108  0.2727 -0.3892 -0.4094
    7MPD2    C414197   0.651   2.739  10.976 -0.0006  0.0516 -0.3679
    7MPD2    C514198   0.567   2.848  10.953  0.0125  0.9578 -0.0772
    7MPD2     H14199   0.687   2.798  11.311 -0.8506 -3.6496 -0.8774
    7MPD2    H114200   0.681   2.678  10.892 -2.0213 -0.8712 -0.4084
    7MPD2    H214201   0.466   3.020  11.023  0.3590  1.4551  1.2124
    7MPD2    H314202   0.536   2.854  10.849  0.0672 -0.7065 -0.1945
    7MPD2     N14203   0.754   2.600  11.131 -0.0513 -0.3786  0.7865
    7MPD2    H514204   0.775   2.546  11.048 -0.0662 -0.3310  0.7520
    7MPD2    N114205   0.538   3.006  11.289  0.3639 -0.8123  0.2568
    7MPD2    H714206   0.594   2.988  11.372 -0.2724 -0.9410  0.6515
    8TMC3    C114207   0.407   3.151  11.430  0.1240  0.5042 -0.9396
    8TMC3    C214208   0.277   3.130  11.461  0.5337  0.6598  0.2269
    8TMC3    C314209   0.247   3.090  11.585 -0.1773  0.7917 -0.2753
    8TMC3    C414210   0.507   3.102  11.508 -0.1632  0.5059  0.8154
    8TMC3    C514211   0.469   3.040  11.625  0.5230 -0.3344  0.1217
    8TMC3    C614212   0.338   3.034  11.661  0.3287  0.4356 -0.2672
    8TMC3     C14213   0.439   3.103  11.291  0.6982  0.1798 -0.3923
    8TMC3     O14214   0.354   3.127  11.210  0.3795 -0.5156 -0.0789
    8TMC3     H14215   0.205   3.167  11.389  0.4107 -0.9396 -0.4747
    8TMC3    H114216   0.609   3.134  11.488  0.5981 -2.0490  0.5604
    8TMC3    H214217   0.306   2.988  11.754 -0.5508 -0.2096 -0.8926
    8TMC3    C714218   0.563   2.928  11.657 -0.6472  0.2923 -0.0505
    8TMC3    C814219   0.125   3.005  11.577  0.8079 -0.1145 -0.2627
    8TMC3    O114220   0.655   2.911  11.579 -0.7922 -0.4743  0.2829
    8TMC3    O214221   0.104   2.954  11.469  0.3636 -0.0602 -0.1924
    9MPD2     C14222   4.635   2.901  11.842  1.2449  0.3467 -0.2446
    9MPD2    C114223   4.681   2.902  11.715  0.1479 -1.0122 -0.9834
    9MPD2    C214224   4.613   2.833  11.615 -0.2620 -0.4134  0.2540
    9MPD2    C314225   4.498   2.760  11.636  0.0248 -0.7248  0.2747
    9MPD2    C414226   4.452   2.756  11.766 -0.3542  0.4666 -0.4995
    9MPD2    C514227   4.509   2.840  11.856 -0.0522 -0.0058  0.7055
    9MPD2     H14228   4.650   2.837  11.513  1.0870 -1.3449  0.6980
    9MPD2    H114229   4.358   2.708  11.791  0.1234  0.7539  1.8844
    9MPD2    H214230   4.675   2.962  11.922  0.9531  0.4643 -0.1922
    9MPD2    H314231   4.471   2.834  11.957  0.2719  1.1026  0.8893
    9MPD2     N14232   4.412   2.701  11.536  0.1558  0.2943  0.3752
    9MPD2    H514233   4.317   2.679  11.564  0.3113 -0.0041  0.6549
    9MPD2    N114234   0.069   2.982  11.697  0.2493 -0.3063  0.6157
    9MPD2    H714235   0.105   3.036  11.776  1.0209 -0.5284  0.4158
    1MPD1     C14236   0.136   0.031  15.908 -0.1969  0.5841  0.5013
    1MPD1    C114237   0.071   0.003  16.024  0.2767  0.0191  0.7249
    1MPD1    C214238   0.102   0.069  16.138 -0.1919  0.9018 -0.7911
    1MPD1    C314239   0.164   0.192  16.122  0.1309  0.5676 -0.4900
    1MPD1    C414240   0.223   0.228  16.008 -0.5101  0.3133 -0.6307
    1MPD1    C514241   0.215   0.145  15.903 -0.3198 -0.0214 -0.0534
    1MPD1     H14242   0.063   0.037  16.234  0.0201  1.0760 -0.6467
    1MPD1    H114243   0.283   0.318  15.996 -0.6960  0.4886 -0.2316
    1MPD1    H214244   0.126   4.696  15.818  0.4681  1.1216  0.0632
    1MPD1    H314245   0.257   0.170  15.807  1.3919 -1.5306  0.2913
    1MPD1     N14246   0.171   0.284  16.225 -0.0500 -0.2266 -0.3344
    1MPD1    H514247   0.224   0.369  16.210 -1.7989  1.2059  1.6478
    1MPD1    N114248   0.004   4.609  16.044 -0.1181  0.0304 -0.4541
    1MPD1    H614249   4.686   4.602  16.136  2.7931  0.4041  0.9389
    1MPD1    H714250   4.663   4.582  15.971 -1.4143 -1.1500  1.1416
    2MPD1     C14251   0.451   1.195  16.394 -0.0870 -0.3270  0.3446
    2MPD1    C114252   0.438   1.150  16.525  0.5277 -0.0195 -0.6071
    2MPD1    C214253   0.376   1.032  16.540  0.0448  0.1275 -0.5126
    2MPD1    C314254   0.307   0.963  16.442 -0.5912  0.2928 -1.0633
    2MPD1    C414255   0.315   1.007  16.314 -0.0793  0.2660 -0.8725
    2MPD1    C514256   0.382   1.129  16.299 -0.2635 -0.1793 -0.4294
    2MPD1     H14257   0.375   0.989  16.640 -2.7069 -0.2895 -0.7208
    2MPD1    H114258   0.258   0.967  16.231  1.9649  1.0468 -2.6648
    2MPD1    H214259   0.499   1.288  16.367 -0.6157  0.0706  0.7678
    2MPD1    H314260   0.387   1.168  16.198 -2.1398  0.4799 -0.2646
    2MPD1     N14261   0.235   0.846  16.485  0.3395 -0.5771  0.5778
    2MPD1    H514262   0.244   0.826  16.584  1.4702  0.1550  0.6278
    2MPD1    N114263   0.503   1.212  16.636  0.2677 -0.2358  0.1964
    2MPD1    H614264   0.497   1.311  16.655 -1.3820 -0.3510  0.2684
    2MPD1    H714265   0.485   1.164  16.724 -0.5185 -1.5417 -0.6709
    3TCq2    C114266   0.189   0.746  16.397  0.1678 -0.6584  0.5996
    3TCq2    O214267   0.158   0.761  16.279 -1.2614 -0.0687 -0.5508
    3TCq2    C214268   0.169   0.621  16.454 -0.0258 -0.1549 -0.1211
    3TCq2    C314269   0.128   0.617  16.588  0.3473  0.4804 -0.3296
    3TCq2    C414270   0.083   0.499  16.637 -0.0865  0.0187 -0.2802
    3TCq2    C514271   0.084   0.388  16.562 -0.4844 -0.0357  0.1781
    3TCq2    C614272   0.123   0.393  16.430 -0.2097 -0.2391  0.0828
    3TCq2    C714273   0.157   0.512  16.370 -0.9292 -0.4368 -0.1529
    3TCq2    C814274   0.109   0.274  16.346  0.9805  0.3113  0.5532
    3TCq2    O414275   0.061   0.176  16.402 -0.0750 -0.0472 -0.1009
    3TCq2    C914276   0.048   0.499  16.776  0.1360 -0.6513 -0.2919
    3TCq2    O514277   0.032   0.387  16.832 -0.4835 -0.3029 -1.0513
    3TCq2    O614278   0.036   0.608  16.831  0.4381 -0.3728 -0.6051
    3TCq2    H214279   0.125   0.704  16.653  1.4334 -0.1779  0.6127
    3TCq2    H314280   0.053   0.294  16.606 -0.7837 -0.1961 -0.3826
    3TCq2    H414281   0.178   0.516  16.264 -2.6298  1.6890 -0.4157
    1TCq1    O114282   1.776   1.052  12.551 -0.6525 -0.0583  0.8377
    1TCq1    C114283   1.754   0.923  12.507  0.4534 -0.9010  0.0713
    1TCq1    O214284   1.644   0.865  12.499 -0.0414  0.4274  0.1010
    1TCq1    C214285   1.879   0.858  12.483 -0.3283  0.5260  0.4040
    1TCq1    C314286   1.877   0.737  12.423 -0.3081  0.0768  0.3678
    1TCq1    C414287   1.987   0.651  12.414 -0.1044 -0.1016 -0.2772
    1TCq1    C514288   2.107   0.702  12.461  0.0670 -0.3705  0.2852
    1TCq1    C614289   2.116   0.828  12.502 -0.0092 -1.1246  0.3789
    1TCq1    C714290   2.003   0.910  12.518 -0.0680 -0.1893 -0.7799
    1TCq1    C814291   2.245   0.882  12.549 -0.4265  0.5938 -0.0209
    1TCq1    O414292   2.250   0.998  12.584  0.1808  0.2793 -0.0415
    1TCq1    C914293   1.968   0.520  12.345 -0.3845 -0.3193  0.5322
    1TCq1    O514294   1.871   0.515  12.266  0.2220  0.5615 -0.1994
    1TCq1    O614295   2.055   0.424  12.350 -0.3194  0.2793  0.0188
    1TCq1    H114296   1.873   1.067  12.539 -0.6953 -0.2299  0.2681
    1TCq1    H214297   1.781   0.693  12.399  0.1861 -0.5051 -0.5261
    1TCq1    H314298   2.197   0.643  12.446 -0.6950 -1.3635 -0.3202
    1TCq1    H414299   2.014   1.010  12.559 -1.0293  0.1057 -1.2415
    2MPD2     C14300   2.543   0.942  12.573  0.1274  0.1273 -0.3013
    2MPD2    C114301   2.484   0.820  12.607  0.6298 -0.0818 -0.2705
    2MPD2    C214302   2.557   0.713  12.653  0.1020 -0.3507 -0.7611
    2MPD2    C314303   2.689   0.729  12.675 -0.5083  0.0200 -0.4131
    2MPD2    C414304   2.748   0.852  12.649 -0.4300 -0.1420  0.5844
    2MPD2    C514305   2.675   0.954  12.597  0.3946  0.3220 -0.5773
    2MPD2     H14306   2.510   0.617  12.671  1.9600 -1.2447 -0.6658
    2MPD2    H114307   2.853   0.877  12.658 -0.1742 -1.0500  0.0805
    2MPD2    H214308   2.483   1.024  12.535 -0.0771 -0.9599 -2.3253
    2MPD2    H314309   2.719   1.050  12.576  2.7477 -0.9279 -1.3548
    2MPD2     N14310   2.764   0.629  12.730 -0.1408  0.7314  0.0734
    2MPD2    H514311   2.708   0.546  12.748 -2.0566  1.6182 -1.7824
    2MPD2    N114312   2.346   0.790  12.572  0.2157  0.4014  0.0032
    2MPD2    H714313   2.317   0.693  12.576  1.8040  0.0241  2.5366
    3TCq1    O114314   3.337   0.455  12.796 -0.7140  0.2212 -0.4764
    3TCq1    C114315   3.269   0.365  12.872  0.4081 -0.1278  1.0147
    3TCq1    O214316   3.307   0.254  12.896  0.1301 -0.0123  0.4608
    3TCq1    C214317   3.131   0.375  12.832 -0.0519  0.2573  0.8942
    3TCq1    C314318   3.046   0.274  12.874 -0.3756 -1.2616  0.1426
    3TCq1    C414319   2.908   0.298  12.885 -0.4602  0.5867  0.5912
    3TCq1    C514320   2.858   0.422  12.865  0.0531 -0.5768  0.5010
    3TCq1    C614321   2.943   0.520  12.823  0.0047 -0.5852  0.6626
    3TCq1    C714322   3.077   0.498  12.812  0.6640 -0.7261 -0.0667
    3TCq1    C814323   2.897   0.636  12.759 -0.2948 -0.0996 -0.4757
    3TCq1    O414324   2.986   0.711  12.710  0.1480 -0.4389  0.9078
    3TCq1    C914325   2.826   0.196  12.932  0.7138 -0.6196  0.2629
    3TCq1    O514326   2.881   0.087  12.956 -0.1059 -0.3692  0.1043
    3TCq1    O614327   2.704   0.218  12.927  0.3518  0.5320  0.1520
    3TCq1    H114328   3.303   0.539  12.759 -0.2891  0.1132 -1.1008
    3TCq1    H214329   3.086   0.176  12.898  0.0969 -0.6028  2.1015
    3TCq1    H314330   2.753   0.438  12.887 -0.0261  0.6039 -0.7988
    3TCq1    H414331   3.146   0.581  12.813 -1.0674  0.7186 -2.4025
    1MPD2     C14332   3.030   1.570  14.874 -0.4633 -0.6028  0.3597
    1MPD2    C114333   2.946   1.470  14.844 -0.9558  0.0604 -0.4696
    1MPD2    C214334   2.981   1.341  14.871  0.1585  0.0042 -0.1252
    1MPD2    C314335   3.106   1.313  14.921 -0.0468  0.0963  0.5233
    1MPD2    C414336   3.194   1.413  14.948  0.0937 -0.4561 -0.0223
    1MPD2    C514337   3.154   1.544  14.918 -0.7332 -0.0760 -0.7205
    1MPD2     H14338   2.916   1.265  14.831 -1.7367  0.3510  2.2793
    1MPD2    H114339   3.302   1.397  14.952  0.3660  1.4405  0.4795
    1MPD2    H214340   3.003   1.673  14.852 -2.2354 -0.6110  2.4829
    1MPD2    H314341   3.227   1.624  14.914  0.0132 -0.7781 -1.4590
    1MPD2     N14342   3.143   1.178  14.956  0.2767  0.2017 -0.1856
    1MPD2    H514343   3.202   1.162  15.037 -0.8631  2.7509  1.1507
    1MPD2    N114344   2.822   1.515  14.781  0.5585  0.0660 -0.4382
    1MPD2    H714345   2.811   1.610  14.745 -2.4519 -0.2261 -0.2669
    2TMC3    C114346   2.594   1.489  14.715 -0.1094 -0.0343 -0.1358
    2TMC3    C214347   2.494   1.401  14.730  0.5052 -0.2275  0.3081
    2TMC3    C314348   2.428   1.365  14.612  0.7159 -0.9131  0.0939
    2TMC3    C414349   2.609   1.568  14.600  0.0125  0.0225  0.1526
    2TMC3    C514350   2.519   1.552  14.496  0.1436 -0.3117  0.3492
    2TMC3    C614351   2.426   1.447  14.499 -0.1990  0.4794 -0.7151
    2TMC3     C14352   2.711   1.434  14.778  0.4551 -0.0331 -0.5628
    2TMC3     O14353   2.698   1.324  14.828 -0.2273 -0.3730 -0.2337
    2TMC3     H14354   2.481   1.346  14.822  1.4771 -1.1976 -0.1476
    2TMC3    H114355   2.695   1.634  14.597  1.1391 -1.4615 -0.1942
    2TMC3    H214356   2.370   1.417  14.411  1.5410  2.3077 -2.4849
    2TMC3    C714357   2.490   1.679  14.429 -0.1066 -0.7382  0.1930
    2TMC3    C814358   2.440   1.220  14.578 -0.4448 -0.2430 -0.5871
    2TMC3    O114359   2.417   1.676  14.329 -0.2409 -0.3484 -0.3495
    2TMC3    O214360   2.369   1.174  14.492 -0.1429  0.7746  0.5253
    3TCq1    O114361   3.165   2.564  14.620 -0.4586  0.0901  0.1061
    3TCq1    C114362   3.076   2.663  14.632  0.3957  0.2110 -0.5113
    3TCq1    O214363   3.047   2.741  14.539  0.6865  0.0223 -0.0589
    3TCq1    C214364   2.970   2.584  14.695 -0.5325 -0.8665 -0.5341
    3TCq1    C314365   3.000   2.533  14.815 -0.4372 -0.6652 -0.3046
    3TCq1    C414366   2.931   2.423  14.849  0.1555  1.2006 -1.0666
    3TCq1    C514367   2.830   2.374  14.777  0.2087  0.2894 -0.4839
    3TCq1    C614368   2.796   2.432  14.660  0.0037 -0.1922  0.4419
    3TCq1    C714369   2.873   2.537  14.611 -0.9508 -0.8860 -0.1037
    3TCq1    C814370   2.713   2.367  14.556  0.1898 -0.1259 -0.1082
    3TCq1    O414371   2.672   2.436  14.465  0.4470 -0.4580  0.5874
    3TCq1    C914372   2.978   2.357  14.967 -0.2251  0.0077 -0.3929
    3TCq1    O514373   2.917   2.257  15.010 -0.2253 -0.2055 -0.4572
    3TCq1    O614374   3.088   2.401  15.014  0.0275  0.4197  0.0071
    3TCq1    H114375   3.175   2.504  14.697  1.1163  0.1959 -0.0168
    3TCq1    H214376   3.087   2.570  14.869 -2.3006  1.9711  0.8734
    3TCq1    H314377   2.779   2.293  14.829  2.6142 -1.4503 -0.8386
    3TCq1    H414378   2.864   2.580  14.512 -2.2074 -0.2904  0.2655
    4MPD2     C14379   2.559   2.192  14.371 -0.1274 -0.0977  0.2486
    4MPD2    C114380   2.609   2.152  14.494 -0.9171 -0.7514  0.3096
    4MPD2    C214381   2.604   2.017  14.521 -1.0538 -0.2807  0.0419
    4MPD2    C314382   2.535   1.925  14.445  0.5226  0.4172 -0.2831
    4MPD2    C414383   2.469   1.971  14.336 -0.2497 -0.3013  0.5122
    4MPD2    C514384   2.482   2.102  14.303 -0.2619  0.1121  0.3049
    4MPD2     H14385   2.643   1.967  14.609  0.0554 -1.6327 -1.2297
    4MPD2    H114386   2.419   1.899  14.271 -1.6821 -1.2147  2.6495
    4MPD2    H214387   2.564   2.295  14.338  2.3548 -0.7341 -1.3452
    4MPD2    H314388   2.437   2.138  14.210 -1.1391 -0.8147  0.3667
    4MPD2     N14389   2.548   1.791  14.485  0.0426 -0.0025 -0.4762
    4MPD2    H514390   2.604   1.768  14.567 -1.6511  2.6909  1.4303
    4MPD2    N114391   2.684   2.235  14.580 -0.1061 -0.4645 -0.2661
    4MPD2    H714392   2.725   2.189  14.660 -0.2763  3.4633  2.0728
    5TMC2    C114393   2.995   0.745  14.928 -0.0540 -0.4260 -0.4566
    5TMC2    C214394   2.964   0.745  15.066 -0.2821  0.1157  0.1542
    5TMC2    C314395   3.037   0.829  15.139  0.0490  0.7574  1.0335
    5TMC2    C414396   3.080   0.839  14.865  0.7107  0.2609  0.1491
    5TMC2    C514397   3.136   0.936  14.947 -0.3360 -0.2504  0.5986
    5TMC2    C614398   3.120   0.923  15.089 -0.1053  0.0424 -0.7421
    5TMC2     C14399   2.880   0.701  14.845  0.2877 -0.2070 -0.5461
    5TMC2     O14400   2.829   0.594  14.858  0.0135  0.1223  0.3993
    5TMC2     H14401   2.893   0.679  15.114 -1.1449  0.6623 -0.3789
    5TMC2    H114402   3.105   0.837  14.759  2.3296 -0.7611  0.5513
    5TMC2    H214403   3.162   0.998  15.155 -1.6917  1.1682 -0.9880
    5TMC2    C714404   3.091   1.065  14.898  0.5306  0.3916  0.2801
    5TMC2    C814405   2.995   0.851  15.278 -0.5277  0.0865  0.1928
    5TMC2    O114406   3.002   1.052  14.814 -0.1261 -0.2012  0.1330
    5TMC2    O214407   3.042   0.782  15.367  0.4485  0.1169  0.2472
    5TMC2    O514408   2.869   0.891  15.275 -0.4108 -0.7707  0.4577
    5TMC2    H514409   2.853   0.931  15.187 -0.4563 -1.2388  0.2562
    6MPD2     C14410   2.486   0.915  14.593  0.0209  0.7885 -0.0492
    6MPD2    C114411   2.565   1.015  14.647 -0.9638  0.0689 -0.5713
    6MPD2    C214412   2.682   0.983  14.708  0.0850 -0.8554 -0.4379
    6MPD2    C314413   2.722   0.854  14.730  0.2041 -0.3852  0.6675
    6MPD2    C414414   2.642   0.752  14.680  0.3780  0.1943 -0.1476
    6MPD2    C514415   2.533   0.791  14.606  0.2851  0.2238  0.1506
    6MPD2     H14416   2.739   1.066  14.748 -0.8537 -1.2697  1.7576
    6MPD2    H114417   2.667   0.647  14.691  2.9182  0.8624  0.2871
    6MPD2    H214418   2.405   0.937  14.525 -0.5671  0.9642  0.7180
    6MPD2    H314419   2.472   0.717  14.555 -0.4727 -0.1150  1.5244
    6MPD2     N14420   2.841   0.825  14.794 -0.6435 -0.0500 -0.3876
    6MPD2    H514421   2.892   0.909  14.819 -0.0497 -0.9203  1.3540
    6MPD2    N114422   2.535   1.155  14.652 -0.1363  0.4116  0.2704
    6MPD2    H714423   2.588   1.217  14.712 -0.0382  0.4923  0.0993
  945NH4     N114424   3.992   2.262  14.471  0.2902  0.1987 -0.6119
  945NH4     H214425   3.992   2.332  14.548  1.7251 -0.8599  0.3451
  945NH4     H314426   3.895   2.258  14.434  0.5887  1.9337 -1.5872
  945NH4     H414427   4.014   2.166  14.505 -0.3785  0.4904  0.6589
  945NH4     H514428   4.060   2.291  14.398 -0.5413  2.1195 -0.6264
  946SOD     NA14429   1.330   3.019   5.347  0.4388 -0.3504  0.2780
  947SOD     NA14430   0.399   4.494   5.466 -0.2190 -0.5549  0.1972
  948SOD     NA14431   2.138   2.716  14.742  0.0340  0.0042 -0.0643
  949SOD     NA14432   4.448   0.438  14.777 -0.4064 -0.1766  0.2708
  950SOD     NA14433   2.163   1.143   3.560  0.2167  0.3572 -0.0484
  951SOD     NA14434   3.545   1.329  12.495  0.1731 -0.6305 -0.4265
  952SOD     NA14435   1.843   0.900   5.690 -0.2279  0.1040 -0.8520
  953SOD     NA14436   1.093   3.300   9.403 -0.5562 -0.1032  0.3564
  954SOD     NA14437   2.877   4.615  12.859 -0.6745  0.5177  0.4770
  955SOD     NA14438   0.047   4.514  10.258  0.4962 -0.3310 -0.2260
  956SOD     NA14439   0.105   1.616  13.067  0.0089 -0.3330  0.7180
  957SOD     NA14440   2.283   3.520   1.813  0.1734  0.3835  0.0516
  958SOD     NA14441   4.222   0.584  17.098 -0.2400 -0.1411 -0.0789
  959SOD     NA14442   2.312   3.116  11.061  0.1172 -0.2983  0.0179
  960SOD     NA14443   3.075   0.502  10.771  0.4256  0.1851  0.1038
  961SOD     NA14444   1.425   1.358   0.764 -0.3962 -0.2332 -0.2335
  962SOD     NA14445   2.450   2.883  10.815  0.2623 -0.4049  0.3231
  963SOD     NA14446   3.311   3.903  16.171 -0.0297  0.0437 -0.3581
  964SOD     NA14447   0.609   4.091  13.529  0.1502  0.3638 -0.3649
  965SOD     NA14448   3.280   1.892  17.451  0.2355 -0.0666  0.2277
  966SOD     NA14449   2.583   2.045  11.754  0.1225 -0.2631 -0.0770
  967SOD     NA14450   4.146   2.186  11.369 -0.0477 -0.2499  0.0340
  968SOD     NA14451   3.363   0.724  11.302  0.1957 -0.0230 -0.1952
  969SOD     NA14452   1.867   0.837  10.864  0.0243  0.2885 -0.0743
  970SOD     NA14453   0.317   2.691   8.663 -0.5388  0.1139 -0.2612
  971SOD     NA14454   3.320   0.208  11.990 -0.1692 -0.2038 -0.4084
  972SOD     NA14455   4.241   0.930  14.917  0.0857 -0.1154  0.2600
  973SOD     NA14456   3.483   2.096   7.625 -0.8053 -0.2462  0.0434
  974SOD     NA14457   1.372   4.223  10.818  0.5644 -0.2463  0.1160
  975SOD     NA14458   3.624   4.657  10.046  0.3383  0.6340  0.3024
  976SOD     NA14459   2.061   0.587  10.732  0.1800 -0.0689  0.5199
  977SOD     NA14460   1.639   0.285   6.287  0.1891 -0.3821  0.3356
  978SOD     NA14461   3.229   4.514  11.001  0.5713 -0.1056  0.1875
  979SOD     NA14462   2.365   4.052   9.852  0.1557 -0.0399  0.0274
  980SOD     NA14463   1.403   0.903  14.046 -0.4100  0.1982 -0.4473
  981SOD     NA14464   4.092   0.282   0.014 -0.1694 -0.3798 -0.4309
  982SOD     NA14465   1.113   0.426  10.123 -0.7263 -0.0898 -0.2476
  983SOD     NA14466   1.813   1.691   0.993 -0.0626  0.2335 -0.1307
  984SOD     NA14467   1.754   4.297   8.752 -0.3259 -0.1624 -0.3825
  985SOD     NA14468   3.715   4.354  12.782  0.1703  0.2681 -0.0060
  986SOD     NA14469   4.039   1.111  15.232  0.1759 -0.0095 -0.3711
  987SOD     NA14470   4.044   1.101  14.833 -0.1958 -0.1501  0.2183
  988SOD     NA14471   4.384   0.486   7.169 -0.0562 -0.5953  0.4542
  989SOD     NA14472   2.294   4.637   9.725 -0.3771 -0.4144 -0.2955
  990SOD     NA14473   4.024   3.930   7.783  0.1491 -0.3621 -0.1915
  991SOD     NA14474   1.343   2.010   0.886 -0.5468  0.0938  0.1671
  992SOD     NA14475   1.318   2.689  14.512  0.1397 -0.5136  0.3023
  993SOD     NA14476   3.590   3.744  17.201 -0.2426  0.1477 -0.1656
  994SOD     NA14477   2.176   0.003  15.480  0.1109 -0.5775  0.8968
  995SOD     NA14478   0.458   4.314   1.387  0.0987 -0.5110 -0.3025
  996SOD     NA14479   4.284   4.563  13.194 -0.0893 -0.0506  0.0402
  997SOD     NA14480   1.309   0.758  12.122 -0.0480  0.7496  0.2171
  998SOD     NA14481   4.553   0.945  14.723  0.1498  0.4411 -0.1949
  999SOD     NA14482   4.265   1.268  10.996  0.1210  0.2449 -0.0482
 1000SOD     NA14483   1.618   1.873  11.567  0.3531  0.0168  0.1829
 1001SOD     NA14484   4.289   0.687  14.631 -0.3028  0.1869  0.2842
 1002SOD     NA14485   1.404   1.848   0.367 -0.4678  0.0455 -0.1046
 1003SOD     NA14486   0.468   3.105   2.259  0.0048 -0.2838 -0.1377
 1004SOD     NA14487   0.002   0.665  14.953  0.3704 -0.0570  0.9434
 1005SOD     NA14488   4.594   3.815   1.756  0.2154  0.2569  0.5825
 1006SOD     NA14489   2.991   2.606  13.407 -0.1997  0.0440  0.0093
 1007SOD     NA14490   1.542   2.821   0.911  0.5197 -0.0638  0.1163
 1008SOD     NA14491   2.406   4.551  10.013  0.1089 -0.1806 -0.1725
 1009SOD     NA14492   4.547   4.125   1.783  0.0813 -0.1744  0.0354
 1010SOD     NA14493   2.160   2.447   2.360 -0.0655 -0.7508 -0.0812
 1011SOL     OW14494   0.108   0.419  11.143 -0.3716  0.0210  0.2675
 1011SOL    HW114495   0.089   0.365  11.066  2.2449  2.6568 -2.2870
 1011SOL    HW214496   0.203   0.410  11.152 -0.2184 -0.7279 -1.9495
 1012SOL     OW14497   2.677   1.639   2.215  0.5032  0.0125 -0.1409
 1012SOL    HW114498   2.747   1.575   2.209  0.2453  0.0396 -3.2474
 1012SOL    HW214499   2.605   1.586   2.179 -0.5042 -1.1237  3.5718
 1013SOL     OW14500   2.490   3.393   3.838 -0.9016 -0.5545 -0.1012
 1013SOL    HW114501   2.434   3.456   3.792 -0.3589  1.7651  2.4482
 1013SOL    HW214502   2.515   3.352   3.754  1.5286 -1.1784  0.9065
 1014SOL     OW14503   0.638   2.769  15.786 -0.0918 -0.6993  0.5972
 1014SOL    HW114504   0.696   2.792  15.714  1.5527 -2.6918  1.3017
 1014SOL    HW214505   0.555   2.815  15.773  0.4871 -0.1017 -0.8501
 1015SOL     OW14506   4.308   1.353  16.056 -0.6056 -0.0235 -0.3375
 1015SOL    HW114507   4.391   1.336  16.101 -1.7992 -0.9899  1.5179
 1015SOL    HW214508   4.244   1.371  16.125  0.8561  2.1795  0.4189
 1016SOL     OW14509   4.362   2.729  10.426  0.3428 -0.1334 -0.2065
 1016SOL    HW114510   4.424   2.765  10.363 -1.2018  1.2405 -0.9477
 1016SOL    HW214511   4.414   2.740  10.506  0.3402 -0.7928 -0.1148
 1017SOL     OW14512   4.442   4.525   2.884  0.2208  0.1650  0.4928
 1017SOL    HW114513   4.401   4.477   2.811  0.3982 -1.2589  1.3288
 1017SOL    HW214514   4.385   4.601   2.894 -0.4453 -0.5488  2.1073
 1018SOL     OW14515   2.583   4.050   0.593  0.1026  0.5873 -0.4210
 1018SOL    HW114516   2.592   4.133   0.640 -1.9164 -0.9288  2.5876
 1018SOL    HW214517   2.515   4.011   0.648 -1.5794  1.9689 -1.5518
 1019SOL     OW14518   0.972   0.847   2.372 -0.3212  0.1548  0.0468
 1019SOL    HW114519   0.990   0.936   2.404  0.9529  0.6417 -2.0741
 1019SOL    HW214520   0.880   0.841   2.399  0.4079  1.1359  2.8426
 1020SOL     OW14521   1.010   1.848   3.324 -0.3112 -0.5105 -0.1732
 1020SOL    HW114522   0.987   1.809   3.240  1.6109  0.8056 -1.2997
 1020SOL    HW214523   0.996   1.941   3.309  1.5893 -0.5044 -1.9009
 1021SOL     OW14524   1.965   0.163  16.424  0.5290  0.3134  0.4825
 1021SOL    HW114525   1.897   0.118  16.374  0.8467 -0.6716  0.9176
 1021SOL    HW214526   2.018   0.091  16.458  0.9623  0.6585  0.5332
 1022SOL     OW14527   1.733   1.165   1.773  0.1216 -0.0851  0.1984
 1022SOL    HW114528   1.785   1.189   1.850 -0.2926 -0.1385  0.4953
 1022SOL    HW214529   1.750   1.073   1.754  3.6199  0.0853  2.5106
 1023SOL     OW14530   1.689   3.224   5.801 -0.2291 -0.2992 -0.0226
 1023SOL    HW114531   1.623   3.158   5.823  0.2478 -0.7576  0.0304
 1023SOL    HW214532   1.773   3.179   5.809  1.8573  3.4792 -0.5689
 1024SOL     OW14533   3.388   0.484   8.397 -0.3228  0.1767  0.6787
 1024SOL    HW114534   3.458   0.532   8.352 -1.4192  1.0450 -0.0957
 1024SOL    HW214535   3.322   0.553   8.402  1.5329  1.9394  0.8558
 1025SOL     OW14536   0.453   2.485  14.703  0.1654 -0.3091 -0.4261
 1025SOL    HW114537   0.421   2.475  14.614  1.1110 -2.4969 -0.5134
 1025SOL    HW214538   0.411   2.565  14.734  0.0089  0.0567 -1.5952
 1026SOL     OW14539   3.899   4.205   8.120  0.1783 -0.3536 -0.3120
 1026SOL    HW114540   3.940   4.217   8.206 -0.7254 -3.3197  0.5660
 1026SOL    HW214541   3.808   4.215   8.148  0.7426  0.9256  1.0260
 1027SOL     OW14542   4.378   0.734   4.724 -0.6310  0.2670 -0.7138
 1027SOL    HW114543   4.342   0.684   4.650 -3.3895 -0.0295  0.8399
 1027SOL    HW214544   4.343   0.675   4.791  1.4403 -0.9703 -0.7065
 1028SOL     OW14545   0.464   1.952   5.820 -0.2807  0.5930 -0.0525
 1028SOL    HW114546   0.434   2.042   5.834 -0.9397  0.0045  2.2803
 1028SOL    HW214547   0.382   1.916   5.786  0.6710  0.2880 -2.0280
 1029SOL     OW14548   4.003   0.520   8.859  0.1199  0.6814 -0.0366
 1029SOL    HW114549   3.966   0.607   8.876 -1.0670 -0.0728  1.2839
 1029SOL    HW214550   4.094   0.549   8.857  1.1132 -2.2834  1.8066
 1030SOL     OW14551   4.131   2.775   5.540 -0.0091  0.6755 -0.4472
 1030SOL    HW114552   4.065   2.742   5.601 -0.7945 -0.3093 -1.8317
 1030SOL    HW214553   4.103   2.725   5.463 -2.2346 -1.2742  1.6047
 1031SOL     OW14554   1.338   0.750   5.115  0.4228  0.3754  0.2494
 1031SOL    HW114555   1.400   0.728   5.184 -0.7229 -0.0308  1.1525
 1031SOL    HW214556   1.308   0.665   5.083  3.2055 -0.9546  1.1886
 1032SOL     OW14557   1.719   3.736  13.566  0.0136 -0.2229  0.5384
 1032SOL    HW114558   1.701   3.716  13.474  1.1891  0.7069  0.1054
 1032SOL    HW214559   1.798   3.683  13.571  0.3563  0.0412 -1.9284
 1033SOL     OW14560   0.284   4.702  15.402 -0.4611 -0.8733  0.1131
 1033SOL    HW114561   0.287   4.607  15.402 -1.0889 -0.8913 -0.8806
 1033SOL    HW214562   0.192   4.716  15.427 -1.5622 -2.9499 -2.7715
 1034SOL     OW14563   1.791   0.263   2.434  0.0222  0.2701 -0.3089
 1034SOL    HW114564   1.814   0.215   2.355 -0.2394  1.0769 -0.8715
 1034SOL    HW214565   1.836   0.213   2.503 -0.5939  0.5474  0.2933
 1035SOL     OW14566   1.099   0.864  12.186  0.2413 -0.2882  1.1725
 1035SOL    HW114567   1.114   0.958  12.178 -0.3004 -0.3473 -0.5376
 1035SOL    HW214568   1.008   0.860  12.216  0.5100 -0.4539  1.9437
 1036SOL     OW14569   4.297   1.321   3.301  0.1087  0.0547 -0.3674
 1036SOL    HW114570   4.376   1.302   3.251 -0.3920  0.8464 -1.4552
 1036SOL    HW214571   4.247   1.371   3.237  1.8916  0.4055 -1.4876
 1037SOL     OW14572   3.714   3.212   8.835 -0.4431  0.4605 -0.6553
 1037SOL    HW114573   3.689   3.258   8.914 -1.9759 -0.0295 -0.8650
 1037SOL    HW214574   3.724   3.122   8.867 -1.6203 -0.7958 -3.7955
 1038SOL     OW14575   0.258   2.549   6.940 -0.2590 -0.1143  0.6707
 1038SOL    HW114576   0.315   2.526   6.867  0.3541 -1.4093  1.5789
 1038SOL    HW214577   0.248   2.463   6.980 -1.1170 -1.0169 -1.4681
 1039SOL     OW14578   0.399   3.367   4.029  0.1089  0.1220  0.2118
 1039SOL    HW114579   0.332   3.335   3.968 -1.4858  1.7077  1.1582
 1039SOL    HW214580   0.354   3.437   4.076  0.4265 -0.4059  1.2822
 1040SOL     OW14581   4.328   3.911  15.179 -0.5858  0.4416  0.4179
 1040SOL    HW114582   4.278   3.944  15.254 -1.4046  0.0121  0.0496
 1040SOL    HW214583   4.300   3.821  15.196  0.2648  0.1616  0.3649
 1041SOL     OW14584   4.157   4.667   2.366  0.4150  0.5171  0.1378
 1041SOL    HW114585   4.116   4.582   2.385 -0.8267  0.8339 -1.1200
 1041SOL    HW214586   4.085   0.005   2.362  2.2420  2.5096 -1.0370
 1042SOL     OW14587   4.290   3.941   8.151 -0.0239  0.0912 -0.3562
 1042SOL    HW114588   4.361   3.884   8.181 -0.9986 -0.4110  1.0067
 1042SOL    HW214589   4.253   3.897   8.075 -1.2065 -0.7499  0.7126
 1043SOL     OW14590   1.437   3.717   5.182 -0.3023 -0.6123 -0.7561
 1043SOL    HW114591   1.369   3.755   5.126  1.8690 -0.6034 -3.4137
 1043SOL    HW214592   1.488   3.793   5.211  0.2342 -0.4269 -2.1484
 1044SOL     OW14593   1.850   4.631   3.508 -0.2314  0.1265  0.6404
 1044SOL    HW114594   1.907   4.583   3.569 -0.8562 -2.0370 -0.4641
 1044SOL    HW214595   1.871   4.588   3.425  2.0767  0.1902  1.1797
 1045SOL     OW14596   0.615   0.439   8.512 -0.0929  0.9480  0.4506
 1045SOL    HW114597   0.658   0.381   8.449 -0.7141 -0.2069  1.0919
 1045SOL    HW214598   0.669   0.422   8.590  1.3554  0.4362 -0.6642
 1046SOL     OW14599   0.087   3.775   8.566 -0.3900 -0.6938 -0.6010
 1046SOL    HW114600   0.156   3.796   8.503 -1.4307 -0.4718 -1.6700
 1046SOL    HW214601   0.018   3.808   8.508 -0.7122  2.4953  1.5996
 1047SOL     OW14602   3.711   3.293   6.504 -0.1535  0.3764  0.0520
 1047SOL    HW114603   3.699   3.232   6.577 -2.4915 -1.8280 -2.1708
 1047SOL    HW214604   3.721   3.381   6.541  0.0690 -0.9506  3.1727
 1048SOL     OW14605   2.450   2.429   6.766  0.5522 -0.2456 -0.1303
 1048SOL    HW114606   2.471   2.513   6.725 -1.3736  0.5924  0.6126
 1048SOL    HW214607   2.495   2.436   6.850 -0.8676 -0.6559  0.6799
 1049SOL     OW14608   1.618   0.364   3.178 -0.2461  0.3155  0.3417
 1049SOL    HW114609   1.618   0.448   3.225 -2.0195  0.2628  0.4508
 1049SOL    HW214610   1.710   0.358   3.155  0.0451  2.5162  0.8716
 1050SOL     OW14611   1.069   1.766   8.122  0.0357  0.4020 -0.2140
 1050SOL    HW114612   1.101   1.678   8.104  1.5606  0.3559  2.6185
 1050SOL    HW214613   1.144   1.808   8.164  0.3463  0.8857 -1.2705
 1051SOL     OW14614   2.201   2.914  10.112 -0.8083 -0.7431  0.1332
 1051SOL    HW114615   2.182   2.966  10.034  0.9916 -0.1232  0.1165
 1051SOL    HW214616   2.266   2.861  10.065 -0.5462 -1.9555  1.8513
 1052SOL     OW14617   1.572   3.072   8.377 -0.0824  0.1209  0.7057
 1052SOL    HW114618   1.650   3.091   8.428  1.6035 -1.1813 -1.4191
 1052SOL    HW214619   1.600   3.001   8.320  2.2418 -0.7256  2.9412
 1053SOL     OW14620   0.099   4.136  12.742  0.1258  0.1994 -0.3961
 1053SOL    HW114621   0.172   4.193  12.765 -1.4128  1.6117  1.0448
 1053SOL    HW214622   0.146   4.055  12.725 -3.2291 -2.2812  2.4273
 1054SOL     OW14623   1.718   2.689   0.860 -0.4090  0.0225 -0.1463
 1054SOL    HW114624   1.764   2.731   0.788 -0.8844 -0.6222 -0.8211
 1054SOL    HW214625   1.756   2.603   0.849  0.3826 -0.2087  4.1403
 1055SOL     OW14626   3.408   1.882   7.653  0.3923 -0.4419 -0.2869
 1055SOL    HW114627   3.325   1.848   7.619  0.0166  0.7058 -0.5413
 1055SOL    HW214628   3.456   1.812   7.697 -2.4011 -0.7312  2.3184
 1056SOL     OW14629   0.666   3.025   3.998  0.1852  0.4810 -0.3548
 1056SOL    HW114630   0.751   3.009   4.040  0.0472 -0.8136 -0.5577
 1056SOL    HW214631   0.620   3.084   4.058  1.4427  1.3843 -0.2769
 1057SOL     OW14632   3.203   1.945   6.131 -0.0655  0.4485  0.8768
 1057SOL    HW114633   3.204   2.035   6.097  0.7871 -0.0412 -0.3794
 1057SOL    HW214634   3.278   1.904   6.089 -0.3301 -0.0678  0.9116
 1058SOL     OW14635   3.036   1.240  10.508 -0.3722  0.5583  0.1792
 1058SOL    HW114636   2.983   1.188  10.447  1.9174 -0.1550 -1.1763
 1058SOL    HW214637   3.088   1.286  10.443 -0.3459  2.9527  1.8868
 1059SOL     OW14638   4.335   0.682   4.136 -0.3123  0.0069 -0.6929
 1059SOL    HW114639   4.314   0.691   4.043  0.0031  1.3393 -0.6374
 1059SOL    HW214640   4.382   0.762   4.158  0.9683 -1.3989  1.6699
 1060SOL     OW14641   1.032   1.155   0.150 -0.0377  0.1138  0.1043
 1060SOL    HW114642   1.022   1.157   0.245  0.3391 -0.2310  0.1500
 1060SOL    HW214643   1.116   1.113   0.130  1.0834  2.0251  0.7870
 1061SOL     OW14644   0.167   3.420   6.016 -0.0665 -0.2731 -0.7283
 1061SOL    HW114645   0.087   3.470   5.997  0.0187  0.9821  2.2728
 1061SOL    HW214646   0.227   3.495   6.022  1.1119 -1.1362 -1.6529
 1062SOL     OW14647   0.660   1.076  14.796 -0.5104 -0.4405  0.0381
 1062SOL    HW114648   0.620   1.037  14.874 -0.0098 -0.6116  0.2107
 1062SOL    HW214649   0.672   0.994  14.748 -0.9456 -2.8502  4.1177
 1063SOL     OW14650   0.865   2.204   3.948  0.4265 -0.3343 -0.8516
 1063SOL    HW114651   0.791   2.227   3.891 -0.7840  0.5053  1.0613
 1063SOL    HW214652   0.943   2.233   3.900  0.3177  1.4738  0.0628
 1064SOL     OW14653   0.489   0.134   6.439 -0.2996  0.3104 -0.5455
 1064SOL    HW114654   0.440   0.156   6.519 -0.2077 -0.7087 -0.2105
 1064SOL    HW214655   0.450   0.047   6.428  2.2045 -1.3091  3.3197
 1065SOL     OW14656   0.248   3.722   3.756  0.3683  0.0278  0.3962
 1065SOL    HW114657   0.282   3.791   3.699 -0.2954 -0.2803 -0.3733
 1065SOL    HW214658   0.196   3.766   3.824  0.6204  1.3038 -0.2382
 1066SOL     OW14659   1.966   3.083  14.986 -0.3275 -0.5652  0.1781
 1066SOL    HW114660   1.881   3.090  14.943 -0.1447 -2.5136 -0.5027
 1066SOL    HW214661   1.997   3.173  14.970 -2.4614  0.0014 -0.7235
 1067SOL     OW14662   0.922   3.730   3.032 -0.3529  0.2407 -0.4035
 1067SOL    HW114663   0.983   3.706   3.102 -0.5759 -0.9157 -0.6062
 1067SOL    HW214664   0.938   3.656   2.973  0.8640  0.5381 -0.4600
 1068SOL     OW14665   3.262   0.337  15.660  0.2673 -0.0636 -0.7884
 1068SOL    HW114666   3.347   0.293  15.650 -0.4772 -2.1732  2.1632
 1068SOL    HW214667   3.286   0.429  15.657 -1.8292  0.4994 -0.0393
 1069SOL     OW14668   0.276   3.953   3.562  0.1311 -0.4592  0.2840
 1069SOL    HW114669   0.358   3.999   3.580  0.1441 -0.2600 -0.2714
 1069SOL    HW214670   0.211   3.988   3.623 -0.3321  1.2398 -1.1605
 1070SOL     OW14671   4.360   3.700   2.467  0.1813 -0.4633 -0.4209
 1070SOL    HW114672   4.435   3.737   2.513 -0.8528  0.8292  0.2635
 1070SOL    HW214673   4.399   3.633   2.412 -1.1538 -1.8575  0.3176
 1071SOL     OW14674   3.438   0.813   4.772  0.3006  0.1991  0.0355
 1071SOL    HW114675   3.384   0.856   4.706  1.8316  1.6042 -0.2937
 1071SOL    HW214676   3.387   0.830   4.851 -2.4214  0.4269 -1.7869
 1072SOL     OW14677   3.418   0.596   1.958  0.6061  0.0355  0.1335
 1072SOL    HW114678   3.383   0.683   1.940  1.6734  0.8597  2.1540
 1072SOL    HW214679   3.508   0.603   1.926  1.1036 -1.3659  1.2251
 1073SOL     OW14680   3.954   1.585   5.074 -0.2502 -0.5224  0.3712
 1073SOL    HW114681   3.987   1.498   5.096  1.0638  0.1185  0.9292
 1073SOL    HW214682   3.937   1.572   4.980 -1.7153  1.6322  0.3267
 1074SOL     OW14683   3.115   1.054   3.776  0.3469  0.3932 -0.0603
 1074SOL    HW114684   3.186   1.026   3.718 -0.1655 -1.5204  0.2193
 1074SOL    HW214685   3.040   1.022   3.726  1.4261  0.4103 -1.6853
 1075SOL     OW14686   4.251   4.227  13.722  0.8425 -0.2608 -0.3989
 1075SOL    HW114687   4.290   4.306  13.685 -1.0246  0.6692 -0.4030
 1075SOL    HW214688   4.318   4.167  13.690 -0.3360 -2.5612  1.4238
 1076SOL     OW14689   0.757   4.009   8.443  0.2736 -0.1532  0.2973
 1076SOL    HW114690   0.772   4.030   8.535 -1.2297  1.4845  0.1585
 1076SOL    HW214691   0.666   3.982   8.453  0.5654 -1.8372 -1.5364
 1077SOL     OW14692   3.779   2.460   4.676  0.0607 -0.3257 -0.0791
 1077SOL    HW114693   3.796   2.366   4.678  0.1640 -0.3477 -1.8651
 1077SOL    HW214694   3.697   2.465   4.724 -0.2988  1.2168 -0.8655
 1078SOL     OW14695   1.496   3.293  14.135  0.1702 -0.0630 -0.3222
 1078SOL    HW114696   1.401   3.284  14.141  0.2276 -0.8409 -0.5770
 1078SOL    HW214697   1.523   3.209  14.096  1.4586  0.3758 -0.3720
 1079SOL     OW14698   2.293   3.148   1.648 -0.9406 -0.1700 -0.0592
 1079SOL    HW114699   2.343   3.166   1.568 -2.9730  0.0749 -1.3038
 1079SOL    HW214700   2.364   3.137   1.710 -1.1170 -1.1492 -0.0397
 1080SOL     OW14701   2.984   0.788  16.549  0.5887  0.4193 -0.2508
 1080SOL    HW114702   2.987   0.883  16.545 -3.3034  0.5413  0.0068
 1080SOL    HW214703   3.019   0.774  16.461 -0.4208 -0.4027 -0.5162
 1081SOL     OW14704   3.323   0.895   8.250  0.2824  0.4135 -0.8039
 1081SOL    HW114705   3.407   0.896   8.295  0.5774  0.6410 -1.3597
 1081SOL    HW214706   3.287   0.825   8.306  2.4269 -0.6655 -0.7561
 1082SOL     OW14707   2.311   0.859   4.044 -0.7951  0.0177 -0.2540
 1082SOL    HW114708   2.278   0.847   4.133 -0.7514 -2.2710 -0.5574
 1082SOL    HW214709   2.269   0.778   4.014  1.0914 -0.9426 -0.2987
 1083SOL     OW14710   1.834   0.018   3.953  0.1945  0.1587  0.2911
 1083SOL    HW114711   1.747   0.055   3.936  1.5091  3.6345  1.0831
 1083SOL    HW214712   1.875   0.104   3.963  0.6211  0.2743 -2.3679
 1084SOL     OW14713   0.631   1.999   8.857  0.5120  0.5284  0.0078
 1084SOL    HW114714   0.674   1.916   8.835 -1.3873  0.1681 -2.2983
 1084SOL    HW214715   0.560   1.970   8.915 -0.2976  0.3795 -1.0674
 1085SOL     OW14716   3.361   1.038   3.407 -0.0587 -0.1206  0.1840
 1085SOL    HW114717   3.285   1.018   3.354 -0.4776  1.0850  0.3110
 1085SOL    HW214718   3.408   0.959   3.381  1.6188  1.4662 -1.6215
 1086SOL     OW14719   1.762   3.805  10.748  0.3571 -0.0204  0.4230
 1086SOL    HW114720   1.708   3.756  10.810 -0.4666 -0.8787 -0.9767
 1086SOL    HW214721   1.787   3.878  10.805  1.0368  1.2316 -1.4550
 1087SOL     OW14722   4.098   4.519  13.904 -0.3945 -0.1544 -0.0501
 1087SOL    HW114723   4.094   4.517  13.809 -0.6294 -1.4620 -0.0171
 1087SOL    HW214724   4.162   4.589  13.914 -0.0717 -0.3712 -0.6447
 1088SOL     OW14725   3.977   1.250   1.802  0.0995  0.0387  0.0910
 1088SOL    HW114726   4.009   1.214   1.719 -1.4685  0.1852 -0.5825
 1088SOL    HW214727   3.884   1.237   1.782  0.4209  0.0525 -1.4000
 1089SOL     OW14728   0.962   0.561  12.192  0.3371  0.0975 -0.1003
 1089SOL    HW114729   0.954   0.484  12.249  0.7993  0.5408  0.5596
 1089SOL    HW214730   1.052   0.587  12.212  0.2015  0.9214 -0.5747
 1090SOL     OW14731   1.166   3.253   0.649  0.6785  0.1931  0.4796
 1090SOL    HW114732   1.151   3.329   0.704  0.3429  1.5173 -1.4449
 1090SOL    HW214733   1.097   3.200   0.688 -0.1601  1.5014  0.7382
 1091SOL     OW14734   3.034   3.826   5.960  0.5310 -0.4880  0.0228
 1091SOL    HW114735   3.011   3.884   6.032 -2.1097  0.5450 -1.6474
 1091SOL    HW214736   3.038   3.890   5.889  2.9999 -0.5138  0.1593
 1092SOL     OW14737   2.255   1.089   7.549 -0.3705  0.3010 -0.3098
 1092SOL    HW114738   2.299   1.033   7.485 -0.0041  0.8511 -0.5387
 1092SOL    HW214739   2.287   1.065   7.636 -0.4298 -0.0525 -0.3887
 1093SOL     OW14740   3.371   1.887  12.619  0.2000  0.0968  0.1820
 1093SOL    HW114741   3.448   1.931  12.584  1.4904 -2.9626 -0.8258
 1093SOL    HW214742   3.371   1.812  12.559  1.0714  1.9816 -2.1559
 1094SOL     OW14743   0.322   3.868  10.735  0.2573  0.4644  0.1690
 1094SOL    HW114744   0.229   3.879  10.715  0.2681 -2.1122 -1.3182
 1094SOL    HW214745   0.311   3.790  10.788  1.5885 -1.1196 -1.8674
 1095SOL     OW14746   2.106   1.109   3.125  0.3378  0.2124  0.2240
 1095SOL    HW114747   2.129   1.020   3.097 -2.2905  0.5761 -2.9826
 1095SOL    HW214748   2.017   1.115   3.091  0.6949  0.0229 -0.7494
 1096SOL     OW14749   3.429   3.281   1.217  0.2456 -0.2051 -0.2022
 1096SOL    HW114750   3.372   3.243   1.151 -1.7080 -0.0701  1.4046
 1096SOL    HW214751   3.364   3.328   1.269  2.3908  0.4207  1.9328
 1097SOL     OW14752   4.449   2.362   6.570  0.1835  0.4445  0.1874
 1097SOL    HW114753   4.355   2.345   6.573  0.1395  0.4147 -1.5236
 1097SOL    HW214754   4.486   2.278   6.599 -2.2092 -0.5251  0.4495
 1098SOL     OW14755   1.373   4.102  16.659  0.1159  0.1775 -0.1281
 1098SOL    HW114756   1.312   4.131  16.590 -2.5913 -1.9154  1.3941
 1098SOL    HW214757   1.375   4.008  16.645  0.0186  0.3729 -1.4426
 1099SOL     OW14758   3.000   1.154   5.270 -0.4067  0.4704 -0.3554
 1099SOL    HW114759   2.926   1.180   5.324 -1.9440 -2.2807 -1.1376
 1099SOL    HW214760   3.054   1.119   5.340  0.4664 -1.3606 -1.9367
 1100SOL     OW14761   0.140   3.732   3.070 -0.0260  0.6093 -0.1510
 1100SOL    HW114762   0.154   3.821   3.104  0.3813 -0.2018  1.8000
 1100SOL    HW214763   0.217   3.693   3.111 -0.4244 -0.5816 -0.5420
 1101SOL     OW14764   1.061   3.160  10.650 -0.2787  0.1646 -0.3039
 1101SOL    HW114765   1.106   3.166  10.566  0.5573  1.2391  0.2217
 1101SOL    HW214766   1.047   3.066  10.660  2.0059 -0.0390  0.9765
 1102SOL     OW14767   2.152   1.945   3.744 -0.6082  0.7548  0.1065
 1102SOL    HW114768   2.118   1.858   3.765  2.7178 -0.5814 -0.0099
 1102SOL    HW214769   2.073   1.997   3.758 -1.1835 -0.1983  0.4304
 1103SOL     OW14770   2.897   1.556   3.768  0.1001 -0.1964 -0.3087
 1103SOL    HW114771   2.946   1.483   3.729 -0.4116  1.1862 -3.5759
 1103SOL    HW214772   2.852   1.579   3.686  1.5796  1.0033 -0.7763
 1104SOL     OW14773   1.995   2.901   4.917 -0.7848  0.3653  0.1125
 1104SOL    HW114774   1.939   2.831   4.951 -0.9575  0.6264  0.3690
 1104SOL    HW214775   2.052   2.923   4.991  1.3545 -2.1351 -0.8201
 1105SOL     OW14776   2.993   1.287   7.923  0.4596  0.0084 -0.2664
 1105SOL    HW114777   2.996   1.248   8.010  0.3553  0.5877 -0.0057
 1105SOL    HW214778   3.063   1.231   7.888  0.9182 -0.0926  0.8160
 1106SOL     OW14779   0.830   3.132   3.758 -0.4013 -0.6049  0.0592
 1106SOL    HW114780   0.753   3.181   3.729  1.2432  1.4694 -0.8775
 1106SOL    HW214781   0.791   3.048   3.782  1.4700 -1.2417  0.8820
 1107SOL     OW14782   0.235   4.277   9.997 -0.0299 -0.5016 -0.1329
 1107SOL    HW114783   0.170   4.219   9.959 -0.9094  0.5695 -0.2693
 1107SOL    HW214784   0.318   4.250   9.957 -0.3938  0.6582 -1.6323
 1108SOL     OW14785   4.643   3.894   8.783 -0.4636  0.6286 -0.3197
 1108SOL    HW114786   4.637   3.862   8.693  0.6284 -0.2433 -0.0880
 1108SOL    HW214787   0.013   3.887   8.793 -0.4887  0.1529 -0.4101
 1109SOL     OW14788   2.911   1.146   0.518 -0.0402 -0.3388  0.3272
 1109SOL    HW114789   2.846   1.117   0.454  0.1816  0.8799 -0.4507
 1109SOL    HW214790   2.870   1.098   0.591  0.5039 -1.3289 -0.0210
 1110SOL     OW14791   3.938   3.822   6.279 -0.1680  0.2080  0.4721
 1110SOL    HW114792   3.891   3.904   6.263  2.9710  1.4216 -2.5594
 1110SOL    HW214793   3.978   3.796   6.196 -1.7992  1.5351 -0.7293
 1111SOL     OW14794   0.537   3.023   8.011  0.2644 -0.4895  0.5306
 1111SOL    HW114795   0.527   2.983   8.097 -1.1887 -1.8190 -0.2565
 1111SOL    HW214796   0.633   3.015   8.011  0.1696 -1.7097  0.7971
 1112SOL     OW14797   3.538   0.249   6.915 -0.9766  0.2795 -0.4998
 1112SOL    HW114798   3.503   0.214   6.833 -2.2665 -0.4933  0.3900
 1112SOL    HW214799   3.588   0.324   6.883 -0.9722  0.3373 -0.3607
 1113SOL     OW14800   3.905   1.244  14.029 -0.3165 -0.5043  0.7113
 1113SOL    HW114801   3.873   1.314  14.086 -0.2433  0.4111 -0.3827
 1113SOL    HW214802   3.999   1.263  14.023 -0.4461 -0.0129  0.2267
 1114SOL     OW14803   2.074   3.200   3.427 -0.1502  0.1785  0.6232
 1114SOL    HW114804   2.031   3.147   3.360  2.6007 -1.0863 -0.1532
 1114SOL    HW214805   1.994   3.225   3.474 -1.3628 -0.5145 -1.0877
 1115SOL     OW14806   0.449   3.773  15.474  0.0887 -0.2965 -0.1826
 1115SOL    HW114807   0.476   3.696  15.523  1.0178  0.8010  1.0397
 1115SOL    HW214808   0.498   3.769  15.392 -0.6014 -1.0715 -0.5504
 1116SOL     OW14809   4.148   3.290   5.120  0.0705 -0.2115  0.0855
 1116SOL    HW114810   4.059   3.290   5.156 -0.5577  0.0518 -1.4665
 1116SOL    HW214811   4.129   3.259   5.031 -1.0865 -0.0943  0.2809
 1117SOL     OW14812   0.253   3.884  12.766  0.1253  0.1958 -0.2879
 1117SOL    HW114813   0.337   3.930  12.763  0.2682  0.1136  2.1677
 1117SOL    HW214814   0.263   3.836  12.684 -1.1355 -0.5888  0.0162
 1118SOL     OW14815   3.698   1.705   5.241 -0.0498  0.0544  0.0811
 1118SOL    HW114816   3.721   1.768   5.172 -0.6038 -0.2473 -0.3847
 1118SOL    HW214817   3.760   1.636   5.218 -0.4040 -0.6572  1.2784
 1119SOL     OW14818   0.625   3.026  16.906  0.3034 -0.0642  0.3231
 1119SOL    HW114819   0.549   3.055  16.956 -0.6179 -1.9342  0.0305
 1119SOL    HW214820   0.616   2.931  16.919  2.2185 -0.1055  1.4241
 1120SOL     OW14821   2.844   3.413   6.137  0.5320 -0.0453  0.0223
 1120SOL    HW114822   2.920   3.471   6.133  0.3522  0.1228 -1.0790
 1120SOL    HW214823   2.823   3.428   6.229  1.3947 -3.3375  0.7528
 1121SOL     OW14824   0.482   2.860   7.121  0.6799  0.9830 -0.1397
 1121SOL    HW114825   0.476   2.908   7.203 -0.1924 -0.2173  0.4991
 1121SOL    HW214826   0.556   2.804   7.143 -0.4235 -0.5977 -0.4418
 1122SOL     OW14827   0.702   2.276   3.377 -0.2961 -0.5098 -0.5266
 1122SOL    HW114828   0.766   2.220   3.421 -2.1015 -2.5248 -0.4877
 1122SOL    HW214829   0.712   2.362   3.418 -0.5606 -0.2789 -0.9450
 1123SOL     OW14830   0.731   4.610   0.034  0.0921 -0.5073  0.2560
 1123SOL    HW114831   0.797   4.648  17.677  0.5635 -2.0616 -0.2140
 1123SOL    HW214832   0.740   4.517   0.015  0.3031 -0.2394 -0.9892
 1124SOL     OW14833   0.982   2.271   3.496 -0.0754  0.4341  0.0639
 1124SOL    HW114834   1.060   2.289   3.443  0.6019 -1.9802  0.2380
 1124SOL    HW214835   0.992   2.180   3.523 -0.1944  0.6163  0.7373
 1125SOL     OW14836   4.483   3.637  16.108 -0.1289 -0.5170 -0.2079
 1125SOL    HW114837   4.545   3.622  16.180  1.1645 -0.3099 -1.2620
 1125SOL    HW214838   4.455   3.727  16.122  2.4118  0.1174  0.7495
 1126SOL     OW14839   4.320   4.093   3.664 -0.2729  0.4550  0.5147
 1126SOL    HW114840   4.355   4.180   3.647 -4.1369  1.3556 -2.9486
 1126SOL    HW214841   4.226   4.102   3.679 -0.5711  2.5573 -2.6384
 1127SOL     OW14842   4.165   1.530   3.883 -0.7180 -0.3642 -0.1858
 1127SOL    HW114843   4.223   1.454   3.873 -0.1816 -0.1639  1.3148
 1127SOL    HW214844   4.119   1.514   3.966 -1.7215  2.1054 -0.2773
 1128SOL     OW14845   2.838   3.741   5.787  0.3597  0.3166  0.1145
 1128SOL    HW114846   2.886   3.797   5.727 -0.9520  2.4852  1.0706
 1128SOL    HW214847   2.880   3.765   5.870  1.1036  1.1109 -0.5036
 1129SOL     OW14848   0.119   0.797   5.520  0.3326  0.0072 -0.1306
 1129SOL    HW114849   0.101   0.720   5.574  1.0459 -0.1098 -0.0644
 1129SOL    HW214850   0.212   0.806   5.538  0.0403  0.8677  0.9651
 1130SOL     OW14851   1.455   4.205   7.441  0.3711  0.3900  0.3784
 1130SOL    HW114852   1.529   4.168   7.393  0.2168  0.8776 -0.2259
 1130SOL    HW214853   1.382   4.164   7.396 -0.5245  1.0667  1.2294
 1131SOL     OW14854   0.564   3.284   8.187 -0.3673  0.1120  0.1766
 1131SOL    HW114855   0.515   3.315   8.263  0.1653 -1.8315  1.3269
 1131SOL    HW214856   0.563   3.191   8.208 -2.0822  0.6728  2.6056
 1132SOL     OW14857   2.521   4.319  17.384  0.6880  0.0020 -0.1590
 1132SOL    HW114858   2.443   4.263  17.386 -0.9292  2.2262 -0.5768
 1132SOL    HW214859   2.480   4.402  17.359 -0.9008 -0.3477  1.2933
 1133SOL     OW14860   3.228   1.512   2.741  0.3927 -0.8747  0.4860
 1133SOL    HW114861   3.150   1.501   2.687 -0.0402  0.3781  0.8629
 1133SOL    HW214862   3.292   1.528   2.671  1.0630  0.1945  1.3454
 1134SOL     OW14863   3.604   4.548  16.222 -0.2523  0.0387  0.3992
 1134SOL    HW114864   3.618   4.454  16.212  1.8891  0.3543  0.6052
 1134SOL    HW214865   3.593   4.574  16.130  1.3488  0.1072  0.2297
 1135SOL     OW14866   3.825   2.327   6.254 -0.0758 -0.6473  0.0905
 1135SOL    HW114867   3.755   2.275   6.295  0.2785  0.8944  2.6332
 1135SOL    HW214868   3.907   2.305   6.299  1.3648  1.5077 -1.5288
 1136SOL     OW14869   2.762   1.987  14.173 -0.3891 -0.4864 -0.0815
 1136SOL    HW114870   2.760   2.008  14.266  2.0994 -1.2067  0.1335
 1136SOL    HW214871   2.796   1.898  14.180  0.3775 -0.3545 -2.0878
 1137SOL     OW14872   3.020   0.708   2.832  0.1985 -0.3221  0.4757
 1137SOL    HW114873   3.086   0.777   2.839  0.3651 -0.5580  1.2046
 1137SOL    HW214874   2.989   0.707   2.923  1.3417 -0.0990  0.8639
 1138SOL     OW14875   4.152   1.672  16.803 -0.4292  0.0926 -0.3030
 1138SOL    HW114876   4.073   1.681  16.749 -0.2219  1.5550 -0.3782
 1138SOL    HW214877   4.115   1.675  16.891 -1.2511 -0.6812 -0.6285
 1139SOL     OW14878   1.881   2.939  17.174 -0.8217 -0.0173 -0.4750
 1139SOL    HW114879   1.828   2.944  17.253 -1.1491 -1.0284 -0.6253
 1139SOL    HW214880   1.848   2.863  17.126 -0.1237  0.9490 -2.5161
 1140SOL     OW14881   0.802   2.972   9.121  0.0361 -0.1987 -0.2121
 1140SOL    HW114882   0.796   2.956   9.215 -0.6290 -0.2671 -0.2666
 1140SOL    HW214883   0.721   3.021   9.105  0.9109  0.8758 -1.3177
 1141SOL     OW14884   2.623   4.086   2.559  0.1516  0.0851  0.5655
 1141SOL    HW114885   2.572   4.163   2.533  1.3554  0.1957 -1.5195
 1141SOL    HW214886   2.690   4.078   2.490 -0.8994 -1.0445 -0.3161
 1142SOL     OW14887   0.324   2.310   7.988  0.2260 -0.1017 -0.4223
 1142SOL    HW114888   0.378   2.336   8.063 -1.0881  1.4556 -0.0245
 1142SOL    HW214889   0.355   2.222   7.966 -3.7008 -1.2570 -1.3034
 1143SOL     OW14890   3.573   0.817   3.328  0.1145  0.2736 -0.2745
 1143SOL    HW114891   3.521   0.755   3.276  1.3601  0.5539 -1.8714
 1143SOL    HW214892   3.595   0.875   3.255  0.0253  1.9949  1.0855
 1144SOL     OW14893   2.495   3.409   6.123 -0.2366  0.3046  0.2022
 1144SOL    HW114894   2.577   3.378   6.083 -1.5287 -2.2853 -0.4646
 1144SOL    HW214895   2.506   3.504   6.121  0.4415  0.2506  1.2403
 1145SOL     OW14896   1.746   1.902   2.554  0.2625  0.7623 -0.1479
 1145SOL    HW114897   1.815   1.967   2.569  1.6855 -0.4449 -1.4725
 1145SOL    HW214898   1.684   1.948   2.498 -2.0271 -0.8923  1.0507
 1146SOL     OW14899   1.352   1.503   4.042  0.0454  0.1541 -0.4365
 1146SOL    HW114900   1.313   1.590   4.049  0.4806  0.5189 -2.4731
 1146SOL    HW214901   1.287   1.437   4.065 -0.0151 -0.1886 -1.5645
 1147SOL     OW14902   1.913   1.667   1.227 -0.1878  0.2259  0.2676
 1147SOL    HW114903   2.001   1.666   1.265  0.1303  1.6291 -0.4297
 1147SOL    HW214904   1.871   1.733   1.282 -1.6370 -0.0883 -0.4566
 1148SOL     OW14905   3.762   2.341   9.000  0.1405  0.3871  0.2435
 1148SOL    HW114906   3.667   2.333   9.005  0.0568  0.8239 -0.6681
 1148SOL    HW214907   3.791   2.432   9.004  1.6636 -0.2832  4.2802
 1149SOL     OW14908   2.275   2.426   1.979  0.5053 -0.3561  0.9946
 1149SOL    HW114909   2.354   2.473   2.008 -0.3401  0.7534  1.4672
 1149SOL    HW214910   2.261   2.449   1.887  0.3518  0.3199  1.1898
 1150SOL     OW14911   4.321   1.592   0.025  0.0628 -0.5540 -0.7594
 1150SOL    HW114912   4.391   1.527   0.023  0.3837 -0.2307 -0.1958
 1150SOL    HW214913   4.330   1.620   0.116  0.2535 -0.0413 -0.9396
 1151SOL     OW14914   2.909   4.332   7.786  0.5391 -0.7504  0.1396
 1151SOL    HW114915   2.995   4.336   7.828  0.3302  0.3472  0.4589
 1151SOL    HW214916   2.895   4.419   7.749 -1.2915 -1.2445 -0.3668
 1152SOL     OW14917   3.266   4.098   7.971 -0.6604 -0.7182 -0.1893
 1152SOL    HW114918   3.360   4.114   7.962 -0.7511 -1.0900 -1.8625
 1152SOL    HW214919   3.272   4.003   7.959 -1.5371 -0.9207  1.0168
 1153SOL     OW14920   3.481   4.230  14.693 -0.7049 -0.4347 -0.4078
 1153SOL    HW114921   3.479   4.177  14.614  1.2947  0.1289 -0.8391
 1153SOL    HW214922   3.416   4.298  14.676 -1.0322 -0.9172 -1.0497
 1154SOL     OW14923   4.490   2.005  16.392 -0.6256 -0.6574 -0.2087
 1154SOL    HW114924   4.563   1.960  16.350  0.8185 -0.2281  1.8118
 1154SOL    HW214925   4.420   1.940  16.382  0.0390 -1.1357 -1.7280
 1155SOL     OW14926   4.181   3.633   0.696  0.1261 -0.1655  0.5363
 1155SOL    HW114927   4.103   3.579   0.708 -1.4339  1.1428 -3.7688
 1155SOL    HW214928   4.153   3.724   0.708  0.7057 -0.2021  2.1388
 1156SOL     OW14929   3.509   3.039  13.109  0.0056 -0.2833 -0.4172
 1156SOL    HW114930   3.566   3.020  13.034  0.8922  3.6244 -0.7117
 1156SOL    HW214931   3.506   2.953  13.152 -3.3867 -0.4088 -0.8774
 1157SOL     OW14932   1.384   3.737   2.837 -0.3092  0.2170 -0.3306
 1157SOL    HW114933   1.407   3.700   2.752 -0.3489 -1.5656  0.4256
 1157SOL    HW214934   1.417   3.827   2.841  0.1425  0.0134  0.5839
 1158SOL     OW14935   4.604   2.986   8.528  0.0687 -0.2863  0.1574
 1158SOL    HW114936   4.628   2.954   8.441 -0.2119  0.1332 -0.0762
 1158SOL    HW214937   4.549   2.918   8.569 -1.0569  0.7916  0.4324
 1159SOL     OW14938   3.836   2.824   7.311  0.0427  0.0267 -0.0713
 1159SOL    HW114939   3.799   2.745   7.272 -0.1466  0.3952 -0.6337
 1159SOL    HW214940   3.929   2.803   7.314  0.0800  0.3900  1.4794
 1160SOL     OW14941   1.942   4.425   5.158 -0.1811 -0.5122 -0.2334
 1160SOL    HW114942   1.848   4.403   5.159  0.5569 -3.5984  0.4144
 1160SOL    HW214943   1.963   4.416   5.251 -1.3728  0.9160  0.1816
 1161SOL     OW14944   4.634   1.256   6.005  0.2749  0.3898 -0.2886
 1161SOL    HW114945   4.696   1.327   5.985  0.7975 -0.0041 -0.0574
 1161SOL    HW214946   4.570   1.285   6.070  1.1636 -0.1312  0.8204
 1162SOL     OW14947   3.053   4.524   3.479  0.5100 -0.5196  0.5064
 1162SOL    HW114948   3.085   4.547   3.392 -2.7659 -3.9559 -1.6272
 1162SOL    HW214949   3.108   4.585   3.528  1.2735  0.3480 -1.4052
 1163SOL     OW14950   4.412   1.322  11.989  0.4353 -1.4688 -0.5087
 1163SOL    HW114951   4.485   1.372  12.025  1.5813 -1.8897 -2.2559
 1163SOL    HW214952   4.368   1.309  12.072 -1.7276  1.1751 -1.2609
 1164SOL     OW14953   4.331   3.339   0.270  0.4112  0.2409  0.2167
 1164SOL    HW114954   4.391   3.369   0.202 -1.2598 -0.7242 -1.6954
 1164SOL    HW214955   4.385   3.270   0.308 -1.6463  0.5534  3.7283
 1165SOL     OW14956   0.560   1.163   4.185  0.3953  0.2199 -0.7480
 1165SOL    HW114957   0.538   1.104   4.258  0.8731  1.7487  0.6386
 1165SOL    HW214958   0.655   1.162   4.179  0.3767  3.7312 -1.7889
 1166SOL     OW14959   2.229   1.073  12.849 -0.3525 -0.3008 -0.2821
 1166SOL    HW114960   2.255   1.044  12.761  0.3540 -0.2122 -0.1035
 1166SOL    HW214961   2.160   1.007  12.859  0.0732 -0.5748  0.8592
 1167SOL     OW14962   2.417   2.179   2.849  0.0028 -0.2588 -0.2450
 1167SOL    HW114963   2.458   2.093   2.855 -0.4208 -0.5324 -1.2110
 1167SOL    HW214964   2.370   2.169   2.931 -1.9227 -1.0108 -1.4340
 1168SOL     OW14965   2.726   2.081   4.709 -0.3131 -0.1126 -0.1208
 1168SOL    HW114966   2.676   2.118   4.636 -1.3234 -0.3632  0.4615
 1168SOL    HW214967   2.808   2.060   4.664  1.1088  0.2027  2.3360
 1169SOL     OW14968   4.147   3.762  12.772  0.5129  0.1549 -0.2862
 1169SOL    HW114969   4.089   3.762  12.848 -0.9019  0.4814 -1.3790
 1169SOL    HW214970   4.098   3.704  12.715 -2.1130 -0.1291  2.2348
 1170SOL     OW14971   4.588   4.651  10.238 -0.7012 -0.4762 -0.0731
 1170SOL    HW114972   4.572   4.679  10.148  1.2998 -0.8995 -0.5669
 1170SOL    HW214973   4.522   4.703  10.284 -0.1612 -1.3693  1.7481
 1171SOL     OW14974   3.875   0.093   8.948  0.1408 -0.1618 -0.3905
 1171SOL    HW114975   3.957   0.132   8.917  1.7389 -3.2055  0.0780
 1171SOL    HW214976   3.888   0.088   9.042 -1.7318 -1.9015 -0.2456
 1172SOL     OW14977   1.245   0.660   8.402  0.0499  0.2480 -0.2670
 1172SOL    HW114978   1.324   0.611   8.424  0.8822  1.0294 -1.4895
 1172SOL    HW214979   1.178   0.608   8.447 -0.1480  0.2446 -0.5664
 1173SOL     OW14980   4.486   4.077   2.250  0.1790  0.3987 -0.2141
 1173SOL    HW114981   4.457   4.068   2.341  1.3982 -0.4536  0.0896
 1173SOL    HW214982   4.396   4.079   2.217 -0.9823  3.2736  3.0812
 1174SOL     OW14983   0.664   4.325   3.260  0.6720  0.0535 -0.0940
 1174SOL    HW114984   0.681   4.264   3.188  1.2178  1.1493 -0.8854
 1174SOL    HW214985   0.672   4.401   3.203  0.7994 -1.5707 -2.2534
 1175SOL     OW14986   1.716   0.599  11.546  0.2960  0.4094  0.1423
 1175SOL    HW114987   1.806   0.619  11.518  0.6840  0.3726  1.3933
 1175SOL    HW214988   1.708   0.612  11.640  0.3992  0.2095  0.1791
 1176SOL     OW14989   4.027   1.527   3.567  0.5547 -0.2408 -0.4138
 1176SOL    HW114990   4.094   1.564   3.625  1.6737 -2.1794 -0.4905
 1176SOL    HW214991   4.058   1.556   3.481  0.7353 -1.9489 -0.9065
 1177SOL     OW14992   4.444   1.646   2.106  0.3736  0.0430  0.3348
 1177SOL    HW114993   4.485   1.611   2.186 -0.4275  1.5848  1.4077
 1177SOL    HW214994   4.390   1.576   2.071  0.1526 -0.5723  1.9124
 1178SOL     OW14995   0.116   2.114   9.242 -0.0952 -1.1595  0.3658
 1178SOL    HW114996   0.173   2.143   9.171 -3.3519  2.4093 -0.8306
 1178SOL    HW214997   0.034   2.097   9.195 -2.0427  0.5748  3.1011
 1179SOL     OW14998   1.413   0.369  15.569 -0.2960  0.3618 -0.6668
 1179SOL    HW114999   1.321   0.381  15.546 -0.2552  2.2474  0.2040
 1179SOL    HW215000   1.442   0.458  15.589 -0.8996  0.9218 -2.2533
 1180SOL     OW15001   4.341   4.685   6.299 -0.0717  0.1677  0.2048
 1180SOL    HW115002   4.409   4.621   6.317  1.0564  1.2839 -0.0577
 1180SOL    HW215003   4.385   0.035   6.258 -1.2262  0.8200  0.1433
 1181SOL     OW15004   3.577   3.686  16.356  0.0320 -0.1290  0.1293
 1181SOL    HW115005   3.653   3.703  16.412  0.7311  0.5696 -1.0310
 1181SOL    HW215006   3.595   3.594  16.342  2.6163  0.6868 -1.9346
 1182SOL     OW15007   3.575   1.663   1.976 -0.2247 -0.8007 -0.7232
 1182SOL    HW115008   3.592   1.701   1.889 -2.7109 -0.9474 -1.2612
 1182SOL    HW215009   3.590   1.570   1.961 -0.0953 -1.2220  2.0574
 1183SOL     OW15010   0.523   0.125   8.601 -0.3266 -0.0769  0.4159
 1183SOL    HW115011   0.595   0.189   8.606  0.8586 -1.3546 -0.3241
 1183SOL    HW215012   0.558   0.065   8.666  2.9241  1.1040 -0.2245
 1184SOL     OW15013   3.078   4.498   2.607  0.1137 -0.1679 -0.0583
 1184SOL    HW115014   3.128   4.555   2.548  1.3495 -0.8399  0.3634
 1184SOL    HW215015   3.128   4.418   2.596 -0.2806 -0.0872 -2.6254
 1185SOL     OW15016   4.132   0.529   7.156  0.1560 -0.0949 -0.4771
 1185SOL    HW115017   4.114   0.437   7.172  1.2746 -0.5225 -1.7614
 1185SOL    HW215018   4.119   0.572   7.241  1.1043 -2.2713  0.7684
 1186SOL     OW15019   4.540   0.795   4.322 -0.4115  0.3341 -0.5083
 1186SOL    HW115020   4.576   0.729   4.381  1.1840  1.9632  0.3424
 1186SOL    HW215021   4.465   0.832   4.369 -2.4076 -1.7374 -2.0454
 1187SOL     OW15022   3.334   1.031   5.114 -0.1557 -0.3030  1.1411
 1187SOL    HW115023   3.402   1.090   5.082  1.1407 -2.7244 -0.6040
 1187SOL    HW215024   3.331   1.063   5.204  1.3242  3.2173 -0.0686
 1188SOL     OW15025   1.564   4.547   5.492 -0.4219 -0.0788 -0.1915
 1188SOL    HW115026   1.546   4.599   5.570 -0.6239  0.9450 -0.9224
 1188SOL    HW215027   1.512   4.587   5.423  0.3619 -1.3816 -1.5288
 1189SOL     OW15028   1.155   2.379  14.255  0.1959 -0.0262 -0.2898
 1189SOL    HW115029   1.105   2.450  14.215  2.9008  1.0420 -1.8256
 1189SOL    HW215030   1.176   2.333  14.173 -1.5148  1.9933 -1.8347
 1190SOL     OW15031   1.209   0.032   5.483 -0.4317 -0.0688 -0.1262
 1190SOL    HW115032   1.263   0.040   5.404 -0.6529  0.8523 -0.1903
 1190SOL    HW215033   1.124   0.043   5.441 -0.0562  1.3345 -0.5116
 1191SOL     OW15034   3.708   1.998  17.329  0.0220 -0.3383 -0.4175
 1191SOL    HW115035   3.614   1.995  17.344 -0.0172  1.2354 -0.3743
 1191SOL    HW215036   3.721   2.093  17.326 -4.0048  0.2412  0.4333
 1192SOL     OW15037   3.113   2.211   5.077 -0.4814 -0.0909 -0.1507
 1192SOL    HW115038   3.067   2.292   5.053  0.3045 -0.0545 -1.5368
 1192SOL    HW215039   3.129   2.174   4.990  0.5531  2.0166 -0.8632
 1193SOL     OW15040   3.107   3.502   8.985  0.3224  0.7466  0.0258
 1193SOL    HW115041   3.077   3.592   8.982 -2.9213 -0.2743  1.6765
 1193SOL    HW215042   3.193   3.514   9.024  0.5579  0.7025 -0.4847
 1194SOL     OW15043   3.225   2.450   4.306 -0.5365  0.4629  0.2667
 1194SOL    HW115044   3.315   2.420   4.312 -1.3032 -2.2964 -2.1066
 1194SOL    HW215045   3.193   2.412   4.388 -2.0319  0.6754 -0.2065
 1195SOL     OW15046   2.584   0.112  11.658  0.0249 -0.4304 -0.1936
 1195SOL    HW115047   2.654   0.175  11.673 -0.2868 -0.3424  0.8894
 1195SOL    HW215048   2.569   0.105  11.564  0.3111  1.6575 -0.3862
 1196SOL     OW15049   2.721   2.849  12.303  0.5635 -0.1351 -0.6113
 1196SOL    HW115050   2.706   2.900  12.382 -0.2618 -0.2382 -0.7019
 1196SOL    HW215051   2.705   2.757  12.323 -0.7301  0.1910 -0.2164
 1197SOL     OW15052   2.537   2.488   8.511  0.1446  0.1227  0.4881
 1197SOL    HW115053   2.565   2.563   8.458  2.5532 -2.2178 -1.5174
 1197SOL    HW215054   2.477   2.443   8.451  1.6461 -0.0617 -0.8762
 1198SOL     OW15055   4.334   0.626  14.858 -0.4608 -0.3631  0.5506
 1198SOL    HW115056   4.389   0.683  14.911  0.3376 -0.4223 -0.2344
 1198SOL    HW215057   4.268   0.604  14.925 -0.2748 -1.4781  0.3661
 1199SOL     OW15058   2.706   4.282   4.426  0.3473  0.1912  0.0825
 1199SOL    HW115059   2.689   4.258   4.334  0.5312  0.0222  0.0931
 1199SOL    HW215060   2.622   4.322   4.450 -0.8371 -2.1438 -0.1078
 1200SOL     OW15061   3.074   2.451   9.916 -0.5199  0.0223 -0.2185
 1200SOL    HW115062   3.163   2.458   9.882 -1.3282  2.0996 -1.8808
 1200SOL    HW215063   3.040   2.398   9.843 -3.3093  1.8275 -0.2482
 1201SOL     OW15064   2.762   2.381   7.327  0.2632  0.8249  0.2079
 1201SOL    HW115065   2.683   2.341   7.291  0.0656 -0.1475  1.6995
 1201SOL    HW215066   2.725   2.446   7.387 -0.7386  0.3613  0.0927
 1202SOL     OW15067   0.786   2.774   4.891  0.3413 -0.0672  0.3399
 1202SOL    HW115068   0.691   2.778   4.903  0.3149 -1.1082  0.4293
 1202SOL    HW215069   0.807   2.819   4.809  0.2582 -0.2309  0.2294
 1203SOL     OW15070   2.882   2.235   3.861  0.3113 -0.2221 -0.5566
 1203SOL    HW115071   2.861   2.142   3.858 -2.0213  0.3285 -1.2201
 1203SOL    HW215072   2.807   2.278   3.821  1.8781  2.3255 -0.8125
 1204SOL     OW15073   3.580   1.521   2.283  0.7521  0.5600 -0.6175
 1204SOL    HW115074   3.566   1.464   2.207 -1.0538 -2.0497  1.6611
 1204SOL    HW215075   3.646   1.584   2.255  1.2441  0.6597  0.7433
 1205SOL     OW15076   4.258   4.307   6.837  0.8612 -0.2804 -0.0350
 1205SOL    HW115077   4.198   4.287   6.766 -1.1323 -0.4953  1.6995
 1205SOL    HW215078   4.220   4.255   6.908  1.4058 -0.8759 -0.1826
 1206SOL     OW15079   4.139   0.785   1.181 -0.0380  0.2882  0.2169
 1206SOL    HW115080   4.205   0.842   1.143 -0.2414 -1.1852 -2.3363
 1206SOL    HW215081   4.105   0.838   1.254  1.6108 -0.3015  1.4280
 1207SOL     OW15082   2.627   2.307   2.694  0.1869  0.2904 -0.3270
 1207SOL    HW115083   2.541   2.279   2.727  0.8409 -0.7983  0.4895
 1207SOL    HW215084   2.613   2.363   2.618 -0.8266  0.3734 -0.0836
 1208SOL     OW15085   2.550   2.123   3.951 -0.0975  0.0690 -0.0199
 1208SOL    HW115086   2.560   2.198   3.893 -0.4356  1.5222  1.7767
 1208SOL    HW215087   2.631   2.076   3.930  0.5044  0.3561  1.5864
 1209SOL     OW15088   2.945   0.696   5.238 -0.1413 -0.3519  1.0001
 1209SOL    HW115089   2.907   0.609   5.225  0.5737 -0.4302 -0.5769
 1209SOL    HW215090   2.984   0.696   5.325 -4.6056 -2.6354  2.9513
 1210SOL     OW15091   0.740   1.686   5.524  0.2360 -0.6459  0.2139
 1210SOL    HW115092   0.812   1.745   5.501 -1.5656  0.8629 -1.5485
 1210SOL    HW215093   0.685   1.740   5.580  2.9844  1.7902  0.5625
 1211SOL     OW15094   1.176   3.152   7.401 -0.0037 -0.8737 -0.3591
 1211SOL    HW115095   1.248   3.096   7.371  1.0887 -0.8797  2.2878
 1211SOL    HW215096   1.201   3.243   7.387  0.4624 -0.8565  0.5881
 1212SOL     OW15097   2.772   0.913   2.911  0.3143 -0.2965 -0.6496
 1212SOL    HW115098   2.819   0.969   2.974 -0.2705  0.4085 -0.8355
 1212SOL    HW215099   2.688   0.949   2.939  1.0631  1.0664 -0.1146
 1213SOL     OW15100   4.255   2.680  17.244 -0.0641 -0.1954  0.1655
 1213SOL    HW115101   4.269   2.611  17.179  0.6084  1.5065 -1.4976
 1213SOL    HW215102   4.246   2.762  17.196 -0.3981 -0.8140 -0.8372
 1214SOL     OW15103   3.299   2.405   7.386  0.2146  0.2674 -0.0064
 1214SOL    HW115104   3.359   2.476   7.361 -0.3426  0.7894  0.1406
 1214SOL    HW215105   3.315   2.348   7.311  1.3512 -0.5057  0.8216
 1215SOL     OW15106   0.187   1.867   6.713 -0.1849  0.2908  0.3971
 1215SOL    HW115107   0.238   1.889   6.635 -1.0805 -3.1891 -1.1790
 1215SOL    HW215108   0.234   1.785   6.729 -0.9800 -0.3268 -0.4665
 1216SOL     OW15109   1.095   3.809   7.069  0.3400  0.0263 -0.8023
 1216SOL    HW115110   1.135   3.837   6.986 -2.2987  2.6160 -1.2127
 1216SOL    HW215111   1.169   3.812   7.130  1.2709 -0.1886 -1.9210
 1217SOL     OW15112   3.691   2.702   8.378  0.5596  0.1930  0.4029
 1217SOL    HW115113   3.669   2.624   8.327 -0.5642  0.3853  0.5878
 1217SOL    HW215114   3.634   2.771   8.344  2.6298  1.7114  0.0456
 1218SOL     OW15115   1.574   1.168   8.918 -0.4456 -0.3963  0.2909
 1218SOL    HW115116   1.492   1.217   8.922  0.6579  1.5871 -1.2801
 1218SOL    HW215117   1.540   1.079   8.914  0.5828 -0.8188  0.6907
 1219SOL     OW15118   1.792   4.357   7.745 -0.1074  0.3713  0.2155
 1219SOL    HW115119   1.725   4.381   7.810  1.1576 -2.9334  2.7296
 1219SOL    HW215120   1.794   4.434   7.688  1.0126  0.8232  0.8639
 1220SOL     OW15121   2.889   3.180   2.797  0.1279 -0.2797  0.2946
 1220SOL    HW115122   2.877   3.161   2.704  0.9215  0.8922 -0.0516
 1220SOL    HW215123   2.883   3.275   2.789  0.4057 -0.0454  2.8526
 1221SOL     OW15124   0.999   2.050   6.106 -0.0889 -0.5160 -0.0881
 1221SOL    HW115125   1.059   2.041   6.180 -0.8485  2.0974  0.8198
 1221SOL    HW215126   0.976   2.143   6.105 -1.2841 -0.8109 -1.1536
 1222SOL     OW15127   3.151   1.610  12.261 -0.1303  0.2907  0.1126
 1222SOL    HW115128   3.155   1.518  12.289  1.0750  0.3346  0.0856
 1222SOL    HW215129   3.208   1.617  12.185 -1.7394 -2.1863 -1.3223
 1223SOL     OW15130   2.035   4.133  12.965 -0.3678  0.1345 -0.1673
 1223SOL    HW115131   2.067   4.079  13.038  0.2154 -2.0178 -2.0412
 1223SOL    HW215132   2.083   4.215  12.976  1.4836 -0.3493 -4.7929
 1224SOL     OW15133   4.251   3.768   8.927  0.3979 -0.5664  0.0630
 1224SOL    HW115134   4.282   3.851   8.962  0.7586 -0.2327 -1.0821
 1224SOL    HW215135   4.223   3.796   8.840  0.6946  0.3836  0.2813
 1225SOL     OW15136   2.179   0.329  15.942  0.5124 -0.7433 -0.3045
 1225SOL    HW115137   2.163   0.304  15.851 -3.1729  2.8556 -0.6436
 1225SOL    HW215138   2.094   0.368  15.963  1.5695  0.1848  2.2987
 1226SOL     OW15139   0.585   4.301  10.662 -0.8379 -0.6337 -0.7668
 1226SOL    HW115140   0.503   4.266  10.699 -0.6135 -0.1264  0.2172
 1226SOL    HW215141   0.562   4.357  10.588  2.1280 -1.7465 -2.4909
 1227SOL     OW15142   0.226   1.733   8.250 -0.2436  0.5185 -0.7822
 1227SOL    HW115143   0.197   1.787   8.176 -1.1843 -1.9549 -2.2278
 1227SOL    HW215144   0.136   1.700   8.258  0.0700 -0.7421 -2.5643
 1228SOL     OW15145   2.301   4.328   6.775  0.4932 -0.0431  0.4252
 1228SOL    HW115146   2.319   4.395   6.709 -1.0024  0.0072  0.0722
 1228SOL    HW215147   2.260   4.387   6.838  0.1041 -0.0480  0.1769
 1229SOL     OW15148   1.017   3.628  14.359 -0.1506 -0.0847 -0.1102
 1229SOL    HW115149   1.054   3.602  14.274 -1.6220 -0.7062 -0.5854
 1229SOL    HW215150   1.085   3.618  14.425 -0.4854  2.5255  0.6121
 1230SOL     OW15151   4.078   2.431   8.181 -0.4835  0.0483  0.5107
 1230SOL    HW115152   4.025   2.498   8.138  1.6207  2.8745  2.3654
 1230SOL    HW215153   4.016   2.360   8.200 -1.1599  0.6171  0.4171
 1231SOL     OW15154   2.314   3.867   7.562 -0.2831  0.0280  0.7060
 1231SOL    HW115155   2.274   3.782   7.580 -3.1376  1.9761  3.8055
 1231SOL    HW215156   2.343   3.900   7.647  0.8114 -0.3636  0.4716
 1232SOL     OW15157   1.044   1.438  11.086 -0.0457 -0.3297 -0.1185
 1232SOL    HW115158   0.982   1.473  11.150  1.0862 -3.1468  2.5282
 1232SOL    HW215159   1.002   1.355  11.064  0.7021 -1.0447  1.1349
 1233SOL     OW15160   2.825   2.271  12.093 -0.2357 -0.7232 -0.1222
 1233SOL    HW115161   2.817   2.346  12.152  0.5772 -0.2481 -0.5985
 1233SOL    HW215162   2.910   2.291  12.053 -0.5529 -0.8115 -0.8488
 1234SOL     OW15163   4.722   0.513   7.946 -0.2281 -0.6519 -0.1515
 1234SOL    HW115164   4.658   0.460   7.994  0.5814 -0.0405  1.6083
 1234SOL    HW215165   4.699   0.599   7.982  0.8631 -0.4708  0.1157
 1235SOL     OW15166   4.137   1.441   2.350  0.1553 -0.1428 -0.0061
 1235SOL    HW115167   4.128   1.459   2.256  2.1175 -1.7789 -0.5194
 1235SOL    HW215168   4.150   1.346   2.345  0.1161 -0.1156 -0.7474
 1236SOL     OW15169   2.607   1.687   4.185 -0.2355  0.6077 -0.6725
 1236SOL    HW115170   2.633   1.627   4.115  1.6175  1.2151 -0.5211
 1236SOL    HW215171   2.512   1.681   4.183 -0.2515  0.5769  0.2577
 1237SOL     OW15172   2.049   1.873   2.780  0.2994  0.1765 -0.8770
 1237SOL    HW115173   2.113   1.867   2.850  0.3859  2.0131 -0.8027
 1237SOL    HW215174   2.053   1.780   2.759  2.6525  0.6041 -2.2666
 1238SOL     OW15175   0.440   3.086   5.450 -0.3382 -0.0692 -0.8406
 1238SOL    HW115176   0.485   3.048   5.525 -2.2826 -1.4570 -0.3854
 1238SOL    HW215177   0.365   3.129   5.492  0.6727  1.9628 -1.0885
 1239SOL     OW15178   1.514   1.936   7.029  0.1341  0.0843  0.0496
 1239SOL    HW115179   1.552   1.964   6.946 -2.0529 -0.2318 -1.0493
 1239SOL    HW215180   1.509   2.022   7.072  0.4877  0.1578 -0.0520
 1240SOL     OW15181   3.989   2.787   4.951 -0.1088 -0.5592  0.6925
 1240SOL    HW115182   4.041   2.714   4.915 -0.6250 -0.6658  0.1699
 1240SOL    HW215183   4.001   2.850   4.880  1.9514  0.4042  1.8814
 1241SOL     OW15184   3.609   4.645   2.518 -0.2158 -0.5692 -0.0844
 1241SOL    HW115185   3.524   4.660   2.560 -1.0024  1.8056 -2.5108
 1241SOL    HW215186   3.661   4.715   2.558 -0.4196 -0.3898 -0.1359
 1242SOL     OW15187   2.049   0.238   7.933  0.6854 -0.3987  0.2361
 1242SOL    HW115188   2.110   0.227   7.860  0.7084  1.3449 -0.0116
 1242SOL    HW215189   2.096   0.180   7.992 -0.6983 -1.9717 -0.2003
 1243SOL     OW15190   2.157   4.293   6.041  0.1146 -0.1061 -0.3414
 1243SOL    HW115191   2.195   4.306   5.955  0.6663 -1.2193 -0.2710
 1243SOL    HW215192   2.127   4.382   6.057 -0.4716 -0.0399 -1.7864
 1244SOL     OW15193   3.760   0.876  17.413  0.6470  0.4111  0.1447
 1244SOL    HW115194   3.813   0.918  17.344 -2.1467  1.8512 -1.1329
 1244SOL    HW215195   3.695   0.824  17.366  0.1162 -1.0147  2.4660
 1245SOL     OW15196   1.340   2.728   0.023  0.1796 -0.2655 -0.1191
 1245SOL    HW115197   1.314   2.767  17.641 -1.1199 -1.7405 -0.4090
 1245SOL    HW215198   1.374   2.641   0.002  0.0602  0.1919 -2.2078
 1246SOL     OW15199   1.523   2.332   4.553 -0.2579 -0.2011  0.0897
 1246SOL    HW115200   1.503   2.394   4.624  0.2445  0.3906 -0.2856
 1246SOL    HW215201   1.606   2.300   4.585 -0.0591 -1.6969 -1.9123
 1247SOL     OW15202   2.115   2.586  14.564 -0.3913  0.3233 -0.3447
 1247SOL    HW115203   2.096   2.591  14.470  0.7017  2.7059 -0.4297
 1247SOL    HW215204   2.124   2.492  14.577  0.8672  0.6496  1.1945
 1248SOL     OW15205   0.508   3.732   5.036  0.6581  0.7754  0.2175
 1248SOL    HW115206   0.464   3.694   4.960  1.1361  1.6608 -0.4881
 1248SOL    HW215207   0.598   3.742   5.005  0.5965 -1.5477 -0.7334
 1249SOL     OW15208   4.705   4.648   6.115  0.1775 -0.1171 -0.2947
 1249SOL    HW115209   4.647   4.607   6.180  0.5202  0.0024  0.0872
 1249SOL    HW215210   4.666   4.613   6.035  1.3227  2.1929 -1.8489
 1250SOL     OW15211   2.182   0.698   1.861 -0.0508 -0.0810  0.4528
 1250SOL    HW115212   2.260   0.728   1.815  0.7345 -1.8759  0.6228
 1250SOL    HW215213   2.179   0.756   1.937  0.4040  2.4765 -1.4501
 1251SOL     OW15214   3.912   3.042   6.953 -0.5230  0.0531 -0.0372
 1251SOL    HW115215   3.902   3.137   6.950  3.0195  0.4279 -0.2961
 1251SOL    HW215216   3.876   3.013   7.036  1.1318 -0.8767  0.3714
 1252SOL     OW15217   3.533   1.693   0.925 -0.1035  0.9912  0.1470
 1252SOL    HW115218   3.470   1.706   0.854  0.5475  0.5354 -0.5080
 1252SOL    HW215219   3.466   1.678   0.992 -0.1016 -0.5875 -0.2071
 1253SOL     OW15220   4.566   1.026   5.888  0.8593  0.0368  0.0521
 1253SOL    HW115221   4.501   1.012   5.956  2.4373  0.7199  1.7045
 1253SOL    HW215222   4.602   1.105   5.929  0.1373  0.7937 -0.7454
 1254SOL     OW15223   3.510   1.379   7.319 -0.1199 -0.2217  0.2385
 1254SOL    HW115224   3.591   1.332   7.298  0.0615  0.4066 -0.4732
 1254SOL    HW215225   3.463   1.382   7.235 -2.2848 -2.4845  1.3662
 1255SOL     OW15226   1.834   4.159  15.061 -0.3680  0.5736 -0.6715
 1255SOL    HW115227   1.873   4.105  14.992 -1.7504 -0.0343 -0.9849
 1255SOL    HW215228   1.911   4.160  15.119 -0.2706 -1.7062 -0.7539
 1256SOL     OW15229   0.955   1.262   9.048 -0.4915  0.4814 -0.5685
 1256SOL    HW115230   0.998   1.242   8.965  1.1036 -0.1151  0.3889
 1256SOL    HW215231   0.869   1.230   9.023 -0.0991 -1.7950  0.9425
 1257SOL     OW15232   2.551   3.624   3.525  0.1932  0.5143 -0.2272
 1257SOL    HW115233   2.599   3.559   3.475 -1.8594 -1.7852  0.8137
 1257SOL    HW215234   2.462   3.589   3.523  0.5789 -0.3843 -1.1659
 1258SOL     OW15235   1.208   3.090  13.591  0.8067 -0.6647  0.3363
 1258SOL    HW115236   1.179   3.012  13.638  0.2940 -0.8065 -0.2190
 1258SOL    HW215237   1.123   3.120  13.560  0.4151  0.0644  2.1424
 1259SOL     OW15238   4.100   4.377  16.028  0.0208  0.1230  0.1265
 1259SOL    HW115239   4.166   4.432  16.071  1.5579  0.1161 -2.2273
 1259SOL    HW215240   4.017   4.383  16.076  0.7081  0.6560  1.2464
 1260SOL     OW15241   0.435   4.721   3.896  0.1957 -0.3268  0.0511
 1260SOL    HW115242   0.463   4.652   3.836  2.5531  0.2528  0.4513
 1260SOL    HW215243   0.349   0.018   3.861  0.5389 -0.6422 -0.9645
 1261SOL     OW15244   0.239   1.261   0.240 -0.5371 -0.1338  0.6424
 1261SOL    HW115245   0.167   1.285   0.181  2.7946  0.9040 -2.9822
 1261SOL    HW215246   0.303   1.323   0.206 -0.3278 -1.9767 -2.2751
 1262SOL     OW15247   2.208   1.390  15.033  0.2510  0.4375  0.1087
 1262SOL    HW115248   2.227   1.414  15.124  0.6439 -0.3881  0.2397
 1262SOL    HW215249   2.208   1.295  15.043 -1.9244  0.4911  0.6784
 1263SOL     OW15250   0.828   3.687   4.653  1.0182  0.6958  0.1299
 1263SOL    HW115251   0.831   3.692   4.557 -0.0711 -1.0643 -0.0002
 1263SOL    HW215252   0.814   3.593   4.661  2.0805  0.3265 -2.2161
 1264SOL     OW15253   2.984   3.791   8.540 -0.0737  0.0881  0.1928
 1264SOL    HW115254   3.018   3.809   8.452 -2.2620 -0.7775 -0.8428
 1264SOL    HW215255   2.893   3.817   8.523  0.7256  2.0446 -1.0997
 1265SOL     OW15256   4.663   1.223   9.274  0.3412 -0.3239 -0.3229
 1265SOL    HW115257   4.694   1.137   9.300 -1.1074  0.3141  3.4404
 1265SOL    HW215258   4.609   1.253   9.347 -0.3536 -0.9211 -0.5793
 1266SOL     OW15259   2.850   0.345   9.081 -0.1516  0.0393 -0.0253
 1266SOL    HW115260   2.885   0.321   8.996  2.6371  0.9852  0.8661
 1266SOL    HW215261   2.864   0.440   9.079  2.9586 -0.4477 -0.2222
 1267SOL     OW15262   0.318   3.212  11.923 -0.0608  0.2708  0.6017
 1267SOL    HW115263   0.383   3.157  11.968  0.9312 -0.0041 -1.1987
 1267SOL    HW215264   0.244   3.198  11.983 -1.1322 -3.0850 -1.5096
 1268SOL     OW15265   0.775   2.730  12.444 -0.0163 -0.5879  0.0353
 1268SOL    HW115266   0.756   2.693  12.358  0.7324 -1.1065  0.0956
 1268SOL    HW215267   0.843   2.790  12.412 -0.1039 -1.8311 -2.4689
 1269SOL     OW15268   1.520   1.329   1.682  0.3221  0.5065 -0.5057
 1269SOL    HW115269   1.566   1.397   1.731 -1.0787  1.3773 -0.3994
 1269SOL    HW215270   1.572   1.256   1.716  0.2078  0.2114 -0.9606
 1270SOL     OW15271   2.914   0.936   5.106 -0.1350 -0.3140  0.2161
 1270SOL    HW115272   2.951   1.002   5.165  1.7935  0.2904 -1.6774
 1270SOL    HW215273   2.915   0.857   5.160  1.6812 -0.1243  0.4740
 1271SOL     OW15274   1.689   0.945  14.819 -0.5886 -0.3437 -0.0503
 1271SOL    HW115275   1.756   0.988  14.872  1.3206 -1.7903 -1.3329
 1271SOL    HW215276   1.728   0.938  14.732  0.7864 -2.0447  0.7071
 1272SOL     OW15277   3.182   0.553   2.540  0.3129 -0.9833 -0.0470
 1272SOL    HW115278   3.193   0.509   2.624  1.8547 -0.8967 -0.2024
 1272SOL    HW215279   3.173   0.646   2.563 -1.3629 -0.9741 -0.7660
 1273SOL     OW15280   2.397   1.280   0.833  0.5531  0.0233  0.6608
 1273SOL    HW115281   2.334   1.208   0.829 -0.6399  0.9694  2.3081
 1273SOL    HW215282   2.477   1.228   0.820  1.6852  2.1228 -0.6583
 1274SOL     OW15283   2.596   1.108   0.702 -0.0750  0.1071 -0.1435
 1274SOL    HW115284   2.532   1.041   0.677 -0.5939  0.3921  0.4078
 1274SOL    HW215285   2.666   1.043   0.702 -1.4218 -1.3714  2.7711
 1275SOL     OW15286   4.078   1.937   2.756 -0.0706 -0.1427  0.0268
 1275SOL    HW115287   3.989   1.913   2.728  0.5294 -1.8909 -0.3644
 1275SOL    HW215288   4.078   2.015   2.701 -0.1608 -0.4298 -0.3795
 1276SOL     OW15289   3.249   3.268   6.965 -0.0828 -0.5260 -0.1874
 1276SOL    HW115290   3.286   3.180   6.960 -2.0279 -1.3476 -0.0205
 1276SOL    HW215291   3.175   3.259   7.025  0.3171 -2.3386  0.0210
 1277SOL     OW15292   1.634   0.949  17.575  0.4086  0.0354  0.4884
 1277SOL    HW115293   1.713   0.980  17.619 -0.3442 -0.2404  2.0312
 1277SOL    HW215294   1.581   0.909  17.644  2.7006 -0.5325  1.9247
 1278SOL     OW15295   0.340   1.357   4.707  0.1893  0.7052  0.4168
 1278SOL    HW115296   0.397   1.400   4.644 -0.9065 -0.8582 -1.6243
 1278SOL    HW215297   0.292   1.433   4.740 -2.9171 -1.1247  0.1259
 1279SOL     OW15298   2.583   4.342   1.813 -0.0414  0.1977 -0.1611
 1279SOL    HW115299   2.562   4.249   1.806 -2.8619  0.7200  1.2467
 1279SOL    HW215300   2.669   4.336   1.773  0.2456 -1.1462  0.6611
 1280SOL     OW15301   1.781   1.175   8.434  0.4039 -0.3547  0.0090
 1280SOL    HW115302   1.780   1.210   8.345  0.3987  0.4938  0.3383
 1280SOL    HW215303   1.698   1.213   8.461  0.3625  0.1951 -0.9146
 1281SOL     OW15304   2.628   2.212  11.608  0.5664  0.1361  0.1748
 1281SOL    HW115305   2.687   2.286  11.598  0.1185  0.3315 -1.0050
 1281SOL    HW215306   2.590   2.212  11.520  0.4550  2.5670  0.2181
 1282SOL     OW15307   1.582   1.253   8.627 -1.3622  0.6647  0.0691
 1282SOL    HW115308   1.504   1.258   8.682 -1.2299  1.8101  0.1548
 1282SOL    HW215309   1.632   1.332   8.646 -0.3681 -0.2189  1.1407
 1283SOL     OW15310   1.920   1.179   6.655  0.0104 -0.1167  0.3445
 1283SOL    HW115311   1.997   1.188   6.710 -1.6733  2.4816  2.2693
 1283SOL    HW215312   1.968   1.203   6.576  2.1737 -0.6218  1.5013
 1284SOL     OW15313   2.713   3.862   8.546  0.1235  0.0876 -0.4969
 1284SOL    HW115314   2.644   3.869   8.480  0.0745 -0.2312 -0.4811
 1284SOL    HW215315   2.666   3.896   8.622 -0.1537 -0.3992 -0.4502
 1285SOL     OW15316   1.678   2.956   1.022 -0.4092 -0.3667 -0.6488
 1285SOL    HW115317   1.770   2.936   1.038 -1.0587 -1.5219  1.5511
 1285SOL    HW215318   1.690   3.050   1.005  0.3166 -0.7410 -2.2140
 1286SOL     OW15319   2.844   3.046   6.476  0.3367  0.1887  0.4966
 1286SOL    HW115320   2.789   3.029   6.552 -1.3653  1.0923 -0.5094
 1286SOL    HW215321   2.921   3.090   6.513  1.2615  0.1572 -1.3611
 1287SOL     OW15322   3.695   4.526   1.026 -0.1365 -0.2276 -0.1905
 1287SOL    HW115323   3.780   4.503   0.988 -0.2852 -0.6648 -0.2608
 1287SOL    HW215324   3.682   4.454   1.087  2.0021 -0.4623 -0.0171
 1288SOL     OW15325   4.498   3.615   5.464 -0.2580 -0.1557 -0.7646
 1288SOL    HW115326   4.471   3.556   5.534 -1.5994  0.6434 -0.6077
 1288SOL    HW215327   4.550   3.550   5.417 -0.2914 -0.5221 -0.2892
 1289SOL     OW15328   4.285   1.630   8.635  0.1562 -0.1699  0.2081
 1289SOL    HW115329   4.284   1.722   8.663 -1.6774 -0.3774  0.8525
 1289SOL    HW215330   4.373   1.607   8.665 -0.0838 -0.4289  0.7111
 1290SOL     OW15331   3.981   2.629   4.597 -0.1017  0.4005 -0.0873
 1290SOL    HW115332   3.972   2.584   4.514 -1.3605 -0.0626  0.2959
 1290SOL    HW215333   3.917   2.587   4.654  2.0369 -0.2680  1.8049
 1291SOL     OW15334   0.071   1.756  15.492 -0.6044  0.2177 -0.5398
 1291SOL    HW115335   0.052   1.693  15.423 -3.4525 -0.1513  0.6227
 1291SOL    HW215336   0.167   1.747  15.494 -0.2662  3.0453 -2.0996
 1292SOL     OW15337   1.623   2.774   5.524 -0.1211  0.5096  0.3001
 1292SOL    HW115338   1.571   2.829   5.583 -0.1010  2.2032 -1.2605
 1292SOL    HW215339   1.592   2.819   5.446  2.2249  1.1172 -0.2928
 1293SOL     OW15340   2.100   2.403   8.220 -0.4729 -0.1695  0.3810
 1293SOL    HW115341   2.132   2.321   8.257  0.1081 -0.2304 -0.2525
 1293SOL    HW215342   2.070   2.446   8.300 -0.6470  1.2209 -0.4402
 1294SOL     OW15343   0.697   3.792   7.922 -0.3455 -0.0382 -0.5709
 1294SOL    HW115344   0.671   3.706   7.955 -1.0353  1.1880  2.1413
 1294SOL    HW215345   0.664   3.845   7.995 -1.2114 -2.9723  1.1467
 1295SOL     OW15346   0.215   1.112   9.324  0.1040 -0.4125 -0.3206
 1295SOL    HW115347   0.290   1.057   9.301  0.2884 -0.5593  0.6381
 1295SOL    HW215348   0.239   1.193   9.280  3.0154 -1.2439 -0.2605
 1296SOL     OW15349   1.379   4.255   4.220 -0.8808 -0.3806 -0.2535
 1296SOL    HW115350   1.464   4.234   4.181 -0.1916 -1.7814  2.0011
 1296SOL    HW215351   1.409   4.296   4.301  0.5325 -0.5145 -0.7137
 1297SOL     OW15352   2.999   0.475   1.480  0.1245  0.2093 -0.1564
 1297SOL    HW115353   2.993   0.570   1.473  0.9632  0.1872 -1.0803
 1297SOL    HW215354   3.071   0.477   1.543 -1.2175  2.5364  1.3159
 1298SOL     OW15355   4.359   3.381  16.951 -0.3096  0.0800  0.2147
 1298SOL    HW115356   4.415   3.389  17.028 -1.1344 -0.0681  0.8337
 1298SOL    HW215357   4.418   3.321  16.905  1.4896 -0.2010  2.9377
 1299SOL     OW15358   0.860   3.293   4.063 -0.0957  0.4973 -0.3610
 1299SOL    HW115359   0.780   3.330   4.025  1.0954  1.5452 -1.8246
 1299SOL    HW215360   0.828   3.207   4.090  1.2335  0.4155  0.9669
 1300SOL     OW15361   2.441   2.822   7.815  0.0708  0.6106  0.4955
 1300SOL    HW115362   2.448   2.781   7.729  0.7426  0.2353  0.7288
 1300SOL    HW215363   2.367   2.883   7.807  0.4915  1.2370  1.3810
 1301SOL     OW15364   2.157   4.654   4.428 -0.0986 -0.3012 -0.0860
 1301SOL    HW115365   2.070   4.690   4.446  0.2394 -0.8049  2.5706
 1301SOL    HW215366   2.179   4.605   4.507  1.6156 -1.3944 -1.2081
 1302SOL     OW15367   4.140   1.347   6.720 -0.4826  0.3830 -0.3470
 1302SOL    HW115368   4.085   1.411   6.764 -0.6349  1.1736 -1.7001
 1302SOL    HW215369   4.203   1.412   6.690 -1.1333  1.1505 -0.0347
 1303SOL     OW15370   1.402   1.670   9.663  0.5944  0.0563 -0.6563
 1303SOL    HW115371   1.315   1.640   9.689  1.1489 -0.4804  0.5988
 1303SOL    HW215372   1.466   1.603   9.690  0.3676  0.6720  1.3820
 1304SOL     OW15373   0.744   4.074   7.711  0.0392  0.6654  0.0923
 1304SOL    HW115374   0.695   4.039   7.786 -0.8882 -0.7928 -1.2044
 1304SOL    HW215375   0.698   4.041   7.634  0.5271  1.2732 -0.4575
 1305SOL     OW15376   1.625   0.480   7.161  0.2665  0.2459  0.3792
 1305SOL    HW115377   1.621   0.397   7.114  0.0613 -0.7600  2.1579
 1305SOL    HW215378   1.534   0.509   7.155  0.0876 -0.8366 -2.1832
 1306SOL     OW15379   0.157   2.906  13.295  0.2065 -0.2444  0.1788
 1306SOL    HW115380   0.171   2.832  13.354  0.8035 -0.3234 -0.0539
 1306SOL    HW215381   0.149   2.985  13.348  0.5207 -1.4469  2.0354
 1307SOL     OW15382   4.358   1.646   9.705 -0.1673  1.0328 -0.0228
 1307SOL    HW115383   4.426   1.711   9.725  0.8047 -0.1988  0.6151
 1307SOL    HW215384   4.349   1.680   9.616 -1.2051  0.4421 -0.1432
 1308SOL     OW15385   1.901   3.257  10.414 -0.1624 -0.7415 -0.1499
 1308SOL    HW115386   1.939   3.189  10.359  1.7951  0.0163  0.2620
 1308SOL    HW215387   1.975   3.284  10.469 -1.1574  2.2834 -0.2869
 1309SOL     OW15388   2.872   3.583   4.920  0.1574  0.3810  0.7787
 1309SOL    HW115389   2.919   3.514   4.873  0.4576  0.3676  1.0903
 1309SOL    HW215390   2.934   3.655   4.909  0.3708 -0.1646 -1.6387
 1310SOL     OW15391   0.263   1.719   1.229  0.5649  0.3466 -0.3537
 1310SOL    HW115392   0.287   1.775   1.155  0.5840 -2.5301 -2.5310
 1310SOL    HW215393   0.169   1.734   1.223  0.3559 -0.5458  0.7696
 1311SOL     OW15394   0.253   2.747   7.218 -0.4837  0.4072  0.4940
 1311SOL    HW115395   0.327   2.779   7.167 -3.2961  0.7486 -3.3757
 1311SOL    HW215396   0.178   2.780   7.169 -0.3795  0.1401  0.1512
 1312SOL     OW15397   2.667   1.013   5.857  0.2198 -0.1287  0.5616
 1312SOL    HW115398   2.664   1.012   5.952  0.6995 -0.9717  0.5652
 1312SOL    HW215399   2.669   0.921   5.833  1.5656 -0.3144  1.4203
 1313SOL     OW15400   3.218   1.222   2.841 -1.1401  0.1833 -0.3098
 1313SOL    HW115401   3.199   1.283   2.912 -1.2804  1.4573 -1.4285
 1313SOL    HW215402   3.183   1.266   2.763 -0.4183  1.7831  0.2603
 1314SOL     OW15403   2.957   4.562   3.759 -0.0201 -0.2210  0.1942
 1314SOL    HW115404   2.993   4.607   3.683 -0.4579 -1.1028 -0.5387
 1314SOL    HW215405   2.981   4.470   3.750  1.7545  0.3392 -0.7771
 1315SOL     OW15406   0.404   0.718   0.231 -0.1900 -0.3769 -0.2971
 1315SOL    HW115407   0.496   0.740   0.246  0.0374 -0.5009 -1.4765
 1315SOL    HW215408   0.364   0.805   0.226 -0.4216 -0.3593  2.2258
 1316SOL     OW15409   0.092   1.827   8.621 -0.3447 -0.0745 -0.6996
 1316SOL    HW115410   0.068   1.735   8.606 -1.5998  0.4384 -1.8312
 1316SOL    HW215411   0.181   1.823   8.655  0.1381  0.8827 -1.8617
 1317SOL     OW15412   3.565   3.528   8.754 -0.1459  0.1753  0.1239
 1317SOL    HW115413   3.527   3.442   8.774  1.2724 -0.3887  0.4179
 1317SOL    HW215414   3.545   3.584   8.829 -0.9359 -1.8204  1.4092
 1318SOL     OW15415   3.794   4.010  12.173 -0.0775  0.1564  0.1722
 1318SOL    HW115416   3.789   4.061  12.092 -0.8190 -0.7074 -0.3247
 1318SOL    HW215417   3.845   4.066  12.232  1.1074 -0.8665  0.1218
 1319SOL     OW15418   2.365   2.425   7.534 -0.8846  0.0985  0.0863
 1319SOL    HW115419   2.288   2.422   7.478 -1.4638 -2.0781  0.9918
 1319SOL    HW215420   2.389   2.333   7.548 -0.2127  0.4589  1.2827
 1320SOL     OW15421   2.522   1.446   5.485  0.2982 -0.8197 -0.0635
 1320SOL    HW115422   2.566   1.468   5.403  1.8375 -1.8010  0.5032
 1320SOL    HW215423   2.555   1.357   5.500  1.1911 -0.4639  0.1061
 1321SOL     OW15424   2.853   3.780  12.922 -0.1602 -0.3438 -0.0107
 1321SOL    HW115425   2.771   3.830  12.923  0.8334  1.3211 -1.6819
 1321SOL    HW215426   2.835   3.735  12.840  1.2961  0.7107 -0.9110
 1322SOL     OW15427   1.976   3.136   2.483  0.0377  0.0721  0.1367
 1322SOL    HW115428   1.936   3.108   2.565 -0.2047  2.2378  0.7698
 1322SOL    HW215429   2.050   3.185   2.520 -0.7987  0.4760  1.2599
 1323SOL     OW15430   1.834   3.632   6.066  0.0114 -0.1148  0.0967
 1323SOL    HW115431   1.895   3.626   5.993  0.0679  2.3596 -0.0796
 1323SOL    HW215432   1.832   3.542   6.099  1.8676 -0.3699 -0.4589
 1324SOL     OW15433   1.706   3.273   4.072 -0.2181 -0.5409  0.0193
 1324SOL    HW115434   1.624   3.269   4.122  0.3208 -1.4623  0.8486
 1324SOL    HW215435   1.668   3.257   3.986  1.6431  1.0923 -1.1015
 1325SOL     OW15436   1.341   1.106   0.101  0.2120  0.0883 -0.1115
 1325SOL    HW115437   1.371   1.135   0.015 -1.7587 -0.5960 -1.0411
 1325SOL    HW215438   1.370   1.015   0.103  0.6288  0.2053 -1.0332
 1326SOL     OW15439   0.161   0.406  12.370 -0.2039 -0.2818  0.0492
 1326SOL    HW115440   0.166   0.326  12.318 -2.5320  0.7044 -1.7002
 1326SOL    HW215441   0.135   0.377  12.458 -0.8472 -0.4776 -0.2070
 1327SOL     OW15442   0.269   4.513   5.665 -0.8198 -0.0446  0.1238
 1327SOL    HW115443   0.309   4.553   5.742  0.1694  0.0570 -0.4408
 1327SOL    HW215444   0.184   4.556   5.672 -1.0928 -0.1434 -2.5760
 1328SOL     OW15445   3.124   4.639  16.320  0.5065 -0.1587  0.3857
 1328SOL    HW115446   3.050   4.616  16.264  1.1242  0.2947 -0.6200
 1328SOL    HW215447   3.076   4.643  16.402 -0.0339  1.1060  0.0124
 1329SOL     OW15448   0.954   0.687   0.702  0.6915 -0.0293 -0.1743
 1329SOL    HW115449   0.959   0.595   0.675  0.9049  0.3517 -1.4345
 1329SOL    HW215450   0.952   0.727   0.615 -1.1092  0.4425  0.0759
 1330SOL     OW15451   1.213   0.135   8.165  0.2332  0.3679 -0.8202
 1330SOL    HW115452   1.174   0.128   8.252 -1.2996  0.7960 -1.4690
 1330SOL    HW215453   1.184   0.221   8.135  0.2941  1.2591  1.7474
 1331SOL     OW15454   2.837   2.174   1.478 -0.5033  0.4126 -0.7162
 1331SOL    HW115455   2.796   2.095   1.441  0.3177 -2.5213  4.6196
 1331SOL    HW215456   2.810   2.240   1.414  0.2171  0.9358 -0.4825
 1332SOL     OW15457   2.799   1.462  17.276 -0.7535  0.1419 -0.0251
 1332SOL    HW115458   2.876   1.475  17.221 -0.9292 -0.3724 -0.4003
 1332SOL    HW215459   2.820   1.382  17.324  0.2384 -0.3317 -1.2347
 1333SOL     OW15460   1.821   2.035   6.638  0.0749  0.6030 -0.4810
 1333SOL    HW115461   1.904   2.000   6.670 -1.8014 -2.7052  0.6744
 1333SOL    HW215462   1.843   2.129   6.637  2.3409  0.1080  1.7085
 1334SOL     OW15463   0.163   0.358   2.092  0.4389  0.0442 -0.2681
 1334SOL    HW115464   0.077   0.400   2.096 -0.1597 -1.1153 -0.9646
 1334SOL    HW215465   0.137   0.277   2.048  0.8496  0.9104 -2.1119
 1335SOL     OW15466   3.959   0.748   5.538 -0.4130  0.3267  0.2464
 1335SOL    HW115467   3.958   0.804   5.461  0.2108 -3.3404 -2.4576
 1335SOL    HW215468   4.025   0.784   5.597 -0.0130  0.7789 -0.4778
 1336SOL     OW15469   3.159   0.003   9.878 -0.0277 -0.0669 -0.4881
 1336SOL    HW115470   3.174   0.084   9.927  1.4608 -1.3982  1.1976
 1336SOL    HW215471   3.080   4.694   9.919  0.6231  0.3099  1.0634
 1337SOL     OW15472   1.784   0.683  12.072 -0.6298  0.5187  0.1258
 1337SOL    HW115473   1.695   0.693  12.106 -0.8448 -0.8004 -0.0449
 1337SOL    HW215474   1.830   0.637  12.142 -2.5147  1.3830  1.9356
 1338SOL     OW15475   1.090   0.513   8.789  0.1490 -0.7137 -0.4543
 1338SOL    HW115476   1.029   0.544   8.856  1.5165  0.9819 -0.0183
 1338SOL    HW215477   1.137   0.449   8.842  0.9378  0.8505  0.7307
 1339SOL     OW15478   4.510   3.181   6.052 -0.5295  0.7702  0.1055
 1339SOL    HW115479   4.468   3.214   6.132 -1.5302 -1.4871  0.5027
 1339SOL    HW215480   4.570   3.113   6.084 -0.8490  1.5210  2.3161
 1340SOL     OW15481   4.528   1.515   1.625 -0.3016 -0.0618 -0.2732
 1340SOL    HW115482   4.505   1.506   1.533  1.0330  1.2499 -0.7192
 1340SOL    HW215483   4.602   1.455   1.629 -0.3096 -0.0116  0.6156
 1341SOL     OW15484   3.429   2.623   2.620  0.4465 -0.1779 -0.4738
 1341SOL    HW115485   3.520   2.650   2.630  0.9687 -1.0454 -2.8626
 1341SOL    HW215486   3.407   2.581   2.703  0.4959 -3.2545 -2.0048
 1342SOL     OW15487   3.288   3.336   3.920  0.0006 -0.3870 -0.2201
 1342SOL    HW115488   3.277   3.250   3.960  0.4976 -0.1750  0.3857
 1342SOL    HW215489   3.202   3.357   3.884  0.1165 -1.9587 -1.4017
 1343SOL     OW15490   3.941   2.983   4.117 -1.2227 -0.4763  0.3701
 1343SOL    HW115491   3.950   3.029   4.034  1.1218  0.9610  1.4121
 1343SOL    HW215492   3.950   2.891   4.091  0.3507 -0.6582  1.5239
 1344SOL     OW15493   2.938   2.210  17.340  0.4229 -0.1916  0.0403
 1344SOL    HW115494   2.911   2.299  17.320 -0.8653 -0.9555 -1.6519
 1344SOL    HW215495   2.921   2.145  17.272 -0.6883 -0.3948  0.5091
 1345SOL     OW15496   1.511   2.511   6.083 -0.4572 -0.5778  0.5211
 1345SOL    HW115497   1.422   2.478   6.092  0.5249 -2.5583  2.9551
 1345SOL    HW215498   1.553   2.447   6.026 -0.2518  1.5422 -1.7293
 1346SOL     OW15499   3.484   0.681   1.348 -0.8329  0.0418  0.0686
 1346SOL    HW115500   3.458   0.761   1.302 -3.9032 -1.5101 -0.8264
 1346SOL    HW215501   3.431   0.623   1.294 -0.0851 -0.1014 -0.5223
 1347SOL     OW15502   3.799   4.679   1.271 -0.5395 -0.1484  0.0785
 1347SOL    HW115503   3.776   4.631   1.191 -1.3018 -0.2600  0.3656
 1347SOL    HW215504   3.714   4.716   1.293 -1.2677 -1.8509  0.1235
 1348SOL     OW15505   4.392   2.125   1.014  0.8301  0.4090 -0.3636
 1348SOL    HW115506   4.301   2.147   0.994 -0.1168 -2.1893  1.1032
 1348SOL    HW215507   4.390   2.044   1.065  2.4034  2.2570  2.6065
 1349SOL     OW15508   3.494   1.759   6.675 -0.1602  0.0594 -0.1290
 1349SOL    HW115509   3.405   1.723   6.672  0.4555 -1.5043  0.1262
 1349SOL    HW215510   3.537   1.696   6.616  0.7528  0.6576 -0.1044
 1350SOL     OW15511   0.497   4.694   6.182  0.4573  0.4988  0.4689
 1350SOL    HW115512   0.417   4.654   6.218  0.8085  0.1464  0.8678
 1350SOL    HW215513   0.556   4.620   6.199 -0.0315  0.0088  0.0550
 1351SOL     OW15514   3.246   0.408   6.337 -0.0295 -0.4367  0.3179
 1351SOL    HW115515   3.333   0.406   6.377 -0.1089  0.4270  0.5392
 1351SOL    HW215516   3.255   0.496   6.300 -0.2760  0.4141  2.2376
 1352SOL     OW15517   2.100   0.110   8.911  0.3355 -0.6576 -0.1954
 1352SOL    HW115518   2.121   0.108   9.004 -0.1210 -1.1132 -0.1042
 1352SOL    HW215519   2.183   0.154   8.889  0.0884 -0.7938 -1.4167
 1353SOL     OW15520   1.410   3.929   9.695  0.8468  0.2344 -0.6726
 1353SOL    HW115521   1.388   4.018   9.667 -0.8437  0.2263  0.5843
 1353SOL    HW215522   1.406   3.939   9.791  1.6802 -0.8572 -0.5221
 1354SOL     OW15523   3.332   1.628   2.317  0.4964  0.3407  0.3229
 1354SOL    HW115524   3.340   1.689   2.391  2.9621 -0.0312  0.3607
 1354SOL    HW215525   3.424   1.607   2.300 -0.0049 -0.9869 -0.7695
 1355SOL     OW15526   1.069   4.395   2.753  0.2708  0.0456  0.5112
 1355SOL    HW115527   1.160   4.392   2.782  0.3507  2.4443  0.4984
 1355SOL    HW215528   1.030   4.479   2.778  1.2264  0.7582 -0.3843
 1356SOL     OW15529   4.023   3.665   6.784  0.0623 -0.3008 -0.4260
 1356SOL    HW115530   4.103   3.615   6.769 -0.1346 -0.6110 -0.4243
 1356SOL    HW215531   3.989   3.684   6.696  0.7202  1.0413 -0.3955
 1357SOL     OW15532   2.916   1.718  10.966 -0.4710  0.0361  0.2885
 1357SOL    HW115533   2.917   1.760  10.880 -0.0044 -1.3405 -0.3745
 1357SOL    HW215534   2.859   1.642  10.953 -0.3135 -0.3375  1.7727
 1358SOL     OW15535   3.211   1.930  11.201  0.3452 -0.0613 -0.0939
 1358SOL    HW115536   3.241   1.861  11.141  0.6376 -1.6570  1.8845
 1358SOL    HW215537   3.123   1.894  11.213 -0.1319  0.8097 -0.9423
 1359SOL     OW15538   4.440   2.668  12.987 -0.5188 -0.1652 -0.0308
 1359SOL    HW115539   4.442   2.634  12.898 -1.8191 -2.2072  0.7114
 1359SOL    HW215540   4.532   2.666  13.013 -0.8212 -0.6705  1.0015
 1360SOL     OW15541   1.233   3.647   1.830  0.1119 -0.4826  0.2488
 1360SOL    HW115542   1.154   3.593   1.831  1.2231 -2.1522 -1.0854
 1360SOL    HW215543   1.279   3.591   1.893 -1.2598 -0.3098  1.3997
 1361SOL     OW15544   2.363   4.383  12.716 -0.3879  0.6188 -0.4754
 1361SOL    HW115545   2.354   4.403  12.810 -0.0548 -1.3698 -0.0125
 1361SOL    HW215546   2.288   4.324  12.710  0.0714 -0.1392  1.1569
 1362SOL     OW15547   3.087   2.516  11.672 -0.0669  0.6160 -0.1993
 1362SOL    HW115548   3.033   2.561  11.738 -0.0827  4.3535 -2.7447
 1362SOL    HW215549   3.037   2.437  11.654  0.1150  0.2579  0.8673
 1363SOL     OW15550   0.497   0.839   8.343 -0.3029  0.2309 -0.0851
 1363SOL    HW115551   0.515   0.930   8.369  0.2192  0.1564 -0.1795
 1363SOL    HW215552   0.498   0.810   8.434  0.7457  0.0560 -0.1494
 1364SOL     OW15553   3.031   2.570   2.254  0.2720 -0.1234 -0.3901
 1364SOL    HW115554   3.093   2.584   2.325  0.1610 -1.8827  0.0477
 1364SOL    HW215555   3.042   2.476   2.240  0.4111 -0.0378 -0.8473
 1365SOL     OW15556   0.223   1.746  12.642  0.3865  0.3637 -0.2668
 1365SOL    HW115557   0.232   1.841  12.629  2.6832  0.3029  0.9440
 1365SOL    HW215558   0.283   1.719  12.572 -1.0155 -1.1385 -0.8744
 1366SOL     OW15559   2.810   0.090   9.505 -0.0177  0.9127 -0.0205
 1366SOL    HW115560   2.793   4.721   9.511  0.7071  0.8080  0.4268
 1366SOL    HW215561   2.768   0.109   9.422 -3.8224 -2.6582  1.0998
 1367SOL     OW15562   2.914   1.435   5.324 -0.2308  0.9699  0.1765
 1367SOL    HW115563   2.826   1.398   5.326  0.4425 -0.7281 -1.4664
 1367SOL    HW215564   2.900   1.513   5.270  0.6640  0.7182 -0.4048
 1368SOL     OW15565   4.584   0.449   1.456  0.0079  0.1846  0.0424
 1368SOL    HW115566   4.672   0.411   1.464 -0.6910 -1.4072 -0.0335
 1368SOL    HW215567   4.569   0.472   1.364 -0.8557 -1.5938 -0.2653
 1369SOL     OW15568   0.668   0.267   2.070  0.3922  0.0046  0.0046
 1369SOL    HW115569   0.727   0.325   2.021  1.6419 -0.3742  1.0929
 1369SOL    HW215570   0.695   0.284   2.160 -0.7765  2.2830 -0.0817
 1370SOL     OW15571   2.337   2.774   8.086 -0.0989 -0.1245 -0.0315
 1370SOL    HW115572   2.337   2.792   7.992  1.2433 -1.2333 -0.2467
 1370SOL    HW215573   2.384   2.845   8.129  0.6619 -0.7460  0.1529
 1371SOL     OW15574   2.716   3.034   6.774 -0.4911  0.4428 -0.2459
 1371SOL    HW115575   2.707   3.127   6.753 -0.4643  1.0198  2.3452
 1371SOL    HW215576   2.627   3.000   6.760  0.0560 -0.8153 -0.7386
 1372SOL     OW15577   1.274   0.189   8.759 -0.2385  0.0538  0.2876
 1372SOL    HW115578   1.252   0.230   8.843  0.5540  0.1110  0.4668
 1372SOL    HW215579   1.369   0.192   8.766 -0.4443  1.3906  2.4577
 1373SOL     OW15580   4.549   2.246   9.155 -0.2436  0.4412 -0.3235
 1373SOL    HW115581   4.462   2.207   9.162 -0.4635  0.7122 -1.4811
 1373SOL    HW215582   4.536   2.309   9.083 -0.6655  0.1028 -0.5437
 1374SOL     OW15583   1.508   1.559   4.811 -0.1228  0.4373  0.6197
 1374SOL    HW115584   1.449   1.604   4.751 -0.4083 -1.7638 -0.7614
 1374SOL    HW215585   1.587   1.542   4.760 -0.4812  2.5661 -0.6382
 1375SOL     OW15586   0.324   1.575   3.433  0.1231 -0.0488  0.6130
 1375SOL    HW115587   0.389   1.505   3.424  0.7468  0.9036 -2.0855
 1375SOL    HW215588   0.246   1.521   3.444  0.6505 -0.5222  2.0325
 1376SOL     OW15589   1.853   3.153   7.814  0.0175  0.0741 -0.2059
 1376SOL    HW115590   1.792   3.088   7.848  0.6329 -1.0405 -1.2224
 1376SOL    HW215591   1.865   3.221   7.880  0.9679  0.0025 -0.3048
 1377SOL     OW15592   2.518   0.201   8.454 -0.7229 -0.1230 -0.0239
 1377SOL    HW115593   2.550   0.265   8.390 -0.9376  1.3757  1.3679
 1377SOL    HW215594   2.424   0.218   8.456 -0.9509 -1.0228 -2.5581
 1378SOL     OW15595   2.189   1.413   5.610 -0.2952 -0.1115  0.7153
 1378SOL    HW115596   2.174   1.339   5.552  0.8515  0.6035 -0.5007
 1378SOL    HW215597   2.148   1.382   5.691 -0.2099  0.3804  0.9504
 1379SOL     OW15598   2.926   2.055   6.280 -0.5212 -0.3011  0.0123
 1379SOL    HW115599   3.000   2.112   6.297 -0.6630  0.0355 -0.5089
 1379SOL    HW215600   2.934   2.041   6.186  2.6883  1.7229  0.0186
 1380SOL     OW15601   1.475   3.232   7.514 -0.2844  0.6093 -0.0815
 1380SOL    HW115602   1.428   3.279   7.583 -1.7601  0.4887 -0.9916
 1380SOL    HW215603   1.467   3.287   7.435  0.3486  2.0606  0.8633
 1381SOL     OW15604   4.078   1.568  10.825 -0.5120 -0.1803  0.6002
 1381SOL    HW115605   4.077   1.507  10.899 -0.8619  0.6509  1.2817
 1381SOL    HW215606   4.166   1.604  10.819 -0.9642  0.7872 -0.1297
 1382SOL     OW15607   3.284   0.650   3.831  0.4181  0.2291 -0.8343
 1382SOL    HW115608   3.235   0.721   3.873  0.3292 -0.2494 -0.1192
 1382SOL    HW215609   3.306   0.677   3.742  1.1778  1.6188 -0.2400
 1383SOL     OW15610   2.783   4.063   9.587 -0.3938  0.0561 -0.2184
 1383SOL    HW115611   2.786   4.073   9.683 -0.5418  2.4658 -0.4801
 1383SOL    HW215612   2.761   3.971   9.573 -1.0042  0.0782  0.5716
 1384SOL     OW15613   2.896   2.714   3.986  0.3322  0.0811 -0.4755
 1384SOL    HW115614   2.892   2.619   3.996  2.4198  0.0451  0.0301
 1384SOL    HW215615   2.861   2.726   3.898  0.2445 -1.8246 -0.6860
 1385SOL     OW15616   4.511   4.700   4.244  0.1720  0.0969 -0.4694
 1385SOL    HW115617   4.437   4.640   4.231  0.6804 -0.2497 -1.7387
 1385SOL    HW215618   4.512   0.040   4.174  0.7208 -0.4472 -0.9585
 1386SOL     OW15619   0.668   0.676   2.704 -0.3037 -0.4356  0.0951
 1386SOL    HW115620   0.605   0.617   2.745  0.1985 -2.3953 -1.9349
 1386SOL    HW215621   0.697   0.727   2.779 -2.5476 -0.3931  0.9410
 1387SOL     OW15622   1.874   4.555  16.853  0.2159 -1.1200 -0.0289
 1387SOL    HW115623   1.831   4.641  16.860 -0.1706 -1.5576  3.2688
 1387SOL    HW215624   1.899   4.538  16.944  0.9979  1.0652  0.1612
 1388SOL     OW15625   0.508   2.762   5.013  0.4190  0.6446  0.2184
 1388SOL    HW115626   0.528   2.693   5.077  1.3939 -0.2912 -1.0980
 1388SOL    HW215627   0.489   2.835   5.072 -0.5702  0.7030 -0.1592
 1389SOL     OW15628   0.464   2.008   7.513 -0.3525 -0.0201 -0.8640
 1389SOL    HW115629   0.552   2.007   7.550 -1.7152 -2.3699  2.2752
 1389SOL    HW215630   0.431   1.919   7.523 -1.8445  0.6365  0.0610
 1390SOL     OW15631   1.568   4.686   2.526  0.1127  0.3931 -0.0071
 1390SOL    HW115632   1.659   4.706   2.503 -0.6004  2.8845 -0.6178
 1390SOL    HW215633   1.554   0.011   2.606  0.2419  1.3532 -0.5863
 1391SOL     OW15634   2.464   1.462   3.955 -0.3747 -0.5691  0.5881
 1391SOL    HW115635   2.377   1.473   3.993 -0.3280 -0.2397  0.5976
 1391SOL    HW215636   2.443   1.477   3.863 -1.1809 -0.7400  0.7411
 1392SOL     OW15637   1.932   0.185  12.377  0.1309  0.2627 -0.3480
 1392SOL    HW115638   1.984   0.263  12.398 -1.1669  0.7832  0.9162
 1392SOL    HW215639   1.906   0.214  12.289  0.8413  2.2414  0.0891
 1393SOL     OW15640   2.851   4.332   2.703  0.2128 -0.4853 -0.0762
 1393SOL    HW115641   2.872   4.252   2.656  3.0229 -0.3392  0.9171
 1393SOL    HW215642   2.919   4.386   2.663 -1.6229  1.7938 -0.0814
 1394SOL     OW15643   4.234   0.513   2.500 -0.0547  0.2388 -0.4419
 1394SOL    HW115644   4.250   0.489   2.409 -2.4075  0.7986 -0.9886
 1394SOL    HW215645   4.160   0.454   2.512 -0.2669  0.2900 -1.5117
 1395SOL     OW15646   1.013   2.852   3.826 -0.6481 -0.3017  0.4215
 1395SOL    HW115647   1.019   2.919   3.894  0.5245  0.6606 -0.6375
 1395SOL    HW215648   1.014   2.915   3.755  1.7769  0.5484  1.2147
 1396SOL     OW15649   2.340   2.470   3.938 -0.6419  0.1980 -0.2585
 1396SOL    HW115650   2.301   2.501   3.856 -0.9349  2.5672  0.7765
 1396SOL    HW215651   2.313   2.378   3.936  2.3546 -0.6972  0.1008
 1397SOL     OW15652   3.864   1.219   5.586  0.1347  0.4212 -1.0455
 1397SOL    HW115653   3.925   1.286   5.616 -0.6934  0.9196 -0.4950
 1397SOL    HW215654   3.932   1.189   5.525  0.9067 -0.8761  0.4454
 1398SOL     OW15655   0.316   1.968  15.865 -0.3350  0.0414 -0.3680
 1398SOL    HW115656   0.240   1.969  15.806 -0.3781 -0.0227 -0.3133
 1398SOL    HW215657   0.363   2.044  15.830 -0.4780 -0.1938 -1.0652
 1399SOL     OW15658   3.128   3.498   4.634  0.1117 -0.5252  0.3441
 1399SOL    HW115659   3.105   3.448   4.712 -0.1597 -0.1905  0.4789
 1399SOL    HW215660   3.190   3.440   4.589 -2.1313 -2.4258 -0.2236
 1400SOL     OW15661   4.032   1.338  17.025  0.6123 -0.2799 -0.2324
 1400SOL    HW115662   4.113   1.369  16.985  0.1303  1.1010 -0.1633
 1400SOL    HW215663   4.066   1.282  17.095 -0.3950 -1.0514 -0.3686
 1401SOL     OW15664   1.831   2.739  11.926  0.1631  0.1728 -0.0498
 1401SOL    HW115665   1.871   2.825  11.938 -1.7625  0.9628  0.6721
 1401SOL    HW215666   1.757   2.755  11.983 -0.5537  0.3927 -1.0393
 1402SOL     OW15667   0.646   1.872   6.197  0.1419 -0.6432 -0.8841
 1402SOL    HW115668   0.556   1.900   6.211  0.6146 -0.5982  2.0283
 1402SOL    HW215669   0.693   1.944   6.240  3.2229 -3.6039  0.6988
 1403SOL     OW15670   0.842   2.279   4.993  0.2585 -0.1282 -0.0670
 1403SOL    HW115671   0.879   2.357   4.951 -2.3623 -0.2414 -2.5720
 1403SOL    HW215672   0.789   2.247   4.919 -0.4085 -2.7623  1.5607
 1404SOL     OW15673   1.420   2.823   8.440 -0.2499  0.2099 -0.0797
 1404SOL    HW115674   1.345   2.875   8.409 -1.1205 -1.1241 -0.2323
 1404SOL    HW215675   1.433   2.852   8.530 -2.1356  0.8341 -0.0108
 1405SOL     OW15676   4.625   2.722   2.214  0.0985 -0.3362  0.1594
 1405SOL    HW115677   4.620   2.729   2.119 -1.7901  0.6196  0.3359
 1405SOL    HW215678   4.548   2.674   2.245  0.1723 -0.2077  0.5406
 1406SOL     OW15679   2.246   4.413   3.714 -0.0727  0.3536 -0.5894
 1406SOL    HW115680   2.320   4.467   3.689  1.5685 -2.4912 -1.8442
 1406SOL    HW215681   2.251   4.428   3.808 -1.5479  0.1149 -0.4721
 1407SOL     OW15682   0.496   2.206   4.187 -0.4444  0.6566  0.0007
 1407SOL    HW115683   0.504   2.116   4.218  1.4625  0.6645 -0.4358
 1407SOL    HW215684   0.580   2.251   4.200 -0.6352  0.6088  1.3902
 1408SOL     OW15685   1.843   2.234   5.530  0.2196  0.0828 -0.4609
 1408SOL    HW115686   1.915   2.196   5.480  1.2532 -1.0587  1.9050
 1408SOL    HW215687   1.844   2.327   5.508 -0.8240  0.1674 -0.1425
 1409SOL     OW15688   1.179   1.469   0.725  0.3675  0.4534 -0.6138
 1409SOL    HW115689   1.122   1.475   0.649 -0.8021  1.5119  0.3298
 1409SOL    HW215690   1.148   1.384   0.757 -1.6519  2.0812  1.8738
 1410SOL     OW15691   1.717   3.275  16.049  0.1933 -0.1107 -0.3141
 1410SOL    HW115692   1.637   3.303  16.092  1.1613  0.2193  1.2912
 1410SOL    HW215693   1.780   3.286  16.120  0.9567  1.0189 -1.1715
 1411SOL     OW15694   2.574   3.914   6.448 -0.1851 -0.8401 -0.5169
 1411SOL    HW115695   2.534   3.934   6.364  0.2980 -0.1456 -0.5745
 1411SOL    HW215696   2.554   3.992   6.500 -0.0736 -1.5931  0.6641
 1412SOL     OW15697   2.982   0.237   3.949 -0.4416  0.6988 -0.1911
 1412SOL    HW115698   2.916   0.259   3.883 -0.4997 -0.7445 -0.6097
 1412SOL    HW215699   2.927   0.187   4.009 -3.4337  1.1417 -2.5640
 1413SOL     OW15700   3.635   0.175   5.518 -0.3806 -0.0762 -0.5736
 1413SOL    HW115701   3.646   0.269   5.506  0.3009  0.0669  1.2181
 1413SOL    HW215702   3.612   0.158   5.426 -3.7963 -1.1820  0.5031
 1414SOL     OW15703   3.696   4.220   9.696  0.0344  0.3126 -0.0571
 1414SOL    HW115704   3.713   4.127   9.687 -0.2831  0.0937  1.6584
 1414SOL    HW215705   3.605   4.215   9.665 -0.4895 -4.0169  2.2653
 1415SOL     OW15706   2.444   4.095  10.602  0.3453 -0.6129  0.4293
 1415SOL    HW115707   2.534   4.122  10.582  1.1112 -1.6796  2.3473
 1415SOL    HW215708   2.434   4.133  10.690 -0.0775 -3.1068  1.4614
 1416SOL     OW15709   4.013   1.759  17.033 -0.4336  0.3971  0.0924
 1416SOL    HW115710   4.015   1.854  17.050  3.3165  0.0771  1.4143
 1416SOL    HW215711   3.926   1.729  17.060 -0.4113 -1.9755 -2.4437
 1417SOL     OW15712   2.040   0.931   8.029  0.2503  0.3916  0.2314
 1417SOL    HW115713   2.032   0.911   7.935  3.1108 -0.0375  0.0778
 1417SOL    HW215714   2.133   0.913   8.039  0.5437  1.2267 -0.9624
 1418SOL     OW15715   2.119   3.074   6.867  0.5116 -0.7215 -0.0594
 1418SOL    HW115716   2.143   3.024   6.789  3.3192 -0.1974  0.4533
 1418SOL    HW215717   2.129   3.167   6.846 -1.3937 -0.6892 -0.7521
 1419SOL     OW15718   1.627   2.853  13.071  0.1880 -0.2394  0.7964
 1419SOL    HW115719   1.574   2.778  13.097  0.9197 -1.4133 -1.0475
 1419SOL    HW215720   1.627   2.911  13.147  0.5654  1.3572 -0.4232
 1420SOL     OW15721   2.127   1.510   3.612  0.3964  0.3969 -0.0166
 1420SOL    HW115722   2.217   1.507   3.646  1.2445  0.4067 -2.2042
 1420SOL    HW215723   2.093   1.429   3.650 -0.1531 -0.3019 -1.9967
 1421SOL     OW15724   2.488   2.000   9.805 -0.4715  0.5078 -0.3606
 1421SOL    HW115725   2.484   2.031   9.896  0.7203 -1.1023  0.2417
 1421SOL    HW215726   2.568   1.947   9.809 -0.6143  0.6198  4.3377
 1422SOL     OW15727   2.937   4.009  13.950 -0.0734 -0.1088  0.0750
 1422SOL    HW115728   2.915   3.957  14.028  0.4248 -0.9626 -0.3493
 1422SOL    HW215729   2.996   4.076  13.984 -0.0077  0.1503 -0.5599
 1423SOL     OW15730   0.227   4.252   4.990  0.2854 -0.3930  0.4993
 1423SOL    HW115731   0.269   4.223   5.071 -1.5774 -3.9536  0.1930
 1423SOL    HW215732   0.307   4.286   4.950 -0.7626 -0.3797 -1.5619
 1424SOL     OW15733   1.002   2.422   6.983  0.3635 -0.2303 -0.0939
 1424SOL    HW115734   0.934   2.485   6.961 -1.8977 -2.8536 -0.6491
 1424SOL    HW215735   1.083   2.470   6.964  1.3175 -0.7760  2.5203
 1425SOL     OW15736   3.672   0.694   1.897  0.1022  0.1640  0.4996
 1425SOL    HW115737   3.645   0.762   1.959  0.3791  1.4177 -0.7367
 1425SOL    HW215738   3.677   0.739   1.812 -2.2615 -2.6526 -1.1210
 1426SOL     OW15739   4.182   2.464   9.408  0.1263  1.1065  0.3495
 1426SOL    HW115740   4.180   2.369   9.421 -0.9468  0.8175 -1.9427
 1426SOL    HW215741   4.225   2.472   9.323  2.0365 -0.8213  1.1267
 1427SOL     OW15742   2.879   2.306   2.188 -0.4568  0.3064  0.2676
 1427SOL    HW115743   2.920   2.220   2.193 -0.6249  0.2090 -0.0382
 1427SOL    HW215744   2.863   2.311   2.094  2.8576  1.7519 -0.1909
 1428SOL     OW15745   1.528   0.491   6.187  0.0121  0.1650 -0.4334
 1428SOL    HW115746   1.595   0.558   6.174 -0.4168  0.7592  0.4100
 1428SOL    HW215747   1.465   0.527   6.250 -0.6762 -0.6489 -0.6626
 1429SOL     OW15748   1.658   1.344  13.005  0.4623 -0.0514  0.4392
 1429SOL    HW115749   1.717   1.338  13.081  0.8333  0.8984  0.2293
 1429SOL    HW215750   1.629   1.435  13.010 -0.7052 -0.4742  1.2102
 1430SOL     OW15751   3.027   3.865   1.486  0.3268 -0.2407  0.8592
 1430SOL    HW115752   3.093   3.826   1.543  1.1313  1.4732  1.0894
 1430SOL    HW215753   3.080   3.908   1.419  1.8169 -0.2628  2.0215
 1431SOL     OW15754   1.395   1.396   0.534  0.9667 -0.5954  1.0218
 1431SOL    HW115755   1.387   1.348   0.452  1.7311  1.6672 -0.3501
 1431SOL    HW215756   1.331   1.465   0.518 -1.4382 -2.4267  2.7320
 1432SOL     OW15757   1.592   4.552   3.578  0.3470 -0.1346  0.3226
 1432SOL    HW115758   1.563   4.552   3.487  1.2293 -2.0957  0.0191
 1432SOL    HW215759   1.684   4.578   3.568  0.4939 -0.7109  0.1290
 1433SOL     OW15760   0.087   3.133  13.514 -0.2123  0.4016  0.2060
 1433SOL    HW115761   0.045   3.219  13.502  1.2465  1.1055  0.2344
 1433SOL    HW215762   0.037   3.094  13.586 -0.1089  1.1014  0.6639
 1434SOL     OW15763   0.526   2.361   8.176  0.1864  0.2534  0.0019
 1434SOL    HW115764   0.533   2.304   8.253 -0.5810  0.6817  0.3926
 1434SOL    HW215765   0.605   2.336   8.128 -0.5786 -0.4901 -0.8680
 1435SOL     OW15766   3.863   1.878  17.501 -0.5387  0.2690  0.0744
 1435SOL    HW115767   3.917   1.957  17.506 -2.0237  1.2498  0.2451
 1435SOL    HW215768   3.803   1.914  17.436 -0.8496 -2.1450 -0.9894
 1436SOL     OW15769   2.785   2.646  16.076 -0.4627 -0.3281 -0.2121
 1436SOL    HW115770   2.756   2.575  16.134 -0.4598 -1.2915 -1.3862
 1436SOL    HW215771   2.810   2.606  15.993 -0.7869  0.5797 -0.7393
 1437SOL     OW15772   1.177   1.123   7.708 -0.2931 -0.1637  0.3931
 1437SOL    HW115773   1.164   1.130   7.802 -0.1793  0.3665  0.3705
 1437SOL    HW215774   1.238   1.191   7.679 -1.7897  1.3533  0.8397
 1438SOL     OW15775   0.164   0.622  17.211 -0.1198  0.1800 -0.1521
 1438SOL    HW115776   0.148   0.545  17.265  0.4119  2.1588  2.8042
 1438SOL    HW215777   0.257   0.614  17.189 -0.1706 -0.2179 -0.2244
 1439SOL     OW15778   1.679   1.678  17.683  0.6163 -0.0157 -0.4893
 1439SOL    HW115779   1.708   1.654   0.069  0.3226 -0.2051 -0.4414
 1439SOL    HW215780   1.654   1.771  17.688  0.1679 -0.3403  2.9248
 1440SOL     OW15781   2.796   1.814  14.719  0.3171  0.1763  0.4554
 1440SOL    HW115782   2.760   1.841  14.804 -0.8735  0.1029 -0.0185
 1440SOL    HW215783   2.838   1.893  14.684 -0.4311 -0.5104 -2.0134
 1441SOL     OW15784   2.453   4.686   2.277 -0.3716  0.6837 -0.1486
 1441SOL    HW115785   2.368   4.652   2.252  0.6619 -0.6705 -1.8304
 1441SOL    HW215786   2.486   4.614   2.330 -0.1908  0.0474 -1.1292
 1442SOL     OW15787   2.275   0.251   4.155 -0.5653  0.9063 -0.0613
 1442SOL    HW115788   2.332   0.266   4.230  0.1590 -0.1108 -0.4019
 1442SOL    HW215789   2.317   0.294   4.081  3.7661  0.7040  2.2806
 1443SOL     OW15790   0.492   4.042   7.595 -0.2513  0.1269  0.2214
 1443SOL    HW115791   0.425   4.072   7.656 -1.2992 -1.3853 -0.1718
 1443SOL    HW215792   0.490   4.110   7.529 -0.0237  0.4031  0.5003
 1444SOL     OW15793   3.228   0.523  11.389  0.0169 -0.0172 -0.1466
 1444SOL    HW115794   3.245   0.483  11.475 -1.8495  0.1951  0.3187
 1444SOL    HW215795   3.139   0.555  11.406 -0.3072 -1.0696  0.1616
 1445SOL     OW15796   3.810   0.502   8.079  0.8711  0.7429 -0.3349
 1445SOL    HW115797   3.844   0.519   8.167 -3.3526  0.4031  1.3887
 1445SOL    HW215798   3.819   0.584   8.030  1.5646  0.1516 -1.2026
 1446SOL     OW15799   1.483   1.422  12.292 -0.4163 -0.5514  0.3372
 1446SOL    HW115800   1.473   1.422  12.387  0.5392  0.6557  0.4374
 1446SOL    HW215801   1.577   1.442  12.293 -0.3735 -0.6833 -0.6366
 1447SOL     OW15802   4.683   4.486   8.583  0.2162 -0.3087 -0.3860
 1447SOL    HW115803   4.619   4.550   8.614 -0.5158 -1.8097  1.1762
 1447SOL    HW215804   4.682   4.424   8.656  0.2546 -1.6022 -1.4984
 1448SOL     OW15805   1.988   2.043   5.159  0.1365  0.4719 -0.6879
 1448SOL    HW115806   2.083   2.042   5.146  0.1419  0.1018 -0.6074
 1448SOL    HW215807   1.981   2.077   5.248  0.1600  1.5538 -1.0996
 1449SOL     OW15808   4.435   0.891   6.624  0.1856  0.2147 -0.0031
 1449SOL    HW115809   4.509   0.832   6.609 -0.7033 -0.7768 -0.5047
 1449SOL    HW215810   4.394   0.871   6.540 -0.6396  0.4451  0.3455
 1450SOL     OW15811   0.132   1.770  12.908  0.5262  0.2015  0.1589
 1450SOL    HW115812   0.097   1.856  12.887  0.5619  0.5438  1.4777
 1450SOL    HW215813   0.190   1.752  12.834 -0.4833  0.1497 -0.6076
 1451SOL     OW15814   1.718   2.645   1.199  0.8147 -0.0425 -0.3063
 1451SOL    HW115815   1.769   2.566   1.181 -0.1267 -0.6189 -0.4647
 1451SOL    HW215816   1.786   2.705   1.230  1.8694 -0.9715 -0.8148
 1452SOL     OW15817   2.292   0.611   8.196 -0.1326  0.0095  0.2637
 1452SOL    HW115818   2.262   0.593   8.285 -2.7655  2.3003 -0.1587
 1452SOL    HW215819   2.217   0.582   8.143 -1.1628  1.1038  1.1291
 1453SOL     OW15820   0.204   1.734   9.860 -0.3812 -0.3350 -0.2988
 1453SOL    HW115821   0.229   1.729   9.767  2.2850 -3.0329  0.5920
 1453SOL    HW215822   0.254   1.660   9.894  0.3756  0.1025 -0.4491
 1454SOL     OW15823   1.893   2.152   2.551 -0.1129 -0.1441 -0.2450
 1454SOL    HW115824   1.983   2.156   2.584  0.3812 -1.6058 -1.4239
 1454SOL    HW215825   1.892   2.228   2.494 -1.6616  1.4457  1.8747
 1455SOL     OW15826   0.135   1.566  15.317  0.1304  0.4697 -0.1671
 1455SOL    HW115827   0.081   1.538  15.243 -0.0495  1.9064 -0.5803
 1455SOL    HW215828   0.204   1.499  15.320 -0.5960 -0.3068 -0.6842
 1456SOL     OW15829   2.122   2.388  11.344  0.5857  0.7531 -0.1942
 1456SOL    HW115830   2.148   2.412  11.255 -1.9982 -0.3809 -1.2474
 1456SOL    HW215831   2.189   2.323  11.365 -0.6064 -0.4107 -0.0086
 1457SOL     OW15832   0.576   1.754  17.049 -0.0472 -0.3688  0.3374
 1457SOL    HW115833   0.532   1.686  17.099 -0.8417  0.1106  0.3039
 1457SOL    HW215834   0.662   1.714  17.036  0.3419  0.5980 -0.0671
 1458SOL     OW15835   1.556   3.583   9.715  0.4718  0.2331  0.5234
 1458SOL    HW115836   1.640   3.548   9.742 -0.0347 -2.4857 -1.4987
 1458SOL    HW215837   1.506   3.564   9.795 -1.7114  0.0182 -0.8820
 1459SOL     OW15838   2.197   0.380   6.394  0.0169 -0.3774  0.1258
 1459SOL    HW115839   2.215   0.467   6.359 -0.1065 -0.6147 -0.5248
 1459SOL    HW215840   2.246   0.373   6.476  1.7434  0.0125 -0.8712
 1460SOL     OW15841   2.145   2.677   2.272 -0.0228 -0.3247  0.5302
 1460SOL    HW115842   2.132   2.754   2.327  0.6029 -0.1354  0.4134
 1460SOL    HW215843   2.108   2.706   2.188  1.6523  0.0840 -0.0758
 1461SOL     OW15844   1.443   1.331   5.961  0.2472 -0.0423  0.4867
 1461SOL    HW115845   1.376   1.399   5.965 -1.2405 -1.3816 -1.5424
 1461SOL    HW215846   1.486   1.332   6.047 -2.0223 -1.2631  1.6417
 1462SOL     OW15847   2.481   4.257   5.636 -0.7631 -0.6576  0.1869
 1462SOL    HW115848   2.548   4.259   5.705 -2.2882 -0.8201  1.6919
 1462SOL    HW215849   2.467   4.163   5.625  0.5730 -0.6592 -1.2836
 1463SOL     OW15850   3.861   0.595  15.208  0.2971  0.4689  0.4064
 1463SOL    HW115851   3.843   0.541  15.285  1.4173  1.8134  1.6107
 1463SOL    HW215852   3.932   0.543  15.170 -0.3555  0.7141 -1.1395
 1464SOL     OW15853   4.076   1.982  14.285  0.2344  0.8888 -0.2806
 1464SOL    HW115854   3.994   1.935  14.303  0.5064 -0.1044 -1.6295
 1464SOL    HW215855   4.109   1.928  14.213 -1.7754 -2.1456  1.0899
 1465SOL     OW15856   0.823   3.102   8.519  0.2568 -0.3396  0.1001
 1465SOL    HW115857   0.866   3.169   8.466 -3.4135  2.2768  0.3883
 1465SOL    HW215858   0.889   3.033   8.521 -0.1382 -0.7302 -0.4491
 1466SOL     OW15859   2.283   4.416   1.221  0.0485 -0.2144 -0.0462
 1466SOL    HW115860   2.282   4.511   1.225  1.9528 -0.1837 -0.4855
 1466SOL    HW215861   2.243   4.409   1.134 -0.5701 -3.4722  0.4975
 1467SOL     OW15862   0.489   3.712   8.455  0.0542 -0.2269  0.0454
 1467SOL    HW115863   0.498   3.807   8.448  0.7195 -0.5355 -3.0120
 1467SOL    HW215864   0.397   3.708   8.430  0.6355 -1.5755 -1.8951
 1468SOL     OW15865   4.012   3.272   7.218  0.4329  0.5237  0.7223
 1468SOL    HW115866   3.999   3.200   7.279  1.4880 -0.0438  0.2745
 1468SOL    HW215867   4.063   3.338   7.264 -1.3347  1.8261  0.8313
 1469SOL     OW15868   1.264   4.330   2.495 -0.0838  0.3576 -0.0345
 1469SOL    HW115869   1.264   4.409   2.549  0.8112  1.3314 -1.4841
 1469SOL    HW215870   1.271   4.380   2.414 -0.5692 -0.1917 -0.4155
 1470SOL     OW15871   2.094   3.219  11.533 -0.5202  0.7212  0.9649
 1470SOL    HW115872   2.129   3.130  11.530 -0.2883  0.8880 -0.8183
 1470SOL    HW215873   2.059   3.226  11.445  1.5436  0.5513  0.1329
 1471SOL     OW15874   0.902   1.107   0.413  0.1316  0.4824 -0.2970
 1471SOL    HW115875   0.822   1.063   0.441 -1.4406  3.4098 -0.1267
 1471SOL    HW215876   0.955   1.031   0.388 -1.8451 -0.3276 -1.9793
 1472SOL     OW15877   1.615   4.009  10.580  0.1854 -0.2417 -1.1888
 1472SOL    HW115878   1.617   3.936  10.518  2.9439 -1.3903  0.2414
 1472SOL    HW215879   1.678   3.983  10.647 -1.7072 -0.6309  0.4121
 1473SOL     OW15880   1.631   3.826   3.609 -0.6660  1.0050 -0.1308
 1473SOL    HW115881   1.653   3.845   3.518 -0.6800  1.6289 -0.0014
 1473SOL    HW215882   1.537   3.814   3.595 -0.5317  1.2964 -1.2592
 1474SOL     OW15883   3.953   1.240   0.524 -0.3250 -0.1888  0.1181
 1474SOL    HW115884   3.861   1.263   0.517 -0.3835 -0.4222  0.1050
 1474SOL    HW215885   4.004   1.320   0.514  0.9281 -1.0945 -0.7933
 1475SOL     OW15886   0.280   3.975  15.376 -0.0507 -0.0713 -0.4816
 1475SOL    HW115887   0.338   3.902  15.396  0.5704  1.2193  2.4562
 1475SOL    HW215888   0.335   4.053  15.370 -0.7382  0.4383 -0.2456
 1476SOL     OW15889   3.688   2.788   4.864 -0.3186 -0.2873 -0.0594
 1476SOL    HW115890   3.782   2.790   4.883 -0.0947 -2.4056 -0.9973
 1476SOL    HW215891   3.686   2.875   4.824 -0.0108  0.4507  1.4914
 1477SOL     OW15892   2.252   4.440   4.626  0.0895 -0.1676  0.5074
 1477SOL    HW115893   2.170   4.428   4.675 -0.4947 -1.5069 -0.8197
 1477SOL    HW215894   2.243   4.362   4.573 -1.8854 -0.9233  1.9555
 1478SOL     OW15895   1.109   1.515   7.922  0.6084  0.4861  0.0710
 1478SOL    HW115896   1.111   1.504   8.016  2.9217  2.5340  0.2522
 1478SOL    HW215897   1.199   1.498   7.895 -0.9578 -2.6184 -3.1670
 1479SOL     OW15898   3.339   2.671   7.595 -0.0058 -0.4161  0.3605
 1479SOL    HW115899   3.378   2.758   7.604  0.7975 -0.6117 -1.1761
 1479SOL    HW215900   3.378   2.616   7.663  0.8174  1.7309  1.6130
 1480SOL     OW15901   4.407   0.519   6.424 -0.3884 -0.4581 -0.4059
 1480SOL    HW115902   4.396   0.491   6.333  0.5065  0.0670 -0.6797
 1480SOL    HW215903   4.338   0.475   6.474 -0.4851 -1.7774 -1.6868
 1481SOL     OW15904   4.670   4.664   3.545 -0.1269  0.2864  0.1856
 1481SOL    HW115905   4.584   4.681   3.585  0.0489  0.7833  0.3568
 1481SOL    HW215906   0.007   4.701   3.607 -0.3169 -0.1307  0.6230
 1482SOL     OW15907   0.903   3.260   4.904 -0.4114 -0.3543  0.4835
 1482SOL    HW115908   0.969   3.282   4.970 -1.8326  3.0511  0.7420
 1482SOL    HW215909   0.820   3.262   4.952 -0.5110  3.5526  0.0782
 1483SOL     OW15910   2.362   1.250  12.583  0.0537 -0.3737 -0.1309
 1483SOL    HW115911   2.345   1.304  12.506  1.1420  1.1763  0.7255
 1483SOL    HW215912   2.326   1.163  12.566 -2.3002  0.0491  2.6755
 1484SOL     OW15913   1.546   2.733  16.075 -0.0046  0.0793 -0.6989
 1484SOL    HW115914   1.472   2.683  16.042 -1.0657  2.3306 -1.7023
 1484SOL    HW215915   1.607   2.665  16.102 -0.9990  0.7256  3.1897
 1485SOL     OW15916   3.894   1.877   2.080  0.4975  0.1432 -0.1586
 1485SOL    HW115917   3.805   1.864   2.111  1.9451 -1.2693  3.4014
 1485SOL    HW215918   3.873   1.861   1.988  2.4105 -1.0061 -0.4094
 1486SOL     OW15919   3.539   1.016  17.210  0.4294  0.4055 -0.3135
 1486SOL    HW115920   3.581   0.950  17.154  0.4512 -0.0606  0.2492
 1486SOL    HW215921   3.482   1.061  17.149  0.5233 -1.1686 -1.5642
 1487SOL     OW15922   0.945   2.362  12.212 -0.4451 -0.4300  0.4013
 1487SOL    HW115923   0.993   2.295  12.165  0.9724  0.4690  0.5780
 1487SOL    HW215924   1.019   2.414  12.242 -0.6042 -0.1486  0.3131
 1488SOL     OW15925   0.895   4.263   8.418  0.8616 -0.6753 -0.3753
 1488SOL    HW115926   0.836   4.197   8.454  0.6142  0.5246  1.4432
 1488SOL    HW215927   0.900   4.248   8.324 -2.5120  0.1196 -0.6626
 1489SOL     OW15928   2.501   4.035  15.127  0.1506 -0.0350  0.6491
 1489SOL    HW115929   2.478   3.953  15.084  0.6058  0.3153 -0.2900
 1489SOL    HW215930   2.415   4.073  15.143 -0.2977 -0.7335 -0.0869
 1490SOL     OW15931   4.253   0.509   8.444 -1.0208 -0.0876 -0.4480
 1490SOL    HW115932   4.322   0.573   8.463 -0.6135 -0.2512 -1.3773
 1490SOL    HW215933   4.187   0.530   8.511  0.7426  1.9495  0.6499
 1491SOL     OW15934   4.313   0.858   4.462 -0.0638 -0.0937 -0.4967
 1491SOL    HW115935   4.315   0.906   4.545  2.6887 -0.5041 -0.3188
 1491SOL    HW215936   4.252   0.788   4.482  0.5983 -0.6894 -0.5511
 1492SOL     OW15937   4.220   0.963   3.506 -0.3142  0.6070 -0.4080
 1492SOL    HW115938   4.158   0.994   3.439 -2.1899 -1.8245  0.1965
 1492SOL    HW215939   4.263   1.043   3.535  0.8684  0.0732 -0.7028
 1493SOL     OW15940   4.097   4.152   6.660 -0.8968  0.1581 -0.0097
 1493SOL    HW115941   4.086   4.084   6.727 -0.2355  1.3810  1.3480
 1493SOL    HW215942   4.019   4.144   6.605 -0.9968 -3.0435  0.5712
 1494SOL     OW15943   1.216   3.882  14.001  0.1753  0.4492  0.0246
 1494SOL    HW115944   1.136   3.844  14.039 -0.8799  1.2878 -1.3683
 1494SOL    HW215945   1.222   3.966  14.046  2.2334  0.6439 -0.6477
 1495SOL     OW15946   3.742   3.681   4.309  0.0988 -0.0284  0.6949
 1495SOL    HW115947   3.776   3.749   4.250  0.3790 -0.3568  0.4742
 1495SOL    HW215948   3.802   3.609   4.290 -0.0236 -0.0875  0.5307
 1496SOL     OW15949   2.517   4.428   4.557 -0.1443  0.2575 -0.4600
 1496SOL    HW115950   2.559   4.504   4.597  0.0023 -0.4295  0.6825
 1496SOL    HW215951   2.423   4.433   4.572 -0.1804 -1.0553 -0.1959
 1497SOL     OW15952   2.291   4.377   2.622  0.0834 -0.3406 -0.5038
 1497SOL    HW115953   2.284   4.388   2.717  3.5887 -0.7924 -0.2002
 1497SOL    HW215954   2.201   4.402   2.599 -0.3324 -1.1826  0.1969
 1498SOL     OW15955   4.699   3.447   3.122 -0.8235  0.2350 -0.1954
 1498SOL    HW115956   4.609   3.443   3.155 -0.1382 -2.3367  1.3902
 1498SOL    HW215957   4.723   3.538   3.142 -0.4756  0.1804 -0.3645
 1499SOL     OW15958   2.372   2.902  11.042 -0.2554 -0.5346 -0.1712
 1499SOL    HW115959   2.359   2.808  11.028  2.4434 -1.0487  0.9238
 1499SOL    HW215960   2.431   2.909  11.117 -2.3552  0.9595  1.3760
 1500SOL     OW15961   3.319   0.065   5.390  0.0308  0.0149 -0.0629
 1500SOL    HW115962   3.249   0.037   5.449  0.0189 -1.2769 -0.6989
 1500SOL    HW215963   3.392   0.048   5.450 -0.6340  2.1514  1.3469
 1501SOL     OW15964   3.159   2.559   5.177  0.1831  0.2673  0.5154
 1501SOL    HW115965   3.165   2.516   5.263  0.4025 -1.4598 -0.3573
 1501SOL    HW215966   3.241   2.538   5.132 -0.7578 -1.9381 -0.1981
 1502SOL     OW15967   0.898   2.809   5.371  0.2863  0.3463 -0.1707
 1502SOL    HW115968   0.810   2.845   5.359 -0.4906 -1.1045  1.2184
 1502SOL    HW215969   0.933   2.800   5.282  1.4068 -0.1002  0.3257
 1503SOL     OW15970   1.485   0.064   6.626  0.3420 -0.4830  0.1105
 1503SOL    HW115971   1.421   0.087   6.693  0.9016 -0.9361  0.7974
 1503SOL    HW215972   1.541   0.011   6.683  1.1471  2.2394  1.8421
 1504SOL     OW15973   4.315   2.137  17.179  0.3838 -0.4601  0.3257
 1504SOL    HW115974   4.328   2.102  17.091 -0.1872 -0.3470  0.1953
 1504SOL    HW215975   4.400   2.176  17.197 -0.3773  1.6656 -0.8035
 1505SOL     OW15976   1.779   4.202  13.668 -0.1795 -0.4919 -0.4116
 1505SOL    HW115977   1.782   4.234  13.577 -0.6530 -1.5102 -0.7905
 1505SOL    HW215978   1.788   4.281  13.721  1.1650  0.6504 -2.3212
 1506SOL     OW15979   2.579   0.622  15.600  0.7666 -0.2749  0.1978
 1506SOL    HW115980   2.589   0.654  15.510 -3.1652  0.2563 -0.0328
 1506SOL    HW215981   2.632   0.689  15.644  0.0116  0.7900 -0.5168
 1507SOL     OW15982   0.098   3.551   7.720  0.4990  0.4013 -0.0462
 1507SOL    HW115983   0.150   3.583   7.793  0.4706 -1.9399  0.9862
 1507SOL    HW215984   0.075   3.466   7.757 -0.6850  0.2385 -1.1331
 1508SOL     OW15985   0.677   2.173   1.928 -0.0151 -0.0574 -0.0369
 1508SOL    HW115986   0.611   2.111   1.896  0.8232 -1.1144  0.3105
 1508SOL    HW215987   0.670   2.222   1.846  2.5468 -0.6406 -0.6010
 1509SOL     OW15988   4.613   3.204  10.219  0.4876  0.3867 -0.2954
 1509SOL    HW115989   4.581   3.291  10.195 -1.2964 -0.4765 -1.0625
 1509SOL    HW215990   4.539   3.168  10.269  1.2995 -1.8987 -0.7433
 1510SOL     OW15991   1.384   2.626   9.671  0.5000 -0.2108 -0.0031
 1510SOL    HW115992   1.473   2.591   9.674  0.8832  0.5472 -2.7233
 1510SOL    HW215993   1.337   2.572   9.734  0.1875  0.2691  0.1679
 1511SOL     OW15994   4.147   3.747   7.889  0.2857 -0.3617  0.2307
 1511SOL    HW115995   4.110   3.659   7.894 -2.7709  1.0059  1.6274
 1511SOL    HW215996   4.238   3.724   7.871 -0.0560 -2.1203  0.6867
 1512SOL     OW15997   3.947   2.801   8.423 -0.0309  0.1544 -0.0054
 1512SOL    HW115998   3.969   2.845   8.341 -2.7654  1.7736  0.1399
 1512SOL    HW215999   3.856   2.774   8.413  0.2412 -0.2346 -1.4319
 1513SOL     OW16000   2.634   0.769   7.497  0.0140  0.3195  0.2054
 1513SOL    HW116001   2.562   0.728   7.450  1.4273 -2.0364  0.1061
 1513SOL    HW216002   2.579   0.812   7.563 -2.2486  1.5558 -2.5182
 1514SOL     OW16003   2.552   3.679   5.300  0.6946  0.1279  0.2049
 1514SOL    HW116004   2.613   3.608   5.318  1.1778  0.3168 -0.6673
 1514SOL    HW216005   2.547   3.720   5.386 -0.6259 -3.8361  2.0171
 1515SOL     OW16006   0.578   2.453   7.746 -0.3471 -0.1364  0.2123
 1515SOL    HW116007   0.672   2.439   7.747  0.0296  2.5768  2.9953
 1515SOL    HW216008   0.562   2.535   7.701 -1.0706  0.2387  1.1494
 1516SOL     OW16009   1.954   4.551   2.123 -0.9220 -0.4490 -0.1134
 1516SOL    HW116010   1.863   4.572   2.146 -0.8881  0.3817 -0.7123
 1516SOL    HW216011   1.947   4.457   2.108  0.7763 -0.6718  0.4991
 1517SOL     OW16012   3.775   0.211   3.603 -0.5945 -0.0343  0.0883
 1517SOL    HW116013   3.788   0.302   3.629  1.7808  0.3645 -2.5962
 1517SOL    HW216014   3.690   0.182   3.639 -2.1965  2.2971 -1.8495
 1518SOL     OW16015   2.614   2.690   5.265 -0.2708 -0.5503  0.4473
 1518SOL    HW116016   2.618   2.674   5.170 -1.0898  0.8956  0.1640
 1518SOL    HW216017   2.637   2.782   5.276 -2.2692  0.3127 -2.6009
 1519SOL     OW16018   3.276   1.832   1.816  0.0354  0.2656  0.0406
 1519SOL    HW116019   3.208   1.880   1.768 -2.7513 -1.2542  2.4580
 1519SOL    HW216020   3.222   1.784   1.879  1.9449 -1.6407  0.2048
 1520SOL     OW16021   2.131   3.711  13.717 -0.1485  0.3734  0.0791
 1520SOL    HW116022   2.080   3.788  13.744  0.3394  0.3630  1.0493
 1520SOL    HW216023   2.069   3.663  13.663 -1.6165  1.7026  0.5754
 1521SOL     OW16024   3.681   0.803  17.064 -0.5979 -0.4085  0.2968
 1521SOL    HW116025   3.678   0.840  16.976  0.6523  0.4181  0.5973
 1521SOL    HW216026   3.690   0.708  17.050 -0.4972 -0.5166  1.1313
 1522SOL     OW16027   3.607   0.778   2.421  0.9042 -1.0051  0.0979
 1522SOL    HW116028   3.575   0.704   2.369 -1.8236 -0.7818  1.4476
 1522SOL    HW216029   3.702   0.782   2.413  0.5514 -0.4588 -3.8538
 1523SOL     OW16030   2.757   1.976   3.855  0.2941 -0.4995 -0.2335
 1523SOL    HW116031   2.849   1.958   3.877  0.4553 -0.9633 -1.2580
 1523SOL    HW216032   2.758   1.947   3.764  1.0301 -2.9419  0.5430
 1524SOL     OW16033   0.695   2.044   8.533 -0.2770  0.1856  1.1411
 1524SOL    HW116034   0.742   2.045   8.616  1.8235 -1.6934 -0.0231
 1524SOL    HW216035   0.762   2.071   8.471  1.0334 -1.4100  1.8599
 1525SOL     OW16036   3.033   4.342   9.193 -0.7832 -0.5742 -0.5215
 1525SOL    HW116037   3.028   4.296   9.277 -0.1736  1.8268  0.8204
 1525SOL    HW216038   3.031   4.428   9.233  1.9910  0.1475 -1.9330
 1526SOL     OW16039   0.496   2.776   4.613 -0.1174  0.1122  0.8608
 1526SOL    HW116040   0.516   2.808   4.525 -1.8252 -0.4385  0.2633
 1526SOL    HW216041   0.404   2.801   4.620 -1.1455 -3.2678 -0.5495
 1527SOL     OW16042   1.249   2.936   9.193 -0.2575  0.2782 -0.2445
 1527SOL    HW116043   1.197   2.899   9.121 -1.0052 -2.0500  1.5032
 1527SOL    HW216044   1.193   3.007   9.225 -0.9374  0.5511 -2.0224
 1528SOL     OW16045   3.821   0.832   9.057 -0.2037 -0.3170 -0.2706
 1528SOL    HW116046   3.826   0.778   9.136  0.8580 -0.3988 -0.3908
 1528SOL    HW216047   3.838   0.918   9.095  0.3236  0.6959 -2.7931
 1529SOL     OW16048   3.348   3.763   3.629  0.2913  0.0969 -0.1136
 1529SOL    HW116049   3.320   3.675   3.603  0.2104  0.4772 -1.3275
 1529SOL    HW216050   3.365   3.793   3.539 -1.5788 -0.8814 -0.7949
 1530SOL     OW16051   1.947   3.483   2.384 -0.0412 -0.8821 -0.1831
 1530SOL    HW116052   2.028   3.508   2.339  0.1654 -1.0874  0.0752
 1530SOL    HW216053   1.887   3.548   2.346  1.5963 -0.7201 -2.5338
 1531SOL     OW16054   4.470   4.485  13.076  0.0536  0.8317 -0.2128
 1531SOL    HW116055   4.561   4.514  13.086 -0.1206  1.5839 -0.7913
 1531SOL    HW216056   4.477   4.430  12.998 -0.7987 -0.6843  0.7862
 1532SOL     OW16057   3.488   2.464   1.990 -0.1859 -0.3792  0.1686
 1532SOL    HW116058   3.504   2.485   1.898 -1.5965 -0.9103 -0.1920
 1532SOL    HW216059   3.573   2.479   2.031  0.4743  0.1098 -1.3873
 1533SOL     OW16060   0.377   1.569   9.116  0.1582 -0.1530 -0.1475
 1533SOL    HW116061   0.404   1.512   9.043 -1.3578 -0.1025 -0.7454
 1533SOL    HW216062   0.330   1.503   9.167  0.9386 -1.6467 -1.3423
 1534SOL     OW16063   3.836   1.752   3.717  0.1821  0.2100  0.4158
 1534SOL    HW116064   3.785   1.676   3.744  0.9144  0.2404  1.8714
 1534SOL    HW216065   3.771   1.820   3.731 -0.0343  0.3331 -1.1679
 1535SOL     OW16066   2.617   2.489   4.441  0.2505  0.2079  0.1897
 1535SOL    HW116067   2.695   2.534   4.474 -1.3316  2.1619  1.2991
 1535SOL    HW216068   2.597   2.541   4.363 -0.1723 -1.9455 -1.1135
 1536SOL     OW16069   0.023   1.925   7.429  0.0494  0.2517 -0.6003
 1536SOL    HW116070   0.034   1.865   7.503 -2.4226  0.1480 -0.3147
 1536SOL    HW216071   0.095   1.985   7.447  0.9006 -0.9043 -0.1895
 1537SOL     OW16072   2.958   4.060  10.104  0.5056  0.2216  0.6274
 1537SOL    HW116073   2.892   4.039  10.170 -0.9730  0.0850 -0.9000
 1537SOL    HW216074   3.030   4.091  10.160 -0.0792  1.8868  0.4548
 1538SOL     OW16075   3.941   2.113  11.490 -0.6258 -0.3779 -0.2667
 1538SOL    HW116076   3.889   2.041  11.525  0.8032 -1.0218  0.5039
 1538SOL    HW216077   3.877   2.180  11.465 -1.2587 -0.8385  0.1329
 1539SOL     OW16078   0.184   0.036   3.797 -0.8914  0.0240 -0.4408
 1539SOL    HW116079   0.183   0.130   3.815  0.8436 -0.3021  1.4419
 1539SOL    HW216080   0.105   0.012   3.844 -0.1857 -2.7452 -0.6891
 1540SOL     OW16081   3.084   2.287   6.688  0.0786 -0.2037  0.1731
 1540SOL    HW116082   3.013   2.253   6.633 -0.5855  1.3717  0.0592
 1540SOL    HW216083   3.119   2.212   6.736  2.6212 -1.4956 -3.7092
 1541SOL     OW16084   4.351   1.753   1.700 -0.3219  0.5930  0.2266
 1541SOL    HW116085   4.305   1.739   1.783 -0.7535 -1.4952 -0.3738
 1541SOL    HW216086   4.427   1.695   1.705  1.2156  2.4999 -1.1429
 1542SOL     OW16087   3.717   3.120  10.264  0.1289  0.2333  0.1913
 1542SOL    HW116088   3.656   3.193  10.262 -0.9322 -0.6811 -1.3200
 1542SOL    HW216089   3.800   3.163  10.285  0.8519  0.8249 -3.7986
 1543SOL     OW16090   2.362   2.840   8.374  0.4450  0.0561  0.4896
 1543SOL    HW116091   2.417   2.918   8.367  1.4096 -0.5157  1.7583
 1543SOL    HW216092   2.433   2.776   8.362  0.4659 -0.1219  1.6096
 1544SOL     OW16093   0.369   3.104  16.462  0.1626  0.1764  0.3124
 1544SOL    HW116094   0.281   3.075  16.488  0.1812  0.5319  0.7783
 1544SOL    HW216095   0.415   3.082  16.543 -1.4540 -0.4038  1.0779
 1545SOL     OW16096   1.542   4.252   5.520  0.1511  0.9462  0.2105
 1545SOL    HW116097   1.561   4.346   5.519  1.2795  0.7015 -1.5255
 1545SOL    HW216098   1.611   4.228   5.582 -1.6359 -1.4718  1.2474
 1546SOL     OW16099   3.404   1.960   3.447  0.1608 -0.0832 -0.5728
 1546SOL    HW116100   3.469   1.890   3.458 -0.7610 -0.9819 -0.8299
 1546SOL    HW216101   3.401   1.970   3.352  0.2980 -0.0281 -0.5710
 1547SOL     OW16102   2.099   0.591   2.158 -0.3309  0.0831  0.4218
 1547SOL    HW116103   2.022   0.648   2.153 -0.5734 -0.0999  2.1282
 1547SOL    HW216104   2.060   0.503   2.151 -0.3674  0.0777  0.7054
 1548SOL     OW16105   3.811   4.134  11.919 -0.0565 -0.1190  0.5298
 1548SOL    HW116106   3.722   4.149  11.887 -0.0568  0.8000  0.9550
 1548SOL    HW216107   3.835   4.072  11.850 -2.4057 -0.5281  0.0827
 1549SOL     OW16108   1.472   3.798   3.101  0.1590 -0.5822 -0.5904
 1549SOL    HW116109   1.538   3.731   3.119  0.5967 -0.5670 -2.1179
 1549SOL    HW216110   1.431   3.780   3.016 -0.4775 -0.4273 -0.3114
 1550SOL     OW16111   0.680   0.408  12.008 -0.3025 -0.3218 -0.6198
 1550SOL    HW116112   0.686   0.431  12.101  1.0824 -0.9530 -0.5523
 1550SOL    HW216113   0.588   0.428  11.993 -0.0985  0.2972 -1.0384
 1551SOL     OW16114   0.300   3.172   8.665 -0.0754  0.0378  0.1136
 1551SOL    HW116115   0.277   3.135   8.750  2.3261 -1.1338  0.2651
 1551SOL    HW216116   0.372   3.225   8.700  0.0149 -0.4578  0.6927
 1552SOL     OW16117   3.455   0.160   4.753 -0.0750 -0.2476  0.0821
 1552SOL    HW116118   3.439   0.253   4.739  2.6333 -0.1354 -2.2506
 1552SOL    HW216119   3.533   0.180   4.804  0.0777 -0.3876 -0.0931
 1553SOL     OW16120   4.597   3.356  13.486  0.3726  0.9196  0.4165
 1553SOL    HW116121   4.540   3.358  13.563 -0.3402  1.6851 -0.1291
 1553SOL    HW216122   4.594   3.447  13.457 -1.1013  0.3194 -1.3043
 1554SOL     OW16123   3.882   0.490   1.763 -0.4212  0.4417  0.1700
 1554SOL    HW116124   3.859   0.511   1.672 -0.6395 -0.9761 -0.1044
 1554SOL    HW216125   3.956   0.432   1.749 -2.3111 -1.6787 -1.0405
 1555SOL     OW16126   4.541   1.000   3.348  0.2651 -0.0981  0.2323
 1555SOL    HW116127   4.514   0.909   3.351 -0.0771  0.0498  1.6908
 1555SOL    HW216128   4.489   1.048   3.412 -1.1363 -0.9900 -0.2601
 1556SOL     OW16129   1.604   3.232   3.848 -0.4645 -0.0447  0.2994
 1556SOL    HW116130   1.609   3.294   3.776 -0.0287 -2.6147 -1.8977
 1556SOL    HW216131   1.509   3.228   3.861 -0.6362 -1.7266 -1.5136
 1557SOL     OW16132   1.322   2.983   6.249 -0.0068 -0.1397 -0.1274
 1557SOL    HW116133   1.365   2.946   6.171 -1.7696 -1.7304 -0.3208
 1557SOL    HW216134   1.233   2.957   6.227 -0.4206 -1.0552  2.7277
 1558SOL     OW16135   1.470   1.160  14.098  0.1800 -0.1047  0.2678
 1558SOL    HW116136   1.443   1.239  14.144  0.5253  0.2452 -0.1222
 1558SOL    HW216137   1.462   1.187  14.006 -0.5563 -1.1544  0.0260
 1559SOL     OW16138   0.462   1.424   4.143 -0.3290 -0.5565 -0.3812
 1559SOL    HW116139   0.389   1.374   4.179  0.9078 -0.8696  1.6830
 1559SOL    HW216140   0.525   1.352   4.147  2.5421  2.0787  2.2489
 1560SOL     OW16141   1.684   2.700   6.256 -0.7102  0.0673 -0.4339
 1560SOL    HW116142   1.654   2.711   6.346 -0.7749  0.1906 -0.4713
 1560SOL    HW216143   1.629   2.631   6.220 -1.0421  1.3282 -2.3440
 1561SOL     OW16144   0.988   3.251   1.954 -0.1185 -0.4952 -0.0800
 1561SOL    HW116145   0.915   3.190   1.967 -0.1993 -0.1779  0.9681
 1561SOL    HW216146   1.065   3.215   1.999 -1.5604  2.3103  4.5255
 1562SOL     OW16147   2.486   3.479   1.754  0.2693 -0.0101 -0.3033
 1562SOL    HW116148   2.503   3.385   1.760  1.4667  0.1569 -0.9444
 1562SOL    HW216149   2.545   3.507   1.684  1.6838  0.7041  1.1726
 1563SOL     OW16150   2.179   3.439  15.472 -0.7251  0.0483  0.2545
 1563SOL    HW116151   2.220   3.437  15.558 -0.1024 -0.4192 -0.0541
 1563SOL    HW216152   2.201   3.353  15.435 -0.9437 -1.8475  4.5077
 1564SOL     OW16153   1.030   4.053   3.173  0.2373  0.6950  0.2183
 1564SOL    HW116154   1.052   4.144   3.197  0.2468  0.5381  0.8005
 1564SOL    HW216155   1.096   3.998   3.216  2.1013  1.6473 -1.4132
 1565SOL     OW16156   0.633   0.513   5.343  0.2893  0.2452 -0.0162
 1565SOL    HW116157   0.571   0.585   5.331  0.9086  0.4970 -1.7995
 1565SOL    HW216158   0.710   0.558   5.378  0.4556  1.1464 -1.5150
 1566SOL     OW16159   0.536   2.356   8.517 -0.0048 -0.4902 -0.2498
 1566SOL    HW116160   0.571   2.281   8.468  2.7341 -0.7757  2.0978
 1566SOL    HW216161   0.543   2.322   8.606  0.4897 -2.5817 -1.0761
 1567SOL     OW16162   3.844   1.094   8.852 -0.4846  0.1548  0.0462
 1567SOL    HW116163   3.865   1.180   8.888 -1.7134  1.0052 -1.2676
 1567SOL    HW216164   3.874   1.027   8.914 -0.1688  0.3604  0.1112
 1568SOL     OW16165   2.794   0.986   6.963  0.4669 -0.2558  0.0198
 1568SOL    HW116166   2.860   0.948   6.906 -1.2055 -0.3227 -1.8760
 1568SOL    HW216167   2.791   1.078   6.936  0.8331  0.0026  0.8543
 1569SOL     OW16168   2.859   0.249   1.498 -0.0904  0.0362 -0.1128
 1569SOL    HW116169   2.883   0.221   1.587  0.1721  0.8219  0.0589
 1569SOL    HW216170   2.881   0.342   1.503  0.0310 -0.1611  3.3682
 1570SOL     OW16171   3.748   4.204   3.544 -0.4391  0.2962 -0.6678
 1570SOL    HW116172   3.841   4.181   3.546 -0.5954 -0.4175 -1.4790
 1570SOL    HW216173   3.739   4.244   3.630  0.1231 -0.2330 -0.3627
 1571SOL     OW16174   2.310   1.895  11.807 -0.1192 -0.0620  0.2936
 1571SOL    HW116175   2.345   1.975  11.846  0.4435 -0.1220 -0.0912
 1571SOL    HW216176   2.355   1.881  11.723 -0.5293  1.4164 -0.1857
 1572SOL     OW16177   2.195   0.591   7.255 -0.5874  0.1455  0.5408
 1572SOL    HW116178   2.128   0.524   7.261  1.1576 -1.8492 -2.3693
 1572SOL    HW216179   2.203   0.597   7.160  1.0332  1.6150  0.7636
 1573SOL     OW16180   1.627   2.834   8.225  0.0833 -0.2696 -0.3998
 1573SOL    HW116181   1.681   2.799   8.154 -1.1939 -1.3041 -0.8883
 1573SOL    HW216182   1.687   2.834   8.299  0.5725 -0.5991 -0.7983
 1574SOL     OW16183   2.901   1.343   4.790  0.5338  0.2219 -0.0062
 1574SOL    HW116184   2.812   1.342   4.754  0.0524 -0.7806  1.2320
 1574SOL    HW216185   2.883   1.289   4.867 -3.3831  3.3251  1.2430
 1575SOL     OW16186   2.901   2.553   4.501  0.1794 -0.8051  0.6621
 1575SOL    HW116187   2.944   2.470   4.483  1.0913 -0.1488 -0.1712
 1575SOL    HW216188   2.929   2.600   4.423  1.7955  0.5017  2.0082
 1576SOL     OW16189   4.060   2.572   6.600 -0.2419 -0.2488  0.0330
 1576SOL    HW116190   4.106   2.643   6.644  1.8356 -0.2892 -2.1172
 1576SOL    HW216191   3.971   2.606   6.589 -0.0220  0.1819 -0.3982
 1577SOL     OW16192   1.229   2.072   0.379 -0.2498  0.5836  0.2836
 1577SOL    HW116193   1.157   2.135   0.386  0.2360  0.9990  1.4801
 1577SOL    HW216194   1.271   2.086   0.464  0.3764  0.8527 -0.0645
 1578SOL     OW16195   0.610   3.834   7.085 -0.2727  0.9722 -0.3643
 1578SOL    HW116196   0.682   3.795   7.036 -1.7285 -0.7700 -1.1209
 1578SOL    HW216197   0.618   3.797   7.173 -0.4667  0.3424 -0.6120
 1579SOL     OW16198   1.207   3.044   5.898 -0.2670  0.7262 -0.2392
 1579SOL    HW116199   1.286   3.097   5.905 -0.3003  0.6515  0.6943
 1579SOL    HW216200   1.148   3.107   5.856  0.6788  1.9550  0.3043
 1580SOL     OW16201   2.263   3.034  11.298 -0.3071  0.3538 -0.0115
 1580SOL    HW116202   2.212   2.954  11.316 -0.2161 -0.0113 -1.3770
 1580SOL    HW216203   2.298   3.054  11.385  1.7749 -1.6068 -0.3853
 1581SOL     OW16204   3.273   3.322  10.988  0.1617 -0.4195 -0.3778
 1581SOL    HW116205   3.273   3.385  11.060  1.0906 -0.4526 -0.3463
 1581SOL    HW216206   3.184   3.292  11.003  0.3321  0.6488  2.6993
 1582SOL     OW16207   1.288   3.993   3.517  0.1940 -0.5023  0.3102
 1582SOL    HW116208   1.198   3.962   3.510  0.5379 -1.2681 -0.7193
 1582SOL    HW216209   1.331   3.915   3.552 -0.1577  0.5578  3.0633
 1583SOL     OW16210   3.999   4.490   2.707  0.1643 -0.2658 -0.0472
 1583SOL    HW116211   3.989   4.570   2.655  0.0752  0.2302  0.7303
 1583SOL    HW216212   3.992   4.425   2.637  0.2973  0.4661 -0.7501
 1584SOL     OW16213   2.034   2.408  11.628 -0.0618  0.3542  0.4285
 1584SOL    HW116214   2.099   2.339  11.643 -0.8355 -0.7750 -1.4469
 1584SOL    HW216215   2.059   2.428  11.538  0.4322  3.3416  1.2448
 1585SOL     OW16216   3.534   2.502   8.748 -0.0622 -0.4934  0.2864
 1585SOL    HW116217   3.489   2.451   8.815  0.2986  0.7127  1.4326
 1585SOL    HW216218   3.520   2.590   8.782 -1.6133  0.7359 -3.5067
 1586SOL     OW16219   2.816   2.861   2.836  0.3144  0.4448  0.0624
 1586SOL    HW116220   2.747   2.830   2.777  0.7244 -1.3933  0.5467
 1586SOL    HW216221   2.873   2.784   2.837  1.2703  1.1599 -0.7404
 1587SOL     OW16222   3.002   4.141   5.258  0.1023  0.2846  0.5664
 1587SOL    HW116223   3.022   4.155   5.165  0.2185 -0.2970  0.4990
 1587SOL    HW216224   3.053   4.218   5.284 -1.0097  0.8537  1.0375
 1588SOL     OW16225   2.341   3.896  10.749 -0.1980 -0.0786 -0.1043
 1588SOL    HW116226   2.424   3.849  10.762 -0.6495 -0.9848 -0.4753
 1588SOL    HW216227   2.361   3.978  10.705  0.9826 -0.8124 -0.9505
 1589SOL     OW16228   4.234   2.290   7.512  0.3227 -0.5048 -0.2902
 1589SOL    HW116229   4.224   2.315   7.419 -0.5521  1.0364  0.2115
 1589SOL    HW216230   4.224   2.195   7.505  2.7037 -0.8138  0.6281
 1590SOL     OW16231   3.606   1.877   5.733  0.2191 -0.0036 -0.6663
 1590SOL    HW116232   3.616   1.833   5.649  0.7020 -2.3474  0.6237
 1590SOL    HW216233   3.518   1.848   5.758  0.6661 -1.2784 -0.5861
 1591SOL     OW16234   4.650   2.981  13.100 -0.5499 -0.3058 -0.4063
 1591SOL    HW116235   4.639   2.914  13.168 -4.0048 -1.0161 -1.6807
 1591SOL    HW216236   4.708   3.046  13.139 -0.5810 -0.1547 -0.6154
 1592SOL     OW16237   4.007   0.222   4.677  0.1525  0.4059  0.4138
 1592SOL    HW116238   3.946   0.287   4.711 -0.8781 -0.7339  0.7704
 1592SOL    HW216239   4.014   0.161   4.750 -1.5444  1.3762  1.3691
 1593SOL     OW16240   0.026   1.525   1.069  0.0026 -0.0612 -0.4407
 1593SOL    HW116241   0.109   1.500   1.110 -0.2467  2.9820  1.9343
 1593SOL    HW216242   0.018   1.617   1.095  2.1333 -0.5770  2.0744
 1594SOL     OW16243   4.098   3.695  17.079 -0.0950 -0.2920  0.0031
 1594SOL    HW116244   4.192   3.695  17.098  0.0648 -2.2857 -0.7712
 1594SOL    HW216245   4.046   3.652  17.146 -1.2402  0.0192 -0.6952
 1595SOL     OW16246   1.561   2.167   3.193 -0.4420 -0.1575 -0.8533
 1595SOL    HW116247   1.641   2.193   3.148  0.4265 -0.4329  0.5364
 1595SOL    HW216248   1.596   2.175   3.282 -1.7529 -0.1228 -0.3440
 1596SOL     OW16249   0.684   2.885   9.438  0.4138  0.4415 -0.3785
 1596SOL    HW116250   0.632   2.866   9.360 -0.2070 -2.6825  0.8015
 1596SOL    HW216251   0.665   2.979   9.444 -1.2358  0.1961 -1.6578
 1597SOL     OW16252   0.580   0.932   7.420 -0.4002 -0.3435 -0.0525
 1597SOL    HW116253   0.517   0.883   7.366  0.5965 -1.9333  0.2310
 1597SOL    HW216254   0.539   0.911   7.504 -0.3692 -1.5046 -0.3165
 1598SOL     OW16255   1.525   3.106   4.911  0.0874  0.5636 -0.5121
 1598SOL    HW116256   1.536   3.055   4.831 -0.7805 -0.5448  0.0778
 1598SOL    HW216257   1.613   3.142   4.925 -0.2476  1.5000 -0.8650
 1599SOL     OW16258   2.494   3.316   8.747 -0.0894  0.3607  0.0871
 1599SOL    HW116259   2.515   3.351   8.834 -3.9485 -1.1847  1.6355
 1599SOL    HW216260   2.580   3.278   8.730 -0.0010  0.7481 -0.3086
 1600SOL     OW16261   3.356   3.759  12.466 -0.2053 -0.3206  0.0440
 1600SOL    HW116262   3.288   3.803  12.414  0.1102 -1.2182 -1.1212
 1600SOL    HW216263   3.315   3.749  12.552 -1.5848  0.4448 -0.5184
 1601SOL     OW16264   2.318   4.694  16.314  0.2466 -0.1681  0.3626
 1601SOL    HW116265   2.289   4.606  16.289  0.7819  0.1027 -1.2197
 1601SOL    HW216266   2.365   0.002  16.237  0.2772  1.5778  1.1255
 1602SOL     OW16267   0.799   0.877  13.887  0.1420  0.0207 -0.0900
 1602SOL    HW116268   0.799   0.805  13.950 -4.4155  1.1084  1.1832
 1602SOL    HW216269   0.707   0.903  13.880  0.0705 -0.1048  0.3678
 1603SOL     OW16270   0.606   3.227  15.296 -0.1239  0.3130 -0.0103
 1603SOL    HW116271   0.590   3.170  15.221 -1.2335  0.2716  0.2543
 1603SOL    HW216272   0.701   3.232  15.298 -0.0571 -0.8044 -0.2109
 1604SOL     OW16273   1.232   2.969   0.592  0.0255 -0.1103 -0.1644
 1604SOL    HW116274   1.249   2.948   0.500 -0.5459 -3.1790  0.4061
 1604SOL    HW216275   1.209   3.061   0.583  0.7062  0.1247  0.5101
 1605SOL     OW16276   3.793   0.479   3.699 -0.0843 -0.2749  0.0059
 1605SOL    HW116277   3.737   0.495   3.624 -0.5200 -2.4156 -0.1419
 1605SOL    HW216278   3.766   0.544   3.763  0.1554 -1.1171  0.9612
 1606SOL     OW16279   2.218   3.929  11.205 -0.2916 -0.1346 -0.1096
 1606SOL    HW116280   2.313   3.938  11.206 -0.4717  1.6555  0.2443
 1606SOL    HW216281   2.185   3.944  11.116 -0.3926  0.0561 -0.0389
 1607SOL     OW16282   4.341   2.070   3.935 -0.3696 -0.3402 -0.1742
 1607SOL    HW116283   4.434   2.085   3.949 -0.4832 -0.6545  0.9192
 1607SOL    HW216284   4.335   1.975   3.926 -0.7868 -0.5198  1.9016
 1608SOL     OW16285   2.134   3.759   9.954  0.1845  0.4594 -0.1137
 1608SOL    HW116286   2.132   3.664   9.948 -0.8111  0.3924  1.3177
 1608SOL    HW216287   2.200   3.773  10.022  0.7307  1.2704 -0.8074
 1609SOL     OW16288   1.512   3.057   5.521  0.3026  0.3027 -0.7138
 1609SOL    HW116289   1.602   3.047   5.488  0.7587  1.8953  0.0359
 1609SOL    HW216290   1.514   3.131   5.583 -0.6599  0.1272 -0.4827
 1610SOL     OW16291   2.427   0.115  15.809 -0.0591 -0.2338  0.7506
 1610SOL    HW116292   2.421   0.179  15.738 -2.3061 -1.5014 -0.2223
 1610SOL    HW216293   2.512   0.077  15.785  0.0221  1.1219 -1.1292
 1611SOL     OW16294   3.346   4.123   3.342 -0.2804 -0.3115  0.0980
 1611SOL    HW116295   3.270   4.178   3.323  1.9925  2.3923 -1.1596
 1611SOL    HW216296   3.403   4.158   3.274 -0.9520 -1.6206 -1.1476
 1612SOL     OW16297   3.307   3.164  13.573 -0.2038 -0.0396 -0.2459
 1612SOL    HW116298   3.322   3.236  13.512 -1.4564 -0.0613 -0.5875
 1612SOL    HW216299   3.301   3.207  13.658 -1.5654 -1.2144  0.2455
 1613SOL     OW16300   4.633   4.034   8.059 -0.0214 -0.3532  0.0121
 1613SOL    HW116301   4.666   3.960   8.111 -1.5231 -0.7263  0.4584
 1613SOL    HW216302   4.678   4.022   7.976  0.2732  0.4074  0.0680
 1614SOL     OW16303   0.994   2.639  14.663  0.6002 -0.0985 -0.4708
 1614SOL    HW116304   1.032   2.564  14.617  1.6821  1.0316 -1.4259
 1614SOL    HW216305   1.041   2.714  14.627 -1.2355  0.6834 -1.2084
 1615SOL     OW16306   0.420   3.522   5.434 -0.3618 -0.1096 -0.5506
 1615SOL    HW116307   0.459   3.471   5.505  1.4412  1.0828 -0.6852
 1615SOL    HW216308   0.329   3.490   5.436  0.0540 -1.1441  1.8721
 1616SOL     OW16309   2.597   4.625   4.752  0.9758  0.4496  0.0789
 1616SOL    HW116310   2.583   4.550   4.809  0.3602  1.2225  0.9531
 1616SOL    HW216311   2.689   4.607   4.733  0.6310 -1.5956  0.4141
 1617SOL     OW16312   3.521   1.101   1.923 -0.0169 -0.5499  0.0290
 1617SOL    HW116313   3.499   1.027   1.866 -0.8193 -0.8243  0.6833
 1617SOL    HW216314   3.579   1.052   1.981  0.0287 -0.9878 -0.3823
 1618SOL     OW16315   0.290   3.384   4.654  0.0504 -0.3079  0.5494
 1618SOL    HW116316   0.279   3.392   4.559  0.5577 -1.7422  0.3690
 1618SOL    HW216317   0.342   3.462   4.673  0.7584  0.0667 -2.9295
 1619SOL     OW16318   2.493   3.970  11.229 -0.5556  0.1416 -0.0336
 1619SOL    HW116319   2.514   4.063  11.234 -0.2605  0.0788 -0.1402
 1619SOL    HW216320   2.526   3.940  11.313 -1.3707 -1.8239 -0.3857
 1620SOL     OW16321   0.546   0.358   3.870 -0.2999 -0.4715  0.0644
 1620SOL    HW116322   0.601   0.409   3.930 -0.3469  2.0980 -2.0693
 1620SOL    HW216323   0.524   0.287   3.929  2.3054  0.2252  1.8967
 1621SOL     OW16324   2.161   0.056  12.320  0.1656 -0.1174 -0.5402
 1621SOL    HW116325   2.208   0.133  12.290  0.1346  0.1866  0.2052
 1621SOL    HW216326   2.085   0.103  12.356  1.1952 -0.3693  1.9688
 1622SOL     OW16327   3.994   1.506   7.425 -0.4771 -0.1207  0.7746
 1622SOL    HW116328   4.079   1.466   7.407 -0.0933  0.5942  0.9859
 1622SOL    HW216329   3.987   1.567   7.352 -0.7342  0.0576  0.9482
 1623SOL     OW16330   1.249   0.789  13.561 -0.6819  0.0711 -0.9117
 1623SOL    HW116331   1.252   0.775  13.466 -1.5216  0.2528 -0.9593
 1623SOL    HW216332   1.155   0.788  13.577 -0.6209 -0.0565 -0.5520
 1624SOL     OW16333   0.789   0.401   1.543 -0.2529  0.4458 -0.6703
 1624SOL    HW116334   0.741   0.339   1.487  0.2073 -0.6441  0.1465
 1624SOL    HW216335   0.842   0.347   1.601 -1.4929 -0.4672 -0.3714
 1625SOL     OW16336   4.476   4.111  10.575 -0.2270  1.0678  0.1352
 1625SOL    HW116337   4.550   4.146  10.624  0.5026  2.5248 -2.0157
 1625SOL    HW216338   4.405   4.121  10.638 -1.4619  0.7378 -1.1824
 1626SOL     OW16339   0.042   2.081   8.871  0.7758  0.1851  0.3966
 1626SOL    HW116340   0.002   2.007   8.916 -0.2242  0.1861 -0.4910
 1626SOL    HW216341   0.077   2.035   8.795  0.0219 -1.0776  0.8306
 1627SOL     OW16342   3.497   2.185  15.497  0.8012  0.0117  0.0104
 1627SOL    HW116343   3.535   2.184  15.585  0.4173  1.6840  0.1913
 1627SOL    HW216344   3.455   2.271  15.493 -0.8700 -0.9045 -1.7531
 1628SOL     OW16345   4.106   1.340   2.839 -0.5138  0.8826  0.0991
 1628SOL    HW116346   4.155   1.301   2.767  0.5355  3.3797 -0.5594
 1628SOL    HW216347   4.061   1.410   2.791  0.0701  2.0940  1.3062
 1629SOL     OW16348   2.311   0.236   3.354 -0.5851 -0.4667  0.3896
 1629SOL    HW116349   2.392   0.210   3.312 -1.2018  0.9798 -1.7344
 1629SOL    HW216350   2.272   0.150   3.370 -0.8473 -0.8707 -2.4205
 1630SOL     OW16351   2.009   0.533   3.782  0.1682 -0.3148  0.2751
 1630SOL    HW116352   1.969   0.563   3.863  1.8627  2.4186  0.1381
 1630SOL    HW216353   1.932   0.531   3.725  0.5001 -0.2983 -0.1760
 1631SOL     OW16354   4.588   3.436   4.043 -0.4407 -0.0822 -0.0985
 1631SOL    HW116355   4.562   3.346   4.023  1.2754 -0.5103 -0.3972
 1631SOL    HW216356   4.585   3.462   3.951  2.0877 -2.3704 -0.8410
 1632SOL     OW16357   0.911   0.258   6.995  0.2775 -0.2757 -0.0720
 1632SOL    HW116358   1.002   0.278   7.016 -0.2586  0.3179  1.6348
 1632SOL    HW216359   0.894   0.175   7.040 -2.3347  0.1866 -0.2174
 1633SOL     OW16360   0.568   0.360   7.664  0.2280  0.2675  1.0472
 1633SOL    HW116361   0.552   0.430   7.601  0.7179 -1.0531 -0.5592
 1633SOL    HW216362   0.485   0.319   7.688 -0.3912  1.0952  0.3149
 1634SOL     OW16363   1.069   0.513   6.588  0.3301 -0.3525 -0.2716
 1634SOL    HW116364   1.018   0.589   6.614  1.0751 -0.2614  0.9147
 1634SOL    HW216365   0.992   0.461   6.563  0.3009  0.3782 -1.6938
 1635SOL     OW16366   1.803   2.553   7.582  0.4687 -0.4250  0.4535
 1635SOL    HW116367   1.724   2.558   7.528  1.9196 -1.3966 -1.7711
 1635SOL    HW216368   1.777   2.638   7.618 -1.1734  0.7320 -3.4665
 1636SOL     OW16369   3.436   4.093   5.847  0.3067 -0.2240  0.0456
 1636SOL    HW116370   3.403   4.009   5.816 -0.0455 -0.3933  0.8620
 1636SOL    HW216371   3.475   4.139   5.773 -0.5131 -1.6959 -1.3142
 1637SOL     OW16372   3.402   1.498   1.357  0.0345  0.6192 -0.2464
 1637SOL    HW116373   3.316   1.475   1.322  0.3679 -2.0293  0.6441
 1637SOL    HW216374   3.433   1.559   1.291  0.9390  1.0995  0.6268
 1638SOL     OW16375   2.129   0.829   3.264 -0.4126  0.0616  0.3981
 1638SOL    HW116376   2.051   0.790   3.303 -2.3045  2.8913 -0.5371
 1638SOL    HW216377   2.103   0.818   3.172 -1.9458 -0.5619  0.9181
 1639SOL     OW16378   3.731   1.087  13.596 -0.1949  0.1799 -0.4641
 1639SOL    HW116379   3.802   1.081  13.659 -1.6969 -1.2436  1.1131
 1639SOL    HW216380   3.780   1.114  13.518  1.0363 -1.2457 -0.1832
 1640SOL     OW16381   0.056   4.188   7.304 -0.2441  0.4374  0.4562
 1640SOL    HW116382   4.708   4.161   7.249  0.2355 -0.4315  0.2379
 1640SOL    HW216383   0.106   4.245   7.246  0.2028 -1.1114 -0.6858
 1641SOL     OW16384   4.011   4.007  15.103  0.1232  0.0433  0.0420
 1641SOL    HW116385   3.922   4.029  15.130  0.1270 -0.1044  0.1748
 1641SOL    HW216386   4.045   3.987  15.190 -1.9526 -0.9828  0.6376
 1642SOL     OW16387   0.263   2.795   8.853 -0.4017 -0.2780 -0.5492
 1642SOL    HW116388   0.231   2.883   8.872 -0.2611 -0.0044 -1.5527
 1642SOL    HW216389   0.245   2.751   8.936  1.3514 -1.0171 -0.5643
 1643SOL     OW16390   2.510   0.003  14.883 -0.2533  0.6254  0.0327
 1643SOL    HW116391   2.545   0.035  14.966  1.2015  0.0753 -0.3725
 1643SOL    HW216392   2.460   4.652  14.913 -1.0737  0.8334 -0.8126
 1644SOL     OW16393   3.956   4.191   8.403  0.3408  0.3867 -0.0016
 1644SOL    HW116394   3.865   4.216   8.420  0.9444  1.6220  1.4189
 1644SOL    HW216395   3.989   4.145   8.480 -0.8112  0.3689  0.4920
 1645SOL     OW16396   3.952   1.036  12.012  0.1925  0.0612  0.0611
 1645SOL    HW116397   4.014   1.093  11.966  4.0046 -1.7748  2.8717
 1645SOL    HW216398   4.017   0.976  12.048 -0.2306  0.1308  0.9379
 1646SOL     OW16399   0.756   3.544   6.334 -0.5718 -0.6280  0.3691
 1646SOL    HW116400   0.794   3.628   6.360 -0.8636  0.3902 -2.4916
 1646SOL    HW216401   0.719   3.512   6.416 -0.9550  0.8974  0.7861
 1647SOL     OW16402   0.516   0.458   1.622  0.4186 -0.2072  0.3539
 1647SOL    HW116403   0.507   0.473   1.717  0.7708  0.4565  0.2822
 1647SOL    HW216404   0.602   0.415   1.619  0.7207  0.3963  0.3708
 1648SOL     OW16405   4.401   3.666   3.263  0.2238 -0.3791  0.1026
 1648SOL    HW116406   4.479   3.622   3.297  0.7910 -0.5479 -1.4563
 1648SOL    HW216407   4.402   3.621   3.178 -1.4450 -2.4894  1.1870
 1649SOL     OW16408   1.209   0.524   5.051  0.1795 -0.0428  0.3636
 1649SOL    HW116409   1.128   0.546   5.005  0.2756 -0.0914  0.1735
 1649SOL    HW216410   1.178   0.439   5.084 -1.0632  1.5150  3.2167
 1650SOL     OW16411   4.514   4.361   5.539  0.7709  0.3409  0.0355
 1650SOL    HW116412   4.552   4.322   5.617  3.8650  2.4397 -0.4266
 1650SOL    HW216413   4.548   4.450   5.548  0.7689  0.2891  0.5410
 1651SOL     OW16414   2.644   3.482   2.573  0.4585 -0.1315  0.2685
 1651SOL    HW116415   2.600   3.567   2.574  0.9516  0.1134  1.5473
 1651SOL    HW216416   2.655   3.476   2.478 -1.8110  0.5400 -0.0251
 1652SOL     OW16417   3.139   0.440  13.134  0.2494  0.0569 -0.4277
 1652SOL    HW116418   3.157   0.480  13.219  0.3507 -1.8682  0.4757
 1652SOL    HW216419   3.195   0.363  13.148 -0.8945 -0.8140 -0.6779
 1653SOL     OW16420   2.684   2.967  12.543 -0.1007 -0.1080  0.2794
 1653SOL    HW116421   2.725   3.042  12.585  2.1257  0.3398 -2.6812
 1653SOL    HW216422   2.703   2.899  12.608 -1.3434  0.1657  0.9348
 1654SOL     OW16423   4.718   1.892   4.352 -0.2031  0.1576 -0.3823
 1654SOL    HW116424   0.035   1.862   4.432  0.9222  1.7857 -0.3526
 1654SOL    HW216425   4.640   1.934   4.388  0.7147  0.3732  1.3437
 1655SOL     OW16426   4.483   2.472  14.971  0.7536  0.4599 -0.8433
 1655SOL    HW116427   4.537   2.492  15.047  0.2638 -0.8456 -0.1616
 1655SOL    HW216428   4.407   2.522  15.000  1.0503  2.0516 -2.8063
 1656SOL     OW16429   3.842   4.171  14.847 -0.4011 -0.1704  0.4275
 1656SOL    HW116430   3.905   4.188  14.777  0.5416  0.4166  1.4047
 1656SOL    HW216431   3.815   4.081  14.830 -1.7975  0.4662 -0.7206
 1657SOL     OW16432   2.275   3.115   5.666 -0.3330  0.0992  0.0338
 1657SOL    HW116433   2.339   3.187   5.672 -0.7618  0.4893 -0.0539
 1657SOL    HW216434   2.338   3.043   5.673  0.2848  0.5253 -1.1702
 1658SOL     OW16435   0.553   2.379  10.837 -0.1613  0.3420  0.4120
 1658SOL    HW116436   0.471   2.416  10.870 -0.5958 -0.2284 -0.0355
 1658SOL    HW216437   0.556   2.289  10.870 -1.2041 -0.0620 -0.5748
 1659SOL     OW16438   4.103   4.633   6.164 -0.2111  0.0852 -0.4099
 1659SOL    HW116439   4.131   4.545   6.139 -3.2297 -1.1879  0.6817
 1659SOL    HW216440   4.177   4.665   6.217  0.1384  1.7773 -1.9228
 1660SOL     OW16441   1.140   1.505   3.776 -1.4750 -0.1935 -0.0093
 1660SOL    HW116442   1.152   1.588   3.730 -0.6937  0.7515  1.9289
 1660SOL    HW216443   1.222   1.460   3.758 -0.0533  1.9639  1.1828
 1661SOL     OW16444   3.437   4.247   6.232  0.0815 -0.3942 -0.4325
 1661SOL    HW116445   3.515   4.214   6.187  0.6424  1.3953 -0.7675
 1661SOL    HW216446   3.388   4.167   6.251 -1.7337  1.0164  0.8317
 1662SOL     OW16447   3.581   2.851  13.737 -0.1216  0.5682  0.1762
 1662SOL    HW116448   3.528   2.795  13.794  1.4407 -0.7394  0.3361
 1662SOL    HW216449   3.512   2.866  13.672 -0.1337  3.1103  0.7466
 1663SOL     OW16450   0.012   0.146  14.963 -0.2156  0.2408 -0.1025
 1663SOL    HW116451   0.023   0.185  15.050 -0.7832 -0.8890  0.4815
 1663SOL    HW216452   4.689   0.066  14.985  2.3672 -0.9610  1.2255
 1664SOL     OW16453   1.945   0.449   9.275 -0.1408 -0.2131  0.1665
 1664SOL    HW116454   1.991   0.473   9.195 -0.7395 -1.2108 -0.4735
 1664SOL    HW216455   1.975   0.522   9.329  1.1160 -0.3700 -0.3170
 1665SOL     OW16456   2.405   3.136  16.558  0.3490 -0.2666  0.5061
 1665SOL    HW116457   2.385   3.224  16.589  0.7778 -0.5770  1.6647
 1665SOL    HW216458   2.454   3.146  16.476 -1.2138  1.2086 -0.2706
 1666SOL     OW16459   2.366   0.531   5.776 -0.0987  0.3097  0.1794
 1666SOL    HW116460   2.372   0.542   5.870  3.0971 -1.5545  0.1772
 1666SOL    HW216461   2.424   0.457   5.759 -0.9187 -0.7488  2.0539
 1667SOL     OW16462   1.669   4.139  15.913  0.4240 -0.1201 -0.4242
 1667SOL    HW116463   1.720   4.138  15.994  0.9056 -1.1290 -0.7366
 1667SOL    HW216464   1.741   4.149  15.852  0.7014 -1.0330 -0.2442
 1668SOL     OW16465   0.250   2.549   4.579 -0.4903  0.2073  0.3245
 1668SOL    HW116466   0.274   2.464   4.616 -1.3754 -0.5209 -0.7804
 1668SOL    HW216467   0.259   2.598   4.661  0.8129  0.4772  0.0213
 1669SOL     OW16468   0.888   3.737   8.474 -0.0971 -0.6204 -0.0287
 1669SOL    HW116469   0.828   3.809   8.456  2.1269  1.3948  0.6557
 1669SOL    HW216470   0.953   3.752   8.405 -0.1166 -1.1823 -0.1672
 1670SOL     OW16471   4.600   2.181   5.624 -0.2452 -0.0276  0.1503
 1670SOL    HW116472   4.511   2.148   5.622  0.7130 -2.7248  2.2821
 1670SOL    HW216473   4.570   2.269   5.601  0.4591  0.1777  0.0102
 1671SOL     OW16474   2.948   1.690   0.032  0.0806  0.3751  0.0135
 1671SOL    HW116475   2.874   1.647  17.691 -1.2619  0.1846  2.5461
 1671SOL    HW216476   2.982   1.732  17.655 -1.5260 -1.8116 -1.8337
 1672SOL     OW16477   0.524   0.156   4.076 -1.0796 -0.1475  0.4728
 1672SOL    HW116478   0.463   0.109   4.020  1.8568 -1.7376 -1.3825
 1672SOL    HW216479   0.606   0.109   4.060 -1.2717 -0.4590  0.4104
 1673SOL     OW16480   1.371   4.342   4.483  0.4065  0.2867 -0.7272
 1673SOL    HW116481   1.285   4.358   4.520  0.1313 -1.8345 -0.4901
 1673SOL    HW216482   1.385   4.269   4.543 -1.1713 -0.2402 -1.0279
 1674SOL     OW16483   4.376   4.138   9.963 -0.4506 -0.1614  0.1959
 1674SOL    HW116484   4.312   4.176  10.022  1.0941 -0.7187  2.2536
 1674SOL    HW216485   4.336   4.053   9.945  2.0701 -1.2189 -0.3939
 1675SOL     OW16486   3.500   3.763   6.668 -0.7631 -0.0296 -0.1307
 1675SOL    HW116487   3.422   3.786   6.719 -1.2630  0.1188 -0.9754
 1675SOL    HW216488   3.461   3.782   6.583 -1.1647  1.0301  0.2848
 1676SOL     OW16489   0.701   4.478   4.345 -0.3371  0.4877  0.1542
 1676SOL    HW116490   0.626   4.430   4.380 -1.8487  2.5359 -0.3195
 1676SOL    HW216491   0.769   4.419   4.378  0.6523  1.0315 -0.9008
 1677SOL     OW16492   0.624   2.756   9.193 -0.0840 -0.0620 -0.0645
 1677SOL    HW116493   0.603   2.666   9.167  0.1894 -0.8391  2.4643
 1677SOL    HW216494   0.719   2.748   9.191 -0.4051 -3.6201 -1.5054
 1678SOL     OW16495   1.625   2.618   7.363 -0.1072  0.2500 -0.6065
 1678SOL    HW116496   1.550   2.571   7.326  0.6286  0.8438 -2.8905
 1678SOL    HW216497   1.662   2.657   7.284  1.0455 -0.4391 -0.3997
 1679SOL     OW16498   4.377   1.979   2.740 -0.1352  0.4982  0.0320
 1679SOL    HW116499   4.337   2.063   2.763 -1.3717 -0.7920  2.5737
 1679SOL    HW216500   4.310   1.911   2.749 -2.0954  2.5940  1.1906
 1680SOL     OW16501   2.053   0.140  11.108  0.6925  0.4773  0.1627
 1680SOL    HW116502   2.100   0.156  11.190  1.0925  0.0464  0.0175
 1680SOL    HW216503   1.967   0.119  11.143  0.0513  1.2687 -0.9467
 1681SOL     OW16504   0.056   4.067  14.248 -0.4959 -0.7009 -0.5628
 1681SOL    HW116505   0.145   4.083  14.278 -1.3071  3.2985 -0.2701
 1681SOL    HW216506   0.077   4.001  14.182 -1.1623 -0.2831 -1.1891
 1682SOL     OW16507   3.003   2.593   4.256 -0.2006  0.7407  0.1034
 1682SOL    HW116508   3.011   2.559   4.167  1.5515  1.4847 -0.0238
 1682SOL    HW216509   3.085   2.567   4.297  1.4821  2.0544 -2.4286
 1683SOL     OW16510   0.542   2.390   4.899 -0.3170  0.3190  0.1848
 1683SOL    HW116511   0.585   2.319   4.850 -0.2079  0.4947  0.0228
 1683SOL    HW216512   0.521   2.447   4.825 -2.5366 -1.0310 -0.2145
 1684SOL     OW16513   1.947   1.893   8.266  0.5638 -0.2721  0.2929
 1684SOL    HW116514   2.021   1.843   8.231  0.3535 -0.6915  0.4445
 1684SOL    HW216515   1.871   1.836   8.251 -0.3315  0.9774  0.1287
 1685SOL     OW16516   4.370   1.312   1.435  0.5468 -0.4167 -0.5153
 1685SOL    HW116517   4.451   1.331   1.388 -0.2371  3.1039 -0.4677
 1685SOL    HW216518   4.331   1.232   1.400  1.9709 -0.7687 -1.3144
 1686SOL     OW16519   2.544   2.658   4.855 -0.2796  0.0704 -0.4827
 1686SOL    HW116520   2.537   2.740   4.806  2.1317 -0.5364 -1.8863
 1686SOL    HW216521   2.622   2.618   4.815  0.7284  0.6734  0.8902
 1687SOL     OW16522   0.965   3.391   6.242  0.2952 -0.1238 -0.3753
 1687SOL    HW116523   1.027   3.410   6.313  3.1705 -1.2056 -2.6277
 1687SOL    HW216524   0.892   3.450   6.262  0.1780  0.5858 -2.9690
 1688SOL     OW16525   1.766   4.275  11.460 -0.2131  0.5518 -0.4640
 1688SOL    HW116526   1.769   4.284  11.365 -0.5655 -1.2179 -0.6409
 1688SOL    HW216527   1.692   4.332  11.481  0.8237  1.7225 -0.0416
 1689SOL     OW16528   2.379   0.277   2.739  0.4540 -0.3554  0.0329
 1689SOL    HW116529   2.459   0.249   2.784  0.3957 -1.2070 -0.3961
 1689SOL    HW216530   2.399   0.256   2.648  0.3480  0.8766 -0.2718
 1690SOL     OW16531   3.009   3.183   6.617 -0.3411 -0.2267  0.5749
 1690SOL    HW116532   3.064   3.113   6.651 -1.8359 -0.9617  1.5099
 1690SOL    HW216533   3.034   3.265   6.660 -0.5986 -0.3579  0.9869
 1691SOL     OW16534   3.737   0.967   7.647  0.2179  0.5340 -0.0985
 1691SOL    HW116535   3.680   1.013   7.585 -0.5343 -2.3127 -1.5332
 1691SOL    HW216536   3.700   0.981   7.734 -2.4698  0.8223 -1.2772
 1692SOL     OW16537   3.552   0.078   1.331 -0.6523  0.2342  0.2056
 1692SOL    HW116538   3.553   0.172   1.349  0.4229 -0.1155  1.9890
 1692SOL    HW216539   3.477   0.065   1.273 -1.0038 -2.5378  1.2729
 1693SOL     OW16540   4.470   4.349  14.983 -0.2206 -0.5280 -0.2422
 1693SOL    HW116541   4.377   4.332  14.974 -0.9703  1.2533  3.8357
 1693SOL    HW216542   4.478   4.273  15.041  0.5666 -0.7788 -0.6757
 1694SOL     OW16543   0.814   2.325   7.464  0.6289 -0.3717 -0.4393
 1694SOL    HW116544   0.820   2.231   7.482  1.3692  0.2707  2.6354
 1694SOL    HW216545   0.815   2.317   7.369 -1.4112  0.4010 -0.5154
 1695SOL     OW16546   0.164   2.095  10.912 -0.0863  0.4831  0.0445
 1695SOL    HW116547   0.249   2.058  10.936  0.6302  1.5961 -0.7803
 1695SOL    HW216548   0.116   2.017  10.943  0.4021  0.6741  1.2868
 1696SOL     OW16549   0.514   4.659  11.928 -0.1427  0.2018 -0.5486
 1696SOL    HW116550   0.535   0.017  11.885  0.6173 -0.0778 -0.7297
 1696SOL    HW216551   0.541   4.601  11.857  0.9236  1.2557 -1.0023
 1697SOL     OW16552   3.102   1.073   6.286  0.4357  0.8907 -0.1800
 1697SOL    HW116553   3.170   1.124   6.328  0.0582  1.3966 -0.1873
 1697SOL    HW216554   3.147   0.993   6.256 -2.0301  0.0438 -1.6328
 1698SOL     OW16555   2.176   3.015   4.762  0.1668 -0.2229 -0.2553
 1698SOL    HW116556   2.112   2.966   4.814  0.6300  0.1907  0.6783
 1698SOL    HW216557   2.131   3.099   4.770 -0.7744 -0.7595  0.0973
 1699SOL     OW16558   3.788   4.192   2.821  0.1924 -0.4008  0.4470
 1699SOL    HW116559   3.806   4.099   2.826  2.3396  0.0513  0.9577
 1699SOL    HW216560   3.867   4.236   2.853 -0.3386  0.1125  1.0535
 1700SOL     OW16561   0.730   2.891   8.852 -0.8290 -0.2129 -0.0802
 1700SOL    HW116562   0.750   2.969   8.801  0.3844 -1.3768 -1.3720
 1700SOL    HW216563   0.779   2.892   8.934  0.8194 -2.5620 -1.0369
 1701SOL     OW16564   2.915   2.033   6.005 -0.0212 -0.0321 -0.3666
 1701SOL    HW116565   2.901   1.949   5.962  0.8014  0.7096 -2.0511
 1701SOL    HW216566   3.003   2.052   5.974  0.3350 -0.1770  0.5546
 1702SOL     OW16567   2.726   4.557   9.435  0.2516  0.1246  0.0544
 1702SOL    HW116568   2.800   4.521   9.385  1.1896  1.2125  0.6593
 1702SOL    HW216569   2.709   4.497   9.508 -1.0512  0.8058  0.3132
 1703SOL     OW16570   2.116   2.553   9.782 -0.3225  0.8267 -0.0624
 1703SOL    HW116571   2.099   2.644   9.759  2.1791  1.5661  1.0111
 1703SOL    HW216572   2.062   2.533   9.859  1.8219  0.6504  1.3919
 1704SOL     OW16573   3.282   0.509   5.585 -0.3209  0.1089  0.5416
 1704SOL    HW116574   3.271   0.417   5.611  2.4754 -0.5793 -0.7638
 1704SOL    HW216575   3.372   0.521   5.614 -0.2635 -3.6819  2.0396
 1705SOL     OW16576   0.976   4.169   7.306  0.0180  0.3860  0.0158
 1705SOL    HW116577   0.970   4.074   7.312 -2.8788  0.6849  1.6983
 1705SOL    HW216578   0.974   4.182   7.211 -0.5599 -0.8536 -0.1369
 1706SOL     OW16579   2.143   4.010   6.570  0.1895  0.0793 -0.4879
 1706SOL    HW116580   2.181   3.927   6.601  1.0086  0.6148 -0.0527
 1706SOL    HW216581   2.213   4.060   6.528 -0.4052  1.3809  0.0690
 1707SOL     OW16582   1.157   1.205   5.484  0.0793  0.7351 -0.0541
 1707SOL    HW116583   1.130   1.290   5.520  0.2724  0.9201 -0.3509
 1707SOL    HW216584   1.101   1.153   5.541 -0.9072 -1.2522 -2.8361
 1708SOL     OW16585   4.523   3.166   4.005 -0.6150  0.1540  0.3931
 1708SOL    HW116586   4.554   3.154   3.915 -0.1675  0.1675  0.5425
 1708SOL    HW216587   4.599   3.136   4.054  1.7115  1.4304 -2.4179
 1709SOL     OW16588   2.624   1.421  12.798 -0.2389 -0.3358 -0.1702
 1709SOL    HW116589   2.654   1.378  12.718 -0.3875 -0.3905 -0.1971
 1709SOL    HW216590   2.566   1.493  12.774 -0.5575 -0.0447  1.4387
 1710SOL     OW16591   2.693   1.254   4.424  0.5293  0.2169 -0.4588
 1710SOL    HW116592   2.759   1.191   4.451 -0.2499 -0.4371 -0.0897
 1710SOL    HW216593   2.711   1.258   4.330  1.6672  0.5768 -0.2252
 1711SOL     OW16594   2.479   4.344   6.102 -0.0395 -0.0048 -0.2757
 1711SOL    HW116595   2.473   4.424   6.155 -0.3741 -3.3716  4.7337
 1711SOL    HW216596   2.388   4.324   6.079  0.0961 -0.2028 -0.6472
 1712SOL     OW16597   0.398   3.142   7.792  0.0171  0.3887  0.6929
 1712SOL    HW116598   0.416   3.096   7.874 -0.4050 -1.3363 -0.1900
 1712SOL    HW216599   0.486   3.148   7.754 -0.2155  0.8125  0.2234
 1713SOL     OW16600   4.164   2.997  15.307  0.0155 -0.4125  0.0825
 1713SOL    HW116601   4.159   3.031  15.217 -0.6811  0.2614  0.3825
 1713SOL    HW216602   4.155   2.902  15.294  0.4944 -0.4993  0.4033
 1714SOL     OW16603   3.773   2.223  13.597 -0.1921  0.4003 -0.2445
 1714SOL    HW116604   3.790   2.135  13.630  0.4879  0.7479  0.3224
 1714SOL    HW216605   3.679   2.224  13.580 -0.8466 -0.3567  3.4317
 1715SOL     OW16606   0.878   1.542   8.241 -0.4501 -0.5084  0.1765
 1715SOL    HW116607   0.968   1.525   8.269 -0.6083 -2.7231 -0.6658
 1715SOL    HW216608   0.863   1.518   8.150 -0.1514 -2.4421  0.6338
 1716SOL     OW16609   4.406   4.713   3.226 -0.6917  0.6101  0.0648
 1716SOL    HW116610   4.382   0.043   3.301 -2.7457 -0.4315  0.1781
 1716SOL    HW216611   4.489   0.024   3.195  0.1426 -0.9956  0.4335
 1717SOL     OW16612   4.550   0.509   5.056 -0.2150  0.0889  0.4772
 1717SOL    HW116613   4.490   0.558   5.000 -0.2600 -1.0805 -0.4887
 1717SOL    HW216614   4.505   0.425   5.063  1.7871 -1.0790 -0.5829
 1718SOL     OW16615   2.674   1.000   0.405 -0.3756  0.6520 -0.0146
 1718SOL    HW116616   2.690   1.039   0.319  0.3780  1.6327  0.5544
 1718SOL    HW216617   2.578   1.001   0.406 -0.3675 -1.9743  1.8807
 1719SOL     OW16618   4.238   3.431   7.920 -0.2328  0.1658 -0.5063
 1719SOL    HW116619   4.284   3.379   7.853 -0.4663  0.0061 -0.5406
 1719SOL    HW216620   4.312   3.491   7.929  2.0045 -2.5455 -0.5911
 1720SOL     OW16621   3.476   2.375  12.149  0.4544  0.0474  0.1570
 1720SOL    HW116622   3.495   2.281  12.156  0.2719  0.0265  0.3997
 1720SOL    HW216623   3.383   2.364  12.170  0.5799 -1.5567 -0.0978
 1721SOL     OW16624   4.054   0.854   7.215 -0.2233 -0.7022 -0.1527
 1721SOL    HW116625   4.040   0.809   7.132 -3.2324  0.5949 -0.3244
 1721SOL    HW216626   4.049   0.781   7.277 -3.2108 -1.0255 -0.7888
 1722SOL     OW16627   1.015   3.074   5.545 -0.5999 -0.3576  0.0754
 1722SOL    HW116628   1.074   3.118   5.483 -1.5282  0.1139 -0.4574
 1722SOL    HW216629   1.014   3.137   5.617 -0.0730  0.4875 -0.6662
 1723SOL     OW16630   1.294   3.881   7.239  0.0816  0.0164 -0.4515
 1723SOL    HW116631   1.384   3.848   7.237  0.1139 -0.0893  3.2368
 1723SOL    HW216632   1.278   3.855   7.329  0.7728  0.2471 -0.2623
 1724SOL     OW16633   3.612   4.157  11.185 -0.4883 -0.4370  0.2571
 1724SOL    HW116634   3.673   4.205  11.242  0.3127 -0.4972 -0.5450
 1724SOL    HW216635   3.530   4.179  11.230  0.3251  0.0474  1.5052
 1725SOL     OW16636   1.713   1.788   0.794  0.8286  0.6167  0.1260
 1725SOL    HW116637   1.775   1.802   0.722 -1.1683  0.1697 -1.6787
 1725SOL    HW216638   1.638   1.831   0.753  0.3154 -0.0524  0.3650
 1726SOL     OW16639   2.305   4.303   5.058  0.2933  0.2933  0.1901
 1726SOL    HW116640   2.287   4.316   5.151 -0.4124  0.4091  0.0342
 1726SOL    HW216641   2.249   4.231   5.033 -1.7922  0.8716  3.1517
 1727SOL     OW16642   0.541   3.666  13.685 -0.2176  0.3664  0.8192
 1727SOL    HW116643   0.514   3.640  13.773  2.6798 -0.4077  1.4999
 1727SOL    HW216644   0.493   3.596  13.641 -1.3226  1.5225  0.1833
 1728SOL     OW16645   1.105   0.527  13.189  0.3614  0.2178  0.2236
 1728SOL    HW116646   1.122   0.439  13.224  0.3838 -0.3336 -1.1577
 1728SOL    HW216647   1.152   0.524  13.105 -0.1766 -0.6084 -0.0563
 1729SOL     OW16648   2.764   1.284   7.756  0.2913 -0.1970 -0.6447
 1729SOL    HW116649   2.809   1.235   7.688 -1.0848 -0.0654 -1.6460
 1729SOL    HW216650   2.840   1.300   7.812 -0.4494 -1.0037  0.5797
 1730SOL     OW16651   4.654   1.301   0.954  0.1517 -0.0900 -0.0614
 1730SOL    HW116652   0.018   1.271   0.933  0.4455  1.7276 -1.3799
 1730SOL    HW216653   4.672   1.395   0.958 -0.8592  0.0018  1.8064
 1731SOL     OW16654   0.810   4.259  10.852  0.0117  0.0192  0.0179
 1731SOL    HW116655   0.735   4.281  10.798  0.5695  1.9821  0.0291
 1731SOL    HW216656   0.878   4.315  10.815 -1.0450  1.3128  0.0330
 1732SOL     OW16657   1.738   3.335   4.613 -0.1976 -0.3037 -0.1333
 1732SOL    HW116658   1.806   3.279   4.650 -1.1384 -2.6675 -1.9985
 1732SOL    HW216659   1.767   3.338   4.522 -1.6966  0.9088 -0.5572
 1733SOL     OW16660   2.734   3.128   7.456 -0.7191  0.4138  0.0428
 1733SOL    HW116661   2.654   3.097   7.412 -1.1456  0.6010  0.6820
 1733SOL    HW216662   2.720   3.220   7.433 -0.4246 -0.3135 -3.0851
 1734SOL     OW16663   2.547   0.681   4.272 -0.2352 -0.0051 -0.1462
 1734SOL    HW116664   2.511   0.761   4.310 -1.0108  0.8044 -2.5740
 1734SOL    HW216665   2.620   0.663   4.330  1.5750  2.3416 -1.6748
 1735SOL     OW16666   0.926   1.613  10.641  0.1331 -0.1866  0.3687
 1735SOL    HW116667   0.991   1.595  10.709  0.7219  2.5423  0.5268
 1735SOL    HW216668   0.964   1.554  10.575  1.8160  0.9591  0.3126
 1736SOL     OW16669   1.579   3.962   6.884  0.2608 -0.4580  0.2766
 1736SOL    HW116670   1.580   3.889   6.946  1.6488 -0.5102  0.1859
 1736SOL    HW216671   1.535   3.915   6.813  2.1100 -2.7345  0.6398
 1737SOL     OW16672   0.805   2.827  15.591 -0.2150  0.2675 -0.4617
 1737SOL    HW116673   0.793   2.920  15.571 -2.0537  0.0057 -0.5303
 1737SOL    HW216674   0.881   2.796  15.542 -0.1944 -0.0183 -0.2499
 1738SOL     OW16675   4.708   2.290   5.100  0.5329 -0.1388  0.5941
 1738SOL    HW116676   4.692   2.374   5.058  1.7030 -0.1373  0.1614
 1738SOL    HW216677   4.625   2.253   5.069  0.6381  0.1775 -0.0562
 1739SOL     OW16678   0.707   4.340   7.763 -0.1028  0.2206 -0.4259
 1739SOL    HW116679   0.739   4.254   7.735  0.1844  1.0093 -2.5011
 1739SOL    HW216680   0.782   4.355   7.819 -1.4218  0.8638  1.1710
 1740SOL     OW16681   2.564   3.542   6.412  0.2340 -0.4586  0.1671
 1740SOL    HW116682   2.553   3.591   6.331 -1.2623 -0.2927  0.4664
 1740SOL    HW216683   2.475   3.563   6.440  0.5482  0.2228  0.6262
 1741SOL     OW16684   2.872   4.151   3.997 -0.1624 -0.6650 -0.2514
 1741SOL    HW116685   2.905   4.214   3.933  1.7219  0.2732  1.6240
 1741SOL    HW216686   2.952   4.103   4.018  0.0210 -0.0147  0.5372
 1742SOL     OW16687   4.068   1.071   6.719  0.2353  0.3473 -0.0625
 1742SOL    HW116688   4.074   1.164   6.702  0.7688  0.2081 -0.5979
 1742SOL    HW216689   4.156   1.056   6.752  0.5417  3.2576  0.3762
 1743SOL     OW16690   1.918   4.052  14.831 -0.5656  0.6678 -0.6312
 1743SOL    HW116691   1.953   4.061  14.743 -1.3851 -3.0896 -1.3247
 1743SOL    HW216692   1.825   4.048  14.808 -0.5463 -0.4706 -0.4975
 1744SOL     OW16693   4.414   3.676   7.905 -0.0153  0.1969  0.0853
 1744SOL    HW116694   4.442   3.679   7.996  0.7613 -0.9536 -0.1281
 1744SOL    HW216695   4.498   3.689   7.862  0.1561 -0.6659  0.1730
 1745SOL     OW16696   4.051   1.453   0.016  0.1963  0.5160 -0.4819
 1745SOL    HW116697   4.134   1.501   0.012  1.5413 -1.6639  1.4346
 1745SOL    HW216698   4.000   1.501  17.652 -1.2585  1.8582  1.6074
 1746SOL     OW16699   1.401   1.084   6.855 -0.4383 -0.0780  0.0586
 1746SOL    HW116700   1.471   1.019   6.859  0.1953  0.6842  1.2580
 1746SOL    HW216701   1.406   1.106   6.762  2.0549  0.6604  0.3531
 1747SOL     OW16702   3.390   1.515   1.652 -0.2100 -0.1581 -0.0229
 1747SOL    HW116703   3.379   1.520   1.557 -3.1402  4.4149  0.5388
 1747SOL    HW216704   3.415   1.606   1.667  0.0796 -0.2606  0.1070
 1748SOL     OW16705   3.998   0.812  15.563  0.5175  0.3605  0.1196
 1748SOL    HW116706   4.072   0.751  15.568 -0.2242 -0.5610  0.0645
 1748SOL    HW216707   3.971   0.800  15.472  2.2936 -0.7218 -0.2524
 1749SOL     OW16708   4.054   2.586   5.368 -0.5955  0.0752  0.3524
 1749SOL    HW116709   3.962   2.602   5.347 -1.1255 -2.2951  0.9015
 1749SOL    HW216710   4.068   2.511   5.310  1.4396 -0.7839  1.9629
 1750SOL     OW16711   3.851   1.079  12.917 -0.0040  0.1659 -0.1195
 1750SOL    HW116712   3.771   1.048  12.875 -0.4984  0.3838  0.6609
 1750SOL    HW216713   3.832   1.045  13.005 -1.7791  1.3986 -0.0408
 1751SOL     OW16714   1.245   0.218   3.723  0.2987  0.0302 -0.3255
 1751SOL    HW116715   1.187   0.263   3.662 -0.8784 -0.4252  0.4527
 1751SOL    HW216716   1.223   0.131   3.688  0.4486  0.7365 -2.1665
 1752SOL     OW16717   1.643   4.647   6.146  0.2063  0.0991  0.0170
 1752SOL    HW116718   1.572   4.625   6.205  0.8124  0.3516  0.8427
 1752SOL    HW216719   1.704   4.588   6.189 -0.6765 -0.5197  0.4103
 1753SOL     OW16720   0.275   2.058   7.726 -0.1346  0.3281  0.0749
 1753SOL    HW116721   0.317   2.044   7.811 -0.5743  0.6190  0.3372
 1753SOL    HW216722   0.355   2.054   7.672 -0.4983  0.3034 -0.4607
 1754SOL     OW16723   2.844   4.561   5.273 -0.0218 -0.2152 -0.3032
 1754SOL    HW116724   2.755   4.594   5.288 -0.3095 -0.7790 -0.7759
 1754SOL    HW216725   2.835   4.508   5.194 -0.0604  0.1808 -0.5711
 1755SOL     OW16726   3.848   3.566   3.366  0.3801  0.5781 -0.3176
 1755SOL    HW116727   3.891   3.482   3.386 -1.9584 -0.3856  0.6331
 1755SOL    HW216728   3.802   3.588   3.447  0.4898 -3.0761  0.7520
 1756SOL     OW16729   3.653   1.799   6.155 -0.1147 -0.5372 -0.3955
 1756SOL    HW116730   3.695   1.754   6.082  0.4327 -1.4924  0.5027
 1756SOL    HW216731   3.711   1.876   6.159 -0.1311 -0.4829 -1.1710
 1757SOL     OW16732   4.491   3.524   6.195  0.0606 -0.2194 -0.4137
 1757SOL    HW116733   4.568   3.517   6.252  0.4112  0.0639 -0.8541
 1757SOL    HW216734   4.459   3.436   6.211  1.4343 -0.7275 -0.4526
 1758SOL     OW16735   3.245   3.560   7.734  0.1708  0.3310 -0.3852
 1758SOL    HW116736   3.263   3.467   7.748  4.4070  0.9845 -1.2811
 1758SOL    HW216737   3.327   3.599   7.767 -0.4890  0.3138  1.3037
 1759SOL     OW16738   2.780   0.445   3.328 -0.4573 -0.0819  0.0734
 1759SOL    HW116739   2.696   0.418   3.291  0.1426 -1.3129 -0.4177
 1759SOL    HW216740   2.834   0.419   3.254 -1.2176  0.4728 -0.6617
 1760SOL     OW16741   0.877   3.195   6.853  0.0884  0.2626  0.1748
 1760SOL    HW116742   0.783   3.206   6.847  0.1383  0.3831 -0.3704
 1760SOL    HW216743   0.896   3.181   6.946  1.4007  0.1350 -0.1119
 1761SOL     OW16744   3.957   3.206  10.358  0.2283 -0.4740  0.2835
 1761SOL    HW116745   3.955   3.156  10.439  0.8634 -0.3734  0.3670
 1761SOL    HW216746   4.036   3.259  10.372  1.2107 -1.6547 -0.6832
 1762SOL     OW16747   2.293   1.863   3.506  0.9319 -0.4839 -0.0034
 1762SOL    HW116748   2.240   1.857   3.586  0.8873  1.3623  0.1268
 1762SOL    HW216749   2.374   1.906   3.537 -0.7889  1.6253  1.6322
 1763SOL     OW16750   1.076   0.842   6.450 -0.0833  0.1730  0.1712
 1763SOL    HW116751   1.148   0.835   6.512 -1.4053 -1.9975  1.4635
 1763SOL    HW216752   1.019   0.791   6.508 -0.5712  0.8486  0.2877
 1764SOL     OW16753   0.265   3.609   9.483  0.2371  0.7075  0.1088
 1764SOL    HW116754   0.211   3.553   9.540 -0.5540  1.6009  0.2600
 1764SOL    HW216755   0.204   3.676   9.450 -1.1587 -1.0919 -0.9328
 1765SOL     OW16756   0.755   2.617   7.480  0.2135  0.2366 -0.3390
 1765SOL    HW116757   0.663   2.597   7.467  0.0819  1.6800 -1.5384
 1765SOL    HW216758   0.787   2.526   7.477  2.5271  0.9887  1.1043
 1766SOL     OW16759   4.429   1.387  13.654  0.5159  0.1128  0.4729
 1766SOL    HW116760   4.400   1.423  13.570  0.9207 -2.2898 -0.6765
 1766SOL    HW216761   4.363   1.331  13.694  0.9741 -1.2424 -0.6566
 1767SOL     OW16762   3.103   3.023   8.148 -0.2043 -0.0590  0.1068
 1767SOL    HW116763   3.009   3.009   8.139  0.0357 -2.2193  0.9323
 1767SOL    HW216764   3.118   3.081   8.074 -2.0153 -1.1744 -1.1198
 1768SOL     OW16765   0.852   3.608   7.332 -0.2769  0.0882  0.7527
 1768SOL    HW116766   0.786   3.665   7.369 -1.6258 -1.5017  0.8022
 1768SOL    HW216767   0.820   3.531   7.379  2.5392 -2.0434 -0.7687
 1769SOL     OW16768   2.846   3.546   1.894 -0.0381 -0.0905  0.7288
 1769SOL    HW116769   2.841   3.564   1.988 -4.2628  2.1205  0.0594
 1769SOL    HW216770   2.818   3.454   1.887  1.1598 -0.4187  0.1707
 1770SOL     OW16771   2.548   2.102   5.716 -0.0287  0.4025  0.3481
 1770SOL    HW116772   2.497   2.022   5.709 -0.5839  0.8724 -0.9007
 1770SOL    HW216773   2.490   2.178   5.713  0.0955  0.4809 -0.0822
 1771SOL     OW16774   2.562   0.885   4.958  0.1214  0.3302  0.0688
 1771SOL    HW116775   2.594   0.815   5.014 -0.0403 -0.3611 -0.7052
 1771SOL    HW216776   2.539   0.952   5.022  0.1738 -1.0802  1.5592
 1772SOL     OW16777   0.333   0.282  11.232  0.1606  0.0745  0.1375
 1772SOL    HW116778   0.426   0.269  11.251 -0.4476 -2.5273  1.3388
 1772SOL    HW216779   0.297   0.276  11.320 -0.4281  0.5935 -0.0738
 1773SOL     OW16780   3.360   2.157   1.743  0.6402  0.2085  0.1828
 1773SOL    HW116781   3.319   2.213   1.809  0.1964  1.3306 -1.0415
 1773SOL    HW216782   3.417   2.224   1.704  0.8295 -0.7370 -1.1642
 1774SOL     OW16783   1.212   3.464   4.964 -0.3255 -0.2215  0.3091
 1774SOL    HW116784   1.212   3.401   5.037 -1.4772  1.6622  1.9414
 1774SOL    HW216785   1.132   3.514   4.978  0.6364  1.0799  1.1785
 1775SOL     OW16786   0.534   3.559   3.622  0.2470  0.1135  0.3045
 1775SOL    HW116787   0.622   3.591   3.641 -0.4491  1.2129  1.6614
 1775SOL    HW216788   0.502   3.613   3.550 -0.7278  0.5725  1.0880
 1776SOL     OW16789   0.355   4.142   2.680 -0.2553 -0.7829 -0.0640
 1776SOL    HW116790   0.346   4.230   2.643 -2.4184  0.4610  3.4021
 1776SOL    HW216791   0.440   4.114   2.644 -1.2978 -3.4608 -0.4528
 1777SOL     OW16792   0.724   1.102   9.020  0.1701  0.0501 -0.4068
 1777SOL    HW116793   0.639   1.089   8.978  0.5981 -1.5274 -0.7802
 1777SOL    HW216794   0.766   1.018   9.002  1.0218  0.3135  0.3143
 1778SOL     OW16795   1.296   4.152   8.217 -0.1422 -0.2378 -0.1257
 1778SOL    HW116796   1.358   4.088   8.252  0.9667 -0.4272 -2.4489
 1778SOL    HW216797   1.253   4.162   8.302  0.0189 -0.4556 -0.0184
 1779SOL     OW16798   2.386   2.158   8.461 -0.2848 -0.1295  0.4456
 1779SOL    HW116799   2.397   2.160   8.556  2.2581  1.2589  0.1430
 1779SOL    HW216800   2.296   2.189   8.451 -0.6103 -1.1921  0.1007
 1780SOL     OW16801   3.099   2.227   7.834 -0.2505 -0.5624  0.2892
 1780SOL    HW116802   3.160   2.187   7.772  0.6660 -1.3281  1.7039
 1780SOL    HW216803   3.014   2.184   7.825 -1.5421  2.4085 -2.0100
 1781SOL     OW16804   2.791   1.528   6.001  0.3029  0.4935 -0.1195
 1781SOL    HW116805   2.751   1.499   5.919 -0.2998 -0.5057  0.5284
 1781SOL    HW216806   2.732   1.595   6.035 -1.7258 -0.2089 -2.3290
 1782SOL     OW16807   1.800   0.255   7.786  0.0843 -0.2896  0.1386
 1782SOL    HW116808   1.881   0.265   7.835  0.4371 -1.0678 -0.2802
 1782SOL    HW216809   1.745   0.326   7.820 -1.7194 -1.0376 -1.2116
 1783SOL     OW16810   3.941   2.315   3.673 -0.3720 -0.3186  0.0241
 1783SOL    HW116811   3.868   2.275   3.721  0.0096 -0.7777  0.2251
 1783SOL    HW216812   4.013   2.269   3.717 -0.7574  0.3589  1.3878
 1784SOL     OW16813   3.655   0.812   3.046 -0.5054  0.1013 -0.1232
 1784SOL    HW116814   3.742   0.822   3.007 -0.2644  0.5936  0.5455
 1784SOL    HW216815   3.603   0.875   2.996 -0.0671  0.2575 -0.3809
 1785SOL     OW16816   3.807   0.812   7.076 -0.0430 -0.4962  0.3410
 1785SOL    HW116817   3.741   0.876   7.105  0.5166  0.1394  0.2115
 1785SOL    HW216818   3.873   0.872   7.041 -2.1302  2.1397  0.9323
 1786SOL     OW16819   1.787   4.019   5.976  0.4333  0.4979  0.3495
 1786SOL    HW116820   1.775   3.991   5.886  1.9749  1.5735 -0.2021
 1786SOL    HW216821   1.883   4.017   5.979  0.4683  0.5622 -0.7783
 1787SOL     OW16822   1.127   0.908  11.351  0.1197  0.0038  0.0422
 1787SOL    HW116823   1.181   0.851  11.298 -1.1160 -1.9655  0.9114
 1787SOL    HW216824   1.137   0.872  11.439  2.0076  1.3504  0.3837
 1788SOL     OW16825   0.412   4.206   9.101  0.0459  0.1665 -0.2396
 1788SOL    HW116826   0.383   4.293   9.074 -1.0965  0.3382  1.5524
 1788SOL    HW216827   0.329   4.162   9.120  0.4896 -0.7974 -0.5181
 1789SOL     OW16828   4.278   2.628  15.057 -0.2091 -0.0196 -0.0188
 1789SOL    HW116829   4.197   2.580  15.047 -0.9212  1.3778 -0.9703
 1789SOL    HW216830   4.246   2.718  15.054 -0.6454 -0.2623 -2.9007
 1790SOL     OW16831   4.151   3.757  14.302  0.9747 -0.3124 -0.2422
 1790SOL    HW116832   4.142   3.721  14.214  1.5661 -0.3450 -0.2854
 1790SOL    HW216833   4.231   3.713  14.330 -0.4234 -1.1541  2.4635
 1791SOL     OW16834   0.295   4.585  12.976  0.1396 -0.2054 -0.0542
 1791SOL    HW116835   0.363   4.533  13.017 -0.3307 -1.8507 -1.3810
 1791SOL    HW216836   0.326   4.578  12.886  0.8715 -0.4960  0.2224
 1792SOL     OW16837   2.648   4.703  15.683 -0.2815 -0.2284 -0.3506
 1792SOL    HW116838   2.726   0.006  15.637 -1.6451 -1.8618 -3.6726
 1792SOL    HW216839   2.679   4.621  15.720 -2.4994 -1.4413 -1.1660
 1793SOL     OW16840   0.297   3.454  15.017  0.4596  0.1238 -1.3532
 1793SOL    HW116841   0.321   3.456  15.109 -0.7395  0.0762 -1.0357
 1793SOL    HW216842   0.338   3.530  14.976  1.3106  1.2089  1.5449
 1794SOL     OW16843   4.374   0.537  17.241 -0.0195 -0.0636 -0.3941
 1794SOL    HW116844   4.427   0.457  17.242 -0.0325 -0.1029 -2.9151
 1794SOL    HW216845   4.429   0.597  17.290 -1.1625 -0.8577  1.8511
 1795SOL     OW16846   3.025   2.681   8.517 -0.3688  0.0748  0.2071
 1795SOL    HW116847   2.984   2.637   8.592  1.2505 -0.3791  0.8171
 1795SOL    HW216848   3.069   2.756   8.556 -0.2534  0.5656 -0.8781
 1796SOL     OW16849   3.779   0.018  16.259 -0.3744 -0.1214 -0.0276
 1796SOL    HW116850   3.700   4.689  16.265  0.6094 -1.3981  1.8310
 1796SOL    HW216851   3.776   0.054  16.171  1.6972 -0.6949 -0.3438
 1797SOL     OW16852   0.008   0.561   5.283  0.3511  0.2501  0.9053
 1797SOL    HW116853   4.657   0.529   5.236 -0.0272  0.7617  1.1677
 1797SOL    HW216854   4.700   0.649   5.304  2.0405  0.9909  0.4407
 1798SOL     OW16855   3.473   0.595   3.996 -0.6419 -0.3355 -0.1596
 1798SOL    HW116856   3.405   0.594   3.929  0.4888  1.2377 -1.3226
 1798SOL    HW216857   3.554   0.617   3.951  1.1897  0.6480  3.5956
 1799SOL     OW16858   3.469   0.077   8.657 -0.4989 -0.0642  0.3574
 1799SOL    HW116859   3.543   0.043   8.707  0.3923  0.2830 -0.7327
 1799SOL    HW216860   3.488   0.171   8.656 -1.4893  0.1301 -0.8461
 1800SOL     OW16861   3.269   0.020   4.915 -0.2263  0.4365 -0.3690
 1800SOL    HW116862   3.354   0.062   4.902 -1.4506  2.1827 -2.7312
 1800SOL    HW216863   3.214   0.084   4.870 -0.7331  1.7027  2.0196
 1801SOL     OW16864   3.004   4.005   5.749  0.5433 -0.0347 -0.2612
 1801SOL    HW116865   3.016   4.008   5.655 -2.7052 -1.1609 -0.7380
 1801SOL    HW216866   3.065   4.072   5.778 -1.4130  1.9035 -0.5930
 1802SOL     OW16867   2.176   3.369   8.324 -0.0746  0.9330 -0.0587
 1802SOL    HW116868   2.137   3.392   8.409  0.1553 -0.6889  0.4974
 1802SOL    HW216869   2.247   3.432   8.317  0.8248 -0.0206  0.4007
 1803SOL     OW16870   0.001   3.827   7.480 -0.0057  0.0858 -0.2250
 1803SOL    HW116871   4.657   3.839   7.415  0.2676  0.5862 -0.4212
 1803SOL    HW216872   0.031   3.741   7.449  0.5163  0.4044 -0.6007
 1804SOL     OW16873   2.356   2.911   5.219 -0.1782  0.1773  0.2359
 1804SOL    HW116874   2.376   2.907   5.312  0.8036 -2.9077 -0.0960
 1804SOL    HW216875   2.399   2.830   5.192 -0.4143 -0.0079  0.4140
 1805SOL     OW16876   3.499   0.087  11.698 -0.3365  0.2842 -0.2490
 1805SOL    HW116877   3.446   0.167  11.704  0.7103  1.1495 -2.5126
 1805SOL    HW216878   3.488   0.068  11.791  1.5078  1.0226  0.1161
 1806SOL     OW16879   0.075   2.155  10.584  0.0583 -0.4624  0.1121
 1806SOL    HW116880   0.152   2.099  10.586  0.7566  0.5607  2.1113
 1806SOL    HW216881   0.102   2.218  10.651  0.0155 -1.8085  1.3963
 1807SOL     OW16882   3.622   2.570  13.604  0.1070 -0.0255  0.1419
 1807SOL    HW116883   3.717   2.579  13.608 -0.1169  2.5619 -0.1536
 1807SOL    HW216884   3.603   2.664  13.600 -1.1639 -0.3148 -0.6577
 1808SOL     OW16885   3.306   2.661   6.695  0.1169 -0.2560 -0.6004
 1808SOL    HW116886   3.304   2.729   6.762 -0.4292  2.4011 -3.2932
 1808SOL    HW216887   3.238   2.605   6.733  0.2012  1.9844  2.8222
 1809SOL     OW16888   0.980   1.244   3.435 -0.7199 -0.6845 -0.1464
 1809SOL    HW116889   0.961   1.319   3.492 -0.2061  1.0775 -2.2823
 1809SOL    HW216890   0.976   1.170   3.495  0.4489 -2.1463 -1.8844
 1810SOL     OW16891   2.671   0.666   7.095  0.7029 -0.0702 -0.2873
 1810SOL    HW116892   2.617   0.628   7.165  0.8589  1.4085  0.6522
 1810SOL    HW216893   2.627   0.628   7.020 -1.4685 -1.3254  1.6080
 1811SOL     OW16894   1.136   2.327   1.134 -0.0255 -0.0184 -0.1573
 1811SOL    HW116895   1.146   2.321   1.039  1.2325  0.5674 -0.0731
 1811SOL    HW216896   1.042   2.314   1.136  0.0117 -0.3013 -0.2288
 1812SOL     OW16897   3.480   2.092   7.397  0.2933 -0.3312 -0.0976
 1812SOL    HW116898   3.553   2.053   7.349  0.6485  0.4961 -0.2381
 1812SOL    HW216899   3.403   2.081   7.341  0.2855 -2.4437  0.3232
 1813SOL     OW16900   2.847   0.912   8.552 -0.1264  0.3034 -0.1804
 1813SOL    HW116901   2.792   0.984   8.522 -0.7683  0.6261  1.7549
 1813SOL    HW216902   2.785   0.839   8.551 -0.5128  0.6394 -0.7425
 1814SOL     OW16903   0.972   2.598   3.272  0.3677 -0.4332  0.1548
 1814SOL    HW116904   1.024   2.658   3.219  0.9997 -0.5213  0.6818
 1814SOL    HW216905   1.011   2.621   3.356  0.6821 -0.7651  0.1025
 1815SOL     OW16906   1.253   3.126   9.430 -0.0632 -0.6561 -0.6042
 1815SOL    HW116907   1.268   3.058   9.495  0.3244 -1.8627 -1.9615
 1815SOL    HW216908   1.347   3.139   9.415 -0.5397  0.7423 -2.3637
 1816SOL     OW16909   3.431   3.939   4.391 -0.3377 -0.0985 -0.0989
 1816SOL    HW116910   3.484   3.969   4.317  2.2148 -1.7666  1.0495
 1816SOL    HW216911   3.491   3.879   4.436 -1.4553  0.0761  1.6081
 1817SOL     OW16912   3.776   3.991  17.238 -0.3587  0.5585 -0.1960
 1817SOL    HW116913   3.835   3.977  17.164 -0.8504  1.0579 -0.6814
 1817SOL    HW216914   3.794   3.907  17.280  1.2287  0.6193 -0.7389
 1818SOL     OW16915   1.570   0.094   3.937  0.0415 -0.6192 -0.3830
 1818SOL    HW116916   1.561   0.181   3.899 -1.8133 -0.8222 -0.4084
 1818SOL    HW216917   1.493   0.047   3.907 -0.4014  0.2178 -0.5630
 1819SOL     OW16918   2.980   2.573   5.813  0.0949 -0.5839  0.0137
 1819SOL    HW116919   3.070   2.545   5.796 -0.4456 -2.4210  0.1996
 1819SOL    HW216920   2.944   2.529   5.735  1.4068 -2.6491  0.5729
 1820SOL     OW16921   2.067   3.251   8.848 -0.4458 -0.0125  0.4515
 1820SOL    HW116922   2.118   3.332   8.848  0.2588 -0.4696  0.8754
 1820SOL    HW216923   2.100   3.219   8.931  2.0283  0.5848 -0.3097
 1821SOL     OW16924   2.652   2.599   2.245  0.4476  0.2548  0.6558
 1821SOL    HW116925   2.644   2.571   2.336 -1.6348 -3.0546 -0.5410
 1821SOL    HW216926   2.729   2.655   2.251  0.9731 -0.4695  0.7146
 1822SOL     OW16927   4.008   2.300  11.230 -0.6532 -0.2759  0.1960
 1822SOL    HW116928   3.979   2.270  11.143  0.8754 -0.2915 -0.2967
 1822SOL    HW216929   3.966   2.386  11.234  0.1816  0.3216 -3.4883
 1823SOL     OW16930   3.928   1.419   3.244 -0.3767 -0.5199  0.2480
 1823SOL    HW116931   3.949   1.354   3.310 -0.1947 -1.8424 -1.1035
 1823SOL    HW216932   3.985   1.491   3.272  0.1320 -1.7218  2.2839
 1824SOL     OW16933   3.337   0.884  14.092 -0.4239  0.7791  0.0141
 1824SOL    HW116934   3.374   0.849  14.173  2.2753  1.7006 -0.8575
 1824SOL    HW216935   3.247   0.850  14.084 -1.2457  2.8379  0.3912
 1825SOL     OW16936   4.636   4.257   4.257  0.5045  0.2623 -0.2140
 1825SOL    HW116937   4.588   4.323   4.207  1.0343  2.5630  2.3014
 1825SOL    HW216938   4.594   4.176   4.229  0.0686  0.9112 -1.4423
 1826SOL     OW16939   3.520   1.766   1.682  0.1057  0.6283  0.6429
 1826SOL    HW116940   3.570   1.815   1.616 -1.1851  2.1662  0.8229
 1826SOL    HW216941   3.444   1.823   1.686 -0.3707  0.0727 -0.5849
 1827SOL     OW16942   0.549   3.097   9.107 -0.1775  0.9193 -0.2898
 1827SOL    HW116943   0.503   3.077   9.189 -0.2685  1.1964 -0.2740
 1827SOL    HW216944   0.477   3.090   9.045  2.7667  0.5095 -3.7151
 1828SOL     OW16945   1.031   1.051   3.229  0.6752  0.3922 -0.4415
 1828SOL    HW116946   1.040   1.139   3.266 -1.5691  0.4483 -0.0311
 1828SOL    HW216947   1.056   1.056   3.137 -1.8857 -2.3405 -1.2855
 1829SOL     OW16948   2.676   1.749   6.649  0.1078 -0.3768 -0.1368
 1829SOL    HW116949   2.610   1.798   6.699  2.5734 -2.1440  4.8557
 1829SOL    HW216950   2.725   1.816   6.600 -0.1185 -0.0081  0.1362
 1830SOL     OW16951   2.966   1.794  11.231 -0.4493 -0.0876 -0.1875
 1830SOL    HW116952   2.910   1.731  11.276  0.9570  0.0081  1.6853
 1830SOL    HW216953   2.971   1.771  11.138 -1.2637 -4.1737  0.8146
 1831SOL     OW16954   2.013   3.061   1.680 -0.1057 -0.2077  0.5384
 1831SOL    HW116955   2.028   3.032   1.590 -0.2980 -0.7847  0.6961
 1831SOL    HW216956   2.098   3.100   1.698 -0.4659  0.7547  0.1912
 1832SOL     OW16957   4.383   3.059   8.890 -0.0465 -0.4863 -0.3394
 1832SOL    HW116958   4.399   3.150   8.866  0.0548 -0.1170  1.1277
 1832SOL    HW216959   4.316   3.042   8.824  0.2215  0.7765 -0.9278
 1833SOL     OW16960   1.669   0.080   6.401 -0.1312  0.1388  0.5478
 1833SOL    HW116961   1.621   0.003   6.370 -0.7967  0.8352 -0.1496
 1833SOL    HW216962   1.635   0.085   6.490  0.6216  2.8400  0.6743
 1834SOL     OW16963   2.694   0.975   3.838 -0.0392  1.1045  0.3098
 1834SOL    HW116964   2.640   1.051   3.858 -0.5985  0.3704  1.5392
 1834SOL    HW216965   2.641   0.899   3.863 -2.3276  2.1780 -1.1784
 1835SOL     OW16966   3.716   4.331   3.768  0.9314  0.1487  0.3796
 1835SOL    HW116967   3.709   4.328   3.864  0.3443 -3.0906  0.2557
 1835SOL    HW216968   3.665   4.405   3.739  1.1131 -0.5511 -1.6959
 1836SOL     OW16969   3.957   1.123   7.395  0.6315 -0.0311 -0.7343
 1836SOL    HW116970   3.981   1.129   7.303  0.1936  0.5189 -0.8097
 1836SOL    HW216971   3.911   1.040   7.392  0.3770  0.0026  2.2244
 1837SOL     OW16972   4.378   3.044  14.939  0.3637 -1.1024  0.1031
 1837SOL    HW116973   4.337   3.061  14.854  2.3504  0.2245 -0.6106
 1837SOL    HW216974   4.427   3.126  14.940 -1.2037 -0.1442 -1.0947
 1838SOL     OW16975   3.118   3.490   6.192 -0.0259  0.3505  0.1814
 1838SOL    HW116976   3.137   3.398   6.175  1.1499  0.3927  1.2335
 1838SOL    HW216977   3.121   3.482   6.288  2.3239  1.8379  0.2412
 1839SOL     OW16978   4.223   0.155   3.947  0.4558 -0.6827 -0.0724
 1839SOL    HW116979   4.152   0.135   3.886 -1.1784 -1.7247  2.1607
 1839SOL    HW216980   4.165   0.176   4.020 -0.2073 -3.4403  0.2164
 1840SOL     OW16981   0.672   2.684   2.130 -0.0027 -0.4126 -0.3394
 1840SOL    HW116982   0.696   2.613   2.190 -0.7393 -1.9493 -1.8584
 1840SOL    HW216983   0.761   2.709   2.105  0.4890 -0.7975  1.0501
 1841SOL     OW16984   0.309   1.843   3.518 -0.6818 -0.0783  0.5691
 1841SOL    HW116985   0.310   1.748   3.506 -1.1838 -0.0385  0.1707
 1841SOL    HW216986   0.254   1.855   3.595 -1.4444 -2.0851  0.3513
 1842SOL     OW16987   4.656   0.952   2.223 -0.0018  0.3551  0.4721
 1842SOL    HW116988   4.659   1.043   2.251 -1.1827  0.4913  0.1229
 1842SOL    HW216989   0.026   0.937   2.222 -0.0775 -0.0647 -0.3551
 1843SOL     OW16990   2.161   0.940   2.535  0.4544  0.1190 -0.6407
 1843SOL    HW116991   2.137   0.960   2.444 -1.1691 -2.3285 -0.7444
 1843SOL    HW216992   2.256   0.950   2.525  0.3451  0.5147 -1.2976
 1844SOL     OW16993   2.684   2.400   5.382 -0.1263  0.4616 -0.4900
 1844SOL    HW116994   2.591   2.376   5.371  0.5821 -2.4590 -0.2720
 1844SOL    HW216995   2.677   2.493   5.362  2.4346  0.5264 -1.0742
 1845SOL     OW16996   4.560   0.037   8.598  0.2010 -0.7037  0.5108
 1845SOL    HW116997   4.529   0.056   8.509  0.9419 -0.7283  0.2466
 1845SOL    HW216998   4.647   0.077   8.596  0.1874 -0.6977  0.0764
 1846SOL     OW16999   1.670   2.815   2.810 -0.0229 -0.3887 -0.0827
 1846SOL    HW117000   1.664   2.856   2.723 -2.6255 -0.7704 -0.1087
 1846SOL    HW217001   1.638   2.727   2.792  0.7696 -0.4177 -1.3438
 1847SOL     OW17002   2.858   0.344  13.482  0.4271  0.1891  0.1181
 1847SOL    HW117003   2.847   0.365  13.390 -0.4121 -5.2467 -1.0486
 1847SOL    HW217004   2.920   0.271  13.478  1.2676  0.9221 -0.2333
 1848SOL     OW17005   4.592   3.533  10.443  0.0185 -0.6911 -0.4441
 1848SOL    HW117006   4.666   3.573  10.488 -0.0581  0.1247 -1.0511
 1848SOL    HW217007   4.548   3.616  10.423  0.1309 -0.2635  1.1121
 1849SOL     OW17008   4.514   3.886  17.656  0.9043 -0.3223  0.6548
 1849SOL    HW117009   4.602   3.854  17.632 -0.0716  0.1082 -3.5258
 1849SOL    HW217010   4.488   3.946  17.586  1.0113 -0.1613  0.7540
 1850SOL     OW17011   1.565   3.028   2.950  0.0743  0.3656  0.4135
 1850SOL    HW117012   1.600   2.948   2.911 -3.8759 -1.1593  0.0862
 1850SOL    HW217013   1.519   3.069   2.877  0.6496  0.2420 -0.0167
 1851SOL     OW17014   1.330   4.035   6.257  0.4432  0.2131  0.0539
 1851SOL    HW117015   1.337   4.093   6.333 -0.6692  1.2632 -0.6664
 1851SOL    HW217016   1.415   4.059   6.221 -0.0588  0.0245 -1.2304
 1852SOL     OW17017   2.347   2.011   4.346 -0.0732 -0.0776 -0.6542
 1852SOL    HW117018   2.308   2.030   4.261  0.2639  0.1804 -0.7517
 1852SOL    HW217019   2.301   1.933   4.378  0.0137 -1.0298 -2.8995
 1853SOL     OW17020   3.432   3.486   7.003  0.0028 -0.3042 -0.1561
 1853SOL    HW117021   3.434   3.570   6.958  0.6690  0.7836  1.8632
 1853SOL    HW217022   3.365   3.436   6.957  0.5136  0.1338 -1.3810
 1854SOL     OW17023   0.847   1.927   8.040 -0.2676  0.1453 -0.1286
 1854SOL    HW117024   0.917   1.867   8.064  0.0986  0.7251  0.2558
 1854SOL    HW217025   0.781   1.912   8.108 -0.4004 -2.1265 -0.7680
 1855SOL     OW17026   2.094   1.935   6.797  0.3883 -0.0296  0.0363
 1855SOL    HW117027   2.096   1.842   6.821  1.1436 -0.4807 -1.7785
 1855SOL    HW217028   2.035   1.968   6.864  0.5837  0.1567  0.1168
 1856SOL     OW17029   3.106   2.246   5.623  0.2695 -0.1088 -0.1726
 1856SOL    HW117030   3.166   2.181   5.586  1.2428 -0.0120  1.2492
 1856SOL    HW217031   3.018   2.218   5.598  1.2092 -1.2666 -2.2466
 1857SOL     OW17032   1.494   4.320  11.251  0.2884  0.0162 -0.1230
 1857SOL    HW117033   1.498   4.386  11.181  0.6351  0.3363  0.2003
 1857SOL    HW217034   1.425   4.261  11.220  2.8149 -2.4033 -1.0465
 1858SOL     OW17035   0.780   4.424   7.022 -0.1467  0.0874 -0.7004
 1858SOL    HW117036   0.686   4.440   7.019 -0.1956  0.1404  1.0705
 1858SOL    HW217037   0.797   4.388   7.109 -3.0071  0.5574  0.0464
 1859SOL     OW17038   2.295   1.085   2.003  0.3325  0.3017  0.2888
 1859SOL    HW117039   2.369   1.024   1.998  1.0781  0.9663  3.4746
 1859SOL    HW217040   2.333   1.164   2.042 -1.7251  0.7960  1.2790
 1860SOL     OW17041   2.868   2.840   5.728  0.2779 -0.1368 -0.2607
 1860SOL    HW117042   2.882   2.858   5.635  0.7073 -0.5620 -0.2780
 1860SOL    HW217043   2.928   2.766   5.739 -0.7594 -0.8512  0.6750
 1861SOL     OW17044   0.492   0.312   3.177 -0.3950 -0.1976 -0.6563
 1861SOL    HW117045   0.581   0.345   3.162 -0.1100 -0.5607  0.1974
 1861SOL    HW217046   0.451   0.390   3.215  3.0373  0.7517  1.0949
 1862SOL     OW17047   1.609   1.206   0.859  0.0730  0.1088 -0.4551
 1862SOL    HW117048   1.607   1.114   0.833 -0.0005  0.7231 -2.6129
 1862SOL    HW217049   1.664   1.201   0.937  0.9427  0.5044 -1.0470
 1863SOL     OW17050   2.209   2.539   1.718  0.0666 -0.9036  0.0898
 1863SOL    HW117051   2.205   2.635   1.713  3.9677 -0.7543  0.0178
 1863SOL    HW217052   2.123   2.520   1.679  0.5381 -2.5924 -0.1088
 1864SOL     OW17053   0.046   1.020   5.689  0.0072  0.2316  0.0394
 1864SOL    HW117054   4.698   0.973   5.728  2.0974  0.2093  3.8563
 1864SOL    HW217055   0.061   0.949   5.626  0.5595  0.8617 -0.5586
 1865SOL     OW17056   0.396   4.358  14.714  0.3271 -0.0154  0.3199
 1865SOL    HW117057   0.386   4.337  14.807  1.5881 -0.3449  0.3821
 1865SOL    HW217058   0.385   4.453  14.713 -0.7495 -0.1502 -0.0617
 1866SOL     OW17059   2.366   1.397   0.056  0.1822  0.5012 -0.6647
 1866SOL    HW117060   2.289   1.415   0.002  0.7729  0.5270 -1.5059
 1866SOL    HW217061   2.431   1.416  17.690  0.3626  1.5685 -0.1992
 1867SOL     OW17062   3.951   0.446   2.239  0.8639 -0.1018  0.6702
 1867SOL    HW117063   4.040   0.460   2.204  0.7390 -1.1781 -0.0737
 1867SOL    HW217064   3.899   0.456   2.159  0.7024  0.8255  0.8870
 1868SOL     OW17065   3.051   2.215  11.673  0.1058  0.1697  0.1642
 1868SOL    HW117066   3.018   2.208  11.583 -2.1158 -0.3397  1.0178
 1868SOL    HW217067   3.016   2.132  11.707 -0.9839  1.5810  2.4414
 1869SOL     OW17068   3.320   4.060   8.470 -0.5654  0.0739 -0.2918
 1869SOL    HW117069   3.247   4.019   8.425  0.8871 -0.5187 -2.0951
 1869SOL    HW217070   3.278   4.036   8.553 -1.5931  1.0340 -0.5338
 1870SOL     OW17071   0.357   3.168  13.497 -0.0461  0.9297 -0.7692
 1870SOL    HW117072   0.264   3.164  13.474  0.0373 -1.2352 -0.7968
 1870SOL    HW217073   0.370   3.102  13.566 -1.6044 -0.3288 -1.6657
 1871SOL     OW17074   2.707   3.246   3.875 -0.0956  0.1413 -0.5164
 1871SOL    HW117075   2.705   3.163   3.828 -0.9654 -0.7423  1.0630
 1871SOL    HW217076   2.619   3.282   3.864  0.1430  0.4568 -1.3838
 1872SOL     OW17077   2.240   2.155   3.554  0.2355  0.2403  0.0549
 1872SOL    HW117078   2.212   2.085   3.613 -0.0546  1.0855  0.9092
 1872SOL    HW217079   2.183   2.223   3.589 -0.8376 -0.7873  0.2941
 1873SOL     OW17080   4.098   0.698   4.508  0.3150  0.1579 -0.0357
 1873SOL    HW117081   4.013   0.725   4.474 -0.9350 -1.1421  2.0859
 1873SOL    HW217082   4.090   0.603   4.505  0.4451  0.1549 -0.3097
 1874SOL     OW17083   2.049   2.545  14.865  0.1808  0.3245  0.0672
 1874SOL    HW117084   2.087   2.462  14.836 -2.4105 -0.8442 -0.0037
 1874SOL    HW217085   2.036   2.519  14.956 -1.2466 -0.4235 -0.3501
 1875SOL     OW17086   2.010   4.524   9.263  0.0219  0.3141  0.0360
 1875SOL    HW117087   1.993   4.430   9.265 -1.0884  0.5127 -0.0941
 1875SOL    HW217088   2.024   4.536   9.357 -1.0183 -2.1936  0.4974
 1876SOL     OW17089   4.253   1.527  11.875 -0.1547 -0.3357  0.2552
 1876SOL    HW117090   4.322   1.465  11.853 -0.3671  0.3360 -2.3097
 1876SOL    HW217091   4.306   1.574  11.940 -0.9153  0.9804 -0.0835
 1877SOL     OW17092   1.221   0.615  12.268 -0.1798 -0.6442  0.1179
 1877SOL    HW117093   1.192   0.675  12.336  0.4700  0.4570 -0.5596
 1877SOL    HW217094   1.228   0.534  12.317 -0.8738 -1.7969 -1.6794
 1878SOL     OW17095   1.459   1.135   8.203 -0.1529  0.7027  0.9089
 1878SOL    HW117096   1.517   1.067   8.236 -0.4517  1.3555  2.7552
 1878SOL    HW217097   1.377   1.086   8.206  0.9456 -1.1897 -0.1862
 1879SOL     OW17098   3.338   0.397  16.902 -0.3971 -0.0514  0.4651
 1879SOL    HW117099   3.294   0.320  16.937 -3.0255  0.2075 -2.2356
 1879SOL    HW217100   3.281   0.412  16.827  2.7632 -1.5602 -2.1998
 1880SOL     OW17101   3.920   3.266   2.403  0.2929 -0.3268 -0.0310
 1880SOL    HW117102   3.865   3.190   2.424 -2.1392  1.5392  0.3292
 1880SOL    HW217103   3.911   3.321   2.481  0.3309 -0.8796  0.3679
 1881SOL     OW17104   2.990   2.647   1.994 -0.0294  0.0183  0.4804
 1881SOL    HW117105   3.075   2.682   2.021 -0.3729  0.9299  0.3994
 1881SOL    HW217106   2.983   2.574   2.055  1.5811 -0.6059 -0.0853
 1882SOL     OW17107   2.558   4.575   1.525 -0.0040  0.6730 -0.4116
 1882SOL    HW117108   2.616   4.530   1.465  0.3849 -1.5130  1.6191
 1882SOL    HW217109   2.488   4.606   1.467 -1.6520 -2.3033  0.0099
 1883SOL     OW17110   2.220   2.214  11.751 -0.4263  0.0786 -0.6333
 1883SOL    HW117111   2.246   2.196  11.661  0.8349 -1.4351  0.0444
 1883SOL    HW217112   2.294   2.178  11.799 -1.0344  1.4464  1.3101
 1884SOL     OW17113   4.374   1.158   8.468  0.2142 -0.6666  0.0654
 1884SOL    HW117114   4.439   1.096   8.499  3.1304  2.5070  0.2168
 1884SOL    HW217115   4.350   1.195   8.553 -0.9947 -0.5799 -0.3093
 1885SOL     OW17116   2.027   3.961   8.536  0.2808 -0.1912 -0.3843
 1885SOL    HW117117   1.933   3.955   8.518  0.1642 -2.4580  0.9588
 1885SOL    HW217118   2.018   3.954   8.632 -1.0786  1.5650 -0.3846
 1886SOL     OW17119   0.964   3.861   3.835  0.5600  0.1813  0.7034
 1886SOL    HW117120   0.999   3.950   3.843  0.5232  0.2417  0.1649
 1886SOL    HW217121   1.041   3.820   3.874 -0.4284 -1.3103  1.0808
 1887SOL     OW17122   1.681   4.632   2.115  0.5175 -0.1377  1.6987
 1887SOL    HW117123   1.648   4.627   2.026 -1.8589  1.0581  2.5216
 1887SOL    HW217124   1.621   4.578   2.167  2.0981 -1.3703  2.2497
 1888SOL     OW17125   1.511   1.658   8.361 -0.0507  0.5153  0.7133
 1888SOL    HW117126   1.556   1.685   8.440 -1.1118 -0.2800  1.5919
 1888SOL    HW217127   1.546   1.569   8.354  0.6454  0.8520 -0.0293
 1889SOL     OW17128   2.296   2.138   1.890  0.1045  0.3562  0.1635
 1889SOL    HW117129   2.311   2.207   1.955 -1.7509  0.9721 -0.0890
 1889SOL    HW217130   2.203   2.119   1.903  0.3240 -0.2690  0.8380
 1890SOL     OW17131   0.827   0.231   4.928 -0.1411 -0.0781 -0.8648
 1890SOL    HW117132   0.915   0.214   4.894  0.4499 -0.7691  0.9695
 1890SOL    HW217133   0.781   0.277   4.858  1.5116  2.2650 -0.4278
 1891SOL     OW17134   2.223   2.591   3.320 -0.7643 -0.2942 -0.3855
 1891SOL    HW117135   2.310   2.569   3.354  0.3505 -0.2562 -3.1992
 1891SOL    HW217136   2.241   2.638   3.239  1.1390 -2.7923 -1.4336
 1892SOL     OW17137   3.594   2.657   3.154 -0.5708 -0.3763  0.8308
 1892SOL    HW117138   3.510   2.611   3.151 -0.2131 -0.9089 -0.8994
 1892SOL    HW217139   3.561   2.746   3.142  1.5866  0.3251  0.2140
 1893SOL     OW17140   0.392   0.346   1.392  0.0793  0.0933 -0.4350
 1893SOL    HW117141   0.421   0.394   1.469 -0.5843 -0.7914  0.3630
 1893SOL    HW217142   0.476   0.320   1.354 -0.5760 -1.6718 -0.6545
 1894SOL     OW17143   3.994   1.191  17.675  0.0881  0.3023  0.0676
 1894SOL    HW117144   4.022   1.283  17.675 -0.2260  0.3831 -2.3893
 1894SOL    HW217145   4.043   1.156  17.601  2.3023  3.5256  0.0161
 1895SOL     OW17146   1.538   2.187   7.181 -0.0659 -0.3910  0.5703
 1895SOL    HW117147   1.604   2.184   7.250  0.6723  2.3332 -0.0440
 1895SOL    HW217148   1.566   2.266   7.136 -0.6675  1.2821  3.0904
 1896SOL     OW17149   0.211   4.224   0.694  0.5275 -0.2446 -0.0849
 1896SOL    HW117150   0.269   4.169   0.641  2.3144  1.9179 -0.3582
 1896SOL    HW217151   0.175   4.278   0.624 -0.3804  0.3769  0.8631
 1897SOL     OW17152   1.367   2.805   5.762 -0.2513 -0.3108  0.1378
 1897SOL    HW117153   1.355   2.884   5.709 -0.5340 -0.7024 -0.3841
 1897SOL    HW217154   1.277   2.789   5.792 -1.0668 -0.1713 -2.2189
 1898SOL     OW17155   3.283   3.602   0.351 -0.7445 -0.6908  0.4233
 1898SOL    HW117156   3.323   3.566   0.430  3.4835 -0.8607 -1.8255
 1898SOL    HW217157   3.243   3.526   0.309 -1.0322 -0.8114  0.9166
 1899SOL     OW17158   1.239   1.811   3.700  0.3958 -0.5598 -0.1766
 1899SOL    HW117159   1.238   1.858   3.783  0.4821  1.5768 -1.3566
 1899SOL    HW217160   1.328   1.793   3.670  0.0323 -0.0566 -1.5680
 1900SOL     OW17161   3.231   0.198  10.916  0.4842 -0.3330 -0.2039
 1900SOL    HW117162   3.300   0.263  10.905  1.1940 -1.1803 -0.7532
 1900SOL    HW217163   3.153   0.251  10.902  0.9578 -0.2906 -2.6765
 1901SOL     OW17164   0.769   1.162  16.604 -0.4725  0.1359 -0.2498
 1901SOL    HW117165   0.782   1.155  16.698 -0.5443  1.2287 -0.1562
 1901SOL    HW217166   0.674   1.174  16.606 -0.4201  0.2963  1.2341
 1902SOL     OW17167   1.111   3.587  17.205  0.3951  0.6094  0.1455
 1902SOL    HW117168   1.047   3.578  17.135  2.0633  0.3609 -1.3406
 1902SOL    HW217169   1.131   3.495  17.221  1.7269  0.6597 -1.1912
 1903SOL     OW17170   2.314   0.795   7.391 -0.1018  0.1014 -0.1234
 1903SOL    HW117171   2.306   0.860   7.321  1.3187  0.2448 -0.1539
 1903SOL    HW217172   2.258   0.727   7.353 -2.2972  0.2188  2.8682
 1904SOL     OW17173   2.185   0.215   4.661 -0.6499  0.9821 -0.3501
 1904SOL    HW117174   2.241   0.137   4.667 -2.1122 -0.0033  0.4471
 1904SOL    HW217175   2.203   0.235   4.569 -0.2925 -2.3642 -0.9945
 1905SOL     OW17176   1.881   2.105   4.911  0.2534 -0.2117 -0.2855
 1905SOL    HW117177   1.918   2.082   4.997  1.5003 -1.1775 -1.0870
 1905SOL    HW217178   1.869   2.018   4.875 -0.3386  0.7728 -2.4326
 1906SOL     OW17179   2.952   2.909   6.901 -0.0259  0.1644  0.5968
 1906SOL    HW117180   2.911   2.826   6.924  2.5964 -0.6063  2.4045
 1906SOL    HW217181   2.889   2.960   6.849  1.6438  1.6908  0.0877
 1907SOL     OW17182   3.175   1.608   3.111 -0.3267  0.0141  0.1169
 1907SOL    HW117183   3.091   1.576   3.142 -1.0726 -0.4018 -2.3400
 1907SOL    HW217184   3.159   1.700   3.089 -1.7222 -0.0344  0.9397
 1908SOL     OW17185   2.711   0.729   0.429 -0.1884 -0.2857  0.1006
 1908SOL    HW117186   2.803   0.733   0.456  0.0534 -0.9115 -0.6590
 1908SOL    HW217187   2.690   0.820   0.454  0.6963  0.0102 -0.2477
 1909SOL     OW17188   1.963   2.993   4.491  0.3596  0.6715  0.0962
 1909SOL    HW117189   2.044   3.001   4.440  0.6473  2.3505  0.8175
 1909SOL    HW217190   1.930   2.910   4.458  0.7242  0.6872 -0.3081
 1910SOL     OW17191   3.257   2.156  11.342  0.4014  0.8250  0.3075
 1910SOL    HW117192   3.182   2.197  11.385  0.7671  1.1364  0.6497
 1910SOL    HW217193   3.221   2.082  11.294  1.6032 -0.8081  1.9696
 1911SOL     OW17194   0.255   0.472   0.695 -0.0504  0.0800  0.1721
 1911SOL    HW117195   0.283   0.517   0.615  0.6053 -0.5164  0.0689
 1911SOL    HW217196   0.207   0.542   0.739 -0.9898 -0.2582 -0.3020
 1912SOL     OW17197   0.329   1.615   9.640  0.4304  0.4619 -0.1438
 1912SOL    HW117198   0.361   1.553   9.705 -0.1354 -1.3425 -1.5507
 1912SOL    HW217199   0.349   1.568   9.559 -3.0742 -1.0980 -0.1268
 1913SOL     OW17200   1.165   3.385  10.999 -0.4094 -0.0635 -0.0432
 1913SOL    HW117201   1.185   3.460  10.944  0.1118  0.1765  0.4757
 1913SOL    HW217202   1.246   3.394  11.049 -0.1239  0.9807 -0.7004
 1914SOL     OW17203   4.631   1.592  12.906  0.0202  0.6014 -0.2509
 1914SOL    HW117204   4.581   1.669  12.879  0.6148  1.0460 -0.0923
 1914SOL    HW217205   4.712   1.613  12.859  1.1552 -1.6678  0.6780
 1915SOL     OW17206   1.859   0.433   3.997  0.2376 -0.0469  0.3660
 1915SOL    HW117207   1.901   0.347   4.000 -0.0299 -0.1678  0.7868
 1915SOL    HW217208   1.923   0.487   4.042  0.6683 -1.2671  1.2259
 1916SOL     OW17209   0.481   4.531   3.711  0.0085  0.7304 -0.3589
 1916SOL    HW117210   0.413   4.504   3.649  0.7249 -1.1480 -0.3400
 1916SOL    HW217211   0.548   4.556   3.646  0.3507 -1.7161 -0.9518
 1917SOL     OW17212   0.739   4.686   7.730  0.5209 -0.1317  0.2729
 1917SOL    HW117213   0.824   4.645   7.713  0.3770 -1.0065  1.5867
 1917SOL    HW217214   0.756   0.036   7.675 -2.6060  2.0901  2.3184
 1918SOL     OW17215   0.830   2.878   3.392 -0.6452  0.1884  0.3058
 1918SOL    HW117216   0.863   2.952   3.442  0.8132  1.4971 -2.6287
 1918SOL    HW217217   0.878   2.894   3.312  2.9478  1.1024  2.6739
 1919SOL     OW17218   2.102   3.154   6.446 -0.2374  0.2923 -0.8129
 1919SOL    HW117219   2.152   3.212   6.502  0.7406 -0.8463 -0.5130
 1919SOL    HW217220   2.101   3.201   6.363  0.0660 -0.0563 -1.0152
 1920SOL     OW17221   1.471   1.311  17.295  0.2123 -0.4378  0.2315
 1920SOL    HW117222   1.487   1.310  17.201 -1.6022 -1.9747 -0.0527
 1920SOL    HW217223   1.376   1.306  17.287  0.0008 -0.0868  2.4557
 1921SOL     OW17224   4.292   1.843   2.232  0.1061 -0.2046 -0.1981
 1921SOL    HW117225   4.331   1.889   2.306  0.7015 -0.5066 -0.3178
 1921SOL    HW217226   4.366   1.795   2.193  0.3708  0.9690 -1.1599
 1922SOL     OW17227   3.106   1.009   2.081 -0.8251 -0.1328 -0.1196
 1922SOL    HW117228   3.164   1.085   2.086  0.6260 -1.3379  1.1948
 1922SOL    HW217229   3.052   1.043   2.152 -0.6820 -1.7112  0.7486
 1923SOL     OW17230   1.129   4.573   4.733 -0.2222 -0.0412 -0.3221
 1923SOL    HW117231   1.090   4.657   4.712  0.5320 -0.0692 -1.8187
 1923SOL    HW217232   1.137   4.528   4.649 -1.0713 -0.6405 -0.0724
 1924SOL     OW17233   1.233   3.267  13.805 -0.0012 -0.0822 -0.0081
 1924SOL    HW117234   1.217   3.213  13.728  2.7306 -0.0313 -0.5993
 1924SOL    HW217235   1.311   3.230  13.846  0.0625  0.2481  0.1717
 1925SOL     OW17236   0.432   3.716  16.487  0.5505  0.4459  0.1103
 1925SOL    HW117237   0.386   3.792  16.523  1.4854  1.5142 -0.9388
 1925SOL    HW217238   0.485   3.769  16.428  0.2185  2.0886  1.2726
 1926SOL     OW17239   1.673   1.859  14.383 -0.4869 -0.5762  0.2592
 1926SOL    HW117240   1.697   1.859  14.476 -0.3584  1.3307  0.2359
 1926SOL    HW217241   1.587   1.900  14.386  0.1879  0.9410 -0.7886
 1927SOL     OW17242   1.872   3.673   7.512 -0.7407 -0.1449  0.1938
 1927SOL    HW117243   1.837   3.762   7.504 -1.1332 -0.4138 -1.0767
 1927SOL    HW217244   1.811   3.626   7.455 -1.8685  0.4572  0.8931
 1928SOL     OW17245   3.576   2.029  11.557 -0.3229 -0.6684  0.3344
 1928SOL    HW117246   3.571   2.037  11.652 -2.0098  2.0903  0.0131
 1928SOL    HW217247   3.544   2.116  11.532  2.5463  0.2381 -0.1612
 1929SOL     OW17248   2.310   3.824   2.705 -0.0415  0.1645  0.5630
 1929SOL    HW117249   2.255   3.757   2.746 -0.0739 -0.7375 -0.9765
 1929SOL    HW217250   2.345   3.868   2.783 -1.2073 -0.8056  1.6405
 1930SOL     OW17251   3.158   0.475   8.170 -0.1188  0.1662 -0.1012
 1930SOL    HW117252   3.225   0.488   8.103 -1.2029  0.8505 -1.0465
 1930SOL    HW217253   3.200   0.423   8.239 -0.7475 -0.4323 -0.1722
 1931SOL     OW17254   0.180   2.279   4.396 -0.6019 -0.5775 -0.1506
 1931SOL    HW117255   0.199   2.196   4.351 -1.6494 -0.5721 -0.6012
 1931SOL    HW217256   0.266   2.317   4.382 -1.0937  0.7915  0.5427
 1932SOL     OW17257   1.703   1.576   3.552 -0.3012 -0.6205  0.1722
 1932SOL    HW117258   1.701   1.485   3.581 -0.0265 -0.8878 -0.6285
 1932SOL    HW217259   1.694   1.562   3.457  1.7097 -0.2126 -0.0791
 1933SOL     OW17260   2.043   3.316   6.189  0.5134  0.1641 -0.9388
 1933SOL    HW117261   2.085   3.401   6.178 -0.5123  0.7785 -0.0760
 1933SOL    HW217262   1.954   3.340   6.162 -0.4673 -1.5920  0.6978
 1934SOL     OW17263   4.241   4.487   9.176  0.3122  0.6946  0.0189
 1934SOL    HW117264   4.301   4.561   9.187  0.1187  0.5318  2.1702
 1934SOL    HW217265   4.170   4.510   9.235 -0.5285  0.5610 -0.9494
 1935SOL     OW17266   3.678   1.785  16.830 -0.9453  0.5603 -0.1771
 1935SOL    HW117267   3.679   1.822  16.919  0.0780  1.5173 -0.5967
 1935SOL    HW217268   3.683   1.695  16.861  2.6282  0.5073 -0.9703
 1936SOL     OW17269   0.688   1.676   6.748 -0.2615  0.2786 -0.4287
 1936SOL    HW117270   0.779   1.703   6.759 -0.2064  1.2438 -3.1399
 1936SOL    HW217271   0.650   1.667   6.835  0.1380 -2.2383 -0.5096
 1937SOL     OW17272   0.480   3.253   6.320 -0.1328  0.7583 -0.0648
 1937SOL    HW117273   0.575   3.249   6.323 -0.2921 -2.3406  0.6059
 1937SOL    HW217274   0.464   3.341   6.287 -0.8619  0.7449  0.2355
 1938SOL     OW17275   4.163   3.441   2.920  0.2137  0.3710  0.0390
 1938SOL    HW117276   4.116   3.523   2.905  0.7005  0.4087 -1.2528
 1938SOL    HW217277   4.107   3.405   2.989  0.5298 -1.4440 -0.6411
 1939SOL     OW17278   1.713   4.629   7.338  0.5214 -0.1500 -0.4812
 1939SOL    HW117279   1.767   4.684   7.280  0.6589  0.7703  0.5145
 1939SOL    HW217280   1.624   4.656   7.317  0.6936  0.5021 -0.3790
 1940SOL     OW17281   2.377   3.657  16.464 -0.1326  0.4663  0.1731
 1940SOL    HW117282   2.295   3.699  16.490 -0.9505 -0.0026 -1.6739
 1940SOL    HW217283   2.436   3.727  16.492  0.3835 -0.7133  2.0135
 1941SOL     OW17284   0.704   4.610  17.224  0.0758  0.4777  0.2689
 1941SOL    HW117285   0.677   4.683  17.279 -1.4741 -1.0202  1.4812
 1941SOL    HW217286   0.763   4.565  17.284  0.5287  3.4596  2.0495
 1942SOL     OW17287   4.158   0.713   5.245 -0.0566  0.0243  0.1621
 1942SOL    HW117288   4.079   0.760   5.272 -0.0251  1.8039 -2.7588
 1942SOL    HW217289   4.144   0.720   5.150 -0.7511 -2.3871  0.0809
 1943SOL     OW17290   4.563   2.038  10.979  0.2121  0.0768 -0.1409
 1943SOL    HW117291   4.550   2.103  10.910 -1.3403  0.4605  0.5123
 1943SOL    HW217292   4.589   2.096  11.050 -0.4157 -1.7574  1.5978
 1944SOL     OW17293   3.997   1.923  15.560  0.1260  0.0367  0.3560
 1944SOL    HW117294   4.073   1.889  15.607  0.9043 -0.4129 -1.2500
 1944SOL    HW217295   3.983   2.000  15.615  2.0772 -0.4898  1.5762
 1945SOL     OW17296   3.109   0.066   1.527  0.2557 -0.2763 -0.4079
 1945SOL    HW117297   3.117   0.080   1.622 -1.6849 -2.4850  0.0560
 1945SOL    HW217298   3.044   4.722   1.536 -0.3777  0.3745 -0.0099
 1946SOL     OW17299   3.748   3.070   6.675 -0.1955  0.5851 -0.0296
 1946SOL    HW117300   3.843   3.061   6.667 -0.4326 -0.4466 -1.6681
 1946SOL    HW217301   3.728   3.031   6.760 -1.3043  1.6864  0.2150
 1947SOL     OW17302   0.593   4.589   6.583 -0.7058  0.1120  0.1622
 1947SOL    HW117303   0.589   4.645   6.660  0.2140  2.0412 -1.1949
 1947SOL    HW217304   0.520   4.622   6.530 -0.2100  3.3230  1.4704
 1948SOL     OW17305   3.508   2.369   4.228  0.1094  0.0251  0.1915
 1948SOL    HW117306   3.566   2.389   4.302  0.1844  0.3989  0.0332
 1948SOL    HW217307   3.571   2.324   4.173 -0.7355 -1.8654  0.7799
 1949SOL     OW17308   0.723   0.434  16.306  0.0013  0.1202 -0.4943
 1949SOL    HW117309   0.795   0.395  16.258 -0.0128 -0.6419  0.0994
 1949SOL    HW217310   0.649   0.426  16.245 -1.1916 -0.5396  1.0372
 1950SOL     OW17311   3.666   2.355   8.353 -0.6966 -0.4125  0.4170
 1950SOL    HW117312   3.599   2.305   8.399  1.1884 -2.7600  0.5982
 1950SOL    HW217313   3.701   2.388   8.436  1.7475  0.7248 -1.0517
 1951SOL     OW17314   2.682   2.508   2.509  0.7198 -0.5902  0.2015
 1951SOL    HW117315   2.641   2.590   2.537 -0.4629 -1.7787  1.9645
 1951SOL    HW217316   2.776   2.522   2.504  0.8745 -1.8012 -0.1764
 1952SOL     OW17317   4.002   0.370   5.480 -0.7367  0.3742  0.2738
 1952SOL    HW117318   4.074   0.383   5.419 -1.9782  1.1733 -1.0117
 1952SOL    HW217319   4.035   0.303   5.539  1.2067 -0.0347 -1.2926
 1953SOL     OW17320   3.819   1.260   6.737 -0.0140  0.4632  0.4526
 1953SOL    HW117321   3.760   1.243   6.811  1.2876 -2.2468  0.8528
 1953SOL    HW217322   3.802   1.353   6.725  0.7170  0.3255 -1.6038
 1954SOL     OW17323   0.222   0.902  16.801 -0.1335 -0.3238 -0.5826
 1954SOL    HW117324   0.282   0.971  16.829  0.4701 -1.3521  0.6469
 1954SOL    HW217325   0.190   0.853  16.876  0.9670 -0.3592 -0.1339
 1955SOL     OW17326   2.274   2.148   4.567 -0.0399  0.1077  0.3839
 1955SOL    HW117327   2.329   2.225   4.582 -2.3926  1.9574 -0.5724
 1955SOL    HW217328   2.313   2.114   4.487  0.0791 -1.1359  0.9704
 1956SOL     OW17329   1.318   0.521   8.158  0.2749  0.5144  0.3043
 1956SOL    HW117330   1.364   0.589   8.109  1.7090 -0.9446 -0.3604
 1956SOL    HW217331   1.293   0.565   8.239 -1.9916  0.8803 -0.5823
 1957SOL     OW17332   3.917   4.388   1.052  0.3732 -0.3472  0.3411
 1957SOL    HW117333   3.896   4.326   1.122 -0.8467 -0.9450 -0.5466
 1957SOL    HW217334   3.994   4.433   1.089  0.6053  1.8376 -2.7961
 1958SOL     OW17335   0.490   3.256  10.305  0.0009 -0.3152  0.0688
 1958SOL    HW117336   0.406   3.249  10.351 -0.6148  2.7386 -0.5543
 1958SOL    HW217337   0.550   3.265  10.379 -2.2576 -0.2305  1.8982
 1959SOL     OW17338   4.180   2.966   8.701  0.3927 -0.6373 -0.2696
 1959SOL    HW117339   4.088   2.944   8.689 -0.1119  1.5727 -0.3940
 1959SOL    HW217340   4.170   3.055   8.666 -2.2803 -0.1700  1.6983
 1960SOL     OW17341   2.941   2.628   8.012 -0.0243 -0.6031  0.0443
 1960SOL    HW117342   2.934   2.679   8.093 -0.1489 -1.5557  0.6477
 1960SOL    HW217343   2.943   2.541   8.054  0.5423 -0.6312 -0.0392
 1961SOL     OW17344   4.618   2.602  16.837 -0.0402  0.5818  0.2647
 1961SOL    HW117345   4.700   2.554  16.826 -0.4445 -0.1669  0.4790
 1961SOL    HW217346   4.632   2.693  16.812 -0.0188  1.1021  2.1806
 1962SOL     OW17347   1.086   0.333   3.542 -0.6035  0.5531  0.4008
 1962SOL    HW117348   1.018   0.273   3.513  1.2418 -1.2422 -0.2288
 1962SOL    HW217349   1.096   0.380   3.460  0.6858 -0.5822 -0.0969
 1963SOL     OW17350   3.159   3.741   4.860  0.4629 -0.1015 -0.0690
 1963SOL    HW117351   3.174   3.712   4.770  2.3875 -0.6070  0.4201
 1963SOL    HW217352   3.246   3.777   4.874  0.3389 -0.0119  0.4777
 1964SOL     OW17353   4.205   1.855  17.600  0.0414 -0.5918  0.2180
 1964SOL    HW117354   4.230   1.767  17.627 -1.5827  0.1760  4.1740
 1964SOL    HW217355   4.208   1.855  17.504  0.8996 -1.0609  0.2492
 1965SOL     OW17356   2.870   1.500   3.069 -0.4204 -0.1161  0.0821
 1965SOL    HW117357   2.864   1.570   3.005  2.0349  0.1916  0.1904
 1965SOL    HW217358   2.803   1.435   3.049 -1.9655  1.4480  0.1907
 1966SOL     OW17359   0.781   1.313   7.197  0.1599  0.1906  0.2305
 1966SOL    HW117360   0.805   1.342   7.109  0.7213  0.5854  0.5177
 1966SOL    HW217361   0.851   1.259   7.234 -1.5758 -2.4447 -0.3563
 1967SOL     OW17362   2.992   1.975   4.013  0.3717 -0.6637 -0.2800
 1967SOL    HW117363   3.040   2.040   4.064 -0.6528 -2.0124  2.3742
 1967SOL    HW217364   2.959   1.903   4.067  1.1168 -2.7807 -2.6488
 1968SOL     OW17365   0.792   1.706   3.667 -0.2271 -0.0254 -0.3177
 1968SOL    HW117366   0.762   1.686   3.578 -0.9628 -0.1274 -0.0471
 1968SOL    HW217367   0.784   1.801   3.656 -0.7311  0.0612  0.8053
 1969SOL     OW17368   0.177   4.191   5.638  0.6287  0.2760  0.0038
 1969SOL    HW117369   0.139   4.151   5.559 -0.8830 -0.6913  1.2341
 1969SOL    HW217370   0.226   4.263   5.597  1.1136 -2.1712 -3.8047
 1970SOL     OW17371   0.212   4.211   3.216 -0.3555 -0.2316 -0.0237
 1970SOL    HW117372   0.268   4.224   3.292 -3.1132  1.0348  1.7886
 1970SOL    HW217373   0.258   4.266   3.153  2.3408 -2.7100 -0.2264
 1971SOL     OW17374   1.376   4.496  15.524 -0.5100  0.2431 -0.3054
 1971SOL    HW117375   1.319   4.434  15.479  0.1860  0.2410 -1.2014
 1971SOL    HW217376   1.368   4.586  15.491 -0.0672  0.4970  0.2648
 1972SOL     OW17377   1.473   3.943   4.822 -0.2483  0.0213 -0.0250
 1972SOL    HW117378   1.535   3.871   4.834  1.0961  1.2386  0.3216
 1972SOL    HW217379   1.430   3.942   4.908  1.6932  1.3297  0.9465
 1973SOL     OW17380   0.794   3.990   5.679  0.2258  0.1998  0.1529
 1973SOL    HW117381   0.729   3.922   5.662 -0.6462  0.6534  1.7147
 1973SOL    HW217382   0.742   4.058   5.723 -1.1200 -0.0788 -1.0341
 1974SOL     OW17383   3.752   1.294  17.144 -0.3565  0.2758 -0.1544
 1974SOL    HW117384   3.703   1.262  17.069  0.4193  1.3184 -1.1080
 1974SOL    HW217385   3.844   1.273  17.126 -0.2519 -0.1901  0.9316
 1975SOL     OW17386   3.470   4.678   5.590 -0.1821 -0.3097 -0.0322
 1975SOL    HW117387   3.524   0.005   5.650 -0.3953  1.8643 -1.7281
 1975SOL    HW217388   3.519   4.596   5.600  0.3425 -0.0599 -0.5458
 1976SOL     OW17389   0.925   0.962   9.526 -0.6812 -0.1620 -0.1378
 1976SOL    HW117390   0.974   1.044   9.517  1.5777 -1.4074  0.6848
 1976SOL    HW217391   0.839   0.983   9.491 -0.4010  2.6564  0.8632
 1977SOL     OW17392   4.253   4.626  15.492  0.3097  0.1013  0.6189
 1977SOL    HW117393   4.211   4.647  15.576 -1.9149  0.2846 -0.5376
 1977SOL    HW217394   4.218   4.692  15.432 -1.8177  1.5033  3.3584
 1978SOL     OW17395   3.566   1.177   8.724 -0.7027 -0.1160 -0.3218
 1978SOL    HW117396   3.584   1.086   8.701 -2.1808 -0.7166  0.8812
 1978SOL    HW217397   3.597   1.168   8.815 -0.2224  1.1152 -0.3653
 1979SOL     OW17398   4.379   4.490   1.017 -0.1870  0.7260 -0.8710
 1979SOL    HW117399   4.362   4.398   1.038 -1.1838  0.5483 -2.4793
 1979SOL    HW217400   4.462   4.487   0.970  1.2522  1.0232  1.6282
 1980SOL     OW17401   2.872   4.649   1.567 -0.2436  0.2358 -0.0979
 1980SOL    HW117402   2.826   4.717   1.517  1.6028  2.0611  0.7053
 1980SOL    HW217403   2.800   4.587   1.577 -1.5584  2.1728  2.0993
 1981SOL     OW17404   0.454   0.926   2.023 -0.6507 -0.2272  0.3134
 1981SOL    HW117405   0.440   0.936   2.117 -0.4088  1.2661  0.1921
 1981SOL    HW217406   0.542   0.963   2.019  0.1510 -1.9016  2.4172
 1982SOL     OW17407   0.035   2.211   2.244 -0.1889  0.3590 -0.6863
 1982SOL    HW117408   4.717   2.295   2.261  2.9603  1.7293  0.5323
 1982SOL    HW217409   4.718   2.162   2.314  2.6851 -0.0475  0.7794
 1983SOL     OW17410   4.149   1.991  11.095  0.2358 -0.5449 -0.4669
 1983SOL    HW117411   4.229   1.939  11.088 -0.4652 -1.4276 -1.6390
 1983SOL    HW217412   4.187   2.079  11.102 -0.8524 -0.2558  2.0552
 1984SOL     OW17413   3.915   1.553  14.359  0.3228 -0.3866  0.2750
 1984SOL    HW117414   3.921   1.646  14.339  3.0577 -0.4795  0.7167
 1984SOL    HW217415   3.976   1.550  14.432  0.7310 -0.4967 -0.0743
 1985SOL     OW17416   4.485   2.417   5.684 -0.0749  0.3659  0.5447
 1985SOL    HW117417   4.393   2.392   5.687 -0.6854  2.5097 -0.5808
 1985SOL    HW217418   4.477   2.512   5.671  0.0781  0.2776 -0.1878
 1986SOL     OW17419   3.320   2.212  11.940 -0.1357  0.1117 -0.0610
 1986SOL    HW117420   3.363   2.195  11.855 -0.0583 -0.9044  0.1763
 1986SOL    HW217421   3.396   2.221  11.997 -1.9044 -0.9626  2.4660
 1987SOL     OW17422   1.906   0.736   5.839 -0.2467 -0.2805  0.0523
 1987SOL    HW117423   1.989   0.703   5.803  0.0452  1.0432 -0.4786
 1987SOL    HW217424   1.853   0.657   5.832 -1.0263  0.0348  2.6475
 1988SOL     OW17425   1.236   1.878   3.028 -0.5699 -0.0416  0.2686
 1988SOL    HW117426   1.186   1.956   3.050  3.1566  2.2016  0.6845
 1988SOL    HW217427   1.182   1.842   2.958 -0.6385 -0.0287  0.3146
 1989SOL     OW17428   1.226   1.993   6.664  0.5885 -0.5085  0.2809
 1989SOL    HW117429   1.254   1.918   6.716  1.1275  2.1162  3.8068
 1989SOL    HW217430   1.182   2.047   6.730 -1.9461 -1.3452 -0.7437
 1990SOL     OW17431   1.542   3.460   0.945 -0.1282  0.0806 -0.0813
 1990SOL    HW117432   1.597   3.536   0.964  0.1599 -0.1106 -0.1586
 1990SOL    HW217433   1.576   3.436   0.859 -0.3529  1.9519 -0.7048
 1991SOL     OW17434   1.234   0.699  11.900  0.1400 -0.4533 -0.3448
 1991SOL    HW117435   1.268   0.633  11.840  2.4766  0.7198 -0.3106
 1991SOL    HW217436   1.156   0.717  11.848  1.7709 -0.9112 -2.9775
 1992SOL     OW17437   3.343   2.593   3.143  0.2820 -0.0277 -0.3761
 1992SOL    HW117438   3.261   2.639   3.123  1.7700  3.4580  1.6387
 1992SOL    HW217439   3.305   2.535   3.209 -0.1430  1.8032  0.9771
 1993SOL     OW17440   3.267   4.198  11.003  0.7279  0.0966  0.2870
 1993SOL    HW117441   3.242   4.159  11.087 -0.5471  3.9547  1.7276
 1993SOL    HW217442   3.184   4.205  10.956 -0.2853 -1.5555  1.8112
 1994SOL     OW17443   4.046   4.428   4.354  0.4658 -0.0458 -0.2443
 1994SOL    HW117444   4.014   4.359   4.411 -1.6736  0.3523 -0.9880
 1994SOL    HW217445   4.042   4.505   4.411  0.8691  0.5090 -0.9535
 1995SOL     OW17446   1.582   2.162   1.704 -0.0873  0.2942 -0.2019
 1995SOL    HW117447   1.601   2.232   1.767 -0.7336 -0.0001  0.3194
 1995SOL    HW217448   1.509   2.205   1.660 -0.9545 -0.2552  0.7019
 1996SOL     OW17449   4.508   4.509  15.877 -0.0747  0.3410  0.5271
 1996SOL    HW117450   4.462   4.469  15.804  2.1657 -1.2162 -0.0113
 1996SOL    HW217451   4.480   4.600  15.865 -1.1213 -0.1914 -0.9840
 1997SOL     OW17452   1.876   0.372   3.100 -0.6715  0.2470 -0.1804
 1997SOL    HW117453   1.948   0.311   3.112 -0.4954  1.1573  3.3418
 1997SOL    HW217454   1.860   0.372   3.006 -0.0534  0.6443 -0.2824
 1998SOL     OW17455   3.339   2.250   4.751 -0.2401 -0.6704 -0.0505
 1998SOL    HW117456   3.363   2.193   4.678 -0.2102 -1.5856  0.6659
 1998SOL    HW217457   3.270   2.198   4.792 -0.7317 -0.1722 -0.2505
 1999SOL     OW17458   0.360   0.387   6.231 -0.0190 -0.4010  0.2086
 1999SOL    HW117459   0.284   0.403   6.288 -1.4512 -0.8599 -1.5740
 1999SOL    HW217460   0.328   0.327   6.163  0.2730  1.9655 -2.0053
 2000SOL     OW17461   0.671   0.326   4.711 -0.3137  0.3557  0.1325
 2000SOL    HW117462   0.598   0.388   4.707 -2.3731 -2.0936 -0.5322
 2000SOL    HW217463   0.637   0.260   4.651 -0.1655 -0.8275  1.3740
 2001SOL     OW17464   3.218   2.358   8.028 -0.6467 -0.2040 -0.4002
 2001SOL    HW117465   3.150   2.325   7.969 -0.5491 -2.4587  0.7486
 2001SOL    HW217466   3.272   2.407   7.967  0.9821 -0.1569  1.0697
 2002SOL     OW17467   1.108   3.745   8.619  0.0003  0.1325 -0.2379
 2002SOL    HW117468   1.020   3.721   8.591 -0.6437  2.0178  0.1805
 2002SOL    HW217469   1.107   3.711   8.708  0.8292  2.5831  0.6757
 2003SOL     OW17470   1.095   0.867   0.078  0.3112 -0.2026 -0.0608
 2003SOL    HW117471   1.139   0.890  17.697  0.0899 -2.0897 -0.6977
 2003SOL    HW217472   1.053   0.784   0.056 -0.1093 -0.4236  1.5944
 2004SOL     OW17473   1.234   2.087   5.129  0.3119 -0.8549 -0.0620
 2004SOL    HW117474   1.251   2.027   5.056  2.7849 -0.6043  0.2870
 2004SOL    HW217475   1.286   2.044   5.197  0.6583 -0.1677  0.1143
 2005SOL     OW17476   4.524   3.498   4.823  0.0605 -0.5226  0.3633
 2005SOL    HW117477   4.442   3.502   4.872  0.5595 -1.6785  1.2861
 2005SOL    HW217478   4.495   3.455   4.742 -1.5632 -0.0382  0.6938
 2006SOL     OW17479   1.392   4.430   7.189 -0.4105 -0.3450 -0.2398
 2006SOL    HW117480   1.345   4.347   7.180 -0.6699 -0.1778 -0.4123
 2006SOL    HW217481   1.370   4.445   7.281 -0.8807  0.9517 -0.5695
 2007SOL     OW17482   3.462   1.305   7.566  0.3947 -0.3724 -0.2210
 2007SOL    HW117483   3.483   1.216   7.536  0.0226  0.3929 -2.7956
 2007SOL    HW217484   3.472   1.339   7.477 -2.5417  1.6822  0.2503
 2008SOL     OW17485   2.981   0.910   0.909  0.0571 -0.4881  0.4915
 2008SOL    HW117486   2.989   0.924   1.003  0.5435  0.9876  0.2335
 2008SOL    HW217487   3.007   0.818   0.899  0.8603 -0.3238  1.0979
 2009SOL     OW17488   3.916   2.017   6.378  0.4615  0.7730 -0.2211
 2009SOL    HW117489   3.979   2.088   6.368 -0.9933  2.3053  1.5016
 2009SOL    HW217490   3.880   1.998   6.291  1.9101 -1.3263 -0.3525
 2010SOL     OW17491   1.879   0.918   8.234 -0.3941  0.0392  0.1704
 2010SOL    HW117492   1.954   0.912   8.293 -0.8399  1.1895  0.8661
 2010SOL    HW217493   1.934   0.909   8.156 -0.6909  1.4686 -0.2074
 2011SOL     OW17494   1.182   0.888   3.416  0.1253 -0.6097  0.1730
 2011SOL    HW117495   1.126   0.838   3.476  3.4458 -1.6438  2.4111
 2011SOL    HW217496   1.120   0.943   3.368  0.7649 -0.1041 -0.0727
 2012SOL     OW17497   2.838   3.433   2.745  0.2104  0.4001 -0.1644
 2012SOL    HW117498   2.879   3.519   2.752 -0.0662  0.5197 -0.0478
 2012SOL    HW217499   2.773   3.457   2.679  1.2848  1.1161 -0.9779
 2013SOL     OW17500   2.185   1.306   3.377  0.3479 -0.1055 -0.0974
 2013SOL    HW117501   2.132   1.265   3.308  0.6972 -0.3835 -0.2062
 2013SOL    HW217502   2.169   1.398   3.356  0.0198 -0.4393 -1.3597
 2014SOL     OW17503   0.453   2.487   4.102  0.2510 -0.6815  0.1745
 2014SOL    HW117504   0.417   2.426   4.166 -1.5586 -0.6267 -0.7680
 2014SOL    HW217505   0.373   2.514   4.056  0.7669  0.1016 -0.2673
 2015SOL     OW17506   4.534   0.184   5.385  0.0969  0.3183 -0.5062
 2015SOL    HW117507   4.616   0.219   5.351 -0.5540  0.3244 -2.0666
 2015SOL    HW217508   4.528   0.220   5.474  1.2956  2.1979 -1.2004
 2016SOL     OW17509   3.841   0.213  12.950  0.6257 -0.2136  0.0966
 2016SOL    HW117510   3.859   0.271  13.024 -0.3762 -2.3583  1.9887
 2016SOL    HW217511   3.747   0.231  12.950  0.2307 -2.2582 -0.9126
 2017SOL     OW17512   3.950   4.234   2.083  0.2830  0.4552 -0.0548
 2017SOL    HW117513   3.935   4.271   1.996  0.6303 -1.7739 -1.0471
 2017SOL    HW217514   3.978   4.316   2.124 -3.1621  0.9038  1.3859
 2018SOL     OW17515   1.796   2.230  14.170  0.1148 -0.8020 -0.3012
 2018SOL    HW117516   1.824   2.300  14.112  2.6705 -2.2014 -0.7240
 2018SOL    HW217517   1.867   2.204  14.229 -0.3542  0.4846  0.8465
 2019SOL     OW17518   1.187   4.338  14.870  0.1810 -0.1695 -0.4151
 2019SOL    HW117519   1.095   4.319  14.856 -0.3029  1.2510  0.8833
 2019SOL    HW217520   1.186   4.426  14.832 -0.3269 -0.6211 -1.4697
 2020SOL     OW17521   1.161   1.481  17.583 -0.1522 -0.1872 -0.3645
 2020SOL    HW117522   1.089   1.429  17.619  1.1238 -1.0356  0.9608
 2020SOL    HW217523   1.175   1.438  17.498 -0.4276  0.7317 -0.8669
 2021SOL     OW17524   4.477   4.484  16.863 -0.2786 -0.0998 -0.1223
 2021SOL    HW117525   4.538   4.477  16.936 -0.0813  1.5345 -0.1322
 2021SOL    HW217526   4.460   4.396  16.829  0.4940  0.3591 -1.7178
 2022SOL     OW17527   4.656   1.431  15.528  0.2274 -0.1392 -0.0376
 2022SOL    HW117528   4.721   1.491  15.492  1.1603 -0.9218  0.3512
 2022SOL    HW217529   4.594   1.433  15.456 -0.7180 -1.2598  0.7508
 2023SOL     OW17530   3.467   2.378   5.697 -0.4400  0.0877  0.3316
 2023SOL    HW117531   3.420   2.307   5.740  2.3125 -1.1892  1.1727
 2023SOL    HW217532   3.556   2.366   5.730 -0.4046 -2.2614 -0.6844
 2024SOL     OW17533   4.584   4.156   6.864  0.7304  0.3449 -0.6062
 2024SOL    HW117534   4.497   4.138   6.830 -0.2207 -0.1737  2.1239
 2024SOL    HW217535   4.616   4.066   6.864 -1.7013 -0.5039 -1.5140
 2025SOL     OW17536   3.110   2.942  15.868 -0.3307 -0.1966 -0.3876
 2025SOL    HW117537   3.066   2.880  15.925  3.1313 -0.3283  2.1978
 2025SOL    HW217538   3.144   2.882  15.801  2.0430 -2.1067  2.5381
 2026SOL     OW17539   1.545   4.030   8.258 -0.2611 -0.1185 -0.1213
 2026SOL    HW117540   1.576   3.940   8.271 -2.2390 -1.0547 -1.9953
 2026SOL    HW217541   1.536   4.063   8.348  0.5973  1.5565 -0.6500
 2027SOL     OW17542   3.155   3.018   6.769 -0.0481  0.2181  0.0878
 2027SOL    HW117543   3.087   2.970   6.817  0.4328 -0.9376 -0.3883
 2027SOL    HW217544   3.229   3.009   6.830 -0.9952 -0.2370  1.1731
 2028SOL     OW17545   1.437   2.272  15.342  0.4659  0.2311 -0.3100
 2028SOL    HW117546   1.382   2.231  15.275 -3.5134  1.3942  2.2509
 2028SOL    HW217547   1.414   2.217  15.416  0.0992  2.6181  1.3428
 2029SOL     OW17548   3.068   2.291  11.969 -0.5694 -0.6020  0.0546
 2029SOL    HW117549   3.160   2.266  11.967 -0.2096  0.6557  1.4838
 2029SOL    HW217550   3.047   2.300  11.875 -0.2699  2.4095  0.2558
 2030SOL     OW17551   0.334   0.734  13.069 -0.2767  0.6189  0.3108
 2030SOL    HW117552   0.370   0.815  13.104 -0.6674 -0.0882  2.3073
 2030SOL    HW217553   0.281   0.704  13.142 -1.0533 -0.1298 -0.5482
 2031SOL     OW17554   3.069   3.563  13.403  0.2844  0.3613  0.3025
 2031SOL    HW117555   2.995   3.513  13.370 -1.0140  0.3973  3.1976
 2031SOL    HW217556   3.086   3.514  13.483  0.2740 -0.6924 -0.3447
 2032SOL     OW17557   3.784   4.642   3.612 -0.5112 -0.3224 -0.3121
 2032SOL    HW117558   3.797   0.011   3.601  2.1858 -0.8391 -1.4012
 2032SOL    HW217559   3.741   4.633   3.697  0.9145  0.5161  0.4892
 2033SOL     OW17560   1.294   0.332   2.567 -0.6164 -0.2982 -0.5265
 2033SOL    HW117561   1.336   0.395   2.508  1.3391 -1.5043 -0.4371
 2033SOL    HW217562   1.366   0.330   2.630 -1.1519  1.1318  0.1123
 2034SOL     OW17563   1.680   0.178  11.597 -0.8781 -0.0430 -0.0986
 2034SOL    HW117564   1.767   0.206  11.624 -1.2664 -0.3475  1.4521
 2034SOL    HW217565   1.689   0.086  11.621  0.5325  0.5624  1.6669
 2035SOL     OW17566   0.572   2.763   9.951 -0.3498  0.2003 -0.1425
 2035SOL    HW117567   0.624   2.690   9.918  0.6259  0.8276 -0.0114
 2035SOL    HW217568   0.490   2.723   9.979 -0.6524  0.2715 -0.9132
 2036SOL     OW17569   3.954   1.900   9.875 -0.1594  0.1952  0.5536
 2036SOL    HW117570   3.944   1.963   9.946  0.7055  0.2669  0.6135
 2036SOL    HW217571   4.046   1.877   9.888  0.0429  0.9782  0.5031
 2037SOL     OW17572   4.665   0.467   2.593  0.1530 -0.0953  0.8846
 2037SOL    HW117573   4.602   0.501   2.530 -0.6304 -4.1419 -0.5032
 2037SOL    HW217574   4.686   0.382   2.554 -0.6162  0.1794 -0.1438
 2038SOL     OW17575   3.594   1.505   5.832 -1.0650 -0.0436  0.2341
 2038SOL    HW117576   3.601   1.431   5.892  0.3154 -1.5210 -1.7428
 2038SOL    HW217577   3.663   1.569   5.846  0.5436 -2.2420  2.3255
 2039SOL     OW17578   2.284   4.591   0.076 -0.1670  0.5292 -0.4384
 2039SOL    HW117579   2.242   4.672   0.047  0.3332  1.1922  0.7109
 2039SOL    HW217580   2.282   4.556  17.689  0.3497 -1.1753  0.2295
 2040SOL     OW17581   2.612   0.415   8.279 -0.5224 -0.0590  0.4783
 2040SOL    HW117582   2.570   0.498   8.255  0.5497 -0.6035 -3.3352
 2040SOL    HW217583   2.691   0.432   8.331  0.4448  1.4057 -1.4425
 2041SOL     OW17584   1.449   1.295   3.371  0.1526 -0.0114 -0.2733
 2041SOL    HW117585   1.409   1.382   3.378 -1.1676 -0.6519  0.1013
 2041SOL    HW217586   1.397   1.251   3.439  0.2868  1.1533  0.5861
 2042SOL     OW17587   3.165   3.060   2.056 -0.4626 -0.1841  0.2765
 2042SOL    HW117588   3.121   3.007   2.121 -0.4547 -0.2563  0.2236
 2042SOL    HW217589   3.109   3.055   1.978 -1.2763  0.0485  0.8507
 2043SOL     OW17590   0.724   1.106   2.912 -0.2681  0.2715  0.1913
 2043SOL    HW117591   0.742   1.161   2.989  2.5494  0.0525 -0.3026
 2043SOL    HW217592   0.657   1.159   2.870 -1.7589 -1.6843  0.1040
 2044SOL     OW17593   2.106   1.431  17.663 -0.0637  0.3910 -0.4157
 2044SOL    HW117594   2.100   1.434   0.057 -1.7396  0.8577 -0.5283
 2044SOL    HW217595   2.030   1.480  17.631  0.2950  0.6237 -0.9138
 2045SOL     OW17596   1.111   0.789   7.920  0.5992  0.0730 -0.5079
 2045SOL    HW117597   1.092   0.842   7.997 -0.7851  0.9392 -1.4204
 2045SOL    HW217598   1.203   0.815   7.914  0.3291  1.3355  0.7490
 2046SOL     OW17599   4.306   4.690   7.737 -0.4981 -0.8269  0.1918
 2046SOL    HW117600   4.247   4.687   7.812 -0.9767  0.3623 -0.1336
 2046SOL    HW217601   4.321   4.596   7.725  0.6019 -0.6430  0.1430
 2047SOL     OW17602   0.256   4.546   5.957 -0.1283 -0.0004 -0.3815
 2047SOL    HW117603   0.241   4.580   6.045 -1.4940 -2.1467  0.1963
 2047SOL    HW217604   0.349   4.523   5.961 -0.3473 -0.8427 -0.1954
 2048SOL     OW17605   2.553   1.400   4.822  0.3103 -0.2217 -0.0522
 2048SOL    HW117606   2.499   1.321   4.832  0.5222 -0.1965  1.3419
 2048SOL    HW217607   2.521   1.435   4.739  0.4740 -1.0610 -0.4683
 2049SOL     OW17608   1.245   0.509  11.682 -0.6945 -0.2251  0.1740
 2049SOL    HW117609   1.166   0.481  11.637 -0.4832 -0.3623 -0.1172
 2049SOL    HW217610   1.307   0.437  11.665  2.7537  3.1303 -1.5176
 2050SOL     OW17611   3.136   0.053   9.043  0.2268  0.3482  0.1423
 2050SOL    HW117612   3.220   0.037   8.999 -0.0760  0.9741 -0.6771
 2050SOL    HW217613   3.081   4.724   8.986  1.7521 -0.3858 -0.6325
 2051SOL     OW17614   2.778   1.890   3.609 -0.0247  0.6455 -0.0487
 2051SOL    HW117615   2.767   1.940   3.528 -0.7332 -0.0501 -0.3882
 2051SOL    HW217616   2.779   1.803   3.570  0.6786  0.5756  0.1230
 2052SOL     OW17617   2.363   1.608   6.599 -0.1180  0.3262  0.5211
 2052SOL    HW117618   2.378   1.666   6.674 -3.3037 -2.4829  3.3791
 2052SOL    HW217619   2.354   1.663   6.522  0.8530  1.0526  0.9314
 2053SOL     OW17620   0.540   3.859   2.739  0.3075  0.1689  0.1884
 2053SOL    HW117621   0.624   3.815   2.752  0.6057  0.4487 -0.7691
 2053SOL    HW217622   0.555   3.926   2.672 -1.6903  0.0030 -0.4222
 2054SOL     OW17623   0.250   0.887   2.442  0.2562 -0.4023 -0.4646
 2054SOL    HW117624   0.335   0.890   2.399  0.0232 -2.0310 -1.0384
 2054SOL    HW217625   0.199   0.814   2.406  0.7883 -1.3624  0.7291
 2055SOL     OW17626   1.542   4.658   0.012 -0.4731 -0.5396 -0.3234
 2055SOL    HW117627   1.539   4.563   0.024  1.0030 -0.5996 -0.4598
 2055SOL    HW217628   1.474   4.691   0.070  1.3133  0.1934  1.3555
 2056SOL     OW17629   3.433   2.126  12.404 -0.1596 -0.2901  0.1678
 2056SOL    HW117630   3.489   2.102  12.331  0.6391  2.3896 -0.0997
 2056SOL    HW217631   3.485   2.184  12.458 -0.7023 -1.5585  2.0711
 2057SOL     OW17632   1.443   3.480  16.491  0.1371  0.0199 -0.2364
 2057SOL    HW117633   1.444   3.524  16.575 -0.6139 -0.5855  0.0919
 2057SOL    HW217634   1.357   3.439  16.481 -0.3290  0.9854 -0.1962
 2058SOL     OW17635   0.189   1.642   5.118 -0.1188 -0.0222  0.2399
 2058SOL    HW117636   0.219   1.554   5.139  1.1195  0.2391 -0.4940
 2058SOL    HW217637   0.116   1.647   5.180  0.2280  2.6840  0.4260
 2059SOL     OW17638   1.287   3.448   6.294 -0.1668  0.2307 -0.2539
 2059SOL    HW117639   1.222   3.452   6.363 -1.0539 -1.6929 -0.9752
 2059SOL    HW217640   1.345   3.514   6.332 -1.2603  0.7403  0.5127
 2060SOL     OW17641   3.916   0.186  17.607 -0.4368 -0.5952 -0.3627
 2060SOL    HW117642   3.890   0.182  17.515  0.1177 -0.1518 -0.5348
 2060SOL    HW217643   3.862   0.116  17.645 -2.3378  2.0635  1.7485
 2061SOL     OW17644   0.667   1.358   9.340 -0.2310 -0.3568  0.2898
 2061SOL    HW117645   0.664   1.445   9.300  1.3558 -0.4845 -0.0994
 2061SOL    HW217646   0.760   1.334   9.344 -0.1825 -0.2648 -0.2780
 2062SOL     OW17647   0.880   3.357  15.329 -0.2643 -0.2266 -0.1197
 2062SOL    HW117648   0.963   3.400  15.308 -0.9673 -0.1900 -2.8285
 2062SOL    HW217649   0.832   3.429  15.370 -2.1600 -0.4317 -1.9770
 2063SOL     OW17650   3.408   3.851   3.353  0.1295 -0.1950  0.4607
 2063SOL    HW117651   3.362   3.932   3.373 -0.6654 -0.0244 -2.0717
 2063SOL    HW217652   3.496   3.888   3.357 -0.2017  0.5621  0.6563
 2064SOL     OW17653   1.079   2.846   8.998 -0.0840 -0.2205 -0.6472
 2064SOL    HW117654   1.111   2.805   8.918 -0.0588  0.5153 -1.0174
 2064SOL    HW217655   1.002   2.795   9.022 -0.8611  1.9545  1.5709
 2065SOL     OW17656   1.428   0.822  12.322 -0.1102  0.0485  0.6914
 2065SOL    HW117657   1.497   0.871  12.366 -0.0268  1.3913 -0.9395
 2065SOL    HW217658   1.362   0.817  12.391 -1.7189 -1.3965 -0.9544
 2066SOL     OW17659   2.297   3.501   5.212 -0.2445  0.0254  0.4117
 2066SOL    HW117660   2.391   3.516   5.220  0.0251 -1.7895  0.6362
 2066SOL    HW217661   2.286   3.406   5.217 -1.5033  0.2396  1.5348
 2067SOL     OW17662   0.616   3.819   5.266  0.3580  0.3906  0.0445
 2067SOL    HW117663   0.552   3.804   5.196 -0.5163  1.6663  0.5606
 2067SOL    HW217664   0.661   3.900   5.241 -0.5506  0.1407 -2.4751
 2068SOL     OW17665   2.315   3.851   8.908 -0.1700 -0.1170 -0.1336
 2068SOL    HW117666   2.287   3.869   8.998  0.5527 -0.3927  0.1535
 2068SOL    HW217667   2.393   3.797   8.923  0.4329  0.7082 -0.2710
 2069SOL     OW17668   2.195   2.662   0.343  0.5462  0.2471 -0.4517
 2069SOL    HW117669   2.285   2.643   0.319  0.0710 -2.0388 -0.5071
 2069SOL    HW217670   2.153   2.587   0.300  0.2998  1.2439 -1.9192
 2070SOL     OW17671   1.920   2.662  10.783 -0.3709 -0.5056  0.5358
 2070SOL    HW117672   1.914   2.566  10.788  1.3973 -0.5714  1.2875
 2070SOL    HW217673   2.016   2.668  10.782 -0.2513 -2.3284  2.7058
 2071SOL     OW17674   0.183   4.423   7.866 -0.0827 -0.6163  0.2934
 2071SOL    HW117675   0.209   4.373   7.943  1.1723 -1.6051 -0.7708
 2071SOL    HW217676   0.090   4.439   7.883  0.4484 -0.0965  2.6482
 2072SOL     OW17677   1.700   4.303   5.746  0.0529  0.2440 -0.4917
 2072SOL    HW117678   1.652   4.227   5.779 -0.3465  0.1355 -1.3275
 2072SOL    HW217679   1.685   4.364   5.818  1.8540  0.6197 -0.4304
 2073SOL     OW17680   1.047   1.244   0.634 -0.0023  0.2546  0.0728
 2073SOL    HW117681   1.016   1.163   0.674 -0.3297 -0.7648 -2.2301
 2073SOL    HW217682   0.991   1.247   0.556 -0.0250 -4.0615 -0.1268
 2074SOL     OW17683   1.540   1.911   5.093 -0.0230 -0.2504 -0.4943
 2074SOL    HW117684   1.499   1.952   5.170 -1.2147  0.3684 -1.4525
 2074SOL    HW217685   1.501   1.823   5.092 -1.0419  0.1863  0.0452
 2075SOL     OW17686   3.125   2.381  15.307 -0.0263 -0.0746  0.3800
 2075SOL    HW117687   3.048   2.429  15.338  1.2417  1.4871  1.1259
 2075SOL    HW217688   3.127   2.407  15.215  0.3422 -1.0552  0.1123
 2076SOL     OW17689   0.733   1.203  13.127  0.1913 -0.3639  0.2423
 2076SOL    HW117690   0.749   1.298  13.129  1.5317 -0.6090  0.7010
 2076SOL    HW217691   0.814   1.166  13.092  1.4652  2.3293  0.3222
 2077SOL     OW17692   0.593   3.022   0.539  0.2634  0.2818 -0.2717
 2077SOL    HW117693   0.604   2.935   0.500  0.1624  0.8180 -1.4882
 2077SOL    HW217694   0.669   3.048   0.590  0.3529 -0.9777  0.2345
 2078SOL     OW17695   3.217   1.286   2.034 -0.0146 -0.1900 -0.7647
 2078SOL    HW117696   3.214   1.304   2.128 -0.9771 -2.9237 -0.2750
 2078SOL    HW217697   3.302   1.325   2.013 -0.2869 -0.3107 -2.0635
 2079SOL     OW17698   1.713   3.939   3.374 -0.0196  0.4302 -0.1316
 2079SOL    HW117699   1.798   3.941   3.330  0.0120  1.2487 -0.0340
 2079SOL    HW217700   1.695   4.032   3.358  2.5564  0.8151 -0.8314
 2080SOL     OW17701   3.210   1.743   7.497  0.5779 -0.2760  0.1308
 2080SOL    HW117702   3.153   1.690   7.553  0.2211  0.0515  0.0785
 2080SOL    HW217703   3.173   1.706   7.417 -0.3708 -0.0295  0.4509
 2081SOL     OW17704   3.095   2.105   3.135  0.4023  0.1674  0.9619
 2081SOL    HW117705   3.108   2.164   3.209 -0.3505  1.8501 -0.2716
 2081SOL    HW217706   3.134   2.158   3.067 -0.5773 -1.8590 -1.1757
 2082SOL     OW17707   0.047   1.392   1.611  0.1758 -0.2959  0.2375
 2082SOL    HW117708   0.102   1.371   1.535 -1.3543  0.5552 -1.0880
 2082SOL    HW217709   0.101   1.454   1.660  0.9411 -0.7021 -0.0792
 2083SOL     OW17710   2.356   3.100   9.729 -0.4744 -0.1084 -0.3968
 2083SOL    HW117711   2.426   3.035   9.729  0.0866  0.4942  0.0931
 2083SOL    HW217712   2.396   3.178   9.690  0.3100  0.0662  0.7282
 2084SOL     OW17713   2.860   2.002   2.194  0.9150 -0.1132  0.1252
 2084SOL    HW117714   2.930   2.007   2.129  0.8999  0.4584  0.1501
 2084SOL    HW217715   2.794   1.961   2.138 -0.4327  0.5842  1.2030
 2085SOL     OW17716   3.338   3.080   4.949 -0.8008 -0.5108  0.4498
 2085SOL    HW117717   3.273   3.135   4.993  1.3567  3.5990 -1.5171
 2085SOL    HW217718   3.411   3.142   4.952 -0.6190 -0.7803  1.3064
 2086SOL     OW17719   1.118   3.003   5.223  0.2563 -0.4978  0.7964
 2086SOL    HW117720   1.108   2.918   5.182 -2.1839  0.1295  0.0661
 2086SOL    HW217721   1.037   3.044   5.193  0.6625 -1.0992 -1.0705
 2087SOL     OW17722   2.849   3.406   9.085 -0.2890  0.6487  0.3063
 2087SOL    HW117723   2.935   3.422   9.045 -0.4710 -0.2525 -0.4429
 2087SOL    HW217724   2.873   3.410   9.177  1.7049  0.5305 -0.1974
 2088SOL     OW17725   3.175   3.761  10.027 -0.1751 -0.0142  0.0532
 2088SOL    HW117726   3.156   3.815   9.950  1.2442  0.3278 -0.0476
 2088SOL    HW217727   3.265   3.783  10.051 -0.5462  0.0492  1.4212
 2089SOL     OW17728   3.846   4.297  12.283 -0.5659 -0.7224  0.1552
 2089SOL    HW117729   3.907   4.370  12.295 -0.6612 -0.7734  0.9743
 2089SOL    HW217730   3.848   4.271  12.375 -0.2797 -0.9395  0.0878
 2090SOL     OW17731   4.631   3.156   4.443  0.0874 -0.3926  0.4447
 2090SOL    HW117732   4.627   3.118   4.355 -2.1571  1.8008 -0.3865
 2090SOL    HW217733   4.691   3.091   4.480  0.9163 -0.9750 -1.9102
 2091SOL     OW17734   2.049   1.287   1.932  0.2337  0.0213  0.2675
 2091SOL    HW117735   2.073   1.375   1.902  0.0316 -0.8395 -2.3927
 2091SOL    HW217736   2.091   1.289   2.018 -0.4452  3.9834  0.5285
 2092SOL     OW17737   1.583   4.255   6.622 -0.2571  0.0611  0.0386
 2092SOL    HW117738   1.517   4.294   6.680 -0.8381  1.1465 -1.3181
 2092SOL    HW217739   1.659   4.264   6.678  0.0611 -0.0847 -0.3701
 2093SOL     OW17740   2.607   4.086   8.057 -0.2046 -0.1985 -0.0978
 2093SOL    HW117741   2.644   4.089   8.145 -0.4758 -1.4080  0.0471
 2093SOL    HW217742   2.519   4.114   8.083  0.7060  0.5224  2.1625
 2094SOL     OW17743   0.160   3.280   7.825  0.0154 -0.9309 -0.6427
 2094SOL    HW117744   0.227   3.228   7.780  0.1367 -0.9543 -0.4330
 2094SOL    HW217745   0.085   3.221   7.832  1.5141 -3.2648 -3.8882
 2095SOL     OW17746   2.535   4.128   3.773  0.3225 -0.3847  0.5833
 2095SOL    HW117747   2.520   4.192   3.704 -1.6951 -2.0533 -0.5371
 2095SOL    HW217748   2.603   4.070   3.738 -0.5551 -1.1499  0.1424
 2096SOL     OW17749   4.197   2.703   4.351 -0.1895  0.4798  0.6684
 2096SOL    HW117750   4.211   2.617   4.391  1.6193  0.0953 -0.7451
 2096SOL    HW217751   4.134   2.748   4.407 -0.5928  1.0636 -0.2540
 2097SOL     OW17752   4.068   0.686   6.912  0.6726  0.2679  0.1581
 2097SOL    HW117753   4.081   0.639   6.994  0.9061 -1.5568 -0.9375
 2097SOL    HW217754   4.149   0.680   6.862  0.9396  0.6120  0.5467
 2098SOL     OW17755   0.763   0.378   3.338  0.4663  0.1151 -0.2037
 2098SOL    HW117756   0.756   0.371   3.433  0.4313 -0.9578 -0.2838
 2098SOL    HW217757   0.814   0.300   3.316  0.2522 -0.0905  0.0347
 2099SOL     OW17758   0.032   1.434   4.848  0.3677  0.3511 -0.2119
 2099SOL    HW117759   0.112   1.482   4.829  0.7035 -0.2389 -0.2935
 2099SOL    HW217760   0.059   1.359   4.901 -0.8327  0.8473  1.1113
 2100SOL     OW17761   1.748   4.345   8.247  0.1592 -0.2064 -0.1956
 2100SOL    HW117762   1.758   4.284   8.175 -1.2168  0.3661 -0.8647
 2100SOL    HW217763   1.661   4.384   8.237  0.8499  0.7503 -2.6466
 2101SOL     OW17764   2.997   4.162   1.119 -0.0417 -0.2240  0.0596
 2101SOL    HW117765   2.989   4.202   1.032  2.8875 -1.2149 -0.6314
 2101SOL    HW217766   3.079   4.198   1.152 -0.4767  1.2372 -0.4286
 2102SOL     OW17767   3.465   1.489  12.101  0.0778  0.5642  0.4345
 2102SOL    HW117768   3.551   1.499  12.061  1.0943 -0.9939  2.1813
 2102SOL    HW217769   3.412   1.534  12.036  0.7106  2.4628  1.2397
 2103SOL     OW17770   0.888   0.461  16.740  0.2912  0.2464  0.1392
 2103SOL    HW117771   0.846   0.377  16.754  0.2834  0.3851  0.9925
 2103SOL    HW217772   0.897   0.499  16.827 -0.8291 -0.0033  0.3622
 2104SOL     OW17773   0.413   2.406  11.459  0.4464 -0.6107  0.0508
 2104SOL    HW117774   0.392   2.484  11.509 -0.4867  0.1066 -1.4490
 2104SOL    HW217775   0.428   2.436  11.370 -2.3908  0.3653 -0.0798
 2105SOL     OW17776   1.550   3.065   1.255 -0.1666  0.0615 -0.1398
 2105SOL    HW117777   1.506   3.135   1.207 -1.0697 -1.3258 -1.3224
 2105SOL    HW217778   1.620   3.045   1.193 -1.4450 -5.3816  0.1234
 2106SOL     OW17779   4.003   1.496   1.907 -0.2734 -0.1974  0.2799
 2106SOL    HW117780   3.969   1.558   1.842  0.5362 -0.1716 -0.1238
 2106SOL    HW217781   3.978   1.417   1.859  1.6562  0.0153 -1.0904
 2107SOL     OW17782   4.215   2.730   8.058 -0.0160 -0.0623 -0.0198
 2107SOL    HW117783   4.184   2.746   7.969 -1.4778  2.0647  0.8798
 2107SOL    HW217784   4.247   2.640   8.048 -2.1252 -0.7412 -0.5200
 2108SOL     OW17785   4.002   1.226   8.579  0.0459  0.0255 -0.0934
 2108SOL    HW117786   3.917   1.262   8.556  0.3868  0.5472 -0.5406
 2108SOL    HW217787   4.034   1.307   8.621 -0.6019  0.8675 -1.2322
 2109SOL     OW17788   0.202   1.724   2.445  0.3990 -0.1727  0.3828
 2109SOL    HW117789   0.289   1.687   2.461  0.9668  0.5657 -0.9796
 2109SOL    HW217790   0.224   1.813   2.418  1.4197 -1.2908 -2.4358
 2110SOL     OW17791   4.221   1.018  16.855 -0.0835 -0.2828 -0.4333
 2110SOL    HW117792   4.307   1.053  16.831  1.0740 -3.0490 -0.3539
 2110SOL    HW217793   4.229   0.922  16.853  4.5226  0.0521  1.3004
 2111SOL     OW17794   1.989   3.700  14.779  0.4905 -0.0575 -0.1091
 2111SOL    HW117795   1.988   3.791  14.809 -0.3104  1.1938 -4.0391
 2111SOL    HW217796   1.925   3.657  14.836 -0.7391  0.7281 -0.9192
 2112SOL     OW17797   3.492   0.881  11.190  0.0760 -0.5732 -0.1814
 2112SOL    HW117798   3.518   0.965  11.154  1.7274 -0.8976  0.2598
 2112SOL    HW217799   3.546   0.870  11.268 -1.7223 -0.7560  1.0479
 2113SOL     OW17800   0.458   3.923   0.325  0.0827 -0.0342  1.0174
 2113SOL    HW117801   0.547   3.907   0.356 -0.1258  0.0956  1.6766
 2113SOL    HW217802   0.477   3.921   0.231  0.3506 -2.4573  1.1126
 2114SOL     OW17803   2.069   2.403  15.807 -0.3594 -0.2200 -0.3019
 2114SOL    HW117804   2.096   2.311  15.813 -1.5982 -0.4459  1.7567
 2114SOL    HW217805   2.083   2.417  15.714 -1.6175  1.2397 -0.2521
 2115SOL     OW17806   1.947   1.064   4.252 -0.5690  0.7892  0.4100
 2115SOL    HW117807   1.955   1.142   4.306 -2.0938  0.5649  0.9506
 2115SOL    HW217808   1.863   1.085   4.210 -1.6447 -1.8228  1.2921
 2116SOL     OW17809   1.072   3.522   7.199 -0.0759 -0.2178 -0.4320
 2116SOL    HW117810   1.094   3.598   7.146 -0.2177  1.2340  1.5766
 2116SOL    HW217811   1.009   3.563   7.258 -1.0137 -2.5704  0.2259
 2117SOL     OW17812   1.113   3.251   4.183 -0.1487  0.2128 -0.2520
 2117SOL    HW117813   1.020   3.268   4.169 -0.3322  0.3914  1.2665
 2117SOL    HW217814   1.113   3.191   4.257 -0.0845  0.4457 -0.0646
 2118SOL     OW17815   0.291   4.358   2.535  0.1597  0.0765 -0.0422
 2118SOL    HW117816   0.212   4.372   2.482  0.1705  1.2980  0.2612
 2118SOL    HW217817   0.337   4.440   2.515  2.8458 -1.2989  0.4963
 2119SOL     OW17818   1.886   4.634   8.501 -0.2998 -0.5242  0.4856
 2119SOL    HW117819   1.861   4.595   8.585 -1.3856  0.2194  0.5159
 2119SOL    HW217820   1.909   4.556   8.453 -2.2148  0.3424 -1.8433
 2120SOL     OW17821   4.322   1.339  10.791  0.5334 -0.3053  0.2576
 2120SOL    HW117822   4.376   1.411  10.756  1.1654 -0.8760  0.0688
 2120SOL    HW217823   4.335   1.288  10.711  1.6813  1.0895 -0.4606
 2121SOL     OW17824   3.924   3.055   3.508 -0.0775 -0.7822  0.4477
 2121SOL    HW117825   3.894   3.022   3.423  1.0778 -0.1447 -0.2019
 2121SOL    HW217826   3.845   3.038   3.560 -1.6420  0.2386 -1.5705
 2122SOL     OW17827   3.407   0.635   7.292  0.0913 -0.2772  0.4440
 2122SOL    HW117828   3.317   0.625   7.261 -0.0777  0.1047  0.8092
 2122SOL    HW217829   3.410   0.566   7.358 -1.5525 -0.4262  0.3581
 2123SOL     OW17830   2.481   1.256  14.164 -0.0599 -0.9026  0.4847
 2123SOL    HW117831   2.431   1.196  14.108 -0.8427  0.1588  0.0485
 2123SOL    HW217832   2.541   1.192  14.202 -0.0960 -1.0040  0.3707
 2124SOL     OW17833   0.084   1.089   4.421  0.4178  0.2855 -0.3438
 2124SOL    HW117834   4.717   1.114   4.421 -0.2071 -2.0634  3.7930
 2124SOL    HW217835   0.119   1.122   4.504 -0.8326  0.1415  0.2400
 2125SOL     OW17836   4.297   2.010   6.288  0.2970  0.9347 -0.1734
 2125SOL    HW117837   4.338   1.926   6.264 -2.1127 -0.2463 -0.1461
 2125SOL    HW217838   4.372   2.062   6.316  1.5207  0.2002 -2.0399
 2126SOL     OW17839   2.504   1.873   5.141 -0.3722  0.2806  0.0433
 2126SOL    HW117840   2.566   1.935   5.103  1.6680 -2.3192 -0.8531
 2126SOL    HW217841   2.545   1.844   5.223  1.3268  0.1753 -0.8473
 2127SOL     OW17842   1.469   0.270   2.225 -0.4177  0.2316  0.6192
 2127SOL    HW117843   1.483   0.361   2.199  0.5629  0.8929  3.4259
 2127SOL    HW217844   1.492   0.283   2.317  1.0376 -1.1386  0.4458
 2128SOL     OW17845   0.147   1.205  16.598  0.0053 -0.2464 -0.0019
 2128SOL    HW117846   0.227   1.175  16.556  0.7338  0.5134  0.8422
 2128SOL    HW217847   0.131   1.270  16.530  0.0798  1.9075  2.0442
 2129SOL     OW17848   3.855   1.477   6.989  0.3867 -0.1563 -0.3147
 2129SOL    HW117849   3.794   1.413   7.027 -0.9993  1.6193  0.4218
 2129SOL    HW217850   3.806   1.543   6.940 -0.5535  0.7342  1.8419
 2130SOL     OW17851   1.673   3.527   6.570  0.5793 -0.3633 -0.0351
 2130SOL    HW117852   1.651   3.434   6.576 -0.9747  0.0209  0.4217
 2130SOL    HW217853   1.766   3.524   6.592  0.2829 -3.0159  0.7961
 2131SOL     OW17854   2.595   1.032  14.263 -0.1707  0.4920 -0.6706
 2131SOL    HW117855   2.505   1.002  14.273 -1.0326  3.1612 -0.2490
 2131SOL    HW217856   2.639   0.948  14.275  0.4352  1.2738  2.5586
 2132SOL     OW17857   4.324   1.156   7.969  0.0868 -0.2231 -0.6036
 2132SOL    HW117858   4.405   1.116   8.001 -1.1829 -0.3252  2.4316
 2132SOL    HW217859   4.332   1.241   8.012  0.4729  1.4435 -3.9294
 2133SOL     OW17860   3.178   3.396   5.679  0.4235 -0.0909 -0.0282
 2133SOL    HW117861   3.173   3.414   5.772  0.8028  0.2383 -0.0730
 2133SOL    HW217862   3.085   3.370   5.676  0.9841 -2.1497  0.0310
 2134SOL     OW17863   4.595   1.580   5.153 -0.1577  0.0106  0.4791
 2134SOL    HW117864   4.675   1.593   5.101 -1.4164  2.4940 -0.8477
 2134SOL    HW217865   4.637   1.570   5.238  1.3538 -0.6124 -0.3400
 2135SOL     OW17866   3.241   2.290   1.970 -0.0823 -0.3837  0.1204
 2135SOL    HW117867   3.173   2.333   2.022  0.1944  1.3251 -0.9618
 2135SOL    HW217868   3.324   2.325   2.002 -0.4526  1.2806 -0.7511
 2136SOL     OW17869   2.504   4.684  10.317  0.9155 -0.0673  0.4276
 2136SOL    HW117870   2.448   4.610  10.292 -0.3616  0.3220  2.1704
 2136SOL    HW217871   2.497   0.001  10.231 -3.0492 -1.6246 -0.0492
 2137SOL     OW17872   0.254   2.543   2.326  0.1332 -0.4815 -0.1818
 2137SOL    HW117873   0.230   2.620   2.274 -0.4052 -0.8631 -0.4956
 2137SOL    HW217874   0.290   2.481   2.262  1.3485 -0.5285  0.5529
 2138SOL     OW17875   2.677   1.689  10.676  0.5095 -0.2744 -0.3431
 2138SOL    HW117876   2.594   1.715  10.716  0.7695  1.1157 -0.6920
 2138SOL    HW217877   2.700   1.773  10.635 -0.5048  0.8588  1.3958
 2139SOL     OW17878   2.821   3.033   4.113 -0.6896  0.3043 -0.0215
 2139SOL    HW117879   2.750   3.096   4.119 -0.4459  0.5602  0.1713
 2139SOL    HW217880   2.869   3.047   4.195  1.3618 -0.5475 -1.0841
 2140SOL     OW17881   4.641   3.944   5.517  0.1482 -0.0050 -0.0071
 2140SOL    HW117882   4.659   4.007   5.447 -1.4991 -1.2008 -1.5213
 2140SOL    HW217883   4.715   3.883   5.513  0.0937  0.1415 -3.3057
 2141SOL     OW17884   0.532   1.466  16.769 -0.5429  0.5093  0.4488
 2141SOL    HW117885   0.450   1.514  16.782 -1.1206 -0.6413  0.9820
 2141SOL    HW217886   0.549   1.428  16.855  0.4873  0.5128  0.2481
 2142SOL     OW17887   3.882   3.879   4.166  0.7717  0.3808 -0.3596
 2142SOL    HW117888   3.926   3.920   4.241  2.6091 -0.7701 -0.8140
 2142SOL    HW217889   3.899   3.939   4.094 -1.8376  2.2511  0.5657
 2143SOL     OW17890   0.870   0.404   1.933  0.3450 -0.5503  0.1561
 2143SOL    HW117891   0.963   0.407   1.913  0.0232 -1.8384 -1.5607
 2143SOL    HW217892   0.843   0.496   1.934  2.0851 -0.0924  2.7308
 2144SOL     OW17893   4.250   2.575   3.540  0.5823  0.0169  0.1626
 2144SOL    HW117894   4.345   2.589   3.541  0.6573 -0.3535 -2.7021
 2144SOL    HW217895   4.225   2.579   3.633  1.8530  0.8922  0.4777
 2145SOL     OW17896   0.794   2.071   2.972 -0.2016  0.1453  0.4416
 2145SOL    HW117897   0.755   2.108   2.893  0.3750 -0.6387 -0.2129
 2145SOL    HW217898   0.886   2.092   2.958 -0.1680  0.4270  1.0860
 2146SOL     OW17899   4.095   3.839   1.039  0.5171  0.4333 -0.0267
 2146SOL    HW117900   4.179   3.882   1.024  1.0321 -0.7961 -0.6323
 2146SOL    HW217901   4.039   3.916   1.027 -0.2954 -0.2806 -0.8572
 2147SOL     OW17902   4.175   1.847   5.029  0.1199 -0.2575  0.1404
 2147SOL    HW117903   4.083   1.822   5.020 -0.2962  0.5256  2.1450
 2147SOL    HW217904   4.179   1.942   5.020 -2.1792 -0.0460  1.2445
 2148SOL     OW17905   4.689   2.705   9.664 -0.1374 -0.1208  1.1477
 2148SOL    HW117906   4.594   2.706   9.648  0.0353  0.9367  0.2415
 2148SOL    HW217907   4.693   2.781   9.721  0.1803 -0.0817  1.0704
 2149SOL     OW17908   4.256   2.666   4.070 -0.0130  0.1208  0.0132
 2149SOL    HW117909   4.293   2.755   4.075  0.5520 -0.1756  1.0983
 2149SOL    HW217910   4.231   2.656   4.162  0.9997  0.5067  0.3386
 2150SOL     OW17911   2.842   2.158   5.564 -0.3539  0.0224  0.2526
 2150SOL    HW117912   2.819   2.090   5.500  2.0597 -1.2754  0.7749
 2150SOL    HW217913   2.763   2.171   5.617 -0.0427 -0.0295  0.7213
 2151SOL     OW17914   2.466   4.512  15.529 -0.5059 -0.1758  0.2355
 2151SOL    HW117915   2.385   4.498  15.579  0.4755 -2.2198  1.2380
 2151SOL    HW217916   2.512   4.573  15.587 -0.7920 -0.0485  0.3276
 2152SOL     OW17917   2.539   3.635  16.207 -0.6885 -0.6093  0.4345
 2152SOL    HW117918   2.468   3.591  16.161 -1.3669  1.0889 -0.1550
 2152SOL    HW217919   2.482   3.672  16.275 -0.2389 -0.9097  0.9813
 2153SOL     OW17920   2.990   0.364   3.140  0.0241 -0.0743 -0.6454
 2153SOL    HW117921   2.976   0.389   3.049 -0.8075  0.0064 -0.4948
 2153SOL    HW217922   2.952   0.276   3.132 -1.4085  0.7860 -3.3872
 2154SOL     OW17923   0.094   0.682   2.733 -0.1128  0.1190  1.1189
 2154SOL    HW117924   0.046   0.755   2.772 -0.7143  1.1464 -1.4912
 2154SOL    HW217925   0.033   0.642   2.670  0.6078 -0.6370  0.9159
 2155SOL     OW17926   4.120   2.338  17.052 -0.0376 -0.1886  0.2044
 2155SOL    HW117927   4.124   2.320  16.958 -0.5493  2.0407 -0.2476
 2155SOL    HW217928   4.112   2.433  17.050  0.1374 -0.2043 -2.1397
 2156SOL     OW17929   1.066   2.916   6.228 -0.0369  0.3943  0.1508
 2156SOL    HW117930   1.019   2.948   6.304 -0.3688 -0.4481  0.3092
 2156SOL    HW217931   1.014   2.943   6.152 -3.0782 -1.7150  1.4794
 2157SOL     OW17932   2.043   3.244   5.348  0.4100 -0.3706 -0.1050
 2157SOL    HW117933   2.086   3.202   5.274 -3.2675 -0.9193 -1.9637
 2157SOL    HW217934   2.051   3.186   5.423  0.8015 -2.0683 -1.4703
 2158SOL     OW17935   4.210   0.723  15.369 -0.2390 -0.4384 -0.2684
 2158SOL    HW117936   4.273   0.671  15.319 -1.7379  0.6580 -3.3478
 2158SOL    HW217937   4.245   0.724  15.457  1.0528 -0.0102 -0.7920
 2159SOL     OW17938   1.595   0.540   1.733 -0.6595  0.3440 -0.5249
 2159SOL    HW117939   1.659   0.521   1.802 -0.5912 -2.6349 -1.4409
 2159SOL    HW217940   1.525   0.590   1.775  1.5452  0.9800  2.4345
 2160SOL     OW17941   2.679   0.423   2.303  0.4616 -0.9117 -0.1474
 2160SOL    HW117942   2.764   0.437   2.346  0.5545 -0.6041 -0.4320
 2160SOL    HW217943   2.681   0.327   2.298  0.1947 -1.0363  2.1140
 2161SOL     OW17944   3.751   1.510  13.116  0.0474  0.3077 -0.6067
 2161SOL    HW117945   3.822   1.457  13.152 -1.2524  0.8732  2.7504
 2161SOL    HW217946   3.726   1.562  13.192  0.7728  1.4009 -1.1080
 2162SOL     OW17947   1.484   0.601   4.873 -0.3255  0.0673 -0.1828
 2162SOL    HW117948   1.530   0.625   4.793  0.6933 -0.9115  0.1127
 2162SOL    HW217949   1.409   0.655   4.849 -3.5486 -4.0348  0.6584
 2163SOL     OW17950   1.473   2.839   7.874 -0.4465 -0.2348 -0.4044
 2163SOL    HW117951   1.434   2.903   7.813 -2.7676 -3.4421 -2.2948
 2163SOL    HW217952   1.422   2.760   7.853 -0.3821 -0.5610  0.7004
 2164SOL     OW17953   1.907   3.939  13.660 -0.1530 -0.4260 -0.2544
 2164SOL    HW117954   1.881   4.031  13.651  0.4221 -0.4212 -1.8381
 2164SOL    HW217955   1.827   3.893  13.633  0.2587 -0.5171 -1.3339
 2165SOL     OW17956   0.453   4.230   3.422  0.9955 -0.5174  0.1729
 2165SOL    HW117957   0.535   4.259   3.382 -0.3225  2.6199 -0.2318
 2165SOL    HW217958   0.474   4.154   3.477  0.6552 -1.6375 -1.2492
 2166SOL     OW17959   4.346   3.579   6.633  0.5820  0.0115 -0.0919
 2166SOL    HW117960   4.390   3.623   6.706  3.1000  2.5394 -3.1556
 2166SOL    HW217961   4.341   3.661   6.583  3.0026 -0.3235 -0.8900
 2167SOL     OW17962   2.447   2.052   7.064  0.2168 -0.2998 -0.1265
 2167SOL    HW117963   2.359   2.090   7.060  0.5954  0.4013 -1.6195
 2167SOL    HW217964   2.487   2.080   6.982  0.7350  0.8609  0.5178
 2168SOL     OW17965   0.134   1.426   3.103 -0.2147 -0.2636 -0.4342
 2168SOL    HW117966   0.082   1.404   3.026 -0.6964  1.7544 -0.6778
 2168SOL    HW217967   0.189   1.498   3.073  1.5943 -1.2603  0.4976
 2169SOL     OW17968   4.081   2.631   7.495 -0.2882 -0.1101  0.6485
 2169SOL    HW117969   4.045   2.715   7.523 -1.2611 -0.3008 -0.0615
 2169SOL    HW217970   4.089   2.575   7.573  1.0246 -0.3161  0.3574
 2170SOL     OW17971   3.298   0.599  17.358  0.1496  0.2147  0.2566
 2170SOL    HW117972   3.285   0.542  17.282  2.6294  0.3124 -0.2246
 2170SOL    HW217973   3.228   0.663  17.348 -1.6041 -1.9365 -1.2289
 2171SOL     OW17974   2.525   3.048   5.462 -0.2534  0.0342 -0.5026
 2171SOL    HW117975   2.516   2.979   5.527 -1.9138  0.4672 -0.2760
 2171SOL    HW217976   2.603   3.016   5.416 -0.9077  0.2326 -1.7599
 2172SOL     OW17977   1.682   3.284  16.409  0.5083 -0.4802  0.4349
 2172SOL    HW117978   1.655   3.347  16.475 -0.1709  0.0765 -0.3847
 2172SOL    HW217979   1.599   3.246  16.381 -0.2010 -0.2848  2.2432
 2173SOL     OW17980   4.484   2.870   2.529 -0.1959  0.0746  0.5981
 2173SOL    HW117981   4.574   2.903   2.537  0.1905 -1.1985  1.4985
 2173SOL    HW217982   4.435   2.931   2.585 -1.9619 -1.4471  0.7021
 2174SOL     OW17983   0.175   4.688   6.795 -0.0438 -0.1861 -0.0631
 2174SOL    HW117984   0.168   4.608   6.743 -1.0863 -1.0154  1.3426
 2174SOL    HW217985   0.245   4.663   6.855  0.5688  0.6857 -0.4099
 2175SOL     OW17986   3.916   0.916   5.333  0.3147 -0.0516  0.3969
 2175SOL    HW117987   3.821   0.926   5.332 -0.1548 -4.2414  0.5343
 2175SOL    HW217988   3.947   1.006   5.330  1.7671 -0.5857 -0.9454
 2176SOL     OW17989   0.150   1.149   3.157  0.4639 -0.3015  0.0096
 2176SOL    HW117990   0.195   1.131   3.074  1.5334  0.5095  0.4261
 2176SOL    HW217991   0.157   1.244   3.153 -3.0939 -0.1013 -1.4978
 2177SOL     OW17992   3.908   0.850  14.192  0.4394  0.3586  0.3102
 2177SOL    HW117993   3.851   0.879  14.263  1.0724  0.2381  0.8641
 2177SOL    HW217994   3.922   0.760  14.220 -3.8102  0.0834  1.6379
 2178SOL     OW17995   4.328   1.335   6.934  0.3427  0.8188 -0.4847
 2178SOL    HW117996   4.257   1.391   6.901 -1.5295 -0.2120  1.7442
 2178SOL    HW217997   4.312   1.255   6.885 -0.4974  0.5495  0.2196
 2179SOL     OW17998   4.504   1.172   4.622  0.4182 -0.1335  0.5731
 2179SOL    HW117999   4.517   1.265   4.641 -0.1566  0.3181 -1.2145
 2179SOL    HW218000   4.502   1.171   4.526 -2.4598 -0.6266  0.6406
 2180SOL     OW18001   3.007   0.966   8.336 -0.6874  0.3618 -0.1231
 2180SOL    HW118002   3.000   0.880   8.293 -0.2101  0.9323 -1.3538
 2180SOL    HW218003   2.953   0.940   8.410 -1.4808  0.0692 -0.8020
 2181SOL     OW18004   0.576   4.264  16.693 -0.5604 -0.4255 -0.0143
 2181SOL    HW118005   0.558   4.353  16.724 -0.1700 -0.3868  0.0957
 2181SOL    HW218006   0.505   4.222  16.741 -1.3473 -1.4146 -2.0253
 2182SOL     OW18007   0.253   4.663   7.357  0.2503 -0.3978  0.4608
 2182SOL    HW118008   0.336   4.615   7.349  1.3647  1.2781  1.9257
 2182SOL    HW218009   0.252   4.679   7.451  1.5414  2.2070  0.0361
 2183SOL     OW18010   3.780   4.128  14.085 -0.4237  0.5058  0.4541
 2183SOL    HW118011   3.817   4.214  14.064 -0.0269  0.0834 -0.5849
 2183SOL    HW218012   3.860   4.089  14.121 -0.9203  1.1212  2.1910
 2184SOL     OW18013   4.052   0.857   4.005  0.2613 -0.2718  0.1477
 2184SOL    HW118014   4.069   0.808   3.924  0.7030  0.6618 -0.3255
 2184SOL    HW218015   4.081   0.946   3.990  1.9669 -0.8428  0.0668
 2185SOL     OW18016   1.923   2.563   4.045  0.2199 -0.3483 -0.4410
 2185SOL    HW118017   1.861   2.525   3.984  0.8578 -1.2873 -0.4938
 2185SOL    HW218018   1.984   2.609   3.988  1.7563 -1.0745  0.6369
 2186SOL     OW18019   0.530   2.240   6.180  0.1048 -0.3620  0.0384
 2186SOL    HW118020   0.450   2.292   6.168 -0.6848 -1.6415 -0.2412
 2186SOL    HW218021   0.594   2.284   6.124 -0.9106  1.4078  0.2689
 2187SOL     OW18022   2.905   3.574   6.440  0.5921 -0.5408 -0.5626
 2187SOL    HW118023   2.976   3.522   6.477  2.1238  0.9599 -1.3743
 2187SOL    HW218024   2.850   3.498   6.420 -1.6326  0.7423  0.5931
 2188SOL     OW18025   2.006   4.305   2.486  0.1072 -0.1973  0.3367
 2188SOL    HW118026   1.954   4.280   2.409 -2.2018  0.0481  1.8251
 2188SOL    HW218027   2.068   4.232   2.488  0.8564  0.4439  0.5029
 2189SOL     OW18028   4.668   2.201  12.930 -0.0473 -0.3758  0.2547
 2189SOL    HW118029   4.656   2.135  12.998  0.3375  0.0801  0.7687
 2189SOL    HW218030   0.021   2.165  12.889 -0.4344  1.4076 -2.0606
 2190SOL     OW18031   3.488   0.317  10.813 -0.1761 -0.4062  0.2349
 2190SOL    HW118032   3.576   0.344  10.787 -0.4114 -0.3779 -0.5207
 2190SOL    HW218033   3.445   0.400  10.834 -0.5624 -1.5215  3.8803
 2191SOL     OW18034   0.768   1.368   8.440 -0.1852 -0.3805 -0.0327
 2191SOL    HW118035   0.795   1.452   8.402  2.6250 -0.6788  1.3297
 2191SOL    HW218036   0.816   1.300   8.392 -0.5806 -1.1514  0.6664
 2192SOL     OW18037   0.665   0.615  13.775 -0.0094 -0.0504  1.0275
 2192SOL    HW118038   0.739   0.640  13.721 -1.4209 -1.3210 -1.5133
 2192SOL    HW218039   0.593   0.654  13.726  1.8684  2.1102  0.0090
 2193SOL     OW18040   0.516   1.068   6.393 -0.1603  0.1938 -0.0841
 2193SOL    HW118041   0.562   1.135   6.442 -1.4515  1.0935 -0.1044
 2193SOL    HW218042   0.501   1.115   6.311  1.7749  1.9778  0.6043
 2194SOL     OW18043   1.773   1.511   2.361 -0.0077 -0.2348 -0.0472
 2194SOL    HW118044   1.779   1.426   2.403  1.7225  0.4361  1.0629
 2194SOL    HW218045   1.778   1.497   2.267  1.0175 -1.5337  0.2111
 2195SOL     OW18046   2.622   2.532   4.005  0.2432 -0.3155  0.7498
 2195SOL    HW118047   2.631   2.627   4.012 -0.4279 -0.2176  0.2762
 2195SOL    HW218048   2.530   2.512   4.020  0.5383 -2.3164 -0.1686
 2196SOL     OW18049   0.885   3.365   5.328  0.6127 -0.7500  0.2287
 2196SOL    HW118050   0.822   3.293   5.331  1.7994 -1.7115  2.0022
 2196SOL    HW218051   0.833   3.446   5.329 -0.4166 -1.3823 -1.9869
 2197SOL     OW18052   3.441   1.832  11.966 -0.0873  0.1777 -0.8777
 2197SOL    HW118053   3.533   1.844  11.990 -0.9903  1.5074  1.9622
 2197SOL    HW218054   3.471   1.825  11.875 -2.2242 -0.1752 -1.5598
 2198SOL     OW18055   2.108   2.213   8.596 -0.5626  0.1637 -0.1549
 2198SOL    HW118056   2.101   2.303   8.629 -0.2479  0.4546 -0.8729
 2198SOL    HW218057   2.034   2.203   8.535 -0.2308 -1.3696 -0.3132
 2199SOL     OW18058   3.288   4.179   4.204 -0.1774  0.2673 -0.1123
 2199SOL    HW118059   3.276   4.267   4.239  0.2771 -0.2855  1.4126
 2199SOL    HW218060   3.247   4.127   4.273 -0.4775 -0.6172 -0.9545
 2200SOL     OW18061   0.041   3.915   3.317  0.6902 -0.0278  0.3222
 2200SOL    HW118062   4.694   3.951   3.266 -0.1536 -0.1117  1.4658
 2200SOL    HW218063   0.112   3.979   3.303  0.3606  0.1208 -0.6714
 2201SOL     OW18064   3.907   1.099   6.341  0.7290  0.1299 -0.6671
 2201SOL    HW118065   3.934   1.163   6.407  1.0979 -0.2107 -0.4838
 2201SOL    HW218066   3.853   1.041   6.396 -0.5814 -0.4748 -2.5722
 2202SOL     OW18067   4.317   1.891   8.682 -0.3150 -0.5583 -0.3586
 2202SOL    HW118068   4.381   1.963   8.686 -0.7597 -0.1019 -1.2034
 2202SOL    HW218069   4.259   1.911   8.608 -0.5150 -2.3780 -0.6823
 2203SOL     OW18070   0.212   0.199   2.705 -0.0344  0.5359  0.4429
 2203SOL    HW118071   0.221   0.268   2.771 -0.8217  0.4873  0.5964
 2203SOL    HW218072   0.223   0.122   2.761  2.8275  0.9942  0.4842
 2204SOL     OW18073   3.741   0.672  10.513 -0.3183 -0.4930  0.4288
 2204SOL    HW118074   3.733   0.580  10.537  1.5496 -1.3392 -2.0612
 2204SOL    HW218075   3.779   0.713  10.591 -1.2379 -0.6812  0.9700
 2205SOL     OW18076   3.065   3.458   3.810  0.0674 -0.0442 -0.3219
 2205SOL    HW118077   3.015   3.506   3.876  2.1422 -1.4112  2.2059
 2205SOL    HW218078   2.993   3.427   3.755 -1.1051  0.3541  0.9903
 2206SOL     OW18079   2.332   2.395   7.818 -0.1789 -0.1850 -0.1232
 2206SOL    HW118080   2.249   2.375   7.860  0.1202 -0.3891  0.3780
 2206SOL    HW218081   2.308   2.433   7.734 -0.6664  1.6522  0.8590
 2207SOL     OW18082   0.742   1.367  16.422  0.1822  0.6047  0.7126
 2207SOL    HW118083   0.718   1.437  16.483 -1.4873  0.2180  0.5130
 2207SOL    HW218084   0.733   1.291  16.480  0.9115  1.8970  2.5498
 2208SOL     OW18085   0.158   3.480   2.759  0.2943 -0.0970 -0.5586
 2208SOL    HW118086   0.126   3.484   2.849 -0.1090 -0.8946 -0.6682
 2208SOL    HW218087   0.219   3.554   2.761  0.2275 -0.0880  0.9652
 2209SOL     OW18088   0.853   0.594  16.487 -0.2984 -0.8210  0.0315
 2209SOL    HW118089   0.822   0.537  16.417 -1.6478 -1.6589  1.3134
 2209SOL    HW218090   0.861   0.531  16.559  0.3848 -0.4013  0.3255
 2210SOL     OW18091   4.567   3.191   6.897 -0.2940  0.2531 -0.6130
 2210SOL    HW118092   4.652   3.224   6.926  0.4494 -2.1432 -0.0849
 2210SOL    HW218093   4.582   3.103   6.929  0.7974  0.6250 -0.1018
 2211SOL     OW18094   0.106   3.684   3.466  0.0317 -0.3168 -0.5035
 2211SOL    HW118095   0.080   3.757   3.409 -1.7563 -1.2504 -0.9026
 2211SOL    HW218096   0.166   3.641   3.405  1.6803  0.4508  0.6021
 2212SOL     OW18097   3.025   3.278   0.094  0.2177  0.1581 -0.0867
 2212SOL    HW118098   3.034   3.183   0.099  1.3568  0.2422 -0.5609
 2212SOL    HW218099   2.996   3.295   0.004  1.5276 -0.1285 -0.5566
 2213SOL     OW18100   4.357   2.616  14.027 -0.2129  0.3060 -0.1119
 2213SOL    HW118101   4.366   2.622  14.122  0.9117 -2.2750 -0.0586
 2213SOL    HW218102   4.411   2.544  13.995  0.5805 -0.1100  2.1406
 2214SOL     OW18103   0.590   0.547   7.020  0.5518  0.2184  0.0564
 2214SOL    HW118104   0.639   0.594   7.088  0.3855  0.9258 -0.3154
 2214SOL    HW218105   0.501   0.581   7.014 -0.3617 -2.4025 -1.1008
 2215SOL     OW18106   3.601   2.622   1.680 -0.4945 -0.0297  0.3179
 2215SOL    HW118107   3.507   2.637   1.669 -0.2314  1.6931  0.4455
 2215SOL    HW218108   3.625   2.683   1.749  1.1020 -0.6550  0.3068
 2216SOL     OW18109   1.386   0.787  11.310  0.8728 -0.2268 -0.6559
 2216SOL    HW118110   1.428   0.717  11.360  0.0394 -0.3442 -0.1177
 2216SOL    HW218111   1.329   0.741  11.248  0.1966  0.1152 -0.2947
 2217SOL     OW18112   2.218   1.834   2.222  0.2777 -0.0169  0.1084
 2217SOL    HW118113   2.281   1.818   2.293  0.1928  1.1385  0.4507
 2217SOL    HW218114   2.148   1.837   2.287 -2.2037 -1.2379 -2.5631
 2218SOL     OW18115   0.824   1.221  14.625  0.2743 -0.3081  0.4324
 2218SOL    HW118116   0.765   1.163  14.673 -1.8166  2.3557  1.0875
 2218SOL    HW218117   0.901   1.165  14.624 -0.6681 -1.5683 -1.6614
 2219SOL     OW18118   0.013   1.902   2.222 -0.2654  0.7421 -0.1190
 2219SOL    HW118119   0.088   1.927   2.276 -1.5216  1.0381  1.4925
 2219SOL    HW218120   4.685   1.870   2.295  1.3628  0.2356  0.8399
 2220SOL     OW18121   3.921   1.733   8.089 -0.2292 -0.3333 -0.6971
 2220SOL    HW118122   3.861   1.791   8.042  0.1140  0.4994 -0.1086
 2220SOL    HW218123   3.981   1.794   8.131  0.8394 -0.7896 -1.5272
 2221SOL     OW18124   4.621   1.260   1.962 -0.3754  0.4565  0.3631
 2221SOL    HW118125   4.571   1.179   1.956  1.1710 -0.4488 -0.3496
 2221SOL    HW218126   4.555   1.329   1.947  1.1538  2.0448  0.9098
 2222SOL     OW18127   3.554   1.443   0.294  0.1394  0.5161 -0.1812
 2222SOL    HW118128   3.471   1.425   0.338  1.1364  0.1848  1.5544
 2222SOL    HW218129   3.547   1.393   0.213  1.7965  0.7261 -0.4575
 2223SOL     OW18130   0.250   0.463   5.362  0.0632  0.2637  0.1333
 2223SOL    HW118131   0.168   0.509   5.340  0.0402  0.1141 -0.0910
 2223SOL    HW218132   0.323   0.525   5.353 -0.6330  1.3727  2.0288
 2224SOL     OW18133   3.883   3.564   6.442 -0.0789  0.1315  0.4441
 2224SOL    HW118134   3.906   3.630   6.377  0.0640 -1.4341 -1.0978
 2224SOL    HW218135   3.934   3.485   6.425 -2.2344 -0.5767 -2.7582
 2225SOL     OW18136   1.919   3.504   0.502  0.2770 -0.2476  0.1930
 2225SOL    HW118137   1.834   3.515   0.459  1.4747  1.0560 -1.8378
 2225SOL    HW218138   1.942   3.433   0.443 -2.0128 -0.7596 -0.1019
 2226SOL     OW18139   3.321   4.639   7.275 -0.2134 -0.1711 -0.4284
 2226SOL    HW118140   3.378   4.712   7.249 -0.3289  0.3091  0.6778
 2226SOL    HW218141   3.240   4.684   7.301 -0.5104 -0.4767 -0.8045
 2227SOL     OW18142   3.782   0.668   7.520 -0.2557 -0.1284  0.3169
 2227SOL    HW118143   3.790   0.673   7.615 -0.3604 -0.0157  0.3200
 2227SOL    HW218144   3.712   0.602   7.521 -0.9536  0.6414  2.4260
 2228SOL     OW18145   3.178   4.447   8.913  0.1766  0.8730 -0.3302
 2228SOL    HW118146   3.249   4.507   8.939 -1.1219  1.1828  2.5052
 2228SOL    HW218147   3.098   4.489   8.945 -0.5158 -1.5320  1.0900
 2229SOL     OW18148   4.523   1.418   4.708 -0.1607  0.1590 -0.8543
 2229SOL    HW118149   4.526   1.501   4.661 -0.4932  0.1885 -0.8200
 2229SOL    HW218150   4.599   1.432   4.765 -0.9002 -1.9215  0.6307
 2230SOL     OW18151   0.902   3.593   3.731 -0.0734  0.2087 -0.0887
 2230SOL    HW118152   0.932   3.678   3.765  2.1894 -0.3647 -0.6238
 2230SOL    HW218153   0.871   3.551   3.811  1.7119  1.0782  1.0728
 2231SOL     OW18154   1.742   2.797   8.472 -0.2066  0.0321 -0.1542
 2231SOL    HW118155   1.802   2.825   8.541  1.6127 -1.5348 -1.0827
 2231SOL    HW218156   1.660   2.781   8.518  0.3122 -1.3830  0.3106
 2232SOL     OW18157   2.746   3.400   7.822  0.2446  0.1322  0.3397
 2232SOL    HW118158   2.833   3.384   7.786  0.5969 -0.5769  1.5134
 2232SOL    HW218159   2.777   3.459   7.890  3.1948 -0.7245 -0.2704
 2233SOL     OW18160   0.524   4.252   3.811  0.4224  0.4861  0.1590
 2233SOL    HW118161   0.475   4.320   3.765  2.8462  3.5577  2.1517
 2233SOL    HW218162   0.609   4.238   3.769  0.3948  0.8349 -0.0160
 2234SOL     OW18163   3.718   2.489   2.196  0.2587 -0.5350 -0.0566
 2234SOL    HW118164   3.742   2.443   2.115 -0.1535 -3.1405  1.3138
 2234SOL    HW218165   3.803   2.509   2.236 -0.8155  1.0855  1.3939
 2235SOL     OW18166   0.620   2.609   3.134  0.3199  0.1666  0.1145
 2235SOL    HW118167   0.662   2.668   3.071  1.8251 -1.1204 -0.0939
 2235SOL    HW218168   0.600   2.526   3.090  0.0789  0.6682 -0.7323
 2236SOL     OW18169   0.730   2.538   4.133  0.0441  0.3148  0.2814
 2236SOL    HW118170   0.744   2.590   4.054  2.6635  0.2591  0.6977
 2236SOL    HW218171   0.637   2.519   4.130  0.0863 -0.0086  1.0748
 2237SOL     OW18172   4.553   2.751   0.612  0.0102  0.1052  0.5374
 2237SOL    HW118173   4.594   2.738   0.527 -0.7732  1.3155 -0.0169
 2237SOL    HW218174   4.526   2.662   0.634 -2.7359  0.4443 -1.5562
 2238SOL     OW18175   3.121   2.484  15.590 -0.3563  0.1197  0.2651
 2238SOL    HW118176   3.178   2.459  15.518 -0.5920 -2.6284  0.9926
 2238SOL    HW218177   3.046   2.493  15.531  0.5292 -1.6589 -1.1569
 2239SOL     OW18178   4.695   3.252  14.477  0.3840 -0.0879 -0.1754
 2239SOL    HW118179   0.022   3.214  14.406 -0.6784 -1.5403 -0.1789
 2239SOL    HW218180   4.724   3.343  14.473  2.0465 -0.6153 -0.4787
 2240SOL     OW18181   3.203   1.410   4.032 -0.3317 -0.3537 -0.8744
 2240SOL    HW118182   3.155   1.459   4.099  1.4698 -0.5271  0.5299
 2240SOL    HW218183   3.163   1.447   3.953  0.2763  2.6600  0.2195
 2241SOL     OW18184   3.434   2.134   5.806 -0.0713 -0.5203  0.1759
 2241SOL    HW118185   3.486   2.057   5.829  0.2366 -0.6526 -0.9444
 2241SOL    HW218186   3.419   2.116   5.713 -0.5013 -0.6183  0.2620
 2242SOL     OW18187   4.217   3.338  10.333 -0.4994  0.1012  0.1953
 2242SOL    HW118188   4.299   3.380  10.308 -0.7856  0.6709  0.2182
 2242SOL    HW218189   4.245   3.246  10.329  1.6523  0.7603  0.5414
 2243SOL     OW18190   3.283   4.100   1.523 -0.0772 -0.5925  0.4562
 2243SOL    HW118191   3.269   4.024   1.578  0.8743 -0.9412  0.2115
 2243SOL    HW218192   3.367   4.073   1.485  0.0590 -2.4742  2.0888
 2244SOL     OW18193   4.008   1.183   6.101  0.0337 -0.3719  0.1219
 2244SOL    HW118194   3.970   1.170   6.188  1.2879 -1.3026  0.5215
 2244SOL    HW218195   3.959   1.120   6.047  2.3839 -1.1676 -1.0780
 2245SOL     OW18196   0.107   0.297   3.842  0.6016 -0.3846  0.2611
 2245SOL    HW118197   0.160   0.377   3.846  1.4588 -0.9553  0.4337
 2245SOL    HW218198   0.020   0.335   3.851  0.9177  0.1657  0.9314
 2246SOL     OW18199   3.031   3.891  13.137 -0.2082  0.4393 -0.1580
 2246SOL    HW118200   3.073   3.805  13.145  1.3120  1.2106  0.0195
 2246SOL    HW218201   2.964   3.866  13.074  0.4733 -1.7106 -0.0386
 2247SOL     OW18202   2.018   0.321   4.325 -0.2325  0.3122  0.0767
 2247SOL    HW118203   1.950   0.383   4.298  1.0724  2.3950  1.5263
 2247SOL    HW218204   2.070   0.310   4.245 -0.7588  0.0708 -0.2261
 2248SOL     OW18205   4.705   4.568  15.640  0.0272 -0.0873 -0.3960
 2248SOL    HW118206   0.057   4.516  15.662  0.8270 -0.0427 -3.1172
 2248SOL    HW218207   4.633   4.506  15.649  0.3783 -0.4388 -0.0309
 2249SOL     OW18208   3.197   1.140   4.100  0.7419 -1.1527  0.2315
 2249SOL    HW118209   3.213   1.151   4.194  0.5818 -0.4610  0.1758
 2249SOL    HW218210   3.184   1.230   4.073 -0.7101 -1.6528 -0.7255
 2250SOL     OW18211   3.810   2.810   3.653  0.0820 -0.4519  0.6732
 2250SOL    HW118212   3.736   2.800   3.594  0.4763 -1.1270  0.2871
 2250SOL    HW218213   3.877   2.770   3.597 -0.4380 -2.1228  1.2608
 2251SOL     OW18214   0.407   1.126   5.484 -0.4332  0.6800 -0.2280
 2251SOL    HW118215   0.442   1.215   5.492 -1.6090  1.1990 -0.8701
 2251SOL    HW218216   0.425   1.114   5.390  0.2875  0.2435 -0.0350
 2252SOL     OW18217   1.856   0.821  16.374  0.1069 -0.1958 -0.3348
 2252SOL    HW118218   1.839   0.841  16.282 -0.4671 -0.5871 -0.3129
 2252SOL    HW218219   1.767   0.803  16.406 -0.3061 -0.7847 -1.7983
 2253SOL     OW18220   0.585   0.614   6.214 -0.6739  0.8085  0.6019
 2253SOL    HW118221   0.504   0.666   6.213 -0.4799  1.1114  0.4980
 2253SOL    HW218222   0.534   0.539   6.244  1.5552 -1.5347 -1.5341
 2254SOL     OW18223   2.856   0.618   9.185 -0.7715 -0.0333 -0.3361
 2254SOL    HW118224   2.885   0.709   9.181 -1.1358  0.0207 -1.6917
 2254SOL    HW218225   2.894   0.589   9.268  2.0713 -0.6489 -1.8692
 2255SOL     OW18226   3.890   2.926   2.219 -0.2691 -0.1355 -0.0345
 2255SOL    HW118227   3.945   2.860   2.261  0.7785 -0.6971 -2.2764
 2255SOL    HW218228   3.959   2.952   2.157  0.4004 -0.9846  0.3676
 2256SOL     OW18229   2.178   2.515  11.093  0.2368 -0.0418 -0.3802
 2256SOL    HW118230   2.184   2.446  11.027  0.8269 -0.2564 -0.1006
 2256SOL    HW218231   2.254   2.567  11.069  0.5241 -0.0417  0.5190
 2257SOL     OW18232   2.851   2.662   6.991  0.0267 -0.0701  0.2815
 2257SOL    HW118233   2.789   2.710   7.047 -1.2106 -0.1218 -1.0412
 2257SOL    HW218234   2.891   2.600   7.052  1.4600 -1.5214 -2.1705
 2258SOL     OW18235   3.838   2.166  10.515  0.0835  0.0048 -0.0134
 2258SOL    HW118236   3.813   2.087  10.467 -1.8958  1.1819 -0.9258
 2258SOL    HW218237   3.841   2.232  10.446  1.8662 -1.4375 -1.3019
 2259SOL     OW18238   0.023   4.003   7.827 -0.6078  0.6133 -0.5249
 2259SOL    HW118239   0.040   4.058   7.751  0.7790  0.2236 -0.4859
 2259SOL    HW218240   4.703   3.924   7.795 -0.6544  0.2050  0.5437
 2260SOL     OW18241   3.130   0.001   1.779 -0.5957 -0.8224  0.2482
 2260SOL    HW118242   3.086   4.702   1.860 -1.4007 -0.7800 -0.1751
 2260SOL    HW218243   3.208   0.032   1.825 -0.5345  1.3317 -1.3332
 2261SOL     OW18244   0.259   0.823   3.201  0.0964  0.0478 -0.2982
 2261SOL    HW118245   0.218   0.863   3.278  0.3732 -0.5364  0.1503
 2261SOL    HW218246   0.300   0.899   3.159 -0.0675  0.8954  1.0692
 2262SOL     OW18247   4.245   0.667   0.011 -0.3469 -0.0150 -0.3136
 2262SOL    HW118248   4.251   0.572   0.017 -3.2634 -0.1859 -0.0432
 2262SOL    HW218249   4.151   0.680   0.002 -0.4153 -0.0890  0.3050
 2263SOL     OW18250   4.244   3.486  14.183  0.3435  0.5875 -0.1927
 2263SOL    HW118251   4.334   3.457  14.171 -0.1325 -0.7844 -0.3596
 2263SOL    HW218252   4.197   3.456  14.105 -1.0821 -0.7726  1.2004
 2264SOL     OW18253   4.039   0.223   7.841  0.0648 -0.7242 -0.1069
 2264SOL    HW118254   4.020   0.142   7.888 -0.4911 -1.8895 -2.3454
 2264SOL    HW218255   4.002   0.287   7.902  0.0663  0.7182 -1.5927
 2265SOL     OW18256   4.587   0.193   2.646 -0.2262  0.7074 -0.0979
 2265SOL    HW118257   4.606   0.099   2.651 -0.5556  0.6333 -0.1919
 2265SOL    HW218258   4.637   0.222   2.722 -2.0511 -0.0302  1.3882
 2266SOL     OW18259   3.464   0.921   5.566 -0.2167  0.1817 -0.0580
 2266SOL    HW118260   3.403   0.862   5.610  0.8812 -0.7284  0.2559
 2266SOL    HW218261   3.506   0.973   5.635  2.6631 -0.1842 -1.5165
 2267SOL     OW18262   3.688   3.671   2.428 -0.6406 -0.1047 -0.1669
 2267SOL    HW118263   3.725   3.741   2.375  1.0809  0.1170  1.3205
 2267SOL    HW218264   3.697   3.589   2.379 -0.4801 -0.1488 -0.0622
 2268SOL     OW18265   0.592   0.738   5.935 -0.0840 -0.1779 -0.0934
 2268SOL    HW118266   0.595   0.709   6.026  2.0802 -3.7655 -1.3218
 2268SOL    HW218267   0.497   0.748   5.931 -0.1409 -0.9674 -0.6271
 2269SOL     OW18268   2.793   1.459  10.570  0.3444  0.4967 -0.0156
 2269SOL    HW118269   2.745   1.447  10.489 -0.8986  2.5081  0.4120
 2269SOL    HW218270   2.743   1.523  10.620 -0.6438 -0.0220 -0.3508
 2270SOL     OW18271   2.239   0.626   3.913 -0.3924  0.3386  0.2192
 2270SOL    HW118272   2.267   0.549   3.962  1.8553 -0.1816 -1.8951
 2270SOL    HW218273   2.180   0.580   3.854  0.8018 -1.3162  0.3296
 2271SOL     OW18274   2.905   3.288   3.247  0.4013 -0.0528  0.3293
 2271SOL    HW118275   2.957   3.314   3.172  0.8431 -2.7230 -0.2949
 2271SOL    HW218276   2.908   3.193   3.251  0.7499 -0.1790 -2.8642
 2272SOL     OW18277   1.221   2.365   5.086 -0.3633 -0.0971 -0.1908
 2272SOL    HW118278   1.226   2.272   5.109 -1.0182 -0.4572 -1.5473
 2272SOL    HW218279   1.231   2.367   4.991 -1.3278 -0.7954 -0.3042
 2273SOL     OW18280   3.347   1.723   8.894  0.0837 -0.0345 -0.9989
 2273SOL    HW118281   3.419   1.676   8.852 -0.4732 -0.5772 -1.3465
 2273SOL    HW218282   3.275   1.660   8.885 -1.4338  1.2325  2.1626
 2274SOL     OW18283   3.339   3.319   3.456  0.1162 -0.2377  0.0754
 2274SOL    HW118284   3.257   3.276   3.479 -0.3323  0.7084  0.2665
 2274SOL    HW218285   3.335   3.403   3.501 -0.7751 -0.3159  0.1361
 2275SOL     OW18286   4.010   3.110   3.874 -0.0837 -0.7186 -0.4722
 2275SOL    HW118287   3.937   3.152   3.828 -1.2489 -0.0387  2.0134
 2275SOL    HW218288   4.071   3.183   3.889  0.2957 -1.1400  0.0219
 2276SOL     OW18289   1.497   2.604   4.107  0.6306 -0.3760 -0.0072
 2276SOL    HW118290   1.588   2.594   4.135  1.3572  0.8030 -1.9226
 2276SOL    HW218291   1.479   2.697   4.096  1.3623  0.0701  2.5432
 2277SOL     OW18292   4.401   4.477   4.394 -0.0934 -0.1969 -0.5717
 2277SOL    HW118293   4.395   4.404   4.456  1.5370  1.1876  1.2301
 2277SOL    HW218294   4.332   4.465   4.329 -0.7703  0.1480  0.0806
 2278SOL     OW18295   2.148   2.148   8.297  0.6899  0.1738 -0.5066
 2278SOL    HW118296   2.120   2.085   8.230  0.5504  0.2109 -0.4840
 2278SOL    HW218297   2.222   2.183   8.248 -0.0052 -0.2611 -1.8644
 2279SOL     OW18298   4.184   1.229   8.271 -0.0896  0.0124  0.0162
 2279SOL    HW118299   4.250   1.176   8.315  0.4273  0.7339  0.1090
 2279SOL    HW218300   4.132   1.254   8.347 -1.3028  3.0230 -1.8204
 2280SOL     OW18301   4.511   0.428   8.103  0.0195  0.0078  0.1067
 2280SOL    HW118302   4.555   0.343   8.108 -1.3333 -0.8155 -1.7564
 2280SOL    HW218303   4.459   0.409   8.181 -0.1499  1.1007  0.2563
 2281SOL     OW18304   3.600   3.413  16.237 -0.3314 -0.0728  1.2809
 2281SOL    HW118305   3.668   3.372  16.183 -0.6794 -0.5413  1.2087
 2281SOL    HW218306   3.559   3.336  16.276 -0.4501 -0.4088  0.4856
 2282SOL     OW18307   2.831   0.381   0.013 -0.2158  0.6820  0.6001
 2282SOL    HW118308   2.888   0.306  17.699  0.5616  1.4735 -0.3829
 2282SOL    HW218309   2.843   0.432  17.635  1.0448  0.6565  0.7754
 2283SOL     OW18310   2.560   3.146   1.497 -0.1082 -0.3058  0.0639
 2283SOL    HW118311   2.640   3.191   1.523 -1.3858  3.0110 -1.7768
 2283SOL    HW218312   2.505   3.211   1.454  0.2888 -0.3275 -0.4763
 2284SOL     OW18313   0.657   1.407  14.759 -0.1987  0.4584 -0.2318
 2284SOL    HW118314   0.714   1.359  14.699 -0.9242  0.9906 -1.3591
 2284SOL    HW218315   0.632   1.343  14.825  1.2573 -0.5929 -0.7132
 2285SOL     OW18316   2.370   4.455   8.207 -0.8485 -0.5165 -0.2829
 2285SOL    HW118317   2.419   4.387   8.252 -0.6036  1.3275  2.2054
 2285SOL    HW218318   2.318   4.391   8.158 -1.3409 -2.4945  2.8364
 2286SOL     OW18319   0.943   0.924   8.164 -0.2407  0.2538 -0.2104
 2286SOL    HW118320   0.873   0.965   8.114  0.1688  0.2284 -0.8023
 2286SOL    HW218321   0.899   0.843   8.187 -3.9012  2.4395  0.4882
 2287SOL     OW18322   2.051   3.468   3.116 -0.4296 -0.0346  0.4905
 2287SOL    HW118323   2.059   3.381   3.076 -0.6924 -0.4612  1.3820
 2287SOL    HW218324   2.003   3.502   3.040  1.7764  2.8282  0.3638
 2288SOL     OW18325   1.390   3.042   7.714 -0.4324 -0.4898  0.3091
 2288SOL    HW118326   1.352   3.129   7.719 -2.1063 -1.1723 -0.4615
 2288SOL    HW218327   1.447   3.044   7.637 -1.2944  1.0357 -0.2749
 2289SOL     OW18328   4.270   1.083   1.351  0.0559 -0.1091  0.2466
 2289SOL    HW118329   4.311   1.062   1.267  2.3028 -2.8407  2.0043
 2289SOL    HW218330   4.201   1.017   1.344 -1.0607  0.9499  1.3014
 2290SOL     OW18331   1.499   4.481   5.131  0.2972 -0.6457 -0.2842
 2290SOL    HW118332   1.455   4.540   5.069  1.7746  0.2353 -0.5148
 2290SOL    HW218333   1.550   4.431   5.067  0.9724 -0.7799  0.3608
 2291SOL     OW18334   1.142   4.565   8.450 -0.0700  0.3637  0.5800
 2291SOL    HW118335   1.093   4.621   8.389  2.3551  0.6222 -1.1304
 2291SOL    HW218336   1.168   4.501   8.384 -0.9693  2.1808 -1.5398
 2292SOL     OW18337   1.752   1.761  10.479 -0.1655 -0.0263  0.3526
 2292SOL    HW118338   1.684   1.719  10.426  2.7660 -1.3365 -2.3158
 2292SOL    HW218339   1.817   1.691  10.483  0.2102  0.2900 -0.2162
 2293SOL     OW18340   1.535   2.601   3.649  0.0893 -0.8686  0.7198
 2293SOL    HW118341   1.630   2.602   3.663 -0.3425 -2.0626  3.6907
 2293SOL    HW218342   1.531   2.534   3.581 -1.2301 -0.0537 -0.0176
 2294SOL     OW18343   2.913   0.448   5.113  0.0618 -0.3506  0.2152
 2294SOL    HW118344   2.881   0.368   5.155  0.6498 -0.4572  0.4547
 2294SOL    HW218345   2.936   0.417   5.026 -2.9072 -0.0320 -0.6856
 2295SOL     OW18346   1.145   1.385  12.255  0.0316  0.0011  0.3428
 2295SOL    HW118347   1.162   1.316  12.319  0.0170 -0.8974 -0.6319
 2295SOL    HW218348   1.232   1.417  12.233  0.5152 -1.8238 -0.4019
 2296SOL     OW18349   3.341   3.009   6.953  0.0424 -0.0902  0.1387
 2296SOL    HW118350   3.336   2.932   7.010 -2.3011  0.0221  0.1013
 2296SOL    HW218351   3.431   3.001   6.921  0.1416 -0.6861  0.5777
 2297SOL     OW18352   0.493   3.371   5.875 -0.4082 -0.1345 -0.3256
 2297SOL    HW118353   0.463   3.293   5.921 -1.1605 -0.7933 -1.9371
 2297SOL    HW218354   0.557   3.401   5.939 -1.6492  0.1127  0.8079
 2298SOL     OW18355   3.260   3.249   2.210 -0.6708  0.3810 -0.2599
 2298SOL    HW118356   3.245   3.177   2.150 -1.1553  1.9404 -1.9922
 2298SOL    HW218357   3.231   3.222   2.297 -0.9246  2.3632  0.2778
 2299SOL     OW18358   0.680   2.375  12.847 -0.2752 -0.2049 -0.0985
 2299SOL    HW118359   0.757   2.318  12.837 -0.1264 -0.5562  2.8466
 2299SOL    HW218360   0.700   2.462  12.813 -1.1692  0.0792  0.1052
 2300SOL     OW18361   1.792   4.530  13.535  0.5264  0.8368  0.0490
 2300SOL    HW118362   1.763   4.524  13.626  0.6078 -0.7940 -0.0294
 2300SOL    HW218363   1.826   4.618  13.521 -2.7401  2.1368  0.1974
 2301SOL     OW18364   2.913   2.608   2.819  0.1535  0.2151 -0.1081
 2301SOL    HW118365   2.844   2.554   2.859  0.5321  0.8201  1.3669
 2301SOL    HW218366   2.930   2.571   2.733 -0.7349 -0.8093  0.1456
 2302SOL     OW18367   2.144   3.969  10.927  0.0529  0.3032  0.0478
 2302SOL    HW118368   2.233   3.943  10.903 -1.2625 -4.0104 -0.2356
 2302SOL    HW218369   2.122   4.033  10.859 -1.1077  0.2036  0.3444
 2303SOL     OW18370   0.890   1.831   2.617  0.2187 -0.5685 -0.0207
 2303SOL    HW118371   0.957   1.884   2.660 -1.4765  1.7659 -0.2419
 2303SOL    HW218372   0.893   1.860   2.526 -1.3538  2.6685  0.9774
 2304SOL     OW18373   3.985   0.544  13.606 -0.6197  0.1864  0.1201
 2304SOL    HW118374   3.966   0.638  13.599 -0.7361  0.1572  0.0429
 2304SOL    HW218375   4.036   0.533  13.687  0.7161  0.1477 -0.7372
 2305SOL     OW18376   4.265   2.161   6.967  0.2551  0.3310  0.0913
 2305SOL    HW118377   4.188   2.208   6.935  0.2432 -0.1176 -0.5182
 2305SOL    HW218378   4.282   2.113   6.886  3.9771  0.2812  0.8757
 2306SOL     OW18379   1.581   4.184   3.219  0.0188  0.1422  0.7613
 2306SOL    HW118380   1.658   4.148   3.174 -0.5571 -0.2415  0.0937
 2306SOL    HW218381   1.505   4.160   3.167  0.9144  0.0249 -0.5075
 2307SOL     OW18382   0.562   4.500   5.241 -0.2507 -0.5806  0.0201
 2307SOL    HW118383   0.638   4.539   5.284  1.2812 -1.1365 -2.1857
 2307SOL    HW218384   0.604   4.435   5.185  0.6266 -1.1451  1.3478
 2308SOL     OW18385   0.955   2.244   9.518  0.1087  0.0343 -0.1779
 2308SOL    HW118386   0.896   2.309   9.481 -1.9902 -1.8260 -0.0852
 2308SOL    HW218387   0.900   2.203   9.585 -0.9255  0.1697 -0.9474
 2309SOL     OW18388   1.247   0.967  15.521  0.6165 -0.6693  0.3576
 2309SOL    HW118389   1.172   1.019  15.493  1.3228  0.6497  0.9218
 2309SOL    HW218390   1.290   1.028  15.580  0.6874 -1.1128  0.7603
 2310SOL     OW18391   2.695   1.129   8.500  0.1088  0.7589  0.4990
 2310SOL    HW118392   2.624   1.092   8.448  0.2754 -0.1899  0.9302
 2310SOL    HW218393   2.705   1.216   8.462 -0.0807  1.0111  1.0192
 2311SOL     OW18394   2.429   0.782  16.174 -0.1671  0.3706 -0.3996
 2311SOL    HW118395   2.388   0.696  16.179 -0.7255  0.7090  0.7383
 2311SOL    HW218396   2.380   0.836  16.236  0.8483  3.3416 -2.1548
 2312SOL     OW18397   4.535   1.035   8.094  0.6940 -0.8841  0.6227
 2312SOL    HW118398   4.597   1.023   8.022 -0.3269 -1.7402 -0.0930
 2312SOL    HW218399   4.595   1.053   8.167  1.3591  1.7090 -0.5697
 2313SOL     OW18400   2.800   3.404   8.293  0.1625 -0.5021  0.5931
 2313SOL    HW118401   2.817   3.437   8.205 -1.1130  2.4756  1.4694
 2313SOL    HW218402   2.875   3.432   8.344  0.4544  0.2155 -0.2359
 2314SOL     OW18403   1.644   3.727   8.837  0.1334  0.0940 -0.5842
 2314SOL    HW118404   1.720   3.745   8.893 -0.8148  0.4044  0.6078
 2314SOL    HW218405   1.583   3.800   8.848  0.6891  0.2089  1.6440
 2315SOL     OW18406   1.790   3.682  14.319 -0.1232  0.1995  0.2269
 2315SOL    HW118407   1.851   3.614  14.347  0.0252 -0.0780 -0.7657
 2315SOL    HW218408   1.747   3.643  14.243  0.0971 -0.7866  0.6105
 2316SOL     OW18409   1.878   0.816   8.968  0.1960  0.0318  0.4001
 2316SOL    HW118410   1.846   0.906   8.961 -1.0258 -0.5898 -2.2308
 2316SOL    HW218411   1.970   0.833   8.988 -0.3402  1.1166  1.9112
 2317SOL     OW18412   3.467   4.287   9.861 -0.3559 -0.3654 -0.1466
 2317SOL    HW118413   3.497   4.217   9.804 -0.1351 -0.3326 -0.0698
 2317SOL    HW218414   3.425   4.252   9.940 -1.2578 -0.6378 -0.7474
 2318SOL     OW18415   3.316   1.902   5.200  0.4947 -0.0747  1.0628
 2318SOL    HW118416   3.375   1.951   5.257  1.2723  1.7667 -1.3718
 2318SOL    HW218417   3.315   1.810   5.228  0.6109 -1.1871 -2.6145
 2319SOL     OW18418   4.272   3.327   5.817  0.6102 -0.3454  0.1294
 2319SOL    HW118419   4.199   3.266   5.832  0.3854 -0.0634  0.1877
 2319SOL    HW218420   4.240   3.405   5.863  0.4756  0.7346 -1.7772
 2320SOL     OW18421   0.886   1.460  13.672  0.1225 -0.0542  0.6181
 2320SOL    HW118422   0.979   1.437  13.678  0.4546  1.2279  0.5150
 2320SOL    HW218423   0.883   1.537  13.729  0.1633 -1.0717  1.9733
 2321SOL     OW18424   0.937   1.072  12.970  0.6322  0.2759  0.3619
 2321SOL    HW118425   0.864   1.050  12.912  2.1848  0.9148 -1.8612
 2321SOL    HW218426   0.965   1.152  12.924 -1.9895  0.2674 -1.2610
 2322SOL     OW18427   0.330   0.822   1.774  0.1628  0.4935 -0.2316
 2322SOL    HW118428   0.351   0.910   1.744  0.7364  0.2134 -0.6394
 2322SOL    HW218429   0.389   0.819   1.850 -0.7591 -2.1805  0.4016
 2323SOL     OW18430   1.730   0.157   6.856 -0.3000 -0.0999 -0.2439
 2323SOL    HW118431   1.802   0.191   6.804 -0.0875 -0.0385  0.0855
 2323SOL    HW218432   1.691   0.097   6.793 -1.0583 -0.6341  0.7375
 2324SOL     OW18433   2.080   0.802  14.141  0.0824  0.6556  0.5415
 2324SOL    HW118434   2.171   0.773  14.126 -0.5510 -0.5016 -1.1199
 2324SOL    HW218435   2.050   0.726  14.092 -1.2998  1.0350  0.8224
 2325SOL     OW18436   4.197   4.202   7.095 -0.2676 -0.0923  0.1798
 2325SOL    HW118437   4.280   4.228   7.137 -0.3270 -1.7355  1.2896
 2325SOL    HW218438   4.141   4.275   7.122  0.9519  0.4478  1.2857
 2326SOL     OW18439   0.428   1.382  11.657 -0.2459  0.5709 -0.6759
 2326SOL    HW118440   0.502   1.349  11.709  1.1324  1.5595 -2.0103
 2326SOL    HW218441   0.393   1.307  11.609  0.8660  0.6701 -1.6436
 2327SOL     OW18442   0.450   3.003   5.163 -0.5707 -1.0939 -0.0626
 2327SOL    HW118443   0.363   3.007   5.124  0.2755  1.2646 -1.6953
 2327SOL    HW218444   0.435   3.031   5.254  1.1946  1.2787 -0.4878
 2328SOL     OW18445   1.437   3.043  10.380  0.2808 -0.1252  0.3419
 2328SOL    HW118446   1.495   3.081  10.315  0.0533 -0.1561  0.1224
 2328SOL    HW218447   1.377   3.116  10.390  0.8035  0.3753 -0.2118
 2329SOL     OW18448   2.316   0.917   5.187 -0.3141  0.1396  0.5147
 2329SOL    HW118449   2.397   0.968   5.181 -0.4183  0.4094  1.4110
 2329SOL    HW218450   2.331   0.833   5.145 -0.6858  0.5283 -0.3903
 2330SOL     OW18451   0.861   0.991   6.391  0.0569  0.1204 -0.1145
 2330SOL    HW118452   0.930   0.964   6.451  0.1807 -1.5565 -1.0274
 2330SOL    HW218453   0.788   0.978   6.451 -0.6351 -2.4284 -1.5084
 2331SOL     OW18454   0.075   1.111   1.619  0.0566  0.6358  0.5292
 2331SOL    HW118455   4.719   1.067   1.594  1.0638 -0.5119 -0.7385
 2331SOL    HW218456   0.038   1.199   1.629 -1.3666  0.0449  0.4592
 2332SOL     OW18457   3.121   3.143   0.647  0.1728 -0.2866  0.0562
 2332SOL    HW118458   3.040   3.194   0.655  0.4289  0.2907 -1.0792
 2332SOL    HW218459   3.126   3.145   0.552 -1.6101  2.0377  0.0002
 2333SOL     OW18460   3.302   2.157  12.879 -0.5243 -0.0498 -0.0063
 2333SOL    HW118461   3.252   2.108  12.813 -0.3204 -1.7773  1.1206
 2333SOL    HW218462   3.343   2.077  12.914  1.9735  1.4756  0.5322
 2334SOL     OW18463   0.632   3.297   6.754  0.4014 -0.1409  0.3197
 2334SOL    HW118464   0.630   3.362   6.683  0.1435 -0.1944  0.2806
 2334SOL    HW218465   0.539   3.290   6.772 -0.2826  0.1312 -3.1313
 2335SOL     OW18466   1.389   2.824  12.868  0.5016  0.1663  0.0894
 2335SOL    HW118467   1.474   2.832  12.910 -0.4178 -1.7873  2.3448
 2335SOL    HW218468   1.341   2.890  12.917 -0.2433 -0.8341  0.7091
 2336SOL     OW18469   4.723   0.993   9.416  0.2279 -0.1166 -0.0765
 2336SOL    HW118470   0.001   0.934   9.341 -0.6964 -0.4779  0.1748
 2336SOL    HW218471   0.086   1.032   9.419  0.8086 -1.6130  1.7397
 2337SOL     OW18472   2.053   2.490   8.646  0.3720 -0.6691  0.5207
 2337SOL    HW118473   2.134   2.527   8.679 -0.5303  0.5755  1.3531
 2337SOL    HW218474   2.031   2.535   8.564 -1.4293  0.7278  1.7781
 2338SOL     OW18475   3.377   4.509   7.829  0.0368  0.3133  0.5852
 2338SOL    HW118476   3.440   4.554   7.885 -1.4571  3.1050  0.0388
 2338SOL    HW218477   3.396   4.539   7.740  1.1956  0.5584  0.9145
 2339SOL     OW18478   2.744   2.842   7.213  0.1787  0.1511  0.0743
 2339SOL    HW118479   2.666   2.795   7.242  0.6991 -0.5468  0.3269
 2339SOL    HW218480   2.702   2.904   7.154 -2.6253 -3.1302 -1.3451
 2340SOL     OW18481   2.159   4.199  12.730 -0.2820  0.4207  0.0652
 2340SOL    HW118482   2.098   4.150  12.674  0.9022 -1.7506  0.6828
 2340SOL    HW218483   2.146   4.162  12.817 -0.1968  1.5645  0.5621
 2341SOL     OW18484   2.105   4.027   7.775  0.0919  0.0295 -0.6111
 2341SOL    HW118485   2.098   3.937   7.742  0.5574 -1.0085  2.1475
 2341SOL    HW218486   2.191   4.049   7.740  0.3813  0.6961  0.5008
 2342SOL     OW18487   0.241   2.354  10.745  0.1867 -0.3219 -0.5276
 2342SOL    HW118488   0.258   2.427  10.804  1.9605 -2.4735  1.6389
 2342SOL    HW218489   0.248   2.286  10.812 -0.4931  0.7612  0.6552
 2343SOL     OW18490   1.984   3.549  11.898 -0.4796 -0.5803  0.1970
 2343SOL    HW118491   2.018   3.528  11.811 -0.0311 -0.1088  0.2630
 2343SOL    HW218492   1.964   3.641  11.885 -0.1962 -0.4961  0.3718
 2344SOL     OW18493   0.057   2.078  10.089  0.4917  1.0662  0.0907
 2344SOL    HW118494   0.021   2.107  10.172 -0.5715  0.8857 -0.3123
 2344SOL    HW218495   0.013   2.144  10.034  1.6118  2.2800  0.6394
 2345SOL     OW18496   3.573   3.183   3.547  0.3238  0.4616 -0.2630
 2345SOL    HW118497   3.562   3.097   3.506  1.9026  1.0053 -1.8398
 2345SOL    HW218498   3.497   3.227   3.510 -0.9394 -0.3703  1.3361
 2346SOL     OW18499   2.022   3.857   5.017  0.2300  0.3303 -0.2485
 2346SOL    HW118500   1.934   3.860   5.056 -0.3577  0.2935 -1.5437
 2346SOL    HW218501   2.044   3.764   5.022  0.6510  0.5006  1.0701
 2347SOL     OW18502   1.810   1.989  12.722  0.0727 -0.1348  0.4630
 2347SOL    HW118503   1.901   1.976  12.745  0.9217  1.8471 -1.8095
 2347SOL    HW218504   1.814   2.073  12.676  0.3653 -0.3956  0.0147
 2348SOL     OW18505   4.719   3.122  12.584 -0.0245 -0.0737 -0.1677
 2348SOL    HW118506   0.031   3.103  12.670 -3.6289  0.2700  1.4851
 2348SOL    HW218507   4.644   3.063  12.574  0.3967 -0.4706 -0.9551
 2349SOL     OW18508   3.590   4.473   7.362 -0.1829 -0.4819  0.1521
 2349SOL    HW118509   3.500   4.470   7.328  0.1997 -0.0042 -0.9104
 2349SOL    HW218510   3.618   4.382   7.373  0.4656 -0.5210 -1.9407
 2350SOL     OW18511   3.653   4.174  15.960 -0.2401  0.2626 -0.2895
 2350SOL    HW118512   3.721   4.107  15.950 -0.9908 -0.2095 -2.1296
 2350SOL    HW218513   3.573   4.125  15.978 -0.5207  0.7722 -0.1430
 2351SOL     OW18514   0.629   4.051   9.130  0.2759 -0.1871 -0.3085
 2351SOL    HW118515   0.550   4.104   9.123 -0.0002 -0.8795 -2.5662
 2351SOL    HW218516   0.640   4.042   9.225  0.4631 -2.0201 -0.4950
 2352SOL     OW18517   0.301   2.575   5.934 -0.4937  0.0401 -0.0385
 2352SOL    HW118518   0.259   2.496   5.900  0.6694 -0.8331  0.5502
 2352SOL    HW218519   0.387   2.562   5.895 -1.4656 -0.1496 -2.1129
 2353SOL     OW18520   0.292   0.513   5.910 -0.1912  0.7439 -0.2044
 2353SOL    HW118521   0.263   0.544   5.996  2.3346  1.2639  0.4379
 2353SOL    HW218522   0.303   0.600   5.871  1.9444  0.5998  0.1009
 2354SOL     OW18523   0.690   3.438   6.088  0.0293 -0.4025  0.4707
 2354SOL    HW118524   0.665   3.490   6.165  0.7798 -1.1235  1.2023
 2354SOL    HW218525   0.716   3.358   6.133  0.2892 -0.5302  0.0949
 2355SOL     OW18526   0.840   1.976   9.441 -0.1556 -0.2734  0.9086
 2355SOL    HW118527   0.856   1.956   9.534  2.4654  1.1832  0.7864
 2355SOL    HW218528   0.874   2.065   9.430  0.6256 -0.7031 -0.1588
 2356SOL     OW18529   4.285   0.712  15.620  0.0064  0.3706  0.2631
 2356SOL    HW118530   4.322   0.767  15.688 -0.5644  0.7619  0.2588
 2356SOL    HW218531   4.301   0.625  15.658 -1.5380  0.0306  0.1349
 2357SOL     OW18532   4.616   3.757   2.166  0.1841 -0.1836  0.2491
 2357SOL    HW118533   4.631   3.751   2.072  2.3601  1.2557  0.5110
 2357SOL    HW218534   4.563   3.679   2.184  0.2851 -0.5679 -1.1208
 2358SOL     OW18535   2.972   3.828   3.539  0.2233  0.1084 -0.6183
 2358SOL    HW118536   2.979   3.819   3.444  2.3045 -2.4214 -0.2203
 2358SOL    HW218537   2.876   3.829   3.543  0.3246  0.0671  1.9927
 2359SOL     OW18538   1.980   0.484   7.419 -0.0331 -0.5685 -0.4327
 2359SOL    HW118539   1.917   0.534   7.367  1.6015  0.0472 -1.8346
 2359SOL    HW218540   1.928   0.410   7.451  0.9438 -0.8905  0.4133
 2360SOL     OW18541   1.883   3.064   2.718 -0.4482  0.0448 -0.5690
 2360SOL    HW118542   1.934   2.995   2.759 -1.2230 -0.6834 -0.8204
 2360SOL    HW218543   1.858   3.121   2.791 -0.2473  0.6012 -0.9354
 2361SOL     OW18544   2.997   4.412   8.245  0.4087  0.2211  0.1706
 2361SOL    HW118545   3.061   4.384   8.180 -0.5968 -0.4111 -0.5421
 2361SOL    HW218546   3.037   4.494   8.275 -0.2312 -0.5621  3.1845
 2362SOL     OW18547   0.376   1.910   2.862  0.6384 -0.2812 -0.8924
 2362SOL    HW118548   0.425   1.855   2.923 -1.3790 -2.9511 -1.6733
 2362SOL    HW218549   0.358   1.985   2.919  1.7186 -1.6498  1.2400
 2363SOL     OW18550   4.023   3.991   1.995 -0.4277 -0.2530 -0.2336
 2363SOL    HW118551   3.940   3.949   1.972  0.5554 -0.8217 -2.7450
 2363SOL    HW218552   3.985   4.071   2.034 -0.6676  0.5590 -2.1042
 2364SOL     OW18553   4.063   0.055  13.543  0.2138 -0.3887  0.4695
 2364SOL    HW118554   4.127   0.125  13.528  1.0546 -0.6029  3.0760
 2364SOL    HW218555   4.003   0.106  13.598 -1.0322 -4.3047  2.7095
 2365SOL     OW18556   1.455   0.562  11.025 -0.0909  0.0615 -0.2447
 2365SOL    HW118557   1.459   0.468  11.007  0.6477  0.3453 -1.5519
 2365SOL    HW218558   1.471   0.551  11.119 -0.1938  1.0531 -0.1109
 2366SOL     OW18559   2.292   4.542   9.175  0.4237 -0.0393 -0.4524
 2366SOL    HW118560   2.354   4.584   9.116  0.4284 -0.2777 -0.6177
 2366SOL    HW218561   2.239   4.617   9.202 -0.5708 -0.5048 -1.1208
 2367SOL     OW18562   2.199   4.336   8.685 -0.3502 -0.1388 -0.3995
 2367SOL    HW118563   2.220   4.429   8.679 -1.8328  0.1806 -0.6400
 2367SOL    HW218564   2.244   4.327   8.769  0.8973 -0.1876 -1.0627
 2368SOL     OW18565   0.221   2.752  10.774  0.0110 -0.1783  0.3377
 2368SOL    HW118566   0.132   2.734  10.743  0.8918 -0.9647 -1.7014
 2368SOL    HW218567   0.273   2.758  10.694  1.3325 -1.1883  1.1296
 2369SOL     OW18568   4.465   1.521   4.444 -0.3010 -0.0001  0.0976
 2369SOL    HW118569   4.554   1.491   4.463  0.2013  0.7000 -1.0803
 2369SOL    HW218570   4.468   1.606   4.488 -2.7442  1.9511 -3.5353
 2370SOL     OW18571   1.899   2.790  14.716 -0.1665  0.6926 -0.7072
 2370SOL    HW118572   1.854   2.779  14.632  1.3262 -2.8549 -1.0371
 2370SOL    HW218573   1.863   2.872  14.748  0.5047 -0.1218  2.1315
 2371SOL     OW18574   4.356   2.481  12.562 -0.5484 -0.7089  0.0832
 2371SOL    HW118575   4.294   2.548  12.533  1.5656  0.2036 -2.3028
 2371SOL    HW218576   4.331   2.402  12.514 -0.0827 -1.0537  0.4092
 2372SOL     OW18577   4.576   4.605  11.949 -0.1913  0.7727  0.9441
 2372SOL    HW118578   4.523   4.638  12.022 -3.9104 -1.0345 -0.9514
 2372SOL    HW218579   4.660   4.650  11.962  0.0498  0.8384 -0.9318
 2373SOL     OW18580   0.845   1.559   9.018  0.3812  0.2617  0.3636
 2373SOL    HW118581   0.855   1.468   9.043 -0.8732 -0.1431 -0.5935
 2373SOL    HW218582   0.784   1.585   9.086  2.0868 -0.4109  2.1474
 2374SOL     OW18583   0.680   1.087   6.019 -0.4881  0.5371 -0.0901
 2374SOL    HW118584   0.641   1.069   5.933  1.8462 -1.4063 -0.7511
 2374SOL    HW218585   0.752   1.024   6.016 -0.8659  0.0680  0.6304
 2375SOL     OW18586   1.895   0.981  13.980 -0.0034 -0.4878 -0.1047
 2375SOL    HW118587   1.986   1.011  13.987  0.3928 -1.5988 -0.6503
 2375SOL    HW218588   1.901   0.918  14.052 -0.5955 -1.4554 -0.9076
 2376SOL     OW18589   4.506   0.176   6.207 -0.0249  0.2224 -0.3558
 2376SOL    HW118590   4.548   0.203   6.125 -0.4033 -1.1438 -1.0102
 2376SOL    HW218591   4.520   0.250   6.265  0.6801 -1.5057  1.6962
 2377SOL     OW18592   1.267   3.886  11.381  0.1498  0.5409 -0.8128
 2377SOL    HW118593   1.266   3.829  11.304 -0.2587  0.7306 -0.9491
 2377SOL    HW218594   1.290   3.971  11.343 -1.1236 -0.4568 -3.8072
 2378SOL     OW18595   0.537   0.771   4.543 -0.6029 -0.4879 -0.8325
 2378SOL    HW118596   0.564   0.680   4.526 -0.3945 -0.4551 -0.6813
 2378SOL    HW218597   0.456   0.761   4.494 -0.7627 -0.3561 -0.5938
 2379SOL     OW18598   0.443   4.396  11.089  0.0125 -0.4216  0.1817
 2379SOL    HW118599   0.439   4.444  11.171 -0.0536  1.4047 -0.9002
 2379SOL    HW218600   0.535   4.369  11.096  0.0382 -0.3628  0.0731
 2380SOL     OW18601   2.872   3.906   4.408  0.2343  0.7894  0.0520
 2380SOL    HW118602   2.861   3.899   4.503 -1.4654  0.6996 -0.1488
 2380SOL    HW218603   2.918   3.822   4.405 -2.8480 -0.8343 -1.8322
 2381SOL     OW18604   3.572   1.108   3.201  0.2509  0.2367  0.3116
 2381SOL    HW118605   3.492   1.093   3.251 -0.0922  1.0743  0.0245
 2381SOL    HW218606   3.626   1.161   3.260 -0.4529  1.7081 -0.3641
 2382SOL     OW18607   1.506   4.145  12.310 -0.3465  0.1939 -0.3567
 2382SOL    HW118608   1.419   4.174  12.335 -0.9353 -1.3373 -0.6425
 2382SOL    HW218609   1.537   4.221  12.260 -2.5835  1.5350  0.2695
 2383SOL     OW18610   4.375   3.221   2.888 -0.0787  0.4120  0.2089
 2383SOL    HW118611   4.436   3.269   2.832 -0.4674  0.0648 -0.5039
 2383SOL    HW218612   4.297   3.263   2.852 -0.1711 -1.2836 -1.5438
 2384SOL     OW18613   2.763   3.793   4.189 -0.2781 -0.2800 -0.4199
 2384SOL    HW118614   2.676   3.769   4.222 -0.0499 -1.7196 -0.8743
 2384SOL    HW218615   2.809   3.816   4.270  2.0914 -2.7616 -1.0555
 2385SOL     OW18616   2.176   1.271   4.459 -0.2574 -0.6001 -0.4198
 2385SOL    HW118617   2.249   1.212   4.439  0.5728 -0.0094  0.8814
 2385SOL    HW218618   2.201   1.354   4.420  0.9449 -2.4547 -3.6417
 2386SOL     OW18619   1.019   4.705   4.958 -0.2365  0.1555 -0.6740
 2386SOL    HW118620   1.099   4.708   4.907  0.7533 -2.0096  0.7753
 2386SOL    HW218621   0.971   4.645   4.902 -1.8797  1.4543 -0.6874
 2387SOL     OW18622   1.549   4.651  12.681 -0.2684 -0.6315 -0.0579
 2387SOL    HW118623   1.581   4.712  12.615 -0.2621 -1.1196 -0.5024
 2387SOL    HW218624   1.631   4.633  12.728 -0.1551 -0.8563 -0.3421
 2388SOL     OW18625   3.169   4.338   7.836  0.2395 -0.3814  0.0954
 2388SOL    HW118626   3.236   4.407   7.844 -0.4620  0.1734  1.2511
 2388SOL    HW218627   3.216   4.259   7.864  1.8355  0.3107 -0.6536
 2389SOL     OW18628   0.019   2.151   2.846  0.1264  0.4245  0.0010
 2389SOL    HW118629   0.071   2.159   2.766  0.9645 -2.7425  0.2581
 2389SOL    HW218630   0.026   2.056   2.851  1.1945  0.6374  2.1202
 2390SOL     OW18631   3.898   2.799   2.652  0.4037  0.2081  0.6798
 2390SOL    HW118632   3.985   2.820   2.620  1.0816  1.1969  3.1661
 2390SOL    HW218633   3.915   2.752   2.734 -0.9120 -1.5956 -0.0880
 2391SOL     OW18634   2.981   3.860   2.316  0.1020 -0.2181  0.0947
 2391SOL    HW118635   2.890   3.836   2.331  1.3271 -4.3276  1.0756
 2391SOL    HW218636   3.011   3.903   2.395  0.7540  1.7293 -1.2165
 2392SOL     OW18637   1.865   3.337  12.026  0.2258 -0.4061  0.2594
 2392SOL    HW118638   1.948   3.289  12.019  0.0367 -0.6202 -0.5811
 2392SOL    HW218639   1.896   3.422  11.994 -1.3601 -0.4744 -1.4775
 2393SOL     OW18640   3.066   3.224   3.506  0.8155  0.4723 -0.4381
 2393SOL    HW118641   3.043   3.196   3.417 -1.1634  3.8245 -1.0062
 2393SOL    HW218642   3.007   3.299   3.511 -2.5568 -2.4186  2.4535
 2394SOL     OW18643   2.779   1.815   2.429  0.1127 -0.6416  0.0551
 2394SOL    HW118644   2.735   1.892   2.391  0.2527 -0.5501  0.0791
 2394SOL    HW218645   2.741   1.749   2.371 -1.1366 -0.4730  0.6724
 2395SOL     OW18646   1.421   3.035  10.664 -0.0351  0.1505  0.4960
 2395SOL    HW118647   1.466   3.023  10.580  2.5176 -0.0284  1.8605
 2395SOL    HW218648   1.334   3.000  10.646  0.4456  0.3648 -2.1958
 2396SOL     OW18649   1.469   0.020  15.358 -1.1023 -0.3288 -0.2364
 2396SOL    HW118650   1.437   0.039  15.270 -2.2896  1.2111  0.5265
 2396SOL    HW218651   1.530   4.677  15.329 -0.8227  0.3290 -1.1779
 2397SOL     OW18652   1.158   2.963   0.062  0.4670  0.3320  0.0633
 2397SOL    HW118653   1.145   3.008  17.681  1.9928 -0.7261 -0.7616
 2397SOL    HW218654   1.193   2.879   0.033  1.9238  0.9063  0.1344
 2398SOL     OW18655   2.273   1.354   7.498 -0.3123 -0.0193  0.5189
 2398SOL    HW118656   2.368   1.357   7.483 -0.4874 -0.1118 -0.6595
 2398SOL    HW218657   2.253   1.260   7.497 -0.2176 -0.0393  0.3889
 2399SOL     OW18658   2.450   0.839   7.669 -0.1905 -0.0250  0.3037
 2399SOL    HW118659   2.403   0.827   7.752  0.3845 -0.9556  0.5058
 2399SOL    HW218660   2.378   0.829   7.607 -0.2981 -1.3552  0.6374
 2400SOL     OW18661   1.500   3.392   5.211  0.0983  0.3214  0.1173
 2400SOL    HW118662   1.458   3.474   5.237 -0.7688 -0.0108 -0.2254
 2400SOL    HW218663   1.543   3.363   5.291 -1.9449 -1.2835  0.6287
 2401SOL     OW18664   3.110   2.788  16.178  0.1658  0.1649  0.3054
 2401SOL    HW118665   3.100   2.726  16.106 -3.5609 -0.4125  1.3092
 2401SOL    HW218666   3.156   2.731  16.241 -0.5593 -2.1679 -1.2796
 2402SOL     OW18667   1.266   4.429   9.787 -0.1496 -0.1809 -0.1029
 2402SOL    HW118668   1.227   4.428   9.700 -0.5703 -3.6578  0.1481
 2402SOL    HW218669   1.345   4.375   9.778  1.9452  2.8286 -0.0738
 2403SOL     OW18670   2.780   3.965   7.102  0.1477  0.2755 -0.3970
 2403SOL    HW118671   2.809   4.031   7.165 -0.4225 -1.2234  1.4662
 2403SOL    HW218672   2.843   3.896   7.125 -0.0402  0.2376  0.0181
 2404SOL     OW18673   1.058   2.819   5.886  0.2346  0.6380  0.2688
 2404SOL    HW118674   1.050   2.850   5.796  1.0352 -1.3423 -0.4750
 2404SOL    HW218675   1.119   2.882   5.923  0.7381 -0.2215  0.9073
 2405SOL     OW18676   0.343   4.667   4.339 -0.0042  0.0874 -0.3196
 2405SOL    HW118677   0.268   4.648   4.282  0.1370 -0.1120 -0.4384
 2405SOL    HW218678   0.412   4.638   4.279 -2.0997 -1.5022 -1.9309
 2406SOL     OW18679   0.047   4.223   2.669  0.3010  0.6333  0.5858
 2406SOL    HW118680   4.682   4.246   2.645  1.1455  0.7338 -2.5337
 2406SOL    HW218681   0.098   4.303   2.672  0.5945  0.3886  1.8941
 2407SOL     OW18682   3.443   2.665   5.823  0.5327 -1.1305 -0.1171
 2407SOL    HW118683   3.385   2.723   5.774  0.1084 -1.2691  0.2264
 2407SOL    HW218684   3.409   2.577   5.807  0.1606 -0.7283 -1.5632
 2408SOL     OW18685   0.317   1.782   7.517 -0.9426 -0.2704  0.8747
 2408SOL    HW118686   0.364   1.702   7.493 -1.8887 -0.6779  0.3866
 2408SOL    HW218687   0.242   1.745   7.563  0.8725 -3.0541  1.5973
 2409SOL     OW18688   2.040   0.602  17.161 -0.5210 -0.2452 -0.3981
 2409SOL    HW118689   2.135   0.603  17.168 -0.7522 -0.0734  2.7262
 2409SOL    HW218690   2.035   0.549  17.081  2.1851  0.7487 -1.2073
 2410SOL     OW18691   3.767   0.242   8.186 -0.0370  0.9166 -0.0856
 2410SOL    HW118692   3.782   0.322   8.136  1.6025  0.0101 -1.0676
 2410SOL    HW218693   3.738   0.183   8.117 -1.3812  2.7294 -1.0542
 2411SOL     OW18694   4.134   1.058  13.514 -0.1870 -0.2310  0.1134
 2411SOL    HW118695   4.228   1.042  13.503 -0.6325 -3.4729  0.9959
 2411SOL    HW218696   4.130   1.082  13.607 -2.0393 -0.2750  0.0260
 2412SOL     OW18697   3.009   3.403   1.481  0.1089 -0.2445 -0.3177
 2412SOL    HW118698   3.102   3.414   1.464  0.4689 -0.8774  1.2642
 2412SOL    HW218699   2.978   3.472   1.422  1.6242 -1.6072 -2.7229
 2413SOL     OW18700   0.264   3.830   9.269  0.1944  0.1537 -0.5906
 2413SOL    HW118701   0.184   3.785   9.296 -0.6955  1.8344 -0.4087
 2413SOL    HW218702   0.276   3.889   9.343 -1.1406 -0.4911  0.1449
 2414SOL     OW18703   2.157   2.585   5.444  0.4417 -0.5260 -0.5187
 2414SOL    HW118704   2.064   2.606   5.440  0.3978 -0.7459 -0.7389
 2414SOL    HW218705   2.176   2.597   5.351 -0.8398  0.2554 -0.6876
 2415SOL     OW18706   3.287   4.143  15.830  0.3755  0.3216  0.4298
 2415SOL    HW118707   3.296   4.195  15.750  1.8475  0.3085  0.5854
 2415SOL    HW218708   3.281   4.058  15.787  2.0664  0.9678 -1.0619
 2416SOL     OW18709   0.940   0.474   7.262  0.3526  0.5258  0.0169
 2416SOL    HW118710   0.924   0.402   7.323  1.9211  0.7938  0.7448
 2416SOL    HW218711   0.851   0.508   7.268  0.5307  1.0626 -0.3531
 2417SOL     OW18712   0.738   4.510   4.086  0.9740  0.3848  0.1283
 2417SOL    HW118713   0.809   4.458   4.050 -0.4208 -1.4413 -0.0009
 2417SOL    HW218714   0.736   4.494   4.180  0.0237 -1.6682 -0.2486
 2418SOL     OW18715   2.846   2.394   1.915  0.6531 -0.0968 -0.4866
 2418SOL    HW118716   2.868   2.441   1.835  0.3234  2.0395  0.7000
 2418SOL    HW218717   2.777   2.450   1.950 -0.4021 -1.2022 -0.8164
 2419SOL     OW18718   4.080   1.117   3.324  0.8304 -0.3982 -0.0677
 2419SOL    HW118719   4.142   1.187   3.345 -2.1475  1.5655  2.0038
 2419SOL    HW218720   4.073   1.129   3.229  1.5091  1.6391  0.1491
 2420SOL     OW18721   3.167   3.502   5.265 -0.3074 -0.0405 -0.1624
 2420SOL    HW118722   3.143   3.586   5.226 -1.7784  0.4919  1.8902
 2420SOL    HW218723   3.259   3.521   5.284 -0.3204 -0.0256 -0.1143
 2421SOL     OW18724   4.233   4.248  15.291  0.0100  0.5421 -0.7583
 2421SOL    HW118725   4.263   4.279  15.376 -2.3689  0.0210  0.2730
 2421SOL    HW218726   4.285   4.287  15.221  0.8019  0.8098 -0.0172
 2422SOL     OW18727   2.051   3.021   7.706  0.6438  0.1498 -0.7096
 2422SOL    HW118728   1.989   3.067   7.762  0.6013  0.0937 -0.7108
 2422SOL    HW218729   2.128   3.041   7.759 -0.5162 -2.6368  2.0253
 2423SOL     OW18730   0.401   2.405  14.453 -0.4235 -0.4308 -0.2322
 2423SOL    HW118731   0.348   2.436  14.379 -0.5086  3.0225  1.2815
 2423SOL    HW218732   0.405   2.314  14.426 -0.8653 -0.2303 -0.9900
 2424SOL     OW18733   3.495   2.456  15.677  0.2121  0.2159  0.2288
 2424SOL    HW118734   3.441   2.435  15.600  0.4377 -1.4948  0.5314
 2424SOL    HW218735   3.498   2.551  15.673 -2.3590  0.3005  0.3060
 2425SOL     OW18736   3.084   0.059   1.233 -0.6147  0.1415 -0.0486
 2425SOL    HW118737   3.086   0.152   1.210 -1.3747  0.3417  0.6973
 2425SOL    HW218738   3.111   0.046   1.323 -0.1797  2.5907  0.1600
 2426SOL     OW18739   0.876   4.291   4.676  0.1612  0.1104 -0.3867
 2426SOL    HW118740   0.900   4.287   4.584  0.9139 -0.7252 -0.1496
 2426SOL    HW218741   0.835   4.209   4.703 -1.5733 -0.1647 -3.8616
 2427SOL     OW18742   4.527   3.785  16.490  0.2300  0.5366  0.2720
 2427SOL    HW118743   4.585   3.774  16.415 -1.0619  0.6410 -0.7385
 2427SOL    HW218744   4.447   3.765  16.443  0.7142 -0.1993 -0.2304
 2428SOL     OW18745   1.887   2.421  10.875 -0.0449 -0.2250 -0.1992
 2428SOL    HW118746   1.889   2.334  10.835 -1.8938 -0.4089  0.1100
 2428SOL    HW218747   1.796   2.451  10.867  1.0277  2.7992 -1.1915
 2429SOL     OW18748   2.198   3.957   9.176  0.2061  1.0793  0.5055
 2429SOL    HW118749   2.106   3.984   9.187 -0.7467 -3.2395  2.8700
 2429SOL    HW218750   2.241   3.991   9.254  3.4437  0.0931 -0.8906
 2430SOL     OW18751   0.270   3.410  17.214  0.7675  0.1024  0.0595
 2430SOL    HW118752   0.354   3.442  17.180  0.0414  4.5265  2.4972
 2430SOL    HW218753   0.288   3.320  17.242  1.1977  0.4781  0.9628
 2431SOL     OW18754   0.113   1.159   8.661 -0.6719  0.1735  0.3933
 2431SOL    HW118755   0.161   1.190   8.583 -0.4678  1.5748  1.0742
 2431SOL    HW218756   0.169   1.086   8.689  0.0473  0.4485 -0.2911
 2432SOL     OW18757   1.229   0.280  12.226 -0.3625  0.2813  0.0910
 2432SOL    HW118758   1.218   0.346  12.157 -1.7672 -0.3211 -0.2788
 2432SOL    HW218759   1.323   0.265  12.221 -0.5883 -1.0839 -0.0062
 2433SOL     OW18760   1.839   4.500   3.121 -0.2317  0.1254 -0.3359
 2433SOL    HW118761   1.773   4.485   3.054 -2.0884  0.5607  1.3769
 2433SOL    HW218762   1.834   4.595   3.117 -0.2211  0.1815  0.9727
 2434SOL     OW18763   0.897   1.427   3.626 -0.2246 -0.5540  0.5861
 2434SOL    HW118764   0.971   1.457   3.679  0.1965 -0.4483 -0.0607
 2434SOL    HW218765   0.838   1.502   3.634  1.9165  1.2666 -0.7537
 2435SOL     OW18766   1.886   1.082   1.986  0.1509  0.0933 -0.2528
 2435SOL    HW118767   1.956   1.146   1.975  1.6988 -1.4789  0.4911
 2435SOL    HW218768   1.934   1.001   2.003 -0.1563 -0.0418 -0.0155
 2436SOL     OW18769   1.348   0.443   3.383  0.0162 -0.5109  0.4051
 2436SOL    HW118770   1.274   0.502   3.371  2.6981  2.5878 -1.0771
 2436SOL    HW218771   1.353   0.449   3.478 -0.7838  0.4351  0.3912
 2437SOL     OW18772   1.532   2.840   4.987 -0.1594 -0.1231 -0.5317
 2437SOL    HW118773   1.515   2.923   4.943  3.5844  0.4233 -0.9962
 2437SOL    HW218774   1.617   2.809   4.954 -0.2773 -0.1197 -0.8423
 2438SOL     OW18775   4.037   0.745  17.123 -0.0151 -0.5820  0.1351
 2438SOL    HW118776   4.002   0.825  17.163 -1.1609  0.0547 -2.1446
 2438SOL    HW218777   4.018   0.770  17.033 -0.5948  0.7542  0.6269
 2439SOL     OW18778   0.725   2.556   3.425  0.5453 -0.1401  0.8715
 2439SOL    HW118779   0.798   2.570   3.365 -0.4982 -0.1749 -0.4226
 2439SOL    HW218780   0.654   2.602   3.379  0.0156 -1.8172  0.0348
 2440SOL     OW18781   1.061   3.363   4.468  0.1040  0.5304 -0.2400
 2440SOL    HW118782   1.021   3.346   4.554 -0.2962 -0.3387 -0.5959
 2440SOL    HW218783   1.052   3.279   4.423  2.2133 -0.0223  0.3596
 2441SOL     OW18784   1.385   0.206   4.167 -1.2085 -0.2610  0.6182
 2441SOL    HW118785   1.345   0.153   4.098 -0.7724  2.0154 -1.3707
 2441SOL    HW218786   1.451   0.149   4.207 -1.0914  1.6169  3.0623
 2442SOL     OW18787   4.007   4.586   1.387  0.5234  0.5612  0.4518
 2442SOL    HW118788   4.063   4.549   1.319 -1.0701 -2.5501  0.8322
 2442SOL    HW218789   3.945   4.640   1.339 -1.3523  0.6763  3.0262
 2443SOL     OW18790   2.264   0.068   2.972  0.5908 -0.1589 -0.4837
 2443SOL    HW118791   2.216   0.033   2.897 -3.3119  0.8293  1.5519
 2443SOL    HW218792   2.347   0.021   2.968 -0.7505 -2.6507  0.8665
 2444SOL     OW18793   2.609   0.774   5.724 -0.8427 -0.3557 -0.2516
 2444SOL    HW118794   2.679   0.729   5.678 -0.2373 -1.6304  1.9310
 2444SOL    HW218795   2.543   0.706   5.713  0.0538 -1.7794  3.1081
 2445SOL     OW18796   1.730   1.617   4.302 -0.3150 -0.9226  0.2695
 2445SOL    HW118797   1.696   1.702   4.273  0.9289 -0.3244  0.5590
 2445SOL    HW218798   1.813   1.643   4.343 -0.5305  1.1907 -0.6307
 2446SOL     OW18799   3.338   0.010   4.555 -0.0371  0.1177 -0.3148
 2446SOL    HW118800   3.368   0.081   4.498  0.9640 -0.2722 -0.2780
 2446SOL    HW218801   3.372   0.029   4.642 -1.0171  1.4540 -0.2145
 2447SOL     OW18802   3.918   3.839   8.946  0.1598  0.0952 -0.6879
 2447SOL    HW118803   3.947   3.930   8.943 -0.1021  0.1655 -1.1823
 2447SOL    HW218804   3.822   3.833   8.945  0.2074 -0.9991  1.8407
 2448SOL     OW18805   3.902   2.242   7.514 -0.3540  0.1221  0.5893
 2448SOL    HW118806   3.970   2.175   7.507  0.7760  1.3487 -0.1168
 2448SOL    HW218807   3.937   2.312   7.458 -3.2035  0.7996 -0.3359
 2449SOL     OW18808   4.317   3.311   4.676  0.2607  0.0636  0.2933
 2449SOL    HW118809   4.286   3.272   4.595  0.1749  1.2384 -0.2383
 2449SOL    HW218810   4.266   3.392   4.681  0.3389  0.0789  0.8755
 2450SOL     OW18811   1.857   2.316   2.309 -0.4718 -0.1475  0.1168
 2450SOL    HW118812   1.938   2.290   2.265 -0.1997  0.9481 -0.0328
 2450SOL    HW218813   1.793   2.281   2.247 -0.9523 -0.0555  0.5610
 2451SOL     OW18814   2.046   2.997   3.164  0.4676 -0.2592  0.0460
 2451SOL    HW118815   2.081   2.939   3.096  0.0441  0.5763 -0.8740
 2451SOL    HW218816   2.048   2.943   3.243  1.6577 -0.2319  0.0450
 2452SOL     OW18817   0.206   3.403   4.396  0.2085 -0.2598 -0.4310
 2452SOL    HW118818   0.123   3.437   4.365  0.2586  0.8347  0.6400
 2452SOL    HW218819   0.267   3.447   4.337 -1.7343  2.1974 -0.5679
 2453SOL     OW18820   1.192   1.818  10.778 -0.5362 -0.3142  0.4876
 2453SOL    HW118821   1.280   1.813  10.815 -0.6574 -0.4193  0.7666
 2453SOL    HW218822   1.165   1.726  10.779  0.4502 -0.5984  0.0091
 2454SOL     OW18823   0.532   1.653   4.701  0.4968 -0.1700  0.5375
 2454SOL    HW118824   0.530   1.665   4.796  0.0615 -0.5293  0.5765
 2454SOL    HW218825   0.505   1.736   4.663  1.3733 -0.0218  0.2352
 2455SOL     OW18826   2.605   4.230   5.325  0.2001 -0.3559  0.1435
 2455SOL    HW118827   2.543   4.191   5.386 -0.9436 -1.5656 -1.8181
 2455SOL    HW218828   2.559   4.314   5.320  1.7042  0.4311 -0.7846
 2456SOL     OW18829   0.870   2.093   5.821  0.0225  0.3054  0.1661
 2456SOL    HW118830   0.933   2.054   5.760  1.3521  0.0741  1.6802
 2456SOL    HW218831   0.904   2.044   5.896  0.4405 -0.5154 -0.5448
 2457SOL     OW18832   4.003   2.865   7.610  0.2172  0.2308  1.0311
 2457SOL    HW118833   4.074   2.927   7.625 -0.3333  0.6175  2.0743
 2457SOL    HW218834   3.929   2.923   7.629 -0.3077  0.5701 -2.0080
 2458SOL     OW18835   0.247   0.417  11.571 -0.0782  0.2928 -0.3022
 2458SOL    HW118836   0.250   0.329  11.534  0.2650  0.2117 -0.0774
 2458SOL    HW218837   0.341   0.429  11.559 -0.0548  0.0260 -0.3653
 2459SOL     OW18838   1.205   1.286   9.546 -0.3960  0.0343 -0.4092
 2459SOL    HW118839   1.276   1.343   9.575 -1.2343  0.2756  1.1858
 2459SOL    HW218840   1.252   1.202   9.549  0.9646  0.8455  1.1834
 2460SOL     OW18841   4.724   1.981  12.709  0.0675  0.1485 -1.1159
 2460SOL    HW118842   4.674   2.022  12.639 -1.0207 -2.7272 -1.9967
 2460SOL    HW218843   0.088   2.010  12.686  0.9139 -2.4498 -1.0972
 2461SOL     OW18844   1.475   1.106  13.554 -0.2446  0.0055 -0.1538
 2461SOL    HW118845   1.536   1.180  13.556 -1.0586  0.7052 -0.9220
 2461SOL    HW218846   1.538   1.051  13.508  2.4776  0.5205  2.9648
 2462SOL     OW18847   3.057   1.811   6.777  0.3274 -0.1322 -0.5581
 2462SOL    HW118848   2.988   1.872   6.751 -0.1274 -0.3902  0.0582
 2462SOL    HW218849   3.095   1.866   6.846  1.7971  0.3190 -1.7204
 2463SOL     OW18850   0.341   3.104   9.421  0.0407  0.6857 -0.9229
 2463SOL    HW118851   0.257   3.105   9.467 -0.8414 -1.5828 -2.5038
 2463SOL    HW218852   0.312   3.074   9.335 -1.7392 -1.0115  0.2898
 2464SOL     OW18853   4.650   2.889   4.515  0.9426  0.1302  0.5068
 2464SOL    HW118854   4.569   2.839   4.501  1.4050  0.0926 -1.9954
 2464SOL    HW218855   4.715   2.827   4.483 -0.1650 -0.7918  0.0356
 2465SOL     OW18856   2.773   4.679   8.724  0.4024 -0.0659  0.0424
 2465SOL    HW118857   2.799   0.046   8.719 -2.7025  1.0177  3.5038
 2465SOL    HW218858   2.828   4.648   8.653  0.3880  0.3135 -0.1336
 2466SOL     OW18859   2.642   1.660  17.192  0.0110  0.4720 -0.0634
 2466SOL    HW118860   2.574   1.620  17.138  0.5323  0.2004 -0.5126
 2466SOL    HW218861   2.686   1.580  17.220 -0.1768  0.9406  1.5868
 2467SOL     OW18862   4.440   3.984   6.425  0.0579  0.4377 -0.0607
 2467SOL    HW118863   4.403   3.916   6.368 -1.7354 -0.7335  2.4610
 2467SOL    HW218864   4.513   3.935   6.462  0.1237  0.7792  0.2554
 2468SOL     OW18865   3.637   1.606  17.676 -0.4352 -0.1924 -0.0693
 2468SOL    HW118866   3.547   1.624   0.001 -1.8459 -3.0264 -2.8212
 2468SOL    HW218867   3.686   1.671   0.025  0.7424 -0.3169 -1.0426
 2469SOL     OW18868   2.790   2.753   6.506 -0.0251  0.5544  0.0251
 2469SOL    HW118869   2.807   2.747   6.412 -0.7086 -0.2433 -0.0504
 2469SOL    HW218870   2.846   2.825   6.537 -1.3861  1.3983  0.4937
 2470SOL     OW18871   0.761   2.607  12.721  0.2807 -0.0772  0.1235
 2470SOL    HW118872   0.849   2.578  12.743 -0.5826 -2.1403  0.8799
 2470SOL    HW218873   0.779   2.669  12.650  0.5165  1.3247  1.4208
 2471SOL     OW18874   1.229   3.547  12.846  0.1972  0.1616  0.3245
 2471SOL    HW118875   1.313   3.575  12.808  0.8268 -1.4953  0.4807
 2471SOL    HW218876   1.240   3.573  12.938  1.0168 -0.0353  0.2826
 2472SOL     OW18877   1.177   3.610  14.152 -0.1261 -0.1763  0.3539
 2472SOL    HW118878   1.202   3.582  14.064 -1.6674  2.3263 -0.8802
 2472SOL    HW218879   1.258   3.647  14.185  0.4073  0.5017 -1.7318
 2473SOL     OW18880   0.784   1.768   8.824  0.2173 -0.1150 -0.1504
 2473SOL    HW118881   0.876   1.792   8.821 -0.3037  1.9797  0.5730
 2473SOL    HW218882   0.790   1.680   8.862  1.0178 -0.1748 -0.4253
 2474SOL     OW18883   0.493   2.074  10.709  0.5481 -0.2384  0.0205
 2474SOL    HW118884   0.405   2.052  10.677 -0.2953  1.2427  1.3078
 2474SOL    HW218885   0.535   2.101  10.627  0.8981  1.5379  0.7841
 2475SOL     OW18886   0.093   3.815  16.405 -0.3438  0.4539 -0.0199
 2475SOL    HW118887   0.118   3.838  16.316  3.7473 -1.6018  0.6224
 2475SOL    HW218888   0.145   3.868  16.465  0.0912  0.9548 -0.8544
 2476SOL     OW18889   1.969   2.884  17.701 -0.3691  0.3488  0.5383
 2476SOL    HW118890   2.037   2.945   0.026  0.8727 -0.8536  0.1359
 2476SOL    HW218891   1.960   2.836   0.082  2.0330 -1.0048  0.0332
 2477SOL     OW18892   3.314   0.660   2.333  0.0051 -0.0884  0.4142
 2477SOL    HW118893   3.299   0.623   2.420  4.2477  0.0002  1.1750
 2477SOL    HW218894   3.247   0.617   2.279  0.7730 -0.9943  0.1896
 2478SOL     OW18895   3.655   0.681   8.846 -0.1821 -0.6006  0.3237
 2478SOL    HW118896   3.562   0.664   8.862  0.2638 -1.4930  1.9226
 2478SOL    HW218897   3.692   0.679   8.935  0.6805  2.0000  0.0437
 2479SOL     OW18898   0.367   2.571   9.713  0.0789  0.0010 -0.2537
 2479SOL    HW118899   0.423   2.494   9.713 -1.6030 -1.2087 -1.1728
 2479SOL    HW218900   0.368   2.589   9.807  1.8441  2.4165 -0.7111
 2480SOL     OW18901   1.352   3.005   2.707 -0.2654 -0.1746  1.0173
 2480SOL    HW118902   1.339   2.913   2.726 -1.1600  0.1108  1.7580
 2480SOL    HW218903   1.284   3.014   2.641  1.2245 -0.6527 -0.6015
 2481SOL     OW18904   2.532   3.478   7.385 -0.7148  0.1607 -0.4167
 2481SOL    HW118905   2.533   3.471   7.481 -1.0089  2.0530 -0.2669
 2481SOL    HW218906   2.442   3.449   7.371  0.2963 -3.0898 -0.1073
 2482SOL     OW18907   1.603   1.816  12.590 -0.1517  0.2132  0.1493
 2482SOL    HW118908   1.659   1.850  12.661  0.6288  3.9886 -2.2751
 2482SOL    HW218909   1.672   1.787  12.531 -1.1913 -2.4497  0.2527
 2483SOL     OW18910   3.758   1.671   7.293  0.1341 -0.0273 -0.2591
 2483SOL    HW118911   3.806   1.718   7.225 -0.9465  1.8501  0.2717
 2483SOL    HW218912   3.671   1.683   7.254  0.1030 -2.5572 -0.9871
 2484SOL     OW18913   1.228   1.041   5.834 -0.0542 -0.2484  0.0558
 2484SOL    HW118914   1.150   1.042   5.889 -0.1142 -1.1960 -0.0151
 2484SOL    HW218915   1.199   0.975   5.771  0.7129 -1.6003  1.1123
 2485SOL     OW18916   2.057   0.002   1.092  0.0357  0.1870 -0.0329
 2485SOL    HW118917   2.076   4.650   1.040 -1.8417 -0.5660  0.3943
 2485SOL    HW218918   2.008   4.689   1.165  0.4634 -1.3710 -0.5649
 2486SOL     OW18919   2.972   4.303   4.420  0.5950  0.2300 -0.5875
 2486SOL    HW118920   2.879   4.281   4.428  0.7552  0.1748  1.0477
 2486SOL    HW218921   2.981   4.356   4.341  0.8485  0.4203 -0.4321
 2487SOL     OW18922   0.734   0.257   8.327  0.3417  0.1895  0.1434
 2487SOL    HW118923   0.749   0.170   8.364  0.7941 -0.4865 -1.6392
 2487SOL    HW218924   0.655   0.241   8.276 -0.0665  1.6342  0.3373
 2488SOL     OW18925   1.804   1.330   5.849  0.3227 -0.4223  0.2446
 2488SOL    HW118926   1.823   1.392   5.920 -0.3321  1.8323 -1.5445
 2488SOL    HW218927   1.767   1.388   5.783 -0.5303  0.5028  1.5327
 2489SOL     OW18928   1.917   4.356   2.905  0.1475 -0.3857  0.3191
 2489SOL    HW118929   1.901   4.389   2.993  0.6681 -1.8160  0.9489
 2489SOL    HW218930   1.824   4.333   2.903  0.2944 -1.0352  0.7268
 2490SOL     OW18931   2.153   4.204   4.501 -0.2631 -0.3820  0.2523
 2490SOL    HW118932   2.112   4.219   4.416 -0.1014  0.2943  0.2928
 2490SOL    HW218933   2.107   4.127   4.535 -0.0997  0.9780  3.5914
 2491SOL     OW18934   0.056   4.651   5.762  0.5803 -0.4298  0.0142
 2491SOL    HW118935   0.040   0.018   5.781  0.2646 -0.2887 -0.9300
 2491SOL    HW218936   0.087   4.616   5.845 -0.0248 -1.1490 -0.0693
 2492SOL     OW18937   0.955   3.917   9.170 -0.2220  0.2527  0.0259
 2492SOL    HW118938   0.931   4.001   9.132  1.7115 -0.1524 -2.1054
 2492SOL    HW218939   0.990   3.932   9.258 -1.8054  0.9274  0.5360
 2493SOL     OW18940   3.904   2.020   8.452 -0.0268  0.3588  0.1099
 2493SOL    HW118941   3.892   2.081   8.525  2.8158  1.5368 -0.4040
 2493SOL    HW218942   3.811   2.011   8.429  0.2433 -1.5376 -0.2218
 2494SOL     OW18943   3.973   4.377   2.957 -0.2314 -0.6165 -0.3771
 2494SOL    HW118944   3.975   4.439   2.884 -0.5664 -0.2606 -0.0870
 2494SOL    HW218945   4.061   4.388   2.994 -0.4480  2.3361 -0.6938
 2495SOL     OW18946   4.683   2.667   9.164 -0.1929 -0.7530 -0.2885
 2495SOL    HW118947   4.668   2.583   9.207 -1.1440 -1.2513 -1.6022
 2495SOL    HW218948   4.645   2.731   9.226  0.9025 -1.8362  1.4963
 2496SOL     OW18949   2.347   1.032   7.848  0.5797  0.4378  0.3384
 2496SOL    HW118950   2.428   1.071   7.882  0.9788 -0.6905  0.7062
 2496SOL    HW218951   2.318   0.983   7.925 -1.2944 -2.5760 -2.2673
 2497SOL     OW18952   3.897   0.270   6.183  0.1363 -0.1088  0.4455
 2497SOL    HW118953   3.907   0.295   6.275  2.1817  2.1246 -0.3752
 2497SOL    HW218954   3.819   0.310   6.146  1.6002  0.6884 -1.7643
 2498SOL     OW18955   2.742   1.175   6.556 -0.4604 -0.5847  0.5430
 2498SOL    HW118956   2.780   1.208   6.474 -1.4407 -0.7410  0.0265
 2498SOL    HW218957   2.649   1.191   6.538 -0.4174 -0.5116  0.3858
 2499SOL     OW18958   3.650   0.035   2.925 -0.4290  0.0723  0.1890
 2499SOL    HW118959   3.688   0.073   3.005 -1.4373 -1.6912  1.5223
 2499SOL    HW218960   3.663   4.666   2.930  0.0105  0.2672  2.8965
 2500SOL     OW18961   3.869   4.077   7.710 -0.2861 -0.5988 -0.1027
 2500SOL    HW118962   3.807   4.042   7.645 -1.8599 -0.8842  1.5517
 2500SOL    HW218963   3.883   4.166   7.679 -1.5479  0.0852  1.2976
 2501SOL     OW18964   1.759   2.799   3.833 -0.2000  0.2255  0.7529
 2501SOL    HW118965   1.757   2.889   3.800 -0.3583  0.4357  1.3390
 2501SOL    HW218966   1.808   2.807   3.915 -1.9668  0.9026  1.7403
 2502SOL     OW18967   0.475   0.935   9.334  0.4720 -0.5059 -0.7881
 2502SOL    HW118968   0.456   1.014   9.385  0.7951 -1.0656  0.1965
 2502SOL    HW218969   0.566   0.955   9.314  0.3221 -0.1170 -1.0835
 2503SOL     OW18970   1.590   2.687   5.872 -0.3300 -0.2719 -0.0835
 2503SOL    HW118971   1.506   2.722   5.844 -0.6329 -0.0392  1.1087
 2503SOL    HW218972   1.578   2.596   5.899 -0.5413 -0.5000 -0.9462
 2504SOL     OW18973   1.282   3.043   3.044  0.2493  0.1756  0.5953
 2504SOL    HW118974   1.291   3.014   2.953  0.3223  1.0152  0.3387
 2504SOL    HW218975   1.248   3.129   3.019  1.9800 -0.0326 -2.4255
 2505SOL     OW18976   4.006   1.592  13.282  0.4653 -0.2247  0.1942
 2505SOL    HW118977   3.972   1.569  13.196  0.4381 -2.1322  0.7136
 2505SOL    HW218978   4.006   1.503  13.318 -3.0510 -0.0347  0.7225
 2506SOL     OW18979   2.670   0.730   8.602 -0.3703 -0.4046 -0.2353
 2506SOL    HW118980   2.649   0.638   8.589 -3.9309  0.6644 -2.0882
 2506SOL    HW218981   2.629   0.754   8.685  3.0256  1.4383  0.9349
 2507SOL     OW18982   3.999   0.225   8.353  0.2953 -0.3144 -0.3871
 2507SOL    HW118983   4.019   0.319   8.346  1.5928 -0.4035  2.0356
 2507SOL    HW218984   3.927   0.212   8.292 -1.6795 -2.3173  2.3400
 2508SOL     OW18985   1.827   3.873  15.460 -0.0445  0.0545 -0.5855
 2508SOL    HW118986   1.874   3.955  15.443 -0.7205  0.3680 -0.9407
 2508SOL    HW218987   1.902   3.818  15.484 -1.0203 -0.3334  1.6152
 2509SOL     OW18988   0.915   4.444   3.599 -0.1496 -0.6139 -0.3148
 2509SOL    HW118989   0.975   4.372   3.579  1.5810  0.8228 -0.2182
 2509SOL    HW218990   0.944   4.517   3.544 -1.1522  0.7663  0.9842
 2510SOL     OW18991   3.527   4.528   3.797 -0.3888  0.2477  0.3071
 2510SOL    HW118992   3.523   4.505   3.890 -0.1281 -0.8049  0.0630
 2510SOL    HW218993   3.446   4.489   3.765  0.5411 -1.1152 -0.4307
 2511SOL     OW18994   3.162   3.289   2.494  0.7436  0.3005  0.1530
 2511SOL    HW118995   3.088   3.231   2.507  1.4746 -0.7378 -0.3493
 2511SOL    HW218996   3.233   3.227   2.510  0.2435  0.3003  2.3281
 2512SOL     OW18997   3.902   2.367  15.450 -0.0650 -0.0366 -0.9430
 2512SOL    HW118998   3.849   2.361  15.530  0.3036  2.5385 -0.4996
 2512SOL    HW218999   3.889   2.285  15.403  0.6560 -1.2767  1.0348
 2513SOL     OW19000   0.987   4.130   4.168  0.7033 -0.0486  0.2705
 2513SOL    HW119001   0.920   4.062   4.174 -0.1441  1.0732  3.4724
 2513SOL    HW219002   1.053   4.080   4.120 -2.2173 -0.3846 -3.3958
 2514SOL     OW19003   0.157   4.168   9.234  0.3472 -0.4973 -0.6836
 2514SOL    HW119004   0.103   4.114   9.292 -1.1339 -0.2937 -1.8661
 2514SOL    HW219005   0.192   4.232   9.295  2.0564 -0.2143 -1.9708
 2515SOL     OW19006   0.222   4.358  10.263 -0.0065 -0.7738 -0.0774
 2515SOL    HW119007   0.269   4.281  10.295  0.0967 -1.2966 -1.5058
 2515SOL    HW219008   0.214   4.333  10.171 -0.0820  0.3950 -0.4013
 2516SOL     OW19009   2.023   3.596   0.719  0.6752 -0.1713  0.2983
 2516SOL    HW119010   2.004   3.575   0.628  0.7376  0.4705  0.1386
 2516SOL    HW219011   2.075   3.673   0.693 -0.1752  0.3551  0.1738
 2517SOL     OW19012   4.201   4.631   5.168  0.1900  0.0761  0.6222
 2517SOL    HW119013   4.204   4.716   5.211 -2.2290  1.0765 -1.2381
 2517SOL    HW219014   4.280   4.636   5.114  0.9575 -1.2138  1.6082
 2518SOL     OW19015   2.535   2.673   7.268 -0.1852 -0.0452  0.4313
 2518SOL    HW119016   2.441   2.686   7.284 -0.3046  0.4330 -0.6617
 2518SOL    HW219017   2.567   2.639   7.351  0.5832  1.7502  0.8597
 2519SOL     OW19018   3.121   1.350  12.296 -0.1515  0.1268 -0.4409
 2519SOL    HW119019   3.108   1.285  12.365  0.0221  3.5259  2.8496
 2519SOL    HW219020   3.051   1.342  12.232  0.5283 -1.5867 -0.9652
 2520SOL     OW19021   3.688   4.007   3.144 -0.3319 -0.0306  0.4366
 2520SOL    HW119022   3.632   4.075   3.106  1.5233  0.7097 -1.0157
 2520SOL    HW219023   3.664   3.930   3.093 -1.3473 -0.8650  2.1736
 2521SOL     OW19024   4.130   2.365   4.956  0.0450  0.7903  0.2791
 2521SOL    HW119025   4.111   2.452   4.919  1.2184  0.7214 -0.5020
 2521SOL    HW219026   4.209   2.342   4.907  1.4445  1.0849  2.3906
 2522SOL     OW19027   4.036   0.657   7.383 -0.0323 -0.5166 -0.3541
 2522SOL    HW119028   3.947   0.664   7.418 -0.1717  0.1549 -0.8383
 2522SOL    HW219029   4.084   0.656   7.466 -0.7744  0.1170  0.0898
 2523SOL     OW19030   1.589   3.857  13.302  0.1013 -0.3564 -0.1219
 2523SOL    HW119031   1.671   3.878  13.259  0.7252  0.7472  1.6163
 2523SOL    HW219032   1.586   3.761  13.295 -2.5888 -0.2992  0.0018
 2524SOL     OW19033   0.584   1.499   0.480  0.4889  0.5152 -0.0057
 2524SOL    HW119034   0.595   1.465   0.569 -3.0371  0.6881  0.4701
 2524SOL    HW219035   0.576   1.415   0.434 -0.9156  0.0600  1.0821
 2525SOL     OW19036   4.062   1.884   5.915  0.8314 -0.0562 -0.3153
 2525SOL    HW119037   4.152   1.880   5.883  1.1325  0.2764  0.4819
 2525SOL    HW219038   4.020   1.876   5.830 -0.6057  0.4295  0.3558
 2526SOL     OW19039   4.558   1.824   9.744 -0.1619  0.0374  0.2510
 2526SOL    HW119040   4.554   1.888   9.814 -0.1884 -1.8588  1.9957
 2526SOL    HW219041   4.644   1.845   9.706  0.3849 -0.2360  1.3430
 2527SOL     OW19042   4.527   0.279  16.894 -0.7547 -0.1928 -0.3972
 2527SOL    HW119043   4.547   0.244  16.981  0.8884  2.2138  0.1873
 2527SOL    HW219044   4.606   0.329  16.870 -1.3045  0.8949  0.0515
 2528SOL     OW19045   2.154   2.936   2.381  0.2438 -0.2013  0.0018
 2528SOL    HW119046   2.125   3.026   2.400 -1.0375 -0.5994 -0.0963
 2528SOL    HW219047   2.238   2.949   2.338  0.8357 -2.9007  0.3523
 2529SOL     OW19048   4.295   1.038   3.071 -0.3058 -1.0049 -0.2143
 2529SOL    HW119049   4.263   0.984   2.999  0.1457 -2.5421  0.7260
 2529SOL    HW219050   4.335   0.966   3.120  2.0525  0.3576 -0.1347
 2530SOL     OW19051   1.564   2.304   4.253 -0.4232  0.4760  0.0949
 2530SOL    HW119052   1.512   2.360   4.309 -2.0889 -0.5994 -0.3864
 2530SOL    HW219053   1.586   2.237   4.318  1.0996 -0.6071 -1.5312
 2531SOL     OW19054   3.507   0.265   6.403  0.4224 -0.3254  0.9326
 2531SOL    HW119055   3.562   0.226   6.335  0.0431  0.3048  0.2614
 2531SOL    HW219056   3.434   0.207   6.423  0.7063  0.0511  2.9966
 2532SOL     OW19057   1.375   0.680   6.389 -0.2579  0.2018  0.1163
 2532SOL    HW119058   1.414   0.663   6.474  0.2640 -0.0596 -0.1701
 2532SOL    HW219059   1.355   0.772   6.404  0.0217  0.3671 -0.4954
 2533SOL     OW19060   1.769   0.764  14.366 -0.2429  0.1760  0.0848
 2533SOL    HW119061   1.781   0.720  14.281  1.7453 -0.0146  0.4733
 2533SOL    HW219062   1.840   0.722  14.414 -0.4591 -0.6545 -0.3155
 2534SOL     OW19063   0.185   2.390   5.743  0.0386 -0.0782 -0.0380
 2534SOL    HW119064   0.195   2.312   5.689  2.8890 -0.2952  0.7903
 2534SOL    HW219065   0.103   2.423   5.707  0.5144 -0.2660 -1.2893
 2535SOL     OW19066   1.364   3.960  10.719  0.4670  0.0063  0.3080
 2535SOL    HW119067   1.451   3.973  10.682  0.4356 -0.5967  0.0190
 2535SOL    HW219068   1.326   3.889  10.666  1.2324  1.0808 -1.6578
 2536SOL     OW19069   3.712   1.129  12.112  0.0061  0.7212  0.1763
 2536SOL    HW119070   3.785   1.085  12.069 -0.0351  1.4459 -0.6406
 2536SOL    HW219071   3.656   1.142  12.035 -2.2249 -1.2951  1.4558
 2537SOL     OW19072   3.523   4.428   6.840  0.5736 -0.5401  0.1064
 2537SOL    HW119073   3.529   4.380   6.757 -1.7561 -1.7792  0.6331
 2537SOL    HW219074   3.435   4.464   6.836  1.3158  1.3005  0.5089
 2538SOL     OW19075   2.966   1.833   4.219  0.0715 -0.2492 -0.4989
 2538SOL    HW119076   3.034   1.886   4.262 -0.0997  0.1816 -0.7654
 2538SOL    HW219077   2.894   1.840   4.282  0.8092  0.6196  0.2645
 2539SOL     OW19078   4.513   2.986   9.133  0.1558  0.1505 -0.3243
 2539SOL    HW119079   4.480   2.994   9.044  0.9604  2.1813 -0.4382
 2539SOL    HW219080   4.437   2.990   9.191  2.8218  0.3429  3.2019
 2540SOL     OW19081   2.896   3.288   0.671  0.6613  0.0793  0.2953
 2540SOL    HW119082   2.847   3.265   0.750 -2.0628  1.3287 -1.0488
 2540SOL    HW219083   2.940   3.365   0.707  2.9344 -1.2324  0.3183
 2541SOL     OW19084   3.745   1.572   9.027 -0.0537 -0.5388 -0.0385
 2541SOL    HW119085   3.824   1.526   8.996  0.1249  0.5422 -1.1780
 2541SOL    HW219086   3.753   1.650   8.973  3.1155 -1.1415 -0.4479
 2542SOL     OW19087   2.489   0.530   7.286 -0.2835 -0.2778  0.2607
 2542SOL    HW119088   2.454   0.441   7.296 -1.4171  0.2339  0.7903
 2542SOL    HW219089   2.411   0.584   7.294  0.9555  1.8423 -1.9212
 2543SOL     OW19090   1.047   1.328  11.984  0.0527 -0.5551  0.8127
 2543SOL    HW119091   1.053   1.353  12.077  0.5231 -1.0446  0.9084
 2543SOL    HW219092   0.953   1.308  11.976 -0.3505  0.4759  2.6903
 2544SOL     OW19093   2.829   0.572  15.392 -0.2691  0.9950 -0.3932
 2544SOL    HW119094   2.903   0.628  15.415  0.6021  0.1941 -1.2431
 2544SOL    HW219095   2.760   0.636  15.373 -0.8567  0.7886  1.0130
 2545SOL     OW19096   3.504   0.939   7.026  0.4071  0.9860 -0.5150
 2545SOL    HW119097   3.431   0.971   6.972 -1.1952  1.6492  2.0706
 2545SOL    HW219098   3.487   0.845   7.027  1.1575  0.8832  1.5040
 2546SOL     OW19099   3.695   2.637   2.546 -0.2009  0.3061 -0.0516
 2546SOL    HW119100   3.736   2.554   2.524 -2.8166 -0.8895 -0.4006
 2546SOL    HW219101   3.766   2.701   2.552 -0.9982  1.1090  0.8305
 2547SOL     OW19102   4.631   2.798  13.578 -0.7161 -0.3591  0.1467
 2547SOL    HW119103   4.723   2.775  13.568 -0.4003  1.3245 -0.7130
 2547SOL    HW219104   4.636   2.869  13.642 -0.4545 -0.0799 -0.1895
 2548SOL     OW19105   3.841   1.371   2.990 -0.8601  0.1624  0.2147
 2548SOL    HW119106   3.898   1.392   3.063  1.4989 -0.0178 -1.5862
 2548SOL    HW219107   3.842   1.276   2.982  1.6066  0.0480  2.0774
 2549SOL     OW19108   0.307   3.411   8.033 -0.5935  0.0257  0.1883
 2549SOL    HW119109   0.331   3.319   8.043 -0.8304 -0.0071  0.4352
 2549SOL    HW219110   0.251   3.392   7.958 -0.9828 -1.3008  0.8293
 2550SOL     OW19111   2.919   3.475   5.669  0.0519  0.7163  0.6343
 2550SOL    HW119112   2.852   3.416   5.701  0.5347 -0.8922 -1.3313
 2550SOL    HW219113   2.876   3.558   5.690  0.2279  0.8599  0.4303
 2551SOL     OW19114   1.102   2.978   8.190  0.5269 -0.1580 -0.1876
 2551SOL    HW119115   1.050   3.059   8.188 -0.2729 -0.6611 -0.0826
 2551SOL    HW219116   1.178   3.007   8.240 -0.4222  1.1843  0.4721
 2552SOL     OW19117   2.338   2.777   5.957  0.0404 -0.8137 -0.3649
 2552SOL    HW119118   2.424   2.759   5.994  0.0060  0.0825  0.1529
 2552SOL    HW219119   2.318   2.690   5.922  1.4491 -1.5361  0.6187
 2553SOL     OW19120   0.832   1.680   3.943  0.0363 -0.1223 -0.1109
 2553SOL    HW119121   0.825   1.678   3.848 -2.4322 -0.5573  0.0756
 2553SOL    HW219122   0.860   1.769   3.963 -2.6565  0.6872  0.0631
 2554SOL     OW19123   0.318   4.280  12.785 -0.3620 -0.4406 -0.3555
 2554SOL    HW119124   0.341   4.373  12.784 -0.6237 -0.3750 -0.3456
 2554SOL    HW219125   0.371   4.247  12.713  0.3521  1.4401 -0.6995
 2555SOL     OW19126   1.456   2.987  14.198 -0.0984 -0.1835 -0.0790
 2555SOL    HW119127   1.527   3.005  14.259  0.6672 -3.1566 -0.0862
 2555SOL    HW219128   1.466   2.896  14.169 -0.7011 -0.3868  0.3655
 2556SOL     OW19129   0.045   3.174   8.286 -0.8914 -0.1742 -0.1712
 2556SOL    HW119130   4.715   3.192   8.362 -1.6713 -1.3305 -0.4835
 2556SOL    HW219131   4.701   3.174   8.220 -1.0828 -0.8704  0.0343
 2557SOL     OW19132   2.064   2.309   5.762 -0.3232  0.0299 -0.4719
 2557SOL    HW119133   2.080   2.226   5.807 -0.1706  1.9245  2.9705
 2557SOL    HW219134   2.005   2.279   5.693 -0.3470  0.8439 -0.8049
 2558SOL     OW19135   0.706   2.069   5.536 -0.2046 -0.4777  0.1909
 2558SOL    HW119136   0.743   2.143   5.488 -1.4173  2.2673  3.4368
 2558SOL    HW219137   0.628   2.058   5.481  0.2863  0.0627 -0.6161
 2559SOL     OW19138   2.747   2.854  15.365 -0.1365  0.5289 -0.4449
 2559SOL    HW119139   2.733   2.760  15.371 -1.6217  0.6314 -2.0476
 2559SOL    HW219140   2.834   2.868  15.401  0.0898 -0.5392 -0.5800
 2560SOL     OW19141   3.824   1.675  11.778  0.4440  0.4006  0.2050
 2560SOL    HW119142   3.797   1.767  11.768 -1.8709 -0.3750 -0.5308
 2560SOL    HW219143   3.920   1.682  11.786  0.4413  2.6625 -1.5176
 2561SOL     OW19144   4.575   4.138  12.664 -0.1393  0.2844 -0.2426
 2561SOL    HW119145   4.666   4.149  12.691 -0.7413  0.0714  1.8919
 2561SOL    HW219146   4.552   4.077  12.734  0.5868  2.0777  1.5455
 2562SOL     OW19147   0.085   4.114  10.442 -0.8765 -0.1207 -0.0949
 2562SOL    HW119148   0.053   4.200  10.416 -0.4815  0.0246 -0.1032
 2562SOL    HW219149   0.113   4.074  10.360  0.6640  1.5350 -0.3651
 2563SOL     OW19150   2.782   1.664  11.409  0.2366 -0.0764  0.1784
 2563SOL    HW119151   2.802   1.641  11.500 -0.6161 -0.8826  0.1614
 2563SOL    HW219152   2.722   1.738  11.421 -1.2189 -1.3356  0.6617
 2564SOL     OW19153   3.510   1.609  11.228 -0.1289  0.0268  0.0708
 2564SOL    HW119154   3.504   1.695  11.270 -0.6773 -0.0991  0.2414
 2564SOL    HW219155   3.594   1.616  11.183  0.9935  1.0266  2.3141
 2565SOL     OW19156   0.942   0.018  14.593 -0.3410 -0.0387 -0.2081
 2565SOL    HW119157   0.852   0.033  14.623  0.3918  1.7720  1.1467
 2565SOL    HW219158   0.944   0.090  14.529 -1.6102 -1.0504 -1.3734
 2566SOL     OW19159   2.038   0.558  16.088 -0.5240 -0.1177  0.4489
 2566SOL    HW119160   1.978   0.516  16.026 -0.7879  1.7680 -0.5822
 2566SOL    HW219161   2.004   0.512  16.164 -1.0670  2.3263  1.6469
 2567SOL     OW19162   1.950   2.824   3.365  0.1812 -0.6065 -0.1485
 2567SOL    HW119163   1.999   2.753   3.406  1.6294  1.3022  1.4457
 2567SOL    HW219164   1.965   2.889   3.434 -0.3286  1.4521 -2.0001
 2568SOL     OW19165   4.392   0.575   2.023 -0.0934  0.3397  0.7477
 2568SOL    HW119166   4.413   0.669   2.019  1.4344 -0.0180  0.5938
 2568SOL    HW219167   4.363   0.574   1.931 -0.3386 -1.9512  0.8484
 2569SOL     OW19168   3.998   3.376   7.642 -0.1548  0.0296  0.1249
 2569SOL    HW119169   3.904   3.378   7.626  0.2847  1.6786 -2.1630
 2569SOL    HW219170   4.007   3.373   7.738 -1.3940  0.6840  0.2565
 2570SOL     OW19171   1.254   4.521  14.482 -0.4892 -0.0593  0.2300
 2570SOL    HW119172   1.294   4.495  14.399 -1.3196  0.6866 -0.4061
 2570SOL    HW219173   1.267   4.440  14.532  2.8583 -0.2576 -0.9608
 2571SOL     OW19174   1.203   2.892   4.269 -0.4684 -0.4027  0.4089
 2571SOL    HW119175   1.293   2.889   4.236 -1.1521 -1.9114 -1.2967
 2571SOL    HW219176   1.169   2.809   4.238  2.3411 -0.7352 -1.8057
 2572SOL     OW19177   1.157   2.454  14.504 -0.1863 -0.4647 -0.2404
 2572SOL    HW119178   1.175   2.428  14.413 -2.5301  0.6477 -1.0145
 2572SOL    HW219179   1.104   2.383  14.540 -0.9280  0.1032 -0.2203
 2573SOL     OW19180   2.563   0.271   5.025  0.3066 -0.7731  0.1573
 2573SOL    HW119181   2.489   0.306   4.976  0.6750 -0.8308 -0.4321
 2573SOL    HW219182   2.541   0.178   5.027 -1.2019 -0.4410 -0.7329
 2574SOL     OW19183   0.946   0.770   5.637 -0.5097 -0.2977  0.2917
 2574SOL    HW119184   1.025   0.820   5.618 -1.9536  0.7698 -2.9906
 2574SOL    HW219185   0.940   0.769   5.732 -1.2662  0.0713  0.2465
 2575SOL     OW19186   1.977   4.277   1.505 -0.2757 -0.8171 -0.1712
 2575SOL    HW119187   1.948   4.355   1.457 -1.3638 -0.4983  0.9961
 2575SOL    HW219188   2.069   4.266   1.481 -0.2877  1.6497 -1.3351
 2576SOL     OW19189   2.340   1.907   0.516 -0.8520 -0.3710 -0.6806
 2576SOL    HW119190   2.256   1.862   0.505 -0.5774 -1.0664  0.0824
 2576SOL    HW219191   2.403   1.840   0.542 -0.6350  0.2648  0.4706
 2577SOL     OW19192   3.459   1.361   4.175  0.0618 -0.0347  0.1812
 2577SOL    HW119193   3.445   1.270   4.202 -1.3759 -0.1641 -0.9986
 2577SOL    HW219194   3.380   1.380   4.124  1.4441  1.6371 -1.3215
 2578SOL     OW19195   2.791   2.708   6.224  0.1910 -0.0123 -0.2340
 2578SOL    HW119196   2.713   2.751   6.190 -0.7229 -0.7931  0.8882
 2578SOL    HW219197   2.864   2.742   6.172  2.0884 -1.4911  1.4457
 2579SOL     OW19198   2.664   3.166  15.956  0.0616  0.3288 -0.5489
 2579SOL    HW119199   2.710   3.082  15.959 -1.1420 -0.3119  0.0554
 2579SOL    HW219200   2.581   3.149  16.001 -0.2031 -0.5496 -1.3810
 2580SOL     OW19201   4.340   0.412   0.097 -0.0033  0.3515 -0.4148
 2580SOL    HW119202   4.432   0.387   0.085  0.5541  2.8480 -1.1782
 2580SOL    HW219203   4.328   0.378   0.186  1.4773 -1.7372 -1.0172
 2581SOL     OW19204   1.021   2.202   8.155 -0.3674 -0.0443  0.4800
 2581SOL    HW119205   1.089   2.267   8.171  0.8815 -1.7021  1.9752
 2581SOL    HW219206   1.077   2.126   8.141 -0.5389 -0.0286 -0.2751
 2582SOL     OW19207   1.042   3.836   4.887 -0.7908  0.0474 -0.3830
 2582SOL    HW119208   1.020   3.768   4.951 -1.5438 -0.6586 -1.3913
 2582SOL    HW219209   1.079   3.791   4.812 -1.8381  0.2103 -0.9966
 2583SOL     OW19210   4.076   1.886   7.857 -0.3120 -0.1441  0.1859
 2583SOL    HW119211   3.992   1.895   7.902 -0.6309  1.4904 -0.7547
 2583SOL    HW219212   4.064   1.819   7.789  0.1685 -0.2743  0.2322
 2584SOL     OW19213   4.652   0.416   6.784  0.1418  0.4018  0.0908
 2584SOL    HW119214   4.666   0.510   6.797  0.7581  0.4005 -0.5428
 2584SOL    HW219215   4.656   0.378   6.872  1.7755 -0.1853 -0.2393
 2585SOL     OW19216   1.356   0.255   5.843 -0.5089 -0.1717  0.0345
 2585SOL    HW119217   1.348   0.240   5.937 -1.1975  0.5698  0.0909
 2585SOL    HW219218   1.415   0.329   5.848  0.0168 -0.4563 -2.0226
 2586SOL     OW19219   4.112   4.373   3.889  0.6237 -0.1400  0.4350
 2586SOL    HW119220   4.041   4.368   3.825 -1.3303  2.0665  2.4345
 2586SOL    HW219221   4.076   4.436   3.952 -3.1038 -0.3490 -1.4484
 2587SOL     OW19222   3.006   3.966   4.988  0.0582  0.2809 -0.4337
 2587SOL    HW119223   3.004   4.022   4.910  0.9659  1.9090  0.7301
 2587SOL    HW219224   3.086   3.920   4.959 -0.5477  1.1649 -3.5189
 2588SOL     OW19225   1.716   4.098   4.750  0.2080  1.0924  0.2550
 2588SOL    HW119226   1.719   4.127   4.659 -0.4909 -1.5833 -0.5963
 2588SOL    HW219227   1.647   4.034   4.733  0.6784  0.5540  0.3740
 2589SOL     OW19228   0.021   1.290   4.106  0.6408  0.6183  0.3476
 2589SOL    HW119229   0.087   1.228   4.135 -0.1310 -0.8979 -1.1543
 2589SOL    HW219230   0.087   1.353   4.077  2.8930 -3.0757 -2.5011
 2590SOL     OW19231   3.481   2.363   8.969 -0.2347 -0.1182 -0.5678
 2590SOL    HW119232   3.412   2.302   8.996 -0.0372 -0.8605 -1.7626
 2590SOL    HW219233   3.474   2.434   9.033 -1.0388 -1.4296  0.8015
 2591SOL     OW19234   1.005   2.792   5.094 -0.5794  0.0451  0.3149
 2591SOL    HW119235   0.920   2.782   5.052  0.6669  0.2790 -2.2437
 2591SOL    HW219236   1.058   2.758   5.022  0.7833  0.7584  0.9767
 2592SOL     OW19237   1.275   3.422  10.687 -0.4746 -0.6690 -0.0884
 2592SOL    HW119238   1.241   3.511  10.688 -1.8539 -1.1719 -1.1696
 2592SOL    HW219239   1.195   3.373  10.709 -0.1875 -2.4550 -2.9767
 2593SOL     OW19240   1.285   4.004   5.870  0.3094 -0.2438 -0.2136
 2593SOL    HW119241   1.253   3.949   5.798 -1.3173 -1.0750  1.1349
 2593SOL    HW219242   1.292   3.940   5.941  1.4943  0.5282  0.3680
 2594SOL     OW19243   4.075   2.428  15.231 -0.2476  0.3982 -0.1592
 2594SOL    HW119244   4.147   2.379  15.272  2.3599  2.6086 -2.1102
 2594SOL    HW219245   4.022   2.439  15.310  0.7639  0.2773  0.5411
 2595SOL     OW19246   4.374   2.954   2.771 -0.2479  0.3913 -0.2655
 2595SOL    HW119247   4.346   3.029   2.823  2.2946 -0.2831  2.0418
 2595SOL    HW219248   4.319   2.890   2.816 -2.0780 -0.0964 -3.1946
 2596SOL     OW19249   2.189   2.240   2.435 -0.2866 -0.2910 -0.3443
 2596SOL    HW119250   2.276   2.201   2.424  0.4620  1.2587  0.1693
 2596SOL    HW219251   2.186   2.207   2.525  0.2225 -0.0959 -0.2522
 2597SOL     OW19252   2.426   4.078   6.724 -0.0831 -0.0398  0.0334
 2597SOL    HW119253   2.403   4.170   6.708  0.8479  0.3709  1.0238
 2597SOL    HW219254   2.459   4.083   6.814 -1.5866  0.0900  0.5837
 2598SOL     OW19255   4.301   2.102  14.387 -0.2122 -0.1883 -0.0965
 2598SOL    HW119256   4.319   2.013  14.417  0.8300  0.0330 -0.0582
 2598SOL    HW219257   4.212   2.084  14.357 -0.6964  0.2168  1.0954
 2599SOL     OW19258   1.283   2.744   7.116  0.2738 -0.3453 -0.3580
 2599SOL    HW119259   1.202   2.713   7.156  0.3808  1.4122  1.2186
 2599SOL    HW219260   1.309   2.805   7.186  1.0230 -3.8403  2.4030
 2600SOL     OW19261   2.548   4.259   8.267  0.7697  0.5906 -0.5015
 2600SOL    HW119262   2.581   4.242   8.355 -1.0422 -2.3981 -0.4085
 2600SOL    HW219263   2.622   4.312   8.237  2.1430 -0.9957  0.0644
 2601SOL     OW19264   1.582   2.087   6.392  0.7698 -0.0834 -0.0698
 2601SOL    HW119265   1.573   2.176   6.359 -4.0400 -0.2857  0.6406
 2601SOL    HW219266   1.571   2.111   6.485 -0.2214 -1.8088  0.2543
 2602SOL     OW19267   2.179   1.279   7.844  0.5281  0.4964  0.0826
 2602SOL    HW119268   2.225   1.342   7.788  0.9221  0.1786  0.0438
 2602SOL    HW219269   2.235   1.202   7.835  1.6588  1.5795 -2.1055
 2603SOL     OW19270   4.568   3.705   2.706 -0.4339 -0.0236  0.6361
 2603SOL    HW119271   4.612   3.754   2.776 -0.3918 -0.5015  0.9464
 2603SOL    HW219272   4.631   3.730   2.638  2.6183  0.5957  3.7119
 2604SOL     OW19273   1.584   1.227   5.515 -0.0211 -0.3164  0.2404
 2604SOL    HW119274   1.635   1.159   5.559 -0.8429 -0.2222  1.3409
 2604SOL    HW219275   1.515   1.243   5.579 -1.0021  0.2918 -0.9712
 2605SOL     OW19276   4.097   2.995   7.943 -0.0214 -0.2582  0.0401
 2605SOL    HW119277   4.079   3.058   7.873 -0.5210  2.0139  2.2047
 2605SOL    HW219278   4.122   2.917   7.895 -0.0865  0.4837 -1.1906
 2606SOL     OW19279   4.359   0.769   5.469  0.2813  0.6859  0.0562
 2606SOL    HW119280   4.325   0.857   5.484 -1.6954 -0.5210  2.7076
 2606SOL    HW219281   4.283   0.729   5.425  1.2818 -0.7473 -0.3844
 2607SOL     OW19282   4.151   2.908   3.260 -0.1629 -0.0718 -0.0648
 2607SOL    HW119283   4.212   2.976   3.232 -0.9164  0.6984  0.1314
 2607SOL    HW219284   4.062   2.945   3.258  0.6859  1.8610 -1.2570
 2608SOL     OW19285   0.174   0.494   4.203 -0.0439 -0.2071 -0.3221
 2608SOL    HW119286   0.080   0.501   4.219  0.2311 -1.1570  1.7194
 2608SOL    HW219287   0.222   0.551   4.264  0.3063 -0.6193 -0.2082
 2609SOL     OW19288   0.473   0.729   2.300  0.6144  0.8996 -0.4627
 2609SOL    HW119289   0.449   0.695   2.214  0.3518  2.6262 -1.0661
 2609SOL    HW219290   0.473   0.646   2.346  1.3930  1.3427  0.3236
 2610SOL     OW19291   2.022   4.670   6.611  0.0897  0.0845  0.4731
 2610SOL    HW119292   1.998   0.021   6.558 -0.3797 -1.5674 -1.6895
 2610SOL    HW219293   2.068   4.713   6.683  0.5425 -0.7065  0.6604
 2611SOL     OW19294   2.587   3.859   5.086 -0.1880 -0.4794 -0.7710
 2611SOL    HW119295   2.635   3.921   5.141 -0.3672 -0.6136 -0.4628
 2611SOL    HW219296   2.575   3.786   5.148  0.7249  0.0411  0.0203
 2612SOL     OW19297   0.100   1.937  15.695  0.2684  0.3710  0.5111
 2612SOL    HW119298   0.024   1.905  15.743 -0.7073  0.8890 -0.6847
 2612SOL    HW219299   0.092   1.892  15.611 -1.5494  1.8052 -0.0898
 2613SOL     OW19300   3.811   1.020   8.596  0.1939 -0.4020  0.0499
 2613SOL    HW119301   3.879   1.066   8.547 -1.6110  0.3056 -1.8167
 2613SOL    HW219302   3.845   1.055   8.679 -0.2719 -1.9557  0.8964
 2614SOL     OW19303   4.348   2.509   6.183  0.3079  0.6370 -0.0208
 2614SOL    HW119304   4.344   2.557   6.265 -0.3264  1.9188 -0.8023
 2614SOL    HW219305   4.328   2.583   6.126 -1.7241  0.6197  0.6873
 2615SOL     OW19306   3.344   1.007   7.277  0.2751 -0.6447  0.5033
 2615SOL    HW119307   3.280   0.939   7.259 -1.9974  1.3492  1.0862
 2615SOL    HW219308   3.370   1.031   7.188 -1.2197  0.5167  0.3873
 2616SOL     OW19309   0.085   0.976   3.355  0.0463  0.1458  0.4798
 2616SOL    HW119310   0.121   1.040   3.293  1.4050  0.0805  1.2140
 2616SOL    HW219311   4.715   0.983   3.344  0.1838  3.3894  1.2657
 2617SOL     OW19312   2.830   0.123   7.187  0.3031 -0.4753 -0.0200
 2617SOL    HW119313   2.814   0.147   7.279  0.2168 -0.0362 -0.1474
 2617SOL    HW219314   2.782   0.188   7.136 -0.0848 -0.3425  0.5132
 2618SOL     OW19315   0.099   3.728  12.935  0.0881  0.1293 -0.4547
 2618SOL    HW119316   0.054   3.807  12.965  0.0909 -0.3145  0.7261
 2618SOL    HW219317   0.159   3.757  12.866  1.0455  0.4075  0.4927
 2619SOL     OW19318   2.065   2.183  14.947  0.9118 -0.0897  0.2375
 2619SOL    HW119319   2.079   2.118  15.016  0.1960 -0.2546  0.2215
 2619SOL    HW219320   2.069   2.262  15.002 -0.8966 -1.0654  1.7601
 2620SOL     OW19321   1.278   2.925   9.613 -0.2494  0.7608 -0.1883
 2620SOL    HW119322   1.262   2.831   9.612  1.4035  0.4681  0.6021
 2620SOL    HW219323   1.366   2.924   9.652  0.1460 -0.7329 -1.1004
 2621SOL     OW19324   1.194   0.175   2.219  0.0010 -0.0878  0.1267
 2621SOL    HW119325   1.174   0.263   2.188 -0.6226 -0.6173 -1.0086
 2621SOL    HW219326   1.288   0.190   2.216  0.3025 -1.1574  4.4674
 2622SOL     OW19327   4.113   1.410  15.559 -0.3079  0.5568 -0.2498
 2622SOL    HW119328   4.109   1.351  15.634  0.4598 -0.8248 -1.2909
 2622SOL    HW219329   4.152   1.491  15.592 -0.0260  0.7277 -0.9901
 2623SOL     OW19330   1.787   0.639   9.960 -0.2677  0.3153  0.2551
 2623SOL    HW119331   1.720   0.708   9.952  2.0052  2.4947  0.2084
 2623SOL    HW219332   1.785   0.627  10.055  1.4732  0.5160  0.3010
 2624SOL     OW19333   3.116   4.583   3.226 -0.3235 -0.0494 -0.2675
 2624SOL    HW119334   3.039   4.618   3.181  0.3969 -0.2339 -1.6331
 2624SOL    HW219335   3.193   4.621   3.182 -0.7772  1.9372  0.6646
 2625SOL     OW19336   0.067   0.177   5.285 -0.0541  0.9294 -0.4667
 2625SOL    HW119337   0.051   0.086   5.263  1.4942  0.4330  0.4516
 2625SOL    HW219338   0.142   0.192   5.228  0.3656  0.0369 -0.1517
 2626SOL     OW19339   1.291   0.413   4.601  0.1875  0.3885 -0.4158
 2626SOL    HW119340   1.296   0.413   4.506 -2.9411  2.0638 -0.5917
 2626SOL    HW219341   1.383   0.430   4.621  0.2122  0.2625 -0.4212
 2627SOL     OW19342   2.942   3.665   2.807  0.1031  0.3932 -0.1032
 2627SOL    HW119343   2.900   3.724   2.870 -1.2104 -0.4649 -0.1892
 2627SOL    HW219344   3.034   3.693   2.812  0.2675  0.0732 -1.2723
 2628SOL     OW19345   0.978   0.797   4.721  0.2897  0.6079 -0.2031
 2628SOL    HW119346   1.058   0.848   4.735  1.0230 -0.2434 -1.3021
 2628SOL    HW219347   1.002   0.707   4.741  0.3663  0.6107 -0.2805
 2629SOL     OW19348   0.164   1.174   4.652 -0.2050 -0.1434 -0.4776
 2629SOL    HW119349   0.135   1.141   4.737  0.1499  1.2594  0.1921
 2629SOL    HW219350   0.225   1.238   4.689 -0.1201  0.7249 -2.1133
 2630SOL     OW19351   0.849   2.235   6.821  0.0267  0.7954  0.1875
 2630SOL    HW119352   0.810   2.278   6.898 -1.3031 -0.2326  0.0821
 2630SOL    HW219353   0.915   2.301   6.799  0.7649 -1.3051 -3.7671
 2631SOL     OW19354   4.612   2.881   5.335  0.3523 -0.3721 -0.5279
 2631SOL    HW119355   4.523   2.916   5.339 -0.2849 -2.1094  0.5578
 2631SOL    HW219356   4.607   2.824   5.258 -0.4203 -1.6002  0.4296
 2632SOL     OW19357   3.953   0.791   2.065  0.0191  0.0435 -0.5714
 2632SOL    HW119358   3.951   0.865   2.004  0.0698 -0.5139 -1.2572
 2632SOL    HW219359   3.988   0.725   2.004 -0.7259 -1.6825  0.8668
 2633SOL     OW19360   0.944   4.192   5.936 -0.2481 -0.1006  0.0275
 2633SOL    HW119361   1.011   4.242   5.890  1.0552 -0.9447  1.0179
 2633SOL    HW219362   0.996   4.145   6.002  0.1591 -1.1724 -1.0552
 2634SOL     OW19363   0.811   3.677   3.360 -0.0888 -0.0883  0.4759
 2634SOL    HW119364   0.896   3.670   3.403 -0.6611 -0.4843  1.5251
 2634SOL    HW219365   0.819   3.765   3.322 -0.7930  0.5033  1.7196
 2635SOL     OW19366   2.152   3.274   9.379 -0.0993 -0.1279 -0.4224
 2635SOL    HW119367   2.100   3.346   9.343  0.3144  0.0818 -0.6028
 2635SOL    HW219368   2.163   3.221   9.300 -0.1186 -2.3426  1.0701
 2636SOL     OW19369   1.394   3.187   8.093  0.3529  0.0812 -0.0840
 2636SOL    HW119370   1.307   3.212   8.063  0.3372 -1.0714 -0.9986
 2636SOL    HW219371   1.359   3.134   8.164  1.2898  1.1708  1.1928
 2637SOL     OW19372   2.706   4.444   6.767  0.0946  0.6712  0.6622
 2637SOL    HW119373   2.681   4.483   6.684  1.5362  0.6683  0.2362
 2637SOL    HW219374   2.738   4.357   6.741 -0.4884 -0.1627  2.6950
 2638SOL     OW19375   2.486   1.016   3.496 -0.0495  0.6515 -0.9484
 2638SOL    HW119376   2.393   0.993   3.488  0.1832  0.0074 -1.8055
 2638SOL    HW219377   2.531   0.941   3.457 -0.7435 -0.6757  0.7975
 2639SOL     OW19378   1.530   0.976   3.662 -0.1993  0.3914  0.2106
 2639SOL    HW119379   1.468   1.049   3.660 -0.1576  0.4119 -0.2878
 2639SOL    HW219380   1.526   0.950   3.570  1.8374  0.2561  0.1561
 2640SOL     OW19381   3.128   1.025   3.244  0.1299  0.5473 -0.0306
 2640SOL    HW119382   3.067   1.095   3.267  0.1974  0.7055 -0.3298
 2640SOL    HW219383   3.148   1.040   3.152  1.9505 -2.1236 -0.0476
 2641SOL     OW19384   1.772   2.804   7.673 -0.2507 -0.0143 -0.1635
 2641SOL    HW119385   1.815   2.889   7.671  0.2853 -0.3022 -0.6389
 2641SOL    HW219386   1.758   2.802   7.768  1.3534  0.1397  0.0700
 2642SOL     OW19387   0.309   4.417  15.389 -0.1213 -0.2535  0.4310
 2642SOL    HW119388   0.315   4.406  15.295 -0.3645  0.1286  0.3696
 2642SOL    HW219389   0.384   4.363  15.411 -0.7177 -1.4779 -0.5764
 2643SOL     OW19390   4.401   2.672   5.565  0.2713 -0.0036  0.4826
 2643SOL    HW119391   4.312   2.686   5.596  0.1218 -1.7344  0.8194
 2643SOL    HW219392   4.449   2.733   5.620 -0.5556  0.1372  1.0517
 2644SOL     OW19393   2.984   1.054  16.535  0.0030  0.6337  0.6045
 2644SOL    HW119394   2.910   1.082  16.588  0.0862  2.1567 -0.0932
 2644SOL    HW219395   2.983   1.109  16.456  1.3481 -0.8390 -0.4443
 2645SOL     OW19396   0.742   3.505   2.854 -0.2979  0.2632 -0.1430
 2645SOL    HW119397   0.667   3.515   2.913  1.3012 -0.2851  1.9545
 2645SOL    HW219398   0.741   3.587   2.805  4.3417  0.1454 -0.4149
 2646SOL     OW19399   2.245   0.622   7.002 -0.1230 -0.5154 -0.4659
 2646SOL    HW119400   2.291   0.701   6.973 -0.8163  0.7107  1.7184
 2646SOL    HW219401   2.243   0.577   6.918  3.9683 -1.2586 -0.1918
 2647SOL     OW19402   3.633   4.004   3.388 -0.1881 -0.3375  0.4208
 2647SOL    HW119403   3.650   4.093   3.421 -0.2482 -0.3593  0.5118
 2647SOL    HW219404   3.679   4.013   3.305  0.7453  0.7787  1.0511
 2648SOL     OW19405   1.192   4.476   9.070  0.3667 -0.1079 -0.1495
 2648SOL    HW119406   1.281   4.498   9.043  0.6599  1.2695  1.8684
 2648SOL    HW219407   1.139   4.488   8.991  0.4287 -1.6697 -0.4174
 2649SOL     OW19408   0.598   3.528   6.560 -0.0257 -0.5755 -0.2845
 2649SOL    HW119409   0.637   3.592   6.620  0.6340 -0.9412 -0.3239
 2649SOL    HW219410   0.504   3.523   6.574 -0.1873 -0.3439 -1.2323
 2650SOL     OW19411   4.229   0.771  14.273  0.1103  0.5479  0.0960
 2650SOL    HW119412   4.155   0.712  14.288  0.1242  0.1819 -1.2881
 2650SOL    HW219413   4.290   0.746  14.343 -1.3090  0.6954  1.4062
 2651SOL     OW19414   3.752   3.200   3.009  0.4112  0.5846  0.1830
 2651SOL    HW119415   3.759   3.106   2.993 -0.6576  0.4578  0.4348
 2651SOL    HW219416   3.665   3.222   2.975 -0.2368 -2.8895 -0.3990
 2652SOL     OW19417   1.132   1.417   7.526 -0.2822 -0.4387 -0.4827
 2652SOL    HW119418   1.203   1.385   7.581  0.7947  2.1636 -0.3240
 2652SOL    HW219419   1.177   1.497   7.498 -0.1212 -0.1390  0.6056
 2653SOL     OW19420   1.093   0.904   0.345  0.0020 -0.2005  0.3156
 2653SOL    HW119421   1.077   0.820   0.389  0.5778  0.2556  1.3946
 2653SOL    HW219422   1.103   0.882   0.252 -1.7149 -0.6133  0.2201
 2654SOL     OW19423   4.195   4.231  10.150  0.1364 -0.2441  0.4311
 2654SOL    HW119424   4.124   4.187  10.196  0.2996 -2.3073 -1.2592
 2654SOL    HW219425   4.144   4.299  10.106  0.7963  0.2229  0.3907
 2655SOL     OW19426   3.006   0.284   6.317  0.0733  0.1591  0.1309
 2655SOL    HW119427   3.071   0.351   6.335 -1.1161  1.5839 -0.8444
 2655SOL    HW219428   2.981   0.252   6.403  2.9404  0.7635  1.1696
 2656SOL     OW19429   0.348   3.257  10.536 -0.5248  0.3802  0.1719
 2656SOL    HW119430   0.297   3.335  10.559  0.6602  1.1721  0.1102
 2656SOL    HW219431   0.390   3.239  10.620  1.3294  0.5801 -0.6985
 2657SOL     OW19432   0.954   1.568   2.582 -0.0692 -0.2425 -0.0531
 2657SOL    HW119433   0.941   1.663   2.583  1.8099  0.0160  1.1318
 2657SOL    HW219434   1.023   1.560   2.517  0.3335 -0.5455  0.4120
 2658SOL     OW19435   1.940   1.070  14.905  0.2262 -0.2706  0.1598
 2658SOL    HW119436   1.965   1.131  14.836  1.8708 -0.7744  0.3290
 2658SOL    HW219437   1.904   1.133  14.968  1.9179  1.6105 -0.7537
 2659SOL     OW19438   1.319   3.107   6.705  0.0823 -0.3764 -0.3740
 2659SOL    HW119439   1.327   3.088   6.798 -1.5382 -1.1680 -0.4052
 2659SOL    HW219440   1.224   3.101   6.703  0.0113 -0.1193  2.0221
 2660SOL     OW19441   4.002   4.091   0.535  0.0239  0.3389  0.3474
 2660SOL    HW119442   4.075   4.152   0.543 -0.4478  1.3130 -2.6448
 2660SOL    HW219443   3.956   4.117   0.455  0.6575 -1.7895 -0.6960
 2661SOL     OW19444   2.697   2.097   3.402 -0.2627 -0.5203  0.1549
 2661SOL    HW119445   2.643   2.168   3.436 -1.7183 -2.7863  2.5763
 2661SOL    HW219446   2.648   2.062   3.328  0.3692  0.9482 -0.9669
 2662SOL     OW19447   3.708   3.897   1.074 -0.2966 -0.3645  0.4852
 2662SOL    HW119448   3.762   3.905   0.995 -1.4801 -1.2168 -0.4184
 2662SOL    HW219449   3.736   3.808   1.098  0.3828 -0.1685  0.4205
 2663SOL     OW19450   1.277   3.873   1.087 -0.9714  0.0991  0.2914
 2663SOL    HW119451   1.299   3.780   1.085 -1.0365  0.1372 -1.9078
 2663SOL    HW219452   1.274   3.891   1.181 -0.0461  0.1917  0.2979
 2664SOL     OW19453   1.078   3.551   2.701 -0.0552  0.1850 -0.5010
 2664SOL    HW119454   1.134   3.546   2.778 -0.3776 -0.8227 -0.3312
 2664SOL    HW219455   1.073   3.645   2.685  0.0244 -0.0231 -1.7771
 2665SOL     OW19456   0.818   0.501   8.227  0.0137 -0.4353  0.3963
 2665SOL    HW119457   0.831   0.413   8.261 -1.0371 -0.3052  1.1222
 2665SOL    HW219458   0.830   0.484   8.133  1.8040 -2.6884  1.0271
 2666SOL     OW19459   2.427   3.973   5.584  0.2740  0.2243 -0.2852
 2666SOL    HW119460   2.413   3.982   5.490 -2.4254  0.0122  0.0790
 2666SOL    HW219461   2.460   3.884   5.597  0.1752  0.1862 -0.2911
 2667SOL     OW19462   0.492   4.584   6.980 -0.4340 -0.0807  0.1138
 2667SOL    HW119463   0.509   4.654   6.917 -1.1756 -0.3901 -0.4346
 2667SOL    HW219464   0.503   4.628   7.064  0.6815  1.6981 -0.9469
 2668SOL     OW19465   4.194   0.816  15.121 -0.1099 -0.3312  0.6706
 2668SOL    HW119466   4.146   0.736  15.099 -2.0436  0.7898  0.7739
 2668SOL    HW219467   4.193   0.801  15.216  1.5661  1.8942  1.0431
 2669SOL     OW19468   3.863   1.978   6.104  0.3894 -0.1331  0.1867
 2669SOL    HW119469   3.925   1.939   6.043  1.6555  1.8513  0.2155
 2669SOL    HW219470   3.873   2.070   6.077 -1.8359  0.4943  1.4790
 2670SOL     OW19471   1.776   1.889   5.245 -0.3859  0.0134 -0.1064
 2670SOL    HW119472   1.705   1.876   5.183  0.7047  0.0031 -1.3415
 2670SOL    HW219473   1.845   1.926   5.190 -0.4108  0.6607  0.2999
 2671SOL     OW19474   3.321   4.027  15.453 -0.4583 -0.1123  0.6670
 2671SOL    HW119475   3.320   4.060  15.363 -0.4681 -0.5627  0.5058
 2671SOL    HW219476   3.229   4.023  15.480 -0.8370 -0.9932 -0.7831
 2672SOL     OW19477   2.997   2.963   7.684  1.0445  0.0256  0.0384
 2672SOL    HW119478   3.078   3.012   7.668  1.3397  0.2835  2.2762
 2672SOL    HW219479   3.040   2.887   7.722  0.3963 -0.2317  0.2492
 2673SOL     OW19480   4.627   4.691   3.885 -0.0173  0.3662  0.1021
 2673SOL    HW119481   4.542   4.676   3.843 -1.8073  2.5194  2.9627
 2673SOL    HW219482   4.610   0.035   3.949 -1.4254  0.0743  0.0568
 2674SOL     OW19483   2.433   0.281  15.584  0.0359  0.2112  0.5496
 2674SOL    HW119484   2.417   0.364  15.629  0.0641  1.2898 -1.4528
 2674SOL    HW219485   2.523   0.295  15.556 -0.0482  0.7622  0.5435
 2675SOL     OW19486   3.657   2.985  15.552  0.1473  0.2794  0.0778
 2675SOL    HW119487   3.682   3.026  15.635 -3.3984  2.0773  0.2744
 2675SOL    HW219488   3.741   2.971  15.509  0.8536  3.5371  0.3461
 2676SOL     OW19489   4.619   1.484  13.864  0.0501  0.5755 -0.0692
 2676SOL    HW119490   4.646   1.403  13.907 -0.6026 -0.1677 -1.0635
 2676SOL    HW219491   4.587   1.442  13.784 -0.4208  1.0660 -0.1322
 2677SOL     OW19492   1.844   0.453   2.836 -0.3798 -0.1085 -0.0258
 2677SOL    HW119493   1.867   0.386   2.772  0.7375  0.0219  0.2403
 2677SOL    HW219494   1.793   0.506   2.775 -1.5772  1.1917  2.0802
 2678SOL     OW19495   0.141   2.693  13.486 -0.9517 -0.1215 -0.2959
 2678SOL    HW119496   0.236   2.703  13.479 -0.8772  1.0048  2.2651
 2678SOL    HW219497   0.135   2.604  13.453  0.3071 -1.2733  2.6297
 2679SOL     OW19498   3.959   4.628  10.830 -0.1375  0.3759  0.3302
 2679SOL    HW119499   3.973   4.558  10.766  2.2528 -0.6017  1.9193
 2679SOL    HW219500   4.019   4.609  10.903 -0.5180 -0.6755  0.3712
 2680SOL     OW19501   4.200   2.793  10.803  0.3180  0.2930 -0.4995
 2680SOL    HW119502   4.146   2.818  10.728  0.5940  0.1133 -0.7570
 2680SOL    HW219503   4.282   2.829  10.770  1.3307  0.5608  2.3352
 2681SOL     OW19504   0.509   0.029   7.202  0.3075 -0.1106  0.5257
 2681SOL    HW119505   0.538   4.705   7.279  1.2738  1.7537  1.3343
 2681SOL    HW219506   0.551   0.113   7.221  1.8586 -0.4292 -1.5718
 2682SOL     OW19507   2.828   0.459   8.438 -0.3555  0.2766 -0.1338
 2682SOL    HW119508   2.889   0.532   8.449 -0.1003 -0.3414  2.7377
 2682SOL    HW219509   2.888   0.411   8.381 -0.5739  1.2126 -1.1551
 2683SOL     OW19510   3.798   3.495   7.281 -0.2783 -0.1938  0.1898
 2683SOL    HW119511   3.782   3.496   7.186 -0.2230  1.6647  0.2073
 2683SOL    HW219512   3.712   3.527   7.309  0.1317  1.7755 -0.8009
 2684SOL     OW19513   3.266   1.066  11.400  0.5606 -0.3485 -0.2697
 2684SOL    HW119514   3.233   0.976  11.410 -3.2754  1.1152  0.5116
 2684SOL    HW219515   3.282   1.095  11.490  0.1992 -0.7768 -0.0631
 2685SOL     OW19516   1.971   4.412   3.658 -0.1857  0.6432 -0.2645
 2685SOL    HW119517   2.065   4.405   3.670 -0.0443  1.3843 -0.9440
 2685SOL    HW219518   1.947   4.323   3.685 -0.7192  0.9357  0.2486
 2686SOL     OW19519   1.493   4.721  12.334  0.3070 -0.0257  0.3900
 2686SOL    HW119520   1.549   0.017  12.409  0.2604 -0.2813  0.4944
 2686SOL    HW219521   1.496   0.080  12.287 -0.6785 -0.6934 -0.8647
 2687SOL     OW19522   4.141   1.957   2.044 -0.2940  0.4956  0.0160
 2687SOL    HW119523   4.181   1.931   2.127 -1.7066 -0.2932  0.4666
 2687SOL    HW219524   4.050   1.927   2.049  0.0236 -0.4989 -0.0357
 2688SOL     OW19525   3.301   0.862   1.079  0.3437  0.1569 -0.5841
 2688SOL    HW119526   3.351   0.804   1.021 -1.4785 -1.2081 -0.8052
 2688SOL    HW219527   3.294   0.929   1.011  1.5741 -0.5242 -1.3849
 2689SOL     OW19528   2.409   0.063   6.609  0.0387 -0.1708  0.2846
 2689SOL    HW119529   2.445   0.012   6.536  0.5499  0.9884 -0.2832
 2689SOL    HW219530   2.435   0.013   6.686  0.7983 -1.8364 -1.0412
 2690SOL     OW19531   0.052   2.707  12.718 -0.0280  0.3859 -0.4379
 2690SOL    HW119532   0.126   2.764  12.695  0.2083  0.4327  0.4366
 2690SOL    HW219533   4.710   2.771  12.741  0.3895  0.1946  1.3034
 2691SOL     OW19534   0.067   4.128   9.864  0.1002  0.5466  0.2181
 2691SOL    HW119535   0.042   4.051   9.813  0.3120  0.5152  0.1596
 2691SOL    HW219536   4.706   4.169   9.861 -0.4246 -0.5562  0.4474
 2692SOL     OW19537   3.101   4.614  12.398  0.9834 -0.5646  0.4017
 2692SOL    HW119538   3.064   4.572  12.320  0.2560  1.8216 -0.5331
 2692SOL    HW219539   3.192   4.582  12.394  0.7819 -1.0330 -0.5509
 2693SOL     OW19540   4.007   4.454   5.154  0.4339  0.5372  0.3388
 2693SOL    HW119541   3.939   4.520   5.170 -0.5953 -0.0202 -1.8058
 2693SOL    HW219542   4.087   4.505   5.166 -1.4365  3.7233 -0.5781
 2694SOL     OW19543   0.958   2.310   6.135 -0.3159 -0.7244 -0.2940
 2694SOL    HW119544   0.975   2.402   6.119 -0.9836 -0.1941  2.0356
 2694SOL    HW219545   1.005   2.292   6.216  0.9285 -0.7224 -1.0166
 2695SOL     OW19546   4.320   4.217   8.206 -0.0082 -0.3570 -0.5480
 2695SOL    HW119547   4.311   4.122   8.208 -1.4492 -0.2123 -0.5888
 2695SOL    HW219548   4.351   4.217   8.115 -1.2546 -2.5798 -0.9691
 2696SOL     OW19549   4.246   4.648   4.725  0.5344  0.5532  0.6668
 2696SOL    HW119550   4.208   4.651   4.637 -1.3116  1.7641  1.5219
 2696SOL    HW219551   4.282   4.560   4.725 -0.9837 -0.0611  2.5829
 2697SOL     OW19552   0.817   4.050   8.718  0.4062 -0.2447  0.1094
 2697SOL    HW119553   0.841   4.135   8.754  1.1053 -0.4061  0.0207
 2697SOL    HW219554   0.762   4.018   8.790  1.2042 -0.9894  0.3902
 2698SOL     OW19555   4.623   0.535  17.068 -0.0750  0.2587  1.0782
 2698SOL    HW119556   4.648   0.617  17.111  0.6644  0.9262 -0.6704
 2698SOL    HW219557   4.668   0.544  16.984 -0.8219  2.0846  0.8669
 2699SOL     OW19558   4.135   2.300   0.848 -0.6037  0.2797 -1.1190
 2699SOL    HW119559   4.152   2.300   0.753  0.5407 -0.5726 -0.9088
 2699SOL    HW219560   4.175   2.385   0.869 -0.5780  0.4468 -1.8181
 2700SOL     OW19561   1.992   0.211   5.927  0.0901  0.5186 -0.4655
 2700SOL    HW119562   2.031   0.188   6.012 -0.1806  1.5248 -0.0664
 2700SOL    HW219563   1.975   0.132   5.877 -1.1630  0.0962  0.6178
 2701SOL     OW19564   3.538   1.673   6.978  0.1757 -0.5919  0.2933
 2701SOL    HW119565   3.539   1.689   6.884 -0.7891  4.1006  1.0995
 2701SOL    HW219566   3.601   1.743   6.996  1.1305 -1.3363 -0.1626
 2702SOL     OW19567   0.469   2.077   9.762 -0.1330  0.4466 -0.6673
 2702SOL    HW119568   0.457   2.002   9.705 -1.1876  0.6305 -0.6825
 2702SOL    HW219569   0.386   2.065   9.809  0.6268 -0.5663  0.4291
 2703SOL     OW19570   4.651   0.724   8.073 -0.2297 -0.1072  0.3423
 2703SOL    HW119571   4.558   0.744   8.082 -0.1603 -0.3026  1.4731
 2703SOL    HW219572   4.669   0.697   8.163  0.9050  1.2184  0.5205
 2704SOL     OW19573   2.121   0.937   4.586 -0.1219  0.4476 -0.3551
 2704SOL    HW119574   2.052   0.997   4.614  0.7688  2.2660 -2.0484
 2704SOL    HW219575   2.099   0.862   4.642 -1.7802 -0.5058 -2.2694
 2705SOL     OW19576   3.332   0.447   1.264 -0.1539  0.0834 -0.1790
 2705SOL    HW119577   3.274   0.385   1.309  1.4757 -1.2094  0.1417
 2705SOL    HW219578   3.419   0.412   1.283 -0.5666 -0.1409  1.3118
 2706SOL     OW19579   2.026   0.806   6.366 -0.8180 -0.1062 -0.2316
 2706SOL    HW119580   2.021   0.766   6.279  0.2845  0.1094 -0.3847
 2706SOL    HW219581   2.028   0.898   6.341 -0.2555  0.0018  0.2273
 2707SOL     OW19582   1.150   2.240   7.460 -0.4289  0.0199  0.1433
 2707SOL    HW119583   1.199   2.196   7.390  2.6125  3.8344 -0.1462
 2707SOL    HW219584   1.073   2.278   7.418  0.6591 -0.5781 -2.3860
 2708SOL     OW19585   2.797   3.679   3.277 -0.1325 -0.3092 -0.5973
 2708SOL    HW119586   2.869   3.742   3.278 -0.5665  0.1781  0.0581
 2708SOL    HW219587   2.795   3.645   3.187  0.2487 -0.3986 -0.5720
 2709SOL     OW19588   0.735   2.178   9.714  0.6255  0.4927 -0.0831
 2709SOL    HW119589   0.644   2.196   9.690  0.8965 -0.4832 -1.8603
 2709SOL    HW219590   0.730   2.083   9.724  0.2068  0.8969  3.6527
 2710SOL     OW19591   4.034   0.003   3.467  0.6829 -0.0226  0.2046
 2710SOL    HW119592   3.995   4.691   3.388 -1.4481  2.2253  0.2068
 2710SOL    HW219593   4.097   0.062   3.427  0.1165  0.4691  0.0484
 2711SOL     OW19594   4.123   0.027   0.902  0.0037  0.4305  0.2503
 2711SOL    HW119595   4.056   0.095   0.908 -1.7004 -1.1378 -0.8820
 2711SOL    HW219596   4.193   0.069   0.952  0.9870  0.8189 -1.4745
 2712SOL     OW19597   1.418   0.252   6.448 -0.7395  0.3495  0.3140
 2712SOL    HW119598   1.450   0.193   6.516  0.8242  1.2785  0.3714
 2712SOL    HW219599   1.330   0.216   6.436 -1.5581  1.6820  2.3013
 2713SOL     OW19600   1.024   1.424   2.816 -0.0052 -0.1592  0.3065
 2713SOL    HW119601   0.999   1.333   2.802 -0.9446  0.3972 -1.6268
 2713SOL    HW219602   0.990   1.472   2.740 -1.1845  3.8434  3.3691
 2714SOL     OW19603   1.155   2.221   3.853  0.2062 -0.1047  0.2467
 2714SOL    HW119604   1.191   2.308   3.835 -0.6758  0.4134  1.0083
 2714SOL    HW219605   1.125   2.179   3.773  0.2192  2.1404 -0.9410
 2715SOL     OW19606   2.399   2.738   1.979 -0.0377 -0.5778  0.2065
 2715SOL    HW119607   2.433   2.800   2.043 -1.4736  0.3071  0.1106
 2715SOL    HW219608   2.309   2.768   1.992  0.4392  1.3059 -0.7266
 2716SOL     OW19609   2.607   3.183   2.445 -0.0524 -0.0641  0.0135
 2716SOL    HW119610   2.547   3.221   2.509  1.2378  1.7475  0.1478
 2716SOL    HW219611   2.585   3.229   2.365 -1.6914  1.4229  1.3135
 2717SOL     OW19612   2.858   0.459   0.476 -0.1443  0.1740  0.1607
 2717SOL    HW119613   2.921   0.521   0.439  1.7475 -1.3397  0.8624
 2717SOL    HW219614   2.793   0.457   0.406 -0.3927  0.5776  0.3735
 2718SOL     OW19615   2.035   1.301   2.212 -0.3476 -0.3207  0.1812
 2718SOL    HW119616   1.942   1.316   2.229 -0.3844  0.0575 -0.3435
 2718SOL    HW219617   2.067   1.355   2.284 -1.6915 -0.5645  0.9672
 2719SOL     OW19618   0.930   2.104   3.260 -0.4580 -0.3846  0.6668
 2719SOL    HW119619   1.002   2.149   3.304  0.1402 -0.4753 -0.2125
 2719SOL    HW219620   0.936   2.158   3.181 -2.3385  0.6747  1.2592
 2720SOL     OW19621   1.952   0.356   2.129  0.1941 -0.2579 -0.8298
 2720SOL    HW119622   1.902   0.377   2.050 -1.5524  0.8018  0.5453
 2720SOL    HW219623   1.899   0.289   2.172  0.7470  0.3484  0.7998
 2721SOL     OW19624   3.852   2.419   0.881 -0.5570  0.0274 -0.1065
 2721SOL    HW119625   3.929   2.375   0.844 -1.7081 -0.2940 -2.1274
 2721SOL    HW219626   3.881   2.467   0.959 -0.5678 -0.6851  0.3330
 2722SOL     OW19627   1.875   4.573   4.770  0.1741 -0.5635  0.1976
 2722SOL    HW119628   1.944   4.523   4.813 -0.4450 -0.7369  0.9854
 2722SOL    HW219629   1.875   4.658   4.815 -0.6218 -0.0263 -0.8250
 2723SOL     OW19630   3.567   3.504   8.334 -0.2241 -0.1432 -0.8364
 2723SOL    HW119631   3.525   3.565   8.395  1.5988 -0.1295  0.4083
 2723SOL    HW219632   3.633   3.457   8.386  1.1906  1.8639 -0.8267
 2724SOL     OW19633   4.387   2.666  15.329  0.5314  0.5963  0.7229
 2724SOL    HW119634   4.336   2.643  15.251  0.8554 -1.9765  1.2484
 2724SOL    HW219635   4.479   2.642  15.317  0.4200  1.1908 -1.3175
 2725SOL     OW19636   3.459   1.646  15.484  0.7488 -0.2976 -0.6546
 2725SOL    HW119637   3.518   1.619  15.414  2.0800  0.3507  0.2346
 2725SOL    HW219638   3.459   1.572  15.545  1.4898 -1.5937 -2.2361
 2726SOL     OW19639   3.745   1.722   5.898  0.0218 -0.4223 -0.0464
 2726SOL    HW119640   3.813   1.684   5.843  1.0414  0.9023  0.2853
 2726SOL    HW219641   3.722   1.799   5.846  0.3024  1.4712  2.5960
 2727SOL     OW19642   0.119   1.128   1.222  0.0332 -0.0136  0.2166
 2727SOL    HW119643   0.044   1.104   1.168  0.9130 -2.4425  0.0684
 2727SOL    HW219644   0.156   1.042   1.243  0.1209  0.2353  1.0698
 2728SOL     OW19645   3.325   1.625   5.822  0.0133 -0.1512  0.4344
 2728SOL    HW119646   3.404   1.574   5.801  0.5878  2.1141 -2.9606
 2728SOL    HW219647   3.336   1.644   5.915 -1.4706  1.1906  0.3341
 2729SOL     OW19648   0.691   2.389   6.033 -0.0570  0.6239  0.0698
 2729SOL    HW119649   0.773   2.354   6.068 -1.2041 -0.6825  1.4532
 2729SOL    HW219650   0.703   2.380   5.938  1.4278 -0.4424  0.3626
 2730SOL     OW19651   2.206   3.271   5.902  0.0340  0.3395 -0.4685
 2730SOL    HW119652   2.192   3.178   5.882 -0.8933  0.4374 -0.2578
 2730SOL    HW219653   2.237   3.307   5.819 -0.1047  0.1258 -0.6142
 2731SOL     OW19654   1.136   0.531   0.991  0.1159 -0.2035  0.1649
 2731SOL    HW119655   1.142   0.615   1.036 -1.4242 -0.1773  0.3165
 2731SOL    HW219656   1.151   0.467   1.060 -0.0145  1.9997  2.2451
 2732SOL     OW19657   1.489   1.740   3.630 -0.2607 -0.0037 -0.4083
 2732SOL    HW119658   1.574   1.701   3.611 -0.1927  0.8134 -1.8018
 2732SOL    HW219659   1.499   1.825   3.585  1.4290  0.3878  0.6992
 2733SOL     OW19660   1.119   3.660  10.890 -0.2204 -0.1834  0.2627
 2733SOL    HW119661   1.047   3.615  10.845 -1.1032  1.3617  0.1460
 2733SOL    HW219662   1.094   3.750  10.871  0.1706 -0.3382 -0.9414
 2734SOL     OW19663   4.293   4.475   5.652 -0.2760  0.9772  0.1540
 2734SOL    HW119664   4.365   4.421   5.619 -0.0922  0.2187  1.7803
 2734SOL    HW219665   4.323   4.564   5.637  0.4777  0.4649 -1.3328
 2735SOL     OW19666   2.030   4.028  14.574  0.3244  0.7767  0.3885
 2735SOL    HW119667   2.046   4.069  14.489  0.2553  0.3751  0.1851
 2735SOL    HW219668   1.956   3.973  14.552  0.4152  0.6868  0.3103
 2736SOL     OW19669   1.219   3.438   6.840  0.4684  0.5856 -0.3786
 2736SOL    HW119670   1.203   3.380   6.765 -1.5748  0.1614  0.3801
 2736SOL    HW219671   1.314   3.438   6.852  0.6991  1.2144 -2.1714
 2737SOL     OW19672   3.278   0.983   0.339  0.1257 -0.1329 -0.7175
 2737SOL    HW119673   3.182   0.981   0.339  0.1811 -2.6184 -3.1769
 2737SOL    HW219674   3.297   1.072   0.311 -1.3642 -0.0203 -1.3750
 2738SOL     OW19675   3.202   4.036   8.722  0.3863 -0.4255  0.2561
 2738SOL    HW119676   3.163   4.021   8.808 -1.9374  0.4796 -0.6409
 2738SOL    HW219677   3.171   4.126   8.711  0.1654 -0.6699 -1.1889
 2739SOL     OW19678   3.402   1.757   2.571  0.3140 -0.3778  0.5009
 2739SOL    HW119679   3.490   1.753   2.609 -0.1563 -0.1725  1.6100
 2739SOL    HW219680   3.362   1.828   2.621  2.4055  0.3450  1.1620
 2740SOL     OW19681   3.686   2.148   3.609 -0.1090  0.2925  0.4841
 2740SOL    HW119682   3.653   2.061   3.630 -2.0960  0.9327 -0.0131
 2740SOL    HW219683   3.709   2.126   3.518  0.2856  1.3208  0.3272
 2741SOL     OW19684   0.247   2.305   4.087 -0.3937  1.0678  0.1666
 2741SOL    HW119685   0.304   2.301   4.011  1.4485 -2.1943  1.6969
 2741SOL    HW219686   0.243   2.217   4.124  2.0204  0.9551  0.1428
 2742SOL     OW19687   4.173   4.341  12.829 -0.5994 -0.0574  0.2992
 2742SOL    HW119688   4.267   4.340  12.846 -0.6597  2.7284  0.7880
 2742SOL    HW219689   4.172   4.382  12.742 -1.2662 -1.5512 -0.3841
 2743SOL     OW19690   0.322   3.521   2.484 -0.3654  0.8321  0.0713
 2743SOL    HW119691   0.297   3.439   2.526  0.1601  0.0981 -1.0750
 2743SOL    HW219692   0.333   3.577   2.561 -1.5118 -0.4696  1.1887
 2744SOL     OW19693   0.609   1.439  12.652  0.3300  0.1231  0.3637
 2744SOL    HW119694   0.522   1.420  12.616  1.1920 -1.2658 -0.9802
 2744SOL    HW219695   0.664   1.423  12.575 -1.5433 -1.2347 -0.6887
 2745SOL     OW19696   4.100   1.989   7.144 -0.6963 -0.0946  0.3492
 2745SOL    HW119697   4.038   2.061   7.154 -0.9861 -0.6132  2.4404
 2745SOL    HW219698   4.160   2.022   7.079 -0.5485 -0.2616  0.4002
 2746SOL     OW19699   2.891   1.921   7.780 -0.6983 -0.2929  0.1328
 2746SOL    HW119700   2.881   1.827   7.797  1.1978 -0.2973  1.1716
 2746SOL    HW219701   2.931   1.942   7.864  1.1115  2.0060 -1.3022
 2747SOL     OW19702   2.946   1.548  13.675 -0.1998 -0.5977 -0.0137
 2747SOL    HW119703   2.879   1.612  13.696  0.6177  0.7219 -1.5065
 2747SOL    HW219704   3.002   1.554  13.752 -1.0808  0.6812  0.5145
 2748SOL     OW19705   2.095   3.919   8.799 -0.2675  0.0173  0.1446
 2748SOL    HW119706   2.179   3.931   8.842 -0.0918 -2.1681  0.3979
 2748SOL    HW219707   2.048   3.853   8.849  1.1816 -0.0986  1.3519
 2749SOL     OW19708   3.402   3.839   5.107  0.1305  0.0516  0.0785
 2749SOL    HW119709   3.338   3.769   5.119  0.4569 -0.1715  0.5311
 2749SOL    HW219710   3.395   3.872   5.018 -0.2381 -2.4308 -0.8053
 2750SOL     OW19711   4.574   3.419   9.053  0.2548 -0.4241  0.9651
 2750SOL    HW119712   4.662   3.451   9.073  0.1356  0.4118  0.1131
 2750SOL    HW219713   4.519   3.478   9.104  0.2720 -0.7569  1.3684
 2751SOL     OW19714   1.416   3.438   8.920  0.1348  0.5527  0.1073
 2751SOL    HW119715   1.328   3.412   8.947  0.5940 -1.6196 -0.5088
 2751SOL    HW219716   1.398   3.452   8.827  0.0227 -0.3490 -0.0077
 2752SOL     OW19717   1.160   1.653   6.240 -0.3132 -0.5322  0.2250
 2752SOL    HW119718   1.087   1.685   6.188  0.1356 -0.1694 -0.1906
 2752SOL    HW219719   1.194   1.584   6.184 -1.0048  0.1467 -1.0408
 2753SOL     OW19720   4.409   3.779   6.219 -0.5186 -0.8280 -0.7972
 2753SOL    HW119721   4.330   3.737   6.252 -0.1130 -0.3006  0.8733
 2753SOL    HW219722   4.459   3.700   6.197  1.5921  0.4384 -0.5899
 2754SOL     OW19723   2.336   2.626  14.802 -0.0113  0.0872 -0.0150
 2754SOL    HW119724   2.353   2.534  14.819  3.6839  0.9243  0.8734
 2754SOL    HW219725   2.408   2.643  14.741 -0.7296 -0.0628 -0.9160
 2755SOL     OW19726   1.863   4.705   2.535 -0.6058 -0.0736 -0.1930
 2755SOL    HW119727   1.891   4.641   2.600  3.0044 -0.3109 -1.9216
 2755SOL    HW219728   1.943   4.714   2.482 -0.3810 -2.1416 -0.2022
 2756SOL     OW19729   2.775   4.194   4.675  0.5113  0.6688  0.2442
 2756SOL    HW119730   2.795   4.285   4.698  1.8178  0.3686  0.2694
 2756SOL    HW219731   2.752   4.215   4.585  2.0430 -0.2651 -0.3653
 2757SOL     OW19732   4.663   1.157  12.714  0.5503  0.2036 -0.0343
 2757SOL    HW119733   4.658   1.218  12.788 -0.8047 -0.0341  0.0709
 2757SOL    HW219734   4.591   1.096  12.733  1.4045 -0.7437  0.1676
 2758SOL     OW19735   2.034   1.431   7.024  0.1806  0.1434 -0.3209
 2758SOL    HW119736   2.104   1.402   7.083  0.1016  0.2531 -0.1718
 2758SOL    HW219737   1.962   1.437   7.086  2.1956  0.8657  1.9541
 2759SOL     OW19738   3.425   3.905  16.378 -0.8502 -0.5874  0.2092
 2759SOL    HW119739   3.480   3.827  16.367  2.3163  1.5467  0.8614
 2759SOL    HW219740   3.379   3.882  16.458  1.2754 -0.8438  1.3676
 2760SOL     OW19741   1.970   4.535  11.627 -0.5730  0.3127 -0.4847
 2760SOL    HW119742   2.063   4.521  11.608 -1.0137 -1.1260 -1.5633
 2760SOL    HW219743   1.967   4.531  11.723  1.0432  1.9582 -0.3635
 2761SOL     OW19744   2.629   2.586   7.511 -0.1079 -0.4110 -0.3858
 2761SOL    HW119745   2.708   2.630   7.544 -0.0504 -0.2516 -0.7478
 2761SOL    HW219746   2.611   2.544   7.596  2.9441 -1.5205 -0.2936
 2762SOL     OW19747   1.062   1.554  15.890  0.6474  0.5011 -0.1796
 2762SOL    HW119748   1.026   1.507  15.815  1.3788 -1.4591  0.6888
 2762SOL    HW219749   1.062   1.646  15.861 -0.9636 -0.4687 -3.2365
 2763SOL     OW19750   2.293   2.880   7.351 -0.7505 -0.4344 -0.7880
 2763SOL    HW119751   2.337   2.840   7.427 -1.4815  1.9521  0.8874
 2763SOL    HW219752   2.202   2.871   7.377 -1.1285 -1.7243 -2.5346
 2764SOL     OW19753   1.422   3.190   5.993  0.1600  0.4751 -0.4237
 2764SOL    HW119754   1.504   3.162   6.033 -0.8807 -0.6667  0.9275
 2764SOL    HW219755   1.436   3.284   6.005  1.9431  0.1765 -0.1610
 2765SOL     OW19756   3.977   0.818  13.601 -0.4709 -0.0782 -0.0510
 2765SOL    HW119757   4.023   0.895  13.567  0.5071  0.3204  2.1505
 2765SOL    HW219758   3.953   0.847  13.689 -0.1463 -2.8018  0.9498
 2766SOL     OW19759   4.243   0.444   4.257 -0.5035  0.0483  0.2835
 2766SOL    HW119760   4.303   0.458   4.330  1.1121  2.3253 -1.4911
 2766SOL    HW219761   4.276   0.509   4.195 -1.7203 -1.2044 -1.6670
 2767SOL     OW19762   0.631   1.836   9.385 -0.7632  0.1240 -0.1021
 2767SOL    HW119763   0.717   1.873   9.401 -1.0153 -0.9153  3.5583
 2767SOL    HW219764   0.603   1.911   9.332 -1.5904 -0.3677 -0.3746
 2768SOL     OW19765   1.670   0.427   6.486 -0.1384  0.1848 -0.3850
 2768SOL    HW119766   1.577   0.443   6.502 -0.0119 -0.2914  0.7685
 2768SOL    HW219767   1.705   0.516   6.479  1.0810 -0.2216  0.6018
 2769SOL     OW19768   1.193   4.149   4.764  0.3336  0.1718  0.3086
 2769SOL    HW119769   1.271   4.115   4.720 -0.4236 -0.3439 -0.6354
 2769SOL    HW219770   1.231   4.231   4.794  0.2093  0.5103 -0.4463
 2770SOL     OW19771   1.687   3.312   3.008  0.2936 -0.3451  1.0915
 2770SOL    HW119772   1.782   3.305   2.997  0.4170  2.3779  0.3148
 2770SOL    HW219773   1.666   3.219   3.019  0.0531  0.0493  3.9240
 2771SOL     OW19774   1.146   0.070   2.648  0.3835  0.2653 -1.5613
 2771SOL    HW119775   1.187   0.141   2.698 -1.4672  0.4642 -0.3156
 2771SOL    HW219776   1.084   0.112   2.589 -1.5284  0.4324  0.5494
 2772SOL     OW19777   4.185   3.480   1.758 -0.5250  0.3565  0.1379
 2772SOL    HW119778   4.136   3.545   1.706  1.0388  1.1743 -0.3113
 2772SOL    HW219779   4.207   3.421   1.685  1.9407  1.0614  0.3108
 2773SOL     OW19780   2.172   1.601   2.064 -0.2822  0.3447 -0.2892
 2773SOL    HW119781   2.164   1.682   2.114 -1.0728 -0.7975  1.4616
 2773SOL    HW219782   2.262   1.597   2.032  1.0226  1.1428  3.2259
 2774SOL     OW19783   0.843   0.187  11.717 -0.0881  0.2738 -0.5243
 2774SOL    HW119784   0.888   0.182  11.801 -2.8299  1.2269  0.9824
 2774SOL    HW219785   0.905   0.224  11.654 -1.2291  0.8699 -1.3127
 2775SOL     OW19786   3.435   2.536   8.253  0.2517  0.0616 -0.8056
 2775SOL    HW119787   3.359   2.509   8.201  1.3322 -3.6403 -0.4799
 2775SOL    HW219788   3.499   2.465   8.245  0.0495 -0.2890  0.5499
 2776SOL     OW19789   0.880   1.700  10.161 -0.2199 -0.3476 -0.4824
 2776SOL    HW119790   0.830   1.689  10.242  0.2208 -2.0077 -0.4333
 2776SOL    HW219791   0.944   1.761  10.196 -0.6916 -0.0927 -0.0685
 2777SOL     OW19792   1.546   2.860   7.500 -0.0925  0.1293  0.1353
 2777SOL    HW119793   1.614   2.857   7.567 -0.4846 -3.3304  0.3863
 2777SOL    HW219794   1.574   2.782   7.451 -0.3737 -0.5628  1.0735
 2778SOL     OW19795   2.605   0.266   3.945  0.6086 -0.0141 -0.7048
 2778SOL    HW119796   2.594   0.192   4.005 -0.4421  0.6636 -0.0480
 2778SOL    HW219797   2.631   0.223   3.864  3.2820  1.8770 -0.8373
 2779SOL     OW19798   3.267   1.814   1.076  0.3405  0.2151 -0.3245
 2779SOL    HW119799   3.303   1.888   1.028  1.5900  1.2408  2.1842
 2779SOL    HW219800   3.174   1.831   1.062 -0.7478 -3.0771  2.8956
 2780SOL     OW19801   3.419   3.162   6.262  0.5913 -0.7095 -0.1990
 2780SOL    HW119802   3.336   3.163   6.309  0.7209  1.5707 -0.0379
 2780SOL    HW219803   3.468   3.112   6.328 -0.2907 -1.3050  0.0147
 2781SOL     OW19804   0.013   3.094   6.252 -0.0582  0.1338  0.0264
 2781SOL    HW119805   0.018   3.074   6.345  0.5889 -1.4803 -0.3540
 2781SOL    HW219806   0.046   3.183   6.264 -0.1270  0.2295 -0.4643
 2782SOL     OW19807   4.166   3.291   8.189 -0.6135  0.0231 -0.0998
 2782SOL    HW119808   4.190   3.342   8.112 -2.1569 -0.2807 -0.7805
 2782SOL    HW219809   4.234   3.318   8.251 -2.6508 -0.7916  2.5005
 2783SOL     OW19810   3.973   3.318   3.415  0.0337  0.0171 -0.4095
 2783SOL    HW119811   4.067   3.302   3.424  0.2962  1.6138 -0.3482
 2783SOL    HW219812   3.939   3.239   3.456  0.1394  0.3811  0.3675
 2784SOL     OW19813   0.753   1.602  16.659  0.4604  0.0022  0.0087
 2784SOL    HW119814   0.721   1.692  16.655 -1.0411 -0.5084  0.3996
 2784SOL    HW219815   0.704   1.574  16.737  1.9547  0.4978  1.1193
 2785SOL     OW19816   4.648   4.269   5.770  0.1986 -0.0359  0.4844
 2785SOL    HW119817   0.018   4.269   5.760  0.1691  0.9625  0.2002
 2785SOL    HW219818   4.639   4.174   5.762  2.4497 -0.2605  0.5165
 2786SOL     OW19819   0.076   1.299   5.314 -0.2743  0.5391  0.3131
 2786SOL    HW119820   0.051   1.211   5.342  1.6764  0.0483  0.4574
 2786SOL    HW219821   0.144   1.324   5.375 -1.5357  2.0541  1.1053
 2787SOL     OW19822   1.622   2.892   2.550  0.4063 -0.1663  0.3596
 2787SOL    HW119823   1.630   2.983   2.523 -2.3906  0.0857  0.4349
 2787SOL    HW219824   1.539   2.863   2.512  0.4513  2.1695 -1.5209
 2788SOL     OW19825   4.393   3.173   3.752 -0.1146 -0.2811 -0.0539
 2788SOL    HW119826   4.367   3.248   3.805 -0.0664  1.0599 -1.9204
 2788SOL    HW219827   4.308   3.128   3.746 -1.0337  1.6039 -1.0579
 2789SOL     OW19828   3.442   0.146   3.252  0.2973  0.0973 -0.3773
 2789SOL    HW119829   3.428   0.196   3.172 -1.0316 -1.9782 -1.4413
 2789SOL    HW219830   3.412   0.063   3.216  2.2621 -1.5045  1.7251
 2790SOL     OW19831   1.678   1.435   6.981 -0.4197 -0.8015  0.2734
 2790SOL    HW119832   1.714   1.361   6.934  0.2778 -0.6775  0.6069
 2790SOL    HW219833   1.605   1.395   7.028  0.4133 -0.3973  1.9211
 2791SOL     OW19834   4.403   3.703   1.799 -0.3463 -0.1810 -0.3909
 2791SOL    HW119835   4.382   3.636   1.733 -2.0247 -0.2003  0.1729
 2791SOL    HW219836   4.314   3.737   1.808 -0.3757 -0.3302 -0.1191
 2792SOL     OW19837   1.883   0.723   9.235  0.8199 -0.3920  0.8369
 2792SOL    HW119838   1.874   0.788   9.165  0.4046 -0.9951  0.3112
 2792SOL    HW219839   1.801   0.680   9.209  1.1690 -2.6658  3.5766
 2793SOL     OW19840   3.810   0.725   4.517  0.7024  0.5129 -0.0072
 2793SOL    HW119841   3.760   0.788   4.466  0.3420 -0.7026 -1.1603
 2793SOL    HW219842   3.787   0.739   4.609  0.8222  0.7377 -0.0130
 2794SOL     OW19843   3.610   0.122   5.238  0.2485 -0.3023  0.4534
 2794SOL    HW119844   3.515   0.110   5.246  0.0025  0.3792 -1.4802
 2794SOL    HW219845   3.615   0.177   5.160 -1.4655 -1.1882 -0.2715
 2795SOL     OW19846   2.038   1.008   5.633 -0.4371 -0.0766  0.0241
 2795SOL    HW119847   2.124   0.966   5.633 -0.8697 -0.9711 -0.9984
 2795SOL    HW219848   2.035   1.069   5.559  0.4001  0.1769  0.2031
 2796SOL     OW19849   2.896   3.363  13.290 -0.3785  0.0078  0.0696
 2796SOL    HW119850   2.897   3.435  13.226  0.3185  1.0854  1.2854
 2796SOL    HW219851   2.965   3.311  13.249  0.4611 -0.3046  1.9209
 2797SOL     OW19852   3.613   4.417  15.820 -0.1902  0.0022  0.0582
 2797SOL    HW119853   3.645   4.356  15.887 -0.4480 -1.6238 -1.3012
 2797SOL    HW219854   3.546   4.372  15.769 -0.9505  0.4616  0.6574
 2798SOL     OW19855   0.508   2.404   2.612 -0.1601 -0.0880 -0.7093
 2798SOL    HW119856   0.422   2.408   2.655 -0.5880 -1.3043 -1.4489
 2798SOL    HW219857   0.559   2.337   2.658 -1.3096 -2.1910 -2.4999
 2799SOL     OW19858   3.532   0.019  15.997  0.0037  0.2576  0.3999
 2799SOL    HW119859   3.456   4.710  15.949 -1.8854  2.4179  1.8365
 2799SOL    HW219860   3.478   0.089  16.034 -0.8856 -0.1720 -0.0860
 2800SOL     OW19861   2.994   0.265  10.463 -0.5158  0.2454 -0.2910
 2800SOL    HW119862   3.064   0.316  10.504  0.2801  1.0485 -2.6634
 2800SOL    HW219863   2.925   0.279  10.528 -0.9009 -1.9843 -0.2117
 2801SOL     OW19864   3.058   3.203   6.260  0.1387  0.3778 -0.1184
 2801SOL    HW119865   3.061   3.115   6.297 -1.4693  0.2525 -0.2855
 2801SOL    HW219866   3.061   3.199   6.164  0.9815 -3.1447  0.0692
 2802SOL     OW19867   2.947   4.619  10.013  0.0750  0.0525  0.2189
 2802SOL    HW119868   3.011   4.598  10.081 -0.7167 -0.9410  0.6419
 2802SOL    HW219869   2.870   4.626  10.070 -2.2479  0.6164 -2.9990
 2803SOL     OW19870   2.693   0.236   6.565 -0.1187 -0.2221  0.0730
 2803SOL    HW119871   2.706   0.153   6.519 -1.6099 -1.1109  1.2931
 2803SOL    HW219872   2.783   0.264   6.580  0.3289 -1.1859 -0.7830
 2804SOL     OW19873   2.272   0.233  12.969  0.1804  0.5238 -0.3076
 2804SOL    HW119874   2.302   0.323  12.978 -0.8670  0.6240  2.4231
 2804SOL    HW219875   2.225   0.242  12.886  0.0840 -1.9767 -0.5286
 2805SOL     OW19876   1.426   2.662   4.550  0.1023  0.0841  0.6413
 2805SOL    HW119877   1.518   2.689   4.545  0.1737 -0.1249  0.8052
 2805SOL    HW219878   1.421   2.598   4.622  0.5480 -0.9675 -0.2659
 2806SOL     OW19879   2.163   3.803   3.485 -0.2302 -0.1077  0.1577
 2806SOL    HW119880   2.111   3.884   3.478  0.3524  0.0725 -2.0523
 2806SOL    HW219881   2.164   3.806   3.581 -0.1919  2.0160  0.0874
 2807SOL     OW19882   2.878   1.236  17.386  0.4067  0.0770 -0.0071
 2807SOL    HW119883   2.962   1.265  17.351 -1.1147 -0.5002 -4.0879
 2807SOL    HW219884   2.893   1.147  17.417 -2.8258 -0.4625 -0.0389
 2808SOL     OW19885   1.541   4.098   5.871  0.0361  0.8381  0.1203
 2808SOL    HW119886   1.592   4.018   5.883 -1.3197 -0.0537 -0.0424
 2808SOL    HW219887   1.450   4.068   5.861  0.5766 -0.9671  0.7290
 2809SOL     OW19888   0.742   1.151   4.883 -0.5363 -0.2076  0.3473
 2809SOL    HW119889   0.834   1.153   4.910 -0.4421  2.9902 -0.1888
 2809SOL    HW219890   0.734   1.066   4.840 -0.2408  0.7343 -1.5686
 2810SOL     OW19891   4.680   2.661   3.599  0.0376  0.3983  0.0702
 2810SOL    HW119892   4.619   2.663   3.525 -0.3595  2.4077  0.4455
 2810SOL    HW219893   0.033   2.696   3.556 -0.5235  0.6298 -0.7509
 2811SOL     OW19894   2.207   2.574   6.215 -0.2624  0.0699 -0.3482
 2811SOL    HW119895   2.139   2.510   6.233  1.8980 -2.1537 -0.1252
 2811SOL    HW219896   2.158   2.636   6.161 -0.1216 -0.6143 -1.2727
 2812SOL     OW19897   2.539   2.154   7.787  0.2239  0.1181  0.0254
 2812SOL    HW119898   2.466   2.214   7.804 -0.5730 -1.1505  1.0257
 2812SOL    HW219899   2.552   2.121   7.876  2.3855  2.0984  0.4650
 2813SOL     OW19900   4.059   1.481   0.391 -0.3014  0.3791  0.4929
 2813SOL    HW119901   3.977   1.493   0.343 -0.0985  1.2252  0.3589
 2813SOL    HW219902   4.073   1.574   0.410 -0.2885  0.1321  1.7125
 2814SOL     OW19903   1.512   0.091   0.286  0.2276  0.0438  0.3966
 2814SOL    HW119904   1.450   0.046   0.344 -0.4256 -1.3497 -1.3592
 2814SOL    HW219905   1.450   0.151   0.246  1.0393  0.1553 -0.7078
 2815SOL     OW19906   0.969   0.299  12.324  0.3452 -0.2250  0.3693
 2815SOL    HW119907   0.944   0.213  12.289  0.7803  0.0248 -0.5535
 2815SOL    HW219908   1.057   0.297  12.287  0.1066 -0.0349 -0.2081
 2816SOL     OW19909   0.055   4.575   4.255  0.2172  0.1557 -0.1942
 2816SOL    HW119910   4.695   4.618   4.262  0.0501 -0.4173  1.4201
 2816SOL    HW219911   0.060   4.533   4.170 -0.8065 -0.5432  0.0966
 2817SOL     OW19912   3.645   2.127   8.808  0.1404 -0.2700 -0.7258
 2817SOL    HW119913   3.610   2.205   8.764 -1.2826 -0.9311 -0.7647
 2817SOL    HW219914   3.569   2.102   8.861  0.7803 -1.8784 -0.5797
 2818SOL     OW19915   1.948   3.775   6.657 -0.6127 -0.0206  0.3301
 2818SOL    HW119916   2.009   3.818   6.596 -2.3209  2.1598  0.1897
 2818SOL    HW219917   1.884   3.846   6.659 -0.1843  0.3761  0.0999
 2819SOL     OW19918   3.368   0.376   0.035 -0.1589 -0.7312 -0.6490
 2819SOL    HW119919   3.386   0.371   0.129 -0.7975 -0.2786 -0.5096
 2819SOL    HW219920   3.375   0.469   0.012  2.1665 -1.1757 -1.8325
 2820SOL     OW19921   3.423   3.628  13.702 -0.4126  0.5039  0.7791
 2820SOL    HW119922   3.408   3.582  13.784  1.8684 -1.7698 -0.0868
 2820SOL    HW219923   3.512   3.604  13.678 -0.8778  0.4226 -0.8896
 2821SOL     OW19924   0.167   4.417   8.400 -0.3549  0.5491  0.7988
 2821SOL    HW119925   0.226   4.460   8.462  0.7124 -0.2514  0.3440
 2821SOL    HW219926   0.087   4.439   8.448 -1.4698 -3.1544  0.6574
 2822SOL     OW19927   1.843   2.645   8.048 -0.3725 -0.7407  0.3056
 2822SOL    HW119928   1.840   2.604   7.961  0.2872 -0.5049  0.1710
 2822SOL    HW219929   1.931   2.633   8.081 -0.2195 -2.4252 -0.6982
 2823SOL     OW19930   0.609   2.882   3.752 -0.7298  0.6669 -0.1077
 2823SOL    HW119931   0.653   2.805   3.789 -0.9073  1.0251  0.8546
 2823SOL    HW219932   0.587   2.930   3.832 -0.3531  2.7422 -1.2589
 2824SOL     OW19933   2.156   4.602   5.871  0.2200  0.2905 -0.4053
 2824SOL    HW119934   2.157   4.556   5.955  0.4796  0.4120 -0.3443
 2824SOL    HW219935   2.062   4.621   5.870 -0.1287 -1.2551  2.2827
 2825SOL     OW19936   3.572   0.533   5.580  0.5718 -0.4176 -0.0248
 2825SOL    HW119937   3.658   0.542   5.540 -0.2228  0.5460 -1.4883
 2825SOL    HW219938   3.598   0.565   5.667  0.1434 -1.1660  0.3715
 2826SOL     OW19939   3.070   1.348   3.726  0.2730  0.2862  0.2390
 2826SOL    HW119940   3.144   1.363   3.667  2.0152  4.8656  3.6341
 2826SOL    HW219941   3.091   1.256   3.745  1.8501  0.7547  0.8246
 2827SOL     OW19942   3.031   3.784  16.644 -0.0107 -0.2102 -0.4698
 2827SOL    HW119943   2.984   3.862  16.615 -1.5892 -0.5691  1.0792
 2827SOL    HW219944   2.967   3.740  16.701 -1.3947  2.0322 -0.2861
 2828SOL     OW19945   0.017   3.171   3.106 -0.3229 -0.6974 -0.0955
 2828SOL    HW119946   0.033   3.166   3.012  0.6592  0.6208  0.0005
 2828SOL    HW219947   4.701   3.257   3.106 -0.6730 -0.8638 -0.5971
 2829SOL     OW19948   0.992   3.995   5.450 -0.2363  1.0165  0.2975
 2829SOL    HW119949   0.985   4.068   5.389  2.4325  1.0204 -0.0050
 2829SOL    HW219950   0.908   4.011   5.493 -0.5701 -0.0841  0.0577
 2830SOL     OW19951   2.762   1.180   5.410  0.3927 -0.2794 -0.1301
 2830SOL    HW119952   2.752   1.178   5.505  1.4660 -0.5706 -0.0261
 2830SOL    HW219953   2.672   1.161   5.384  1.3222 -2.8143 -1.5276
 2831SOL     OW19954   2.128   0.095  17.694  0.5734  0.3356 -0.1646
 2831SOL    HW119955   2.052   0.134   0.037  2.1535  0.9853  1.9268
 2831SOL    HW219956   2.105   0.138  17.611  0.3974 -0.3173 -0.4547
 2832SOL     OW19957   4.245   1.975  15.967 -0.3960  0.3342  0.2115
 2832SOL    HW119958   4.285   1.917  16.031  1.1977  0.3370 -0.7832
 2832SOL    HW219959   4.205   2.043  16.021  1.8891  0.7165  1.4018
 2833SOL     OW19960   2.455   2.612  16.453  0.2864 -0.0303  0.2078
 2833SOL    HW119961   2.459   2.624  16.359  0.3165 -1.0040  0.0806
 2833SOL    HW219962   2.483   2.697  16.486 -1.5499  0.8093 -0.4284
 2834SOL     OW19963   4.250   4.415   4.965 -0.4171  0.2735  0.0467
 2834SOL    HW119964   4.262   4.320   4.964 -0.0340  0.3031  2.0974
 2834SOL    HW219965   4.294   4.432   5.048  0.9835 -1.5044 -0.3309
 2835SOL     OW19966   2.871   4.449  14.062  0.5615 -0.5245  0.4943
 2835SOL    HW119967   2.813   4.391  14.012  0.3049  1.8125 -1.9248
 2835SOL    HW219968   2.814   4.494  14.123  1.8025  0.7914  0.6755
 2836SOL     OW19969   1.447   3.613   7.657 -0.1059 -0.3096  0.1600
 2836SOL    HW119970   1.516   3.554   7.689  0.9980  1.2536  0.6998
 2836SOL    HW219971   1.427   3.652   7.742  0.1189 -2.4473  1.1811
 2837SOL     OW19972   1.685   1.132   2.893 -0.0932 -0.3677  0.0011
 2837SOL    HW119973   1.617   1.092   2.839 -0.5959  1.3046 -0.6040
 2837SOL    HW219974   1.640   1.213   2.916 -2.2606 -1.0565 -1.7805
 2838SOL     OW19975   3.315   2.281  14.140 -0.2664  0.4211  0.1515
 2838SOL    HW119976   3.244   2.277  14.075  1.6043 -1.4972 -1.7681
 2838SOL    HW219977   3.337   2.190  14.161  0.8630  0.2136 -1.8960
 2839SOL     OW19978   4.680   1.744   3.677  0.4452  0.4729 -0.0654
 2839SOL    HW119979   4.707   1.820   3.626 -1.7511  1.2153 -0.0931
 2839SOL    HW219980   4.610   1.705   3.625 -0.3317  0.4435  1.0168
 2840SOL     OW19981   1.391   2.242   1.251 -0.1019 -0.2989  0.5343
 2840SOL    HW119982   1.410   2.332   1.278  0.5312  0.4632 -2.4302
 2840SOL    HW219983   1.298   2.247   1.227 -0.4877 -0.1643  2.1080
 2841SOL     OW19984   3.007   3.354   4.267 -0.0096 -0.1016  0.4615
 2841SOL    HW119985   2.985   3.261   4.272 -1.5456  0.3215  1.6481
 2841SOL    HW219986   3.102   3.346   4.276  0.4123  0.9384 -3.0594
 2842SOL     OW19987   4.315   1.895  10.199 -0.0966 -0.5095  0.3779
 2842SOL    HW119988   4.271   1.849  10.127 -2.1947 -1.8804  2.5273
 2842SOL    HW219989   4.284   1.982  10.176 -0.2519  0.2577  3.4717
 2843SOL     OW19990   2.763   0.785   6.683 -0.2163 -0.1105  0.3776
 2843SOL    HW119991   2.854   0.791   6.711  0.2853 -1.1587 -1.0445
 2843SOL    HW219992   2.763   0.836   6.602 -2.8597 -0.7236 -0.0000
 2844SOL     OW19993   3.121   3.026   3.699  0.2879  0.3042 -0.6612
 2844SOL    HW119994   3.118   3.104   3.643  0.0794 -0.7147 -2.0583
 2844SOL    HW219995   3.049   3.034   3.761  0.7427  0.3275 -0.1345
 2845SOL     OW19996   3.038   1.645   0.305  0.9645 -0.3399 -0.3162
 2845SOL    HW119997   2.965   1.598   0.345  0.0983  0.8966 -0.4118
 2845SOL    HW219998   3.014   1.639   0.213 -2.7591  1.9287  0.4960
 2846SOL     OW19999   4.626   2.615  15.706 -0.1637 -0.1999  0.2702
 2846SOL    HW120000   4.605   2.700  15.667 -3.4922 -0.7259  0.8751
 2846SOL    HW220001   4.546   2.571  15.678 -0.8670  1.4224 -0.2845
 2847SOL     OW20002   0.908   4.000   8.210  0.3956  0.1450  0.2193
 2847SOL    HW120003   0.950   3.914   8.216 -0.8013 -0.2492  2.7472
 2847SOL    HW220004   0.873   4.023   8.296  2.6869  2.5559  0.4795
 2848SOL     OW20005   2.179   3.383   1.667 -0.3819 -0.3801 -0.2038
 2848SOL    HW120006   2.216   3.295   1.670 -0.7376 -0.5374 -0.4978
 2848SOL    HW220007   2.186   3.409   1.575 -0.2577  0.3633  0.0149
 2849SOL     OW20008   4.501   3.431   2.742 -0.0959 -0.5192 -0.4190
 2849SOL    HW120009   4.420   3.461   2.700  0.1526 -0.3398 -0.7671
 2849SOL    HW220010   4.559   3.506   2.729 -0.1674 -0.4243 -0.1824
 2850SOL     OW20011   2.106   1.074   2.832 -0.2163 -0.2166  0.1255
 2850SOL    HW120012   2.037   1.111   2.777  1.4666  3.0748  0.2133
 2850SOL    HW220013   2.182   1.122   2.800 -1.6672  2.2545  0.3508
 2851SOL     OW20014   1.147   1.456   9.317 -0.1487 -0.4815  0.0640
 2851SOL    HW120015   1.201   1.453   9.397 -1.8969  0.0078  1.2533
 2851SOL    HW220016   1.156   1.547   9.290 -1.2959 -0.5549 -0.5418
 2852SOL     OW20017   0.337   2.411   6.305 -0.5669 -0.4597  0.1961
 2852SOL    HW120018   0.347   2.505   6.319 -1.5788 -0.1536 -1.1943
 2852SOL    HW220019   0.247   2.400   6.336  0.5117  0.7027  3.7984
 2853SOL     OW20020   2.552   0.061   1.118  0.0086  0.2095 -0.5541
 2853SOL    HW120021   2.564   0.119   1.043  0.9801  1.6805  0.7559
 2853SOL    HW220022   2.624   0.067   1.180  1.5805  0.4809 -2.4265
 2854SOL     OW20023   2.762   3.288   5.107  0.1271  0.1741 -0.2047
 2854SOL    HW120024   2.854   3.291   5.133 -0.4515  1.1327  1.7174
 2854SOL    HW220025   2.771   3.211   5.050 -1.9048 -0.4565  0.3083
 2855SOL     OW20026   3.441   3.584   6.345  0.0524 -0.2243  0.1709
 2855SOL    HW120027   3.454   3.662   6.291  1.4747 -1.0535 -0.6958
 2855SOL    HW220028   3.494   3.525   6.292  1.3155  1.7816 -0.8372
 2856SOL     OW20029   0.200   0.887   8.752  0.8820  0.0540  0.5367
 2856SOL    HW120030   0.167   0.888   8.663  1.0063  1.4625  0.5203
 2856SOL    HW220031   0.249   0.804   8.749 -0.1561 -0.4604 -1.7616
 2857SOL     OW20032   4.474   1.638   3.506 -0.1433  0.5301  0.1769
 2857SOL    HW120033   4.393   1.651   3.458 -0.4075  0.1509  0.5213
 2857SOL    HW220034   4.525   1.577   3.453  1.7438  1.7410  0.5928
 2858SOL     OW20035   3.215   4.340   3.227 -0.2014  0.2765 -0.2825
 2858SOL    HW120036   3.183   4.425   3.258 -0.6845  0.0121 -0.0600
 2858SOL    HW220037   3.256   4.366   3.144  2.0344 -0.4544  0.5798
 2859SOL     OW20038   3.462   1.260   8.231 -0.2503  0.3658 -0.3381
 2859SOL    HW120039   3.401   1.308   8.287 -1.1673 -1.6142  0.3917
 2859SOL    HW220040   3.411   1.240   8.153  1.6510 -0.8717 -1.2578
 2860SOL     OW20041   4.118   4.069   4.847  0.5316 -0.0973  0.4536
 2860SOL    HW120042   4.132   4.132   4.777  1.8646 -0.0115  0.8099
 2860SOL    HW220043   4.087   4.124   4.919 -0.8306  1.0434 -1.0237
 2861SOL     OW20044   4.622   1.293  12.943 -0.8317 -0.1943 -0.1370
 2861SOL    HW120045   4.591   1.384  12.941  0.4577  0.1949 -2.0638
 2861SOL    HW220046   4.656   1.295  13.033 -0.3523  0.2435 -0.3307
 2862SOL     OW20047   0.503   2.524   7.450 -0.0470 -0.1108  0.0171
 2862SOL    HW120048   0.523   2.444   7.498 -0.7464 -1.5314 -2.0581
 2862SOL    HW220049   0.414   2.532   7.482 -0.5517  1.5207 -1.7312
 2863SOL     OW20050   1.697   1.479   5.645 -0.4602 -0.0498 -0.6329
 2863SOL    HW120051   1.608   1.461   5.616 -1.7340  0.6590  2.8522
 2863SOL    HW220052   1.737   1.491   5.559 -1.5856 -1.1749 -1.3210
 2864SOL     OW20053   2.825   0.255  14.283 -0.4078 -0.4112  0.0648
 2864SOL    HW120054   2.793   0.167  14.262 -1.3705  0.7171 -3.2015
 2864SOL    HW220055   2.844   0.245  14.376 -0.1805 -1.0569 -0.0463
 2865SOL     OW20056   4.199   0.879   5.663  0.1828  0.6298 -0.1038
 2865SOL    HW120057   4.283   0.888   5.707 -0.7707  1.8665  1.4833
 2865SOL    HW220058   4.169   0.970   5.658  1.7704  1.1942  0.8123
 2866SOL     OW20059   4.612   4.445   6.846  0.5622  0.2817 -0.2159
 2866SOL    HW120060   4.656   4.464   6.764  0.5571  0.7387 -0.1127
 2866SOL    HW220061   4.583   4.354   6.836  2.2691 -0.5872  2.6817
 2867SOL     OW20062   0.791   1.121   7.552  0.6660  0.4253  0.2028
 2867SOL    HW120063   0.740   1.040   7.551  2.0042 -0.4252  0.0524
 2867SOL    HW220064   0.885   1.104   7.541  0.3256  0.0133 -1.9381
 2868SOL     OW20065   3.095   3.840   7.400  0.2774  0.2376  0.4341
 2868SOL    HW120066   3.037   3.785   7.453 -0.4831  1.1483  0.5461
 2868SOL    HW220067   3.028   3.868   7.337  0.5473 -1.0352 -0.4189
 2869SOL     OW20068   1.036   3.136   9.173  0.4969  0.1138 -0.1190
 2869SOL    HW120069   0.958   3.143   9.228 -0.4148  1.0527 -1.5299
 2869SOL    HW220070   1.012   3.076   9.103 -0.8756  0.3489  0.1572
 2870SOL     OW20071   3.776   2.645   1.467  0.3498  0.2794 -0.5245
 2870SOL    HW120072   3.741   2.707   1.403 -2.2257 -0.2011  0.4082
 2870SOL    HW220073   3.704   2.662   1.528  0.4009 -1.0619 -0.0953
 2871SOL     OW20074   2.620   4.327   5.856  0.4808 -0.8298  0.0673
 2871SOL    HW120075   2.586   4.335   5.945 -1.3680  2.8390 -0.9638
 2871SOL    HW220076   2.706   4.294   5.880  0.3861 -1.1028  0.0263
 2872SOL     OW20077   3.228   4.077   7.561 -0.4604 -0.0764 -0.1927
 2872SOL    HW120078   3.175   4.017   7.612  0.5615 -0.6476  0.2063
 2872SOL    HW220079   3.182   4.159   7.574  0.3099  0.4323 -0.6449
 2873SOL     OW20080   1.387   1.850   7.468 -0.0518  0.4462  0.1516
 2873SOL    HW120081   1.425   1.818   7.385 -2.1733 -1.4344 -0.0896
 2873SOL    HW220082   1.316   1.786   7.472 -0.4275  0.6568 -2.8485
 2874SOL     OW20083   3.922   4.353  14.067 -0.7698  0.1969 -0.4086
 2874SOL    HW120084   3.960   4.420  14.010 -0.1277  0.5037  0.3946
 2874SOL    HW220085   3.953   4.393  14.148  0.3731  1.0655 -1.2633
 2875SOL     OW20086   4.579   1.102   2.996 -0.1867 -0.3491  0.7519
 2875SOL    HW120087   4.590   1.079   2.904  0.9748  0.7022  0.6190
 2875SOL    HW220088   4.487   1.076   3.003 -0.7789  0.9833 -1.9843
 2876SOL     OW20089   4.724   1.966   5.729 -0.5335 -0.2193  0.1725
 2876SOL    HW120090   0.002   1.997   5.819  0.7546 -1.0627  0.4245
 2876SOL    HW220091   4.692   2.041   5.678 -1.5984 -1.6478 -1.2738
 2877SOL     OW20092   3.923   4.411  17.549 -0.7214  0.0157  0.2406
 2877SOL    HW120093   3.960   4.448  17.469  0.2800 -1.7165 -0.0937
 2877SOL    HW220094   3.877   4.332  17.521  0.8422 -0.0046 -2.2115
 2878SOL     OW20095   2.258   4.102   3.511  0.3394  0.1980 -0.3512
 2878SOL    HW120096   2.169   4.070   3.495 -0.6889  2.3099  1.0879
 2878SOL    HW220097   2.260   4.105   3.607  3.7829 -1.1584 -0.3729
 2879SOL     OW20098   1.417   0.272  11.378  0.6567  0.2185 -0.3860
 2879SOL    HW120099   1.399   0.182  11.351  0.7866 -0.7726  2.8508
 2879SOL    HW220100   1.347   0.315  11.329  0.4267  1.9733  1.5181
 2880SOL     OW20101   4.362   1.736   0.295 -0.1190  0.0121 -0.2005
 2880SOL    HW120102   4.433   1.795   0.271  1.7116 -2.7557 -1.6327
 2880SOL    HW220103   4.278   1.779   0.280 -1.2863 -1.8758  0.7894
 2881SOL     OW20104   3.267   0.941   9.330 -0.8403  0.0403  0.4626
 2881SOL    HW120105   3.331   0.907   9.267 -1.7109 -2.2354  0.7906
 2881SOL    HW220106   3.183   0.916   9.291  0.5464  0.9398 -3.0963
 2882SOL     OW20107   4.441   1.847  16.113  0.0673  0.4427  0.1663
 2882SOL    HW120108   4.501   1.846  16.188  2.2102 -2.0481 -1.5864
 2882SOL    HW220109   4.463   1.760  16.078 -0.9812  0.6210 -0.9351
 2883SOL     OW20110   0.948   1.899   6.500 -0.3620  0.1454 -0.2920
 2883SOL    HW120111   0.918   1.961   6.433 -0.9257  1.1911  0.9236
 2883SOL    HW220112   1.031   1.942   6.522  0.0572 -0.7198 -0.1940
 2884SOL     OW20113   1.904   2.732   5.365  0.2275 -0.5803  0.6190
 2884SOL    HW120114   1.889   2.812   5.415 -2.4702  0.5749 -1.9992
 2884SOL    HW220115   1.919   2.758   5.274 -0.8630  0.4432  0.7286
 2885SOL     OW20116   4.619   2.915  11.283 -0.4398  0.1747 -0.3355
 2885SOL    HW120117   4.686   2.937  11.347  0.6134 -0.5662 -1.1898
 2885SOL    HW220118   4.608   2.823  11.310  0.1708 -0.1351 -1.1711
 2886SOL     OW20119   0.599   0.516   4.385 -0.4557 -0.2501 -0.2153
 2886SOL    HW120120   0.582   0.573   4.310  0.7641 -0.4635 -0.6636
 2886SOL    HW220121   0.539   0.443   4.371  0.1079 -0.7553 -0.0250
 2887SOL     OW20122   3.947   0.244  13.739  0.2444  0.0406  0.6475
 2887SOL    HW120123   3.865   0.246  13.788 -1.1354 -0.9456 -1.5713
 2887SOL    HW220124   4.009   0.305  13.778  1.7559 -1.3419  0.4251
 2888SOL     OW20125   1.842   2.468  11.839  0.2324 -0.1302 -0.4010
 2888SOL    HW120126   1.868   2.551  11.881 -1.9056  0.3868 -0.1110
 2888SOL    HW220127   1.905   2.474  11.767 -0.0793 -1.4464 -0.7723
 2889SOL     OW20128   3.579   3.031   8.605 -0.2322 -0.3464  0.2680
 2889SOL    HW120129   3.595   2.938   8.617 -0.0739 -0.4454 -0.6952
 2889SOL    HW220130   3.591   3.066   8.693  1.0402  2.4646 -1.0173
 2890SOL     OW20131   2.837   4.092   7.881 -0.0824 -0.1933 -0.5421
 2890SOL    HW120132   2.856   4.167   7.825 -1.4407 -0.5248 -1.4321
 2890SOL    HW220133   2.748   4.114   7.909 -0.0791  1.4448 -1.8060
 2891SOL     OW20134   3.933   4.126   8.923 -0.1392 -0.1130  0.0182
 2891SOL    HW120135   3.841   4.146   8.937 -0.3769 -1.8902  1.0018
 2891SOL    HW220136   3.975   4.203   8.962 -0.2189  0.9160 -1.9079
 2892SOL     OW20137   4.116   4.438   7.245  0.4558  0.2489  0.5159
 2892SOL    HW120138   4.149   4.512   7.194  0.0853  0.9304  1.2609
 2892SOL    HW220139   4.051   4.486   7.298  1.0832 -0.4260  1.8996
 2893SOL     OW20140   3.676   0.865   2.092  0.6730  0.0585  0.0422
 2893SOL    HW120141   3.764   0.828   2.103  0.4137  0.1558  2.5331
 2893SOL    HW220142   3.695   0.953   2.124  1.1989  0.2491 -0.8069
 2894SOL     OW20143   0.322   0.302  14.714 -0.5025  0.4567  0.4318
 2894SOL    HW120144   0.287   0.214  14.702  2.0732 -0.3431 -1.2979
 2894SOL    HW220145   0.265   0.348  14.653 -0.0237  0.5161  0.0278
 2895SOL     OW20146   0.884   2.435   3.702 -0.2827 -0.2707 -0.1529
 2895SOL    HW120147   0.927   2.375   3.642  1.3439  1.8466 -1.1099
 2895SOL    HW220148   0.817   2.477   3.648 -1.7341 -0.2756  1.6426
 2896SOL     OW20149   1.807   2.891   2.304  0.1292 -0.2259 -0.2152
 2896SOL    HW120150   1.773   2.838   2.375 -0.2857  2.1174  1.3473
 2896SOL    HW220151   1.841   2.971   2.343  0.1004  0.1701 -0.9905
 2897SOL     OW20152   0.399   2.362   5.123 -0.0109  0.4530 -0.4520
 2897SOL    HW120153   0.417   2.408   5.040 -2.0360  1.2419 -0.4392
 2897SOL    HW220154   0.475   2.305   5.135 -0.0580  0.7963  1.4429
 2898SOL     OW20155   2.685   1.597   8.052  1.0113  0.7023 -0.6505
 2898SOL    HW120156   2.684   1.503   8.071 -1.4049  0.8998  0.1839
 2898SOL    HW220157   2.591   1.613   8.057  1.0856 -0.1154  4.2042
 2899SOL     OW20158   1.901   2.445  11.149  0.6280  0.7703 -0.3862
 2899SOL    HW120159   1.913   2.437  11.055  0.5785 -3.7486  0.0110
 2899SOL    HW220160   1.989   2.474  11.173  0.1585  0.6678  1.5152
 2900SOL     OW20161   4.671   2.138  16.567  0.1335 -0.0736 -0.4242
 2900SOL    HW120162   4.684   2.227  16.533 -2.8134 -0.4204 -2.4459
 2900SOL    HW220163   4.600   2.105  16.511 -0.4107 -0.7841  0.6938
 2901SOL     OW20164   3.084   4.687   2.277  0.6315  0.3788 -0.1923
 2901SOL    HW120165   3.154   4.625   2.296 -0.9523 -1.7575 -1.4133
 2901SOL    HW220166   3.074   0.002   2.364  0.1432 -0.4164  0.1096
 2902SOL     OW20167   0.420   4.172   5.176 -0.3685 -0.6558  0.7636
 2902SOL    HW120168   0.404   4.101   5.114  0.6010 -0.6410  0.4974
 2902SOL    HW220169   0.498   4.141   5.221  1.1332  0.8752 -0.7427
 2903SOL     OW20170   4.000   4.168   4.201 -0.3570 -0.0479 -0.3877
 2903SOL    HW120171   4.045   4.135   4.123 -0.9269 -1.5327 -0.0979
 2903SOL    HW220172   4.064   4.153   4.270  0.5259 -0.0623 -1.2114
 2904SOL     OW20173   1.454   1.250   2.676 -0.0052  0.4152  0.0743
 2904SOL    HW120174   1.410   1.322   2.723 -1.9169 -1.5451  1.2863
 2904SOL    HW220175   1.491   1.303   2.605  0.2475  0.5671  0.3170
 2905SOL     OW20176   0.281   3.976   3.125 -0.4072 -0.1016 -0.3182
 2905SOL    HW120177   0.232   4.058   3.123  0.4218  0.3742 -1.0982
 2905SOL    HW220178   0.345   3.999   3.058  1.2062  0.8983  1.5744
 2906SOL     OW20179   3.752   0.931   7.344 -0.0421 -0.2820 -0.5395
 2906SOL    HW120180   3.769   0.846   7.302  0.7577 -0.7923  0.8219
 2906SOL    HW220181   3.739   0.902   7.434 -0.7474 -2.9227 -1.4911
 2907SOL     OW20182   2.649   2.635   9.119 -0.8754 -0.0353  0.0988
 2907SOL    HW120183   2.736   2.610   9.150 -0.8638 -1.1882 -0.8503
 2907SOL    HW220184   2.600   2.578   9.178 -0.3930  1.1346  1.6190
 2908SOL     OW20185   0.840   3.793  11.771 -0.2376  0.2793 -0.8671
 2908SOL    HW120186   0.903   3.864  11.779 -1.6842  1.6621 -1.8102
 2908SOL    HW220187   0.774   3.823  11.834  0.5228  0.5752 -0.2177
 2909SOL     OW20188   1.258   1.764   4.021  0.6932 -0.1152 -0.3064
 2909SOL    HW120189   1.252   1.859   4.032  1.0074 -0.2314  0.8480
 2909SOL    HW220190   1.215   1.742   4.103  1.4657  0.9356  0.3851
 2910SOL     OW20191   0.337   1.844   8.457 -0.0820  0.3910 -0.3889
 2910SOL    HW120192   0.294   1.807   8.380  0.3185 -2.5107  0.7727
 2910SOL    HW220193   0.277   1.913   8.487 -0.3140  0.0618 -0.0868
 2911SOL     OW20194   1.849   1.105   8.940  0.3465  0.2834 -0.0852
 2911SOL    HW120195   1.914   1.128   8.874  1.4551  0.0374  0.9254
 2911SOL    HW220196   1.778   1.162   8.909  1.6221  1.7429 -0.3002
 2912SOL     OW20197   0.290   1.594  11.906  0.1553  0.0951  0.4399
 2912SOL    HW120198   0.236   1.601  11.828  0.8110  0.4378  0.0181
 2912SOL    HW220199   0.346   1.670  11.893  1.4629 -1.0140 -0.4426
 2913SOL     OW20200   0.350   1.064   1.633 -0.7559 -0.5126  0.0941
 2913SOL    HW120201   0.258   1.091   1.639 -0.9319 -1.1311  0.1852
 2913SOL    HW220202   0.362   1.012   1.554  1.8405 -1.8014  1.3396
 2914SOL     OW20203   0.037   4.224   6.068 -0.3457 -0.0145  0.0647
 2914SOL    HW120204   0.114   4.242   6.014 -1.0814  0.0364 -0.9683
 2914SOL    HW220205   4.705   4.181   6.004  0.6251 -0.3910 -0.5472
 2915SOL     OW20206   1.137   1.565  10.802  0.6414  0.1128 -0.2989
 2915SOL    HW120207   1.144   1.475  10.770  1.5196 -0.0148  0.2717
 2915SOL    HW220208   1.139   1.553  10.896  1.3957 -1.0916 -0.4775
 2916SOL     OW20209   3.987   4.472   3.589  0.3102  0.0319 -0.1838
 2916SOL    HW120210   4.025   4.548   3.546 -1.9841  0.4258 -1.4522
 2916SOL    HW220211   3.908   4.519   3.614  1.1637  2.3978 -1.9663
 2917SOL     OW20212   0.887   1.962   2.379  0.1907  0.3151 -0.2063
 2917SOL    HW120213   0.912   2.052   2.398 -0.1626  0.1035  1.3523
 2917SOL    HW220214   0.820   1.965   2.311 -0.7072 -3.0883  0.4961
 2918SOL     OW20215   0.540   3.217   3.396 -0.1359 -0.2590 -0.0193
 2918SOL    HW120216   0.512   3.142   3.343 -2.1221  1.1166 -0.8762
 2918SOL    HW220217   0.575   3.283   3.336 -0.9381  0.2183  0.0427
 2919SOL     OW20218   0.786   3.098   4.425  0.0032 -0.1173  0.1024
 2919SOL    HW120219   0.829   3.081   4.509  0.8267  0.5892 -0.1684
 2919SOL    HW220220   0.708   3.142   4.458  0.4230  0.2371  0.6336
 2920SOL     OW20221   3.088   0.391   5.410  0.1202 -0.4616 -0.4304
 2920SOL    HW120222   3.118   0.348   5.331  0.4440 -1.4210  0.2132
 2920SOL    HW220223   3.153   0.457   5.434 -0.9390  1.2396 -2.2705
 2921SOL     OW20224   0.640   3.167   2.405  0.5219 -0.3416  0.0233
 2921SOL    HW120225   0.620   3.224   2.479 -1.1912 -0.6022 -0.2302
 2921SOL    HW220226   0.690   3.099   2.451 -0.8037 -0.7005  0.9383
 2922SOL     OW20227   3.443   0.991  14.818 -0.4224 -0.3654  0.4292
 2922SOL    HW120228   3.469   0.991  14.910  0.2983  2.5334  0.2281
 2922SOL    HW220229   3.401   0.906  14.809  1.1784 -0.9300 -1.7024
 2923SOL     OW20230   3.801   4.140  12.766 -0.0015  0.0215 -0.6174
 2923SOL    HW120231   3.720   4.107  12.803 -1.4050  2.8860 -1.1068
 2923SOL    HW220232   3.810   4.086  12.687  2.6180 -2.2065  1.1820
 2924SOL     OW20233   3.606   3.378   3.318  0.2577  0.0570 -0.2107
 2924SOL    HW120234   3.631   3.295   3.358  0.4867  0.2552  0.0555
 2924SOL    HW220235   3.590   3.432   3.395  0.8864  0.4621 -0.3624
 2925SOL     OW20236   0.255   1.431   8.681 -0.6001 -0.3328 -0.5802
 2925SOL    HW120237   0.321   1.497   8.705 -2.5784  1.0812  0.9505
 2925SOL    HW220238   0.308   1.351   8.684 -0.1240  0.0270  1.0818
 2926SOL     OW20239   1.139   1.165   2.360  0.2192  0.4749  0.0108
 2926SOL    HW120240   1.127   1.123   2.275  2.5514  2.5240 -1.3075
 2926SOL    HW220241   1.226   1.205   2.361  0.1630  0.6163 -0.8225
 2927SOL     OW20242   3.010   2.117   4.594 -0.1107 -0.4811 -0.0246
 2927SOL    HW120243   2.934   2.148   4.545 -0.5059 -2.6939 -0.8057
 2927SOL    HW220244   3.044   2.053   4.532  0.9204 -0.7838  0.8493
 2928SOL     OW20245   1.530   3.151   9.422 -0.6010  0.6761  0.4281
 2928SOL    HW120246   1.508   3.108   9.504  0.1392  1.6149  1.1288
 2928SOL    HW220247   1.596   3.091   9.386 -1.9216  0.3728 -1.4590
 2929SOL     OW20248   2.102   0.593   4.511  0.5407 -0.0663  0.1642
 2929SOL    HW120249   2.090   0.566   4.420  2.2041 -1.2510  0.2975
 2929SOL    HW220250   2.197   0.592   4.513  0.5591  0.2708 -0.5511
 2930SOL     OW20251   3.599   2.387   6.795  0.2052  0.1366  0.0238
 2930SOL    HW120252   3.585   2.293   6.809  0.3821  0.2156  0.7171
 2930SOL    HW220253   3.619   2.387   6.701  3.6679 -1.7063  0.7729
 2931SOL     OW20254   2.710   0.157   7.433 -0.3853 -0.4140 -0.5838
 2931SOL    HW120255   2.665   0.223   7.486 -1.5375  0.2486 -2.4113
 2931SOL    HW220256   2.674   0.078   7.472 -1.0504 -0.8096 -2.0064
 2932SOL     OW20257   2.878   0.108   6.770  0.2839 -0.1557 -0.0638
 2932SOL    HW120258   2.908   0.081   6.683 -0.9741 -1.6536 -0.0232
 2932SOL    HW220259   2.820   0.035   6.792  0.6792  0.6401  3.5471
 2933SOL     OW20260   0.367   3.036   9.784 -0.3941 -0.4658 -0.2284
 2933SOL    HW120261   0.400   2.956   9.742  2.4315 -0.2068  1.4798
 2933SOL    HW220262   0.273   3.021   9.793 -0.4822  0.0714 -0.2545
 2934SOL     OW20263   3.172   2.555  11.227  0.0046  0.6056  0.0832
 2934SOL    HW120264   3.111   2.626  11.206 -0.4141  1.1193  3.0088
 2934SOL    HW220265   3.136   2.479  11.182 -0.5746  1.5674 -1.0896
 2935SOL     OW20266   3.209   2.633   2.469  0.1213  0.0112 -0.4512
 2935SOL    HW120267   3.260   2.670   2.396  0.6716 -1.1212 -0.6454
 2935SOL    HW220268   3.272   2.636   2.541  0.5971  1.7249 -0.9459
 2936SOL     OW20269   2.416   1.059   2.717  0.4955  0.3307 -0.4970
 2936SOL    HW120270   2.348   1.126   2.722  1.7020  1.4875  0.5522
 2936SOL    HW220271   2.475   1.106   2.776  0.5933 -1.2161  0.6608
 2937SOL     OW20272   3.023   0.966  13.681  0.1567  0.0536  0.0167
 2937SOL    HW120273   3.111   0.969  13.643  0.4895  1.6029  0.9064
 2937SOL    HW220274   2.989   1.048  13.645  0.3394  1.4038  2.9374
 2938SOL     OW20275   2.222   3.513   6.022 -0.1673  0.2307 -0.3560
 2938SOL    HW120276   2.208   3.426   5.984  0.0587  1.1684 -2.5492
 2938SOL    HW220277   2.313   3.506   6.049  0.0261  1.8219 -0.6316
 2939SOL     OW20278   4.016   4.533   4.099 -0.2121  0.0733  0.3640
 2939SOL    HW120279   4.044   4.502   4.185 -1.1294 -0.9374  0.2939
 2939SOL    HW220280   3.928   4.495   4.105 -1.0825  1.7433 -1.8873
 2940SOL     OW20281   4.298   3.265   6.902 -0.4027 -0.0912  0.2342
 2940SOL    HW120282   4.265   3.194   6.958 -1.0097 -0.9982 -1.2751
 2940SOL    HW220283   4.392   3.251   6.911 -0.5048 -0.5727  0.5885
 2941SOL     OW20284   3.236   0.139  17.037 -0.8535  0.0437  0.1611
 2941SOL    HW120285   3.151   0.101  17.060 -0.5165 -1.4362 -1.0259
 2941SOL    HW220286   3.274   0.062  16.994 -2.0375  0.0808 -0.9710
 2942SOL     OW20287   3.753   2.627   5.404 -0.4035  0.2284 -0.6067
 2942SOL    HW120288   3.671   2.595   5.367  0.1419  1.0377 -2.5348
 2942SOL    HW220289   3.764   2.717   5.372  1.0709  0.0218 -0.6910
 2943SOL     OW20290   2.188   2.842   6.719  0.2790 -0.2590  0.6232
 2943SOL    HW120291   2.210   2.847   6.626  1.2149 -1.7836  0.7610
 2943SOL    HW220292   2.237   2.763   6.744  0.1366 -0.1814  1.1559
 2944SOL     OW20293   2.456   3.247   2.679  0.4943  0.5846 -0.1953
 2944SOL    HW120294   2.430   3.339   2.681 -2.4138 -0.2309 -1.2550
 2944SOL    HW220295   2.502   3.252   2.763  0.6905  1.6579 -0.3662
 2945SOL     OW20296   3.650   4.611   4.748 -0.7154 -0.3942 -0.0267
 2945SOL    HW120297   3.669   4.702   4.771 -0.6340 -0.4186  0.0024
 2945SOL    HW220298   3.671   4.571   4.832 -0.9558 -0.5068 -0.0199
 2946SOL     OW20299   0.914   3.167   3.412  0.1554  0.2071 -0.3137
 2946SOL    HW120300   0.841   3.205   3.459 -0.5656 -1.3256 -0.1796
 2946SOL    HW220301   0.933   3.227   3.340 -0.6204  1.0152  0.1674
 2947SOL     OW20302   2.032   0.709  10.165 -0.0642 -0.3386  0.0003
 2947SOL    HW120303   2.074   0.774  10.107  0.3098 -0.1384  0.4889
 2947SOL    HW220304   2.072   0.630  10.127 -1.9727 -1.2792 -0.0142
 2948SOL     OW20305   0.964   4.596   6.873 -0.2887  0.3635 -0.3961
 2948SOL    HW120306   0.932   4.660   6.936  0.2942  0.5116 -0.2449
 2948SOL    HW220307   0.912   4.524   6.908 -2.9599  1.4955 -2.0205
 2949SOL     OW20308   2.201   0.366   3.685 -0.3308  0.5336  0.2888
 2949SOL    HW120309   2.181   0.407   3.601  0.3722 -0.7437 -0.4891
 2949SOL    HW220310   2.120   0.388   3.731  1.3204  2.9598  2.0826
 2950SOL     OW20311   0.332   3.641  10.907 -1.0766 -0.1488  0.0653
 2950SOL    HW120312   0.399   3.647  10.975 -1.8634  2.1561  0.6284
 2950SOL    HW220313   0.249   3.636  10.954 -0.3282  0.3353  1.4461
 2951SOL     OW20314   2.719   3.404   5.906 -0.1788  0.3206  0.0518
 2951SOL    HW120315   2.768   3.424   5.985 -0.2587  0.2806  0.1122
 2951SOL    HW220316   2.720   3.309   5.915 -2.2426  0.1864 -1.1131
 2952SOL     OW20317   1.478   0.921  17.338 -0.5169  0.0571  0.6059
 2952SOL    HW120318   1.543   0.938  17.407  0.6062  0.0217 -0.4431
 2952SOL    HW220319   1.470   0.829  17.362  0.5855  0.0829  1.0738
 2953SOL     OW20320   4.032   3.107  17.339  0.5776  0.0289  0.3380
 2953SOL    HW120321   4.030   3.191  17.293  1.1395 -2.1460 -3.7069
 2953SOL    HW220322   4.017   3.142  17.426  1.2424  2.7232 -0.6413
 2954SOL     OW20323   4.708   2.862   9.398 -0.2290 -0.6144 -0.2934
 2954SOL    HW120324   4.715   2.951   9.366 -0.7192 -0.8883 -1.1618
 2954SOL    HW220325   0.057   2.858   9.459 -0.0653  1.5011 -0.3848
 2955SOL     OW20326   0.975   4.047  11.809  0.1096  0.0630 -0.1883
 2955SOL    HW120327   0.913   4.065  11.880  1.2132 -0.9760  1.0474
 2955SOL    HW220328   0.958   4.112  11.742 -1.1165  0.8683  0.8992
 2956SOL     OW20329   0.028   4.395  10.685 -0.3307  0.5145  0.5950
 2956SOL    HW120330   0.121   4.387  10.665 -0.7443 -1.3219 -0.5748
 2956SOL    HW220331   0.002   4.309  10.719 -1.2512  0.6601  0.2648
 2957SOL     OW20332   1.430   2.883   4.138  0.3246  0.7447  0.1425
 2957SOL    HW120333   1.502   2.945   4.145 -0.9253  2.2465 -0.2099
 2957SOL    HW220334   1.397   2.891   4.049  3.9577  0.2614 -1.1988
 2958SOL     OW20335   4.691   0.527  15.374 -0.3052 -0.0834  0.2689
 2958SOL    HW120336   4.720   0.554  15.461  2.4176  0.7831 -0.9151
 2958SOL    HW220337   4.624   0.463  15.398 -0.9794  0.6537  0.3779
 2959SOL     OW20338   4.353   3.549   9.120  0.4987 -0.0100 -0.5645
 2959SOL    HW120339   4.308   3.624   9.082  0.7850  0.9599  1.0349
 2959SOL    HW220340   4.276   3.494   9.131 -0.3134  1.8151  2.7527
 2960SOL     OW20341   3.505   2.346   3.260 -0.1121 -0.3748  0.0334
 2960SOL    HW120342   3.565   2.273   3.278  1.4550  0.8962 -0.0457
 2960SOL    HW220343   3.499   2.349   3.164  1.7516  1.0710 -0.0353
 2961SOL     OW20344   0.119   3.376   6.688  0.3587 -0.6566  0.2619
 2961SOL    HW120345   0.055   3.440   6.719  0.5651 -0.6677  0.7091
 2961SOL    HW220346   0.062   3.309   6.650 -1.0056 -1.0774  2.9974
 2962SOL     OW20347   1.016   0.802   2.899  0.5126 -0.0971 -0.0972
 2962SOL    HW120348   0.969   0.824   2.979 -1.6347 -1.2484 -1.0628
 2962SOL    HW220349   0.978   0.862   2.835  2.8873  3.4587  1.7916
 2963SOL     OW20350   0.914   2.203  12.815  0.3833  0.4857  0.0560
 2963SOL    HW120351   0.964   2.139  12.865 -0.2340 -1.3803 -1.7240
 2963SOL    HW220352   0.884   2.154  12.739 -1.5543  0.2295  0.9755
 2964SOL     OW20353   0.614   3.104   7.051 -0.6641 -0.3456  0.7695
 2964SOL    HW120354   0.615   3.011   7.030  0.1466 -0.3290  0.7320
 2964SOL    HW220355   0.551   3.134   6.986 -0.2148 -0.1491  0.4244
 2965SOL     OW20356   2.231   2.059  12.260 -0.5493  0.0298 -0.1654
 2965SOL    HW120357   2.314   2.065  12.213 -1.8322  1.0888 -2.2848
 2965SOL    HW220358   2.182   2.017  12.189  1.0487 -0.9608 -0.6776
 2966SOL     OW20359   0.240   3.943   9.005  0.3692  0.1963  0.3064
 2966SOL    HW120360   0.235   3.873   8.939  1.2549  0.7478 -0.3408
 2966SOL    HW220361   0.249   3.894   9.087 -1.1561 -1.7053 -0.6529
 2967SOL     OW20362   4.442   1.447   1.887  0.2810 -0.8608 -0.1938
 2967SOL    HW120363   4.352   1.420   1.869  0.3292 -0.8545 -0.4398
 2967SOL    HW220364   4.481   1.469   1.802  2.2180  0.0205  0.9123
 2968SOL     OW20365   4.176   2.320   6.601 -0.2642  0.0255 -0.6784
 2968SOL    HW120366   4.123   2.276   6.667  1.6493 -1.5586 -0.1875
 2968SOL    HW220367   4.143   2.408   6.616  1.0699  0.3283  0.4625
 2969SOL     OW20368   4.233   0.257   3.654  0.0689 -0.3009 -0.1084
 2969SOL    HW120369   4.272   0.319   3.716 -0.5664 -0.6473  0.6381
 2969SOL    HW220370   4.154   0.222   3.694 -0.7767  0.6186 -0.9732
 2970SOL     OW20371   3.236   4.639   0.728  0.1469 -0.4756 -0.0011
 2970SOL    HW120372   3.264   4.714   0.676 -1.7053  0.3606  0.2149
 2970SOL    HW220373   3.312   4.649   0.786  1.2684  0.7257 -1.6581
 2971SOL     OW20374   1.538   3.727  15.213 -0.0317  0.1095 -0.3987
 2971SOL    HW120375   1.563   3.808  15.169 -2.2131  1.6381  1.2411
 2971SOL    HW220376   1.540   3.669  15.136  1.6927 -0.4483  0.0731
 2972SOL     OW20377   1.142   4.033   1.430 -0.5094  0.2151 -0.6371
 2972SOL    HW120378   1.105   3.956   1.472 -2.2987  1.6519  0.4591
 2972SOL    HW220379   1.224   3.992   1.403 -1.9908 -1.0903 -3.1091
 2973SOL     OW20380   2.164   1.691   4.883 -0.0261  0.2170 -0.7313
 2973SOL    HW120381   2.069   1.679   4.884  0.2659 -2.0621 -0.0416
 2973SOL    HW220382   2.170   1.784   4.860 -2.1866  0.8455  1.2665
 2974SOL     OW20383   1.577   2.739   6.475 -0.5924  0.0889  0.4899
 2974SOL    HW120384   1.600   2.761   6.566  1.3283 -1.8049  0.4648
 2974SOL    HW220385   1.501   2.797   6.469 -0.8101 -0.1529  0.8629
 2975SOL     OW20386   1.944   0.070   4.445  0.3546 -0.5625 -0.2622
 2975SOL    HW120387   1.848   0.070   4.440  0.2712  1.7754  1.4294
 2975SOL    HW220388   1.974   0.160   4.436 -1.0064 -0.1907 -1.0790
 2976SOL     OW20389   1.205   2.288   4.348 -0.5003 -0.5354  0.7783
 2976SOL    HW120390   1.260   2.366   4.348 -3.2483  1.4260 -1.6187
 2976SOL    HW220391   1.115   2.320   4.355  0.0858  1.5729 -1.0273
 2977SOL     OW20392   3.688   4.519   7.932  0.5504 -0.7280 -0.4530
 2977SOL    HW120393   3.633   4.505   8.009 -0.4559 -0.1897 -1.0804
 2977SOL    HW220394   3.696   4.614   7.927 -1.8853 -0.5236 -0.2696
 2978SOL     OW20395   3.948   1.101  16.926  0.5036  0.1663  0.1029
 2978SOL    HW120396   3.966   1.194  16.943  3.3681 -0.3357 -0.1374
 2978SOL    HW220397   4.013   1.090  16.857  1.2394 -1.2825  1.0358
 2979SOL     OW20398   1.828   1.300  15.794  0.1918  0.5728  0.6101
 2979SOL    HW120399   1.743   1.299  15.837 -0.6202 -2.4058 -1.0380
 2979SOL    HW220400   1.833   1.205  15.788  1.5688  0.7657 -1.8081
 2980SOL     OW20401   3.145   4.035   5.492 -0.3205 -0.7040 -0.4395
 2980SOL    HW120402   3.111   4.074   5.412  0.6579 -1.7672 -1.3578
 2980SOL    HW220403   3.228   4.005   5.456  0.9089  1.3336  0.6668
 2981SOL     OW20404   0.552   1.056   5.231 -0.3916 -0.4253 -0.3019
 2981SOL    HW120405   0.598   1.139   5.228  1.5681 -1.6136 -3.7365
 2981SOL    HW220406   0.620   0.991   5.213 -0.7909 -1.2521  1.1145
 2982SOL     OW20407   3.875   2.101   4.933 -0.0124 -0.4053  1.1402
 2982SOL    HW120408   3.860   2.175   4.992 -0.1531 -0.2390  0.8991
 2982SOL    HW220409   3.966   2.111   4.905 -0.2694  2.8746  1.4749
 2983SOL     OW20410   3.392   1.462  10.952  0.1080  0.2926 -0.4429
 2983SOL    HW120411   3.301   1.489  10.939  0.0741  0.5947  0.3960
 2983SOL    HW220412   3.389   1.396  10.883 -1.5515  0.4741 -0.5579
 2984SOL     OW20413   0.358   1.431   2.893 -0.1849 -0.2401  0.1192
 2984SOL    HW120414   0.428   1.396   2.838 -1.4471 -1.3982 -0.7711
 2984SOL    HW220415   0.290   1.364   2.879  0.4185 -1.0088  0.8591
 2985SOL     OW20416   4.424   3.891   3.540 -0.2966 -0.0495 -0.1694
 2985SOL    HW120417   4.514   3.923   3.538  0.1227 -1.3913 -2.2115
 2985SOL    HW220418   4.379   3.956   3.594  1.2441  1.1293 -0.3170
 2986SOL     OW20419   0.481   4.198   5.750  0.1723  0.1595  0.0140
 2986SOL    HW120420   0.550   4.226   5.690  0.4745 -0.2927  0.1591
 2986SOL    HW220421   0.509   4.115   5.788  0.5433  1.5622  2.7471
 2987SOL     OW20422   4.315   2.211   9.444  0.1623  0.1240 -0.1417
 2987SOL    HW120423   4.361   2.155   9.506 -0.8019  0.3064  0.7472
 2987SOL    HW220424   4.314   2.155   9.367  4.1949 -1.5298  0.9925
 2988SOL     OW20425   3.449   3.126   5.969  1.0279  0.4924 -0.4749
 2988SOL    HW120426   3.439   3.135   6.064 -0.3962  0.8235 -0.6579
 2988SOL    HW220427   3.501   3.046   5.966 -0.6659 -0.6246  0.2161
 2989SOL     OW20428   1.151   2.720   4.881 -0.4962  0.4393 -0.6041
 2989SOL    HW120429   1.228   2.673   4.849 -1.2557 -1.4862  0.4503
 2989SOL    HW220430   1.134   2.779   4.807 -1.7385  1.9100  0.8660
 2990SOL     OW20431   0.268   3.860   8.365 -0.5732  0.4688 -0.5110
 2990SOL    HW120432   0.220   3.851   8.282 -2.4094  1.4911  0.4448
 2990SOL    HW220433   0.293   3.952   8.368  1.0696 -0.0372  1.4311
 2991SOL     OW20434   0.507   3.761   5.515  0.2806  0.1490  0.3141
 2991SOL    HW120435   0.527   3.807   5.434 -0.8924 -2.1730 -1.3299
 2991SOL    HW220436   0.443   3.696   5.483 -1.2854  2.8695 -2.0730
 2992SOL     OW20437   0.119   2.403   9.143 -0.4023  0.1730 -0.3353
 2992SOL    HW120438   0.062   2.402   9.220  1.7621 -2.9846  1.2102
 2992SOL    HW220439   0.195   2.447   9.179 -0.8939 -0.2040  1.1724
 2993SOL     OW20440   2.034   0.752  16.639  0.2497  0.2863  0.6502
 2993SOL    HW120441   2.104   0.691  16.658  2.0612  1.8968 -0.8602
 2993SOL    HW220442   1.986   0.715  16.565  2.6350 -0.6075 -0.4397
 2994SOL     OW20443   4.277   2.436   8.013 -0.0116  0.1128  0.1886
 2994SOL    HW120444   4.296   2.343   8.003 -0.2566 -0.0188  0.9161
 2994SOL    HW220445   4.195   2.430   8.062 -1.2799  0.5459 -1.9037
 2995SOL     OW20446   3.401   2.868   5.410  0.4168  0.3571 -0.4469
 2995SOL    HW120447   3.349   2.845   5.333  1.5100 -1.7252 -0.5555
 2995SOL    HW220448   3.480   2.815   5.400 -0.5822 -1.6716  2.8138
 2996SOL     OW20449   1.098   4.660   8.000  0.3634  0.2825  0.3237
 2996SOL    HW120450   1.145   0.001   8.050  0.9858  0.1680 -0.1071
 2996SOL    HW220451   1.010   4.677   8.033  0.5014 -0.1199  0.9165
 2997SOL     OW20452   0.954   2.719   4.184  0.0897 -0.7314  0.3041
 2997SOL    HW120453   0.883   2.664   4.150  0.6670 -0.9893 -0.4984
 2997SOL    HW220454   1.032   2.676   4.149 -1.3021 -1.0931 -2.4109
 2998SOL     OW20455   2.338   1.195   4.741 -0.2195  0.0676 -0.3936
 2998SOL    HW120456   2.275   1.181   4.812 -1.2782 -2.0595 -1.7430
 2998SOL    HW220457   2.283   1.236   4.674 -0.1321  0.1157 -0.4367
 2999SOL     OW20458   2.502   1.954   4.839  0.0705  0.0648 -0.4152
 2999SOL    HW120459   2.583   1.995   4.809 -1.1439  1.9904 -1.0499
 2999SOL    HW220460   2.529   1.864   4.859  0.6350  0.3691  0.1967
 3000SOL     OW20461   3.861   2.088   9.009  0.2235  0.6424  0.1215
 3000SOL    HW120462   3.895   2.177   9.009 -0.8220  1.0447 -0.2069
 3000SOL    HW220463   3.771   2.113   8.988 -1.3229 -3.0700  2.3042
 3001SOL     OW20464   3.783   4.248   6.710  0.1094 -0.2857  0.5158
 3001SOL    HW120465   3.816   4.225   6.623 -2.9072  0.5983 -0.8418
 3001SOL    HW220466   3.690   4.239   6.692  0.5185 -1.4549 -1.0417
 3002SOL     OW20467   3.307   0.145   2.390 -0.1698 -0.5461 -0.2830
 3002SOL    HW120468   3.313   0.070   2.330 -0.9456  1.7059 -3.1696
 3002SOL    HW220469   3.286   0.220   2.335 -1.7503 -0.4951  0.3773
 3003SOL     OW20470   3.689   3.691  14.383  0.3587  0.1914 -0.4162
 3003SOL    HW120471   3.727   3.688  14.471 -0.8441 -2.9724 -0.0052
 3003SOL    HW220472   3.745   3.629  14.337 -0.9534 -1.3527  0.0841
 3004SOL     OW20473   4.058   1.324   8.053 -0.1280 -0.2796  0.3584
 3004SOL    HW120474   3.975   1.339   8.098 -0.9784 -2.1345 -0.5970
 3004SOL    HW220475   4.115   1.281   8.117  0.9912  0.9704  0.1997
 3005SOL     OW20476   0.026   4.333  14.934  0.1004 -0.1207  0.8793
 3005SOL    HW120477   0.038   4.260  14.874  0.7917  0.9417 -0.2709
 3005SOL    HW220478   4.662   4.315  14.963  0.1227  3.1601  2.9978
 3006SOL     OW20479   4.222   2.836  16.970  0.0517  0.1189 -0.8252
 3006SOL    HW120480   4.216   2.931  16.971 -1.0053  0.0144  3.2622
 3006SOL    HW220481   4.290   2.829  16.904  0.4916  0.2196 -0.3796
 3007SOL     OW20482   3.690   1.197   7.277 -0.3763  0.4373  0.2137
 3007SOL    HW120483   3.703   1.103   7.281 -1.4718  0.3652  2.6001
 3007SOL    HW220484   3.765   1.223   7.329 -0.2174 -1.5188  0.9654
 3008SOL     OW20485   3.610   1.953   1.203 -0.2841  0.1616 -0.1102
 3008SOL    HW120486   3.675   2.014   1.167  0.3857 -1.0484 -0.9481
 3008SOL    HW220487   3.532   2.008   1.199 -0.1083  0.2784 -2.0598
 3009SOL     OW20488   1.128   2.323   8.507  0.0093 -0.0012 -0.0592
 3009SOL    HW120489   1.175   2.386   8.561 -0.9721  0.4361  0.2968
 3009SOL    HW220490   1.199   2.300   8.447  0.6042  1.9070 -0.0585
 3010SOL     OW20491   4.518   2.351  10.439 -0.3331  0.6138 -0.0815
 3010SOL    HW120492   4.525   2.336  10.533  0.4364  1.8770  0.0732
 3010SOL    HW220493   4.538   2.445  10.441  0.1448  0.4982  0.4789
 3011SOL     OW20494   0.194   1.770   9.171  0.7369  0.1719  0.1988
 3011SOL    HW120495   0.193   1.786   9.265  0.8914  1.0414  0.0568
 3011SOL    HW220496   0.255   1.701   9.148  0.5587  1.0956 -3.1021
 3012SOL     OW20497   2.556   3.741  12.016 -0.1738 -0.4550 -0.0081
 3012SOL    HW120498   2.493   3.685  12.061  1.9103 -0.7456  2.4884
 3012SOL    HW220499   2.541   3.710  11.926  0.1021 -1.3069  0.2396
 3013SOL     OW20500   4.499   2.085   9.633  0.7558  0.1184  0.5291
 3013SOL    HW120501   4.490   2.077   9.728 -2.8766 -0.4563  0.1608
 3013SOL    HW220502   4.552   2.008   9.614  1.6313  1.0272 -0.7202
 3014SOL     OW20503   1.745   2.385   2.864  0.8783 -0.1075  0.1467
 3014SOL    HW120504   1.837   2.387   2.837  0.0889 -0.6376 -2.6253
 3014SOL    HW220505   1.704   2.332   2.795 -0.4637 -0.1901  1.0053
 3015SOL     OW20506   0.416   2.916   1.875 -0.1199 -0.0156 -0.6777
 3015SOL    HW120507   0.418   2.983   1.807 -0.0137  1.2167  0.5461
 3015SOL    HW220508   0.323   2.892   1.877 -0.3978  1.0991 -0.5578
 3016SOL     OW20509   3.948   3.320   6.953  0.3454  0.0710 -0.1655
 3016SOL    HW120510   3.872   3.377   6.964 -0.5485 -0.9096 -1.3300
 3016SOL    HW220511   3.964   3.300   7.045 -0.2370 -2.3088 -0.5814
 3017SOL     OW20512   1.572   1.082   0.569  0.1745  0.5431 -0.3714
 3017SOL    HW120513   1.553   1.027   0.645  1.4414  1.9356  0.9341
 3017SOL    HW220514   1.481   1.087   0.538  0.0597  0.2331 -0.0954
 3018SOL     OW20515   4.691   2.360   4.622  0.3321  0.5789 -0.3015
 3018SOL    HW120516   0.013   2.439   4.650 -0.3117 -0.2796  3.2501
 3018SOL    HW220517   0.008   2.343   4.538 -0.0635 -0.3176 -0.3206
 3019SOL     OW20518   4.122   2.248   2.701  0.2220 -0.1593  0.0449
 3019SOL    HW120519   4.072   2.241   2.783 -0.3383 -0.7014 -0.3463
 3019SOL    HW220520   4.057   2.256   2.630 -0.2168 -1.7487  0.2830
 3020SOL     OW20521   2.738   3.070   7.753 -0.2248  0.0354  0.4577
 3020SOL    HW120522   2.713   3.090   7.663 -0.6423  2.2306  1.0595
 3020SOL    HW220523   2.805   3.003   7.738 -1.1555 -1.1590  1.6399
 3021SOL     OW20524   1.319   4.390   3.130  0.1975  0.3539  0.0287
 3021SOL    HW120525   1.357   4.454   3.070 -0.4897 -1.1591 -2.0091
 3021SOL    HW220526   1.335   4.306   3.086  1.2613  0.6260 -0.1084
 3022SOL     OW20527   3.119   2.357   4.530  0.1575  0.1054 -0.2477
 3022SOL    HW120528   3.077   2.279   4.566  0.3393  0.8838  1.6562
 3022SOL    HW220529   3.168   2.383   4.608 -0.2740  4.2486 -1.3613
 3023SOL     OW20530   3.727   0.411   2.541 -0.2307  0.0054 -0.4046
 3023SOL    HW120531   3.693   0.455   2.463 -0.6366  0.5277  0.0590
 3023SOL    HW220532   3.710   0.319   2.524  3.8839 -0.7651 -0.2699
 3024SOL     OW20533   1.313   4.603   8.683 -0.3028  0.1708 -0.0129
 3024SOL    HW120534   1.234   4.608   8.737  0.7797 -1.2252  1.6924
 3024SOL    HW220535   1.276   4.591   8.596  0.7444 -0.4948 -0.3582
 3025SOL     OW20536   2.363   1.359   6.224 -0.1167  0.1442 -0.7089
 3025SOL    HW120537   2.449   1.356   6.265  0.7104 -1.8434 -2.5907
 3025SOL    HW220538   2.305   1.388   6.295 -0.5860 -0.8717 -0.6650
 3026SOL     OW20539   1.835   3.017   5.157 -0.8717 -0.6369  0.4924
 3026SOL    HW120540   1.836   3.065   5.075  1.6770 -2.2254 -0.4201
 3026SOL    HW220541   1.928   2.994   5.161 -0.2422  1.7431 -0.6457
 3027SOL     OW20542   3.898   4.027   1.623 -0.3571 -0.2650 -0.2373
 3027SOL    HW120543   3.866   4.039   1.712 -0.2340 -1.7168  0.0121
 3027SOL    HW220544   3.821   3.988   1.582 -0.9108  0.6824 -0.0852
 3028SOL     OW20545   3.555   1.422   0.704 -0.2131 -0.0022  0.5409
 3028SOL    HW120546   3.529   1.513   0.718  2.6153  0.9037 -0.0137
 3028SOL    HW220547   3.610   1.426   0.626 -0.6572  1.5982  0.3111
 3029SOL     OW20548   2.124   4.686  16.499  0.1367 -0.6114  0.2661
 3029SOL    HW120549   2.192   4.699  16.433  0.6301 -0.3786  0.8205
 3029SOL    HW220550   2.123   4.591  16.498 -0.4972 -0.6068  0.7086
 3030SOL     OW20551   2.151   3.909   6.951  0.7185  0.3644 -0.0623
 3030SOL    HW120552   2.216   3.951   7.007  1.2608  1.4128 -1.4869
 3030SOL    HW220553   2.068   3.945   6.984  1.1937 -0.6408  2.2471
 3031SOL     OW20554   3.968   4.009   3.109  0.1625 -0.3099 -0.0821
 3031SOL    HW120555   3.979   3.927   3.158  0.7212  1.3334  2.5436
 3031SOL    HW220556   3.879   4.029   3.138  0.8774 -1.3727  2.8207
 3032SOL     OW20557   4.360   3.709   4.346 -0.4905 -0.4197 -0.3731
 3032SOL    HW120558   4.431   3.645   4.342 -1.1420 -1.2574  1.7989
 3032SOL    HW220559   4.291   3.645   4.364  0.3791 -1.3648 -0.4205
 3033SOL     OW20560   4.513   1.768   7.100 -0.6210 -0.5496 -0.7365
 3033SOL    HW120561   4.488   1.847   7.149 -2.6244 -0.1668 -2.3815
 3033SOL    HW220562   4.569   1.811   7.035  0.2664 -0.3332  0.1822
 3034SOL     OW20563   4.032   2.469  14.973 -0.6230  0.0111 -0.2130
 3034SOL    HW120564   4.049   2.441  15.063 -2.5561 -0.4708 -0.0115
 3034SOL    HW220565   3.940   2.494  14.978 -0.6664  0.0990 -1.5120
 3035SOL     OW20566   1.498   0.077   7.285  0.0060  0.2757 -0.2318
 3035SOL    HW120567   1.511   0.121   7.202 -1.6611  0.4708 -0.3999
 3035SOL    HW220568   1.512   0.147   7.349  1.5310  0.0951 -0.3693
 3036SOL     OW20569   2.876   2.799   1.688  0.6080 -0.0149 -0.3569
 3036SOL    HW120570   2.917   2.822   1.604 -1.3657  1.3241 -0.9597
 3036SOL    HW220571   2.933   2.732   1.725 -0.9430 -0.4288  1.2994
 3037SOL     OW20572   3.554   1.995   1.856  0.1504  0.1371 -0.2812
 3037SOL    HW120573   3.494   1.924   1.879  1.2872 -0.7971 -0.1346
 3037SOL    HW220574   3.503   2.042   1.790  0.8045  1.3505  0.0809
 3038SOL     OW20575   0.723   2.771  16.683  0.2140 -0.7776 -0.1602
 3038SOL    HW120576   0.730   2.681  16.651  1.2050 -1.6443  2.4868
 3038SOL    HW220577   0.801   2.765  16.738 -0.2082 -3.3697  0.1502
 3039SOL     OW20578   3.315   0.229   8.406 -0.6261  0.1965 -0.0967
 3039SOL    HW120579   3.395   0.192   8.443  0.3635  2.2112 -0.2347
 3039SOL    HW220580   3.344   0.320   8.398  2.1781 -0.7552 -0.6566
 3040SOL     OW20581   1.086   4.078   8.693  0.0923  0.9409  0.1867
 3040SOL    HW120582   0.991   4.072   8.700  0.3744 -0.8657  2.6887
 3040SOL    HW220583   1.101   4.124   8.775  0.0113  1.9709 -0.3857
 3041SOL     OW20584   0.557   0.071   6.772  0.1767  0.1567 -0.3230
 3041SOL    HW120585   0.578   0.142   6.832 -2.0963 -0.0692  0.7487
 3041SOL    HW220586   0.474   0.106   6.740  0.2115  0.6867  0.1748
 3042SOL     OW20587   4.596   2.259   8.097  0.9033 -0.2078  0.7042
 3042SOL    HW120588   4.571   2.346   8.129  1.6894  0.2869 -0.0560
 3042SOL    HW220589   4.653   2.226   8.166  0.0030 -1.6612  0.7570
 3043SOL     OW20590   1.829   0.978   3.733  0.7647  0.0567 -0.6274
 3043SOL    HW120591   1.751   0.993   3.679 -0.2855 -1.0425  0.6197
 3043SOL    HW220592   1.871   0.906   3.685  0.0109  0.2395 -1.5511
 3044SOL     OW20593   0.532   4.044   6.818  0.3483 -0.8868 -0.2904
 3044SOL    HW120594   0.488   4.111   6.871  1.0944 -0.1906 -0.5610
 3044SOL    HW220595   0.470   4.026   6.748  1.3666 -1.2039 -1.1075
 3045SOL     OW20596   3.409   4.110   4.589  0.1641 -0.7351  1.0355
 3045SOL    HW120597   3.404   4.049   4.515 -0.8709  0.1232  0.4092
 3045SOL    HW220598   3.371   4.191   4.555 -0.6566 -0.9604  1.4065
 3046SOL     OW20599   1.820   0.925   8.597 -0.1857 -0.3650  0.0089
 3046SOL    HW120600   1.728   0.913   8.619 -0.3514 -1.4641 -1.2845
 3046SOL    HW220601   1.827   0.978   8.517  0.3942 -0.3562  0.0608
 3047SOL     OW20602   1.187   3.291   2.993 -0.0932 -0.2647 -0.2427
 3047SOL    HW120603   1.139   3.285   2.910  1.4029  1.7719 -1.2624
 3047SOL    HW220604   1.217   3.382   2.993  0.4929 -0.4632 -0.9205
 3048SOL     OW20605   0.278   2.833   2.542 -0.2450  0.0392 -0.2821
 3048SOL    HW120606   0.292   2.923   2.512  0.8227  0.6412  2.0083
 3048SOL    HW220607   0.205   2.816   2.483  0.5123  1.7351 -1.6934
 3049SOL     OW20608   2.345   0.776  14.160  0.3425 -0.6224  0.6243
 3049SOL    HW120609   2.355   0.859  14.206  2.8780 -0.2312 -0.6467
 3049SOL    HW220610   2.378   0.796  14.072  1.2514 -0.9765  0.8847
 3050SOL     OW20611   4.688   2.153   8.323  0.1330 -0.4521  0.6875
 3050SOL    HW120612   4.647   2.090   8.382  0.8644 -1.0360  0.5792
 3050SOL    HW220613   0.030   2.096   8.286  0.0469  0.2187 -0.5075
 3051SOL     OW20614   2.123   3.017   5.137  0.1295 -0.2469  0.7236
 3051SOL    HW120615   2.153   3.104   5.108 -0.3569  0.3433  1.9810
 3051SOL    HW220616   2.201   2.985   5.183  1.7294 -0.8207 -2.3916
 3052SOL     OW20617   1.031   3.482   1.588  0.3774  0.0838 -0.0523
 3052SOL    HW120618   0.997   3.496   1.677 -0.6944 -1.4544 -0.2252
 3052SOL    HW220619   0.959   3.442   1.540  0.6392  0.8086 -1.0427
 3053SOL     OW20620   3.186   4.429  10.691 -0.0420 -0.0583 -0.2295
 3053SOL    HW120621   3.179   4.517  10.654 -5.0609 -0.4022 -0.0736
 3053SOL    HW220622   3.128   4.432  10.767 -0.8935  0.8840 -0.9300
 3054SOL     OW20623   0.452   1.861   8.187 -0.0348 -0.2620  0.2557
 3054SOL    HW120624   0.379   1.824   8.238 -0.1432  0.0654  0.3433
 3054SOL    HW220625   0.530   1.819   8.221  1.3481  1.0383 -1.3424
 3055SOL     OW20626   2.303   3.924  16.281 -0.3211  0.7899  0.2645
 3055SOL    HW120627   2.369   3.926  16.351  1.4436  1.2357 -1.4191
 3055SOL    HW220628   2.231   3.957  16.335  1.2417  3.3590  0.8215
 3056SOL     OW20629   1.462   2.754   2.126  0.3402  0.3908  0.1872
 3056SOL    HW120630   1.366   2.753   2.121  0.3484  3.0622 -0.2708
 3056SOL    HW220631   1.490   2.767   2.036 -0.3435 -0.8548 -0.2055
 3057SOL     OW20632   1.856   0.609   6.987  0.4671 -0.0633  0.1152
 3057SOL    HW120633   1.769   0.595   7.024  0.2303  0.6903 -0.1678
 3057SOL    HW220634   1.832   0.608   6.894  0.2049 -3.5076  0.2119
 3058SOL     OW20635   4.012   2.403   4.089  0.0252 -0.4411  0.2446
 3058SOL    HW120636   4.026   2.495   4.110  0.9437 -0.8368  1.3660
 3058SOL    HW220637   3.974   2.373   4.171 -0.1320  2.3555  1.1869
 3059SOL     OW20638   1.047   0.959   7.119 -0.0629  0.0062  1.1914
 3059SOL    HW120639   1.100   1.020   7.067  0.0270 -1.3875 -0.3561
 3059SOL    HW220640   0.978   0.942   7.055 -1.6071  1.2971  2.5236
 3060SOL     OW20641   4.285   1.605  15.722 -0.5179  0.2342  0.5734
 3060SOL    HW120642   4.265   1.523  15.767  1.4364 -0.4922  0.1434
 3060SOL    HW220643   4.380   1.604  15.736 -0.1298 -0.2158 -2.0671
 3061SOL     OW20644   4.009   1.521  10.314  0.8659  0.4898 -0.0033
 3061SOL    HW120645   3.976   1.605  10.346  0.7266  0.5248 -0.2377
 3061SOL    HW220646   4.012   1.471  10.396 -1.5244 -0.3459 -0.4209
 3062SOL     OW20647   2.974   4.151   9.389 -0.4000 -0.4790 -0.2138
 3062SOL    HW120648   2.924   4.103   9.456  1.9814  0.9663  2.5781
 3062SOL    HW220649   2.935   4.121   9.307 -1.7438 -1.4676  0.7677
 3063SOL     OW20650   4.479   1.661   5.675  0.3916  0.4882  0.4961
 3063SOL    HW120651   4.497   1.701   5.590  0.6451  0.3840  0.5013
 3063SOL    HW220652   4.397   1.615   5.656 -0.0510  1.8170 -0.7879
 3064SOL     OW20653   0.232   3.234   3.781 -0.1202  0.1480 -0.4629
 3064SOL    HW120654   0.246   3.157   3.726  2.0050  0.0977  0.1800
 3064SOL    HW220655   0.246   3.313   3.729  0.5076  0.7558  0.6462
 3065SOL     OW20656   4.094   4.146  15.880  0.2000  0.5293  0.0237
 3065SOL    HW120657   4.184   4.114  15.875 -0.7056 -2.3830  2.5007
 3065SOL    HW220658   4.111   4.235  15.910  1.1312  0.8018 -1.3398
 3066SOL     OW20659   3.371   2.821  13.245 -0.6331 -0.3145  0.2127
 3066SOL    HW120660   3.311   2.772  13.302 -0.2199 -1.4445 -0.3185
 3066SOL    HW220661   3.310   2.877  13.197  2.2639  1.9283 -0.7741
 3067SOL     OW20662   4.086   1.756   2.404  0.0450 -0.4803  0.1754
 3067SOL    HW120663   4.150   1.708   2.456 -0.3204  1.0803  2.0919
 3067SOL    HW220664   4.131   1.768   2.320 -3.5762 -0.3165 -1.7622
 3068SOL     OW20665   0.182   0.887   4.024 -0.1492  0.2130 -0.4169
 3068SOL    HW120666   0.095   0.900   4.061 -1.2860 -3.1320 -1.9657
 3068SOL    HW220667   0.229   0.970   4.039 -3.2217  2.2580 -2.2222
 3069SOL     OW20668   2.533   2.636  14.586 -0.2917  0.2978  0.1677
 3069SOL    HW120669   2.487   2.684  14.517  0.5490  0.6046 -0.1859
 3069SOL    HW220670   2.562   2.565  14.528 -1.4168 -1.8103  2.1843
 3070SOL     OW20671   4.299   3.237   4.407 -0.4038  0.3802  0.4246
 3070SOL    HW120672   4.386   3.265   4.433 -0.4989  1.6182 -0.5658
 3070SOL    HW220673   4.319   3.190   4.326  0.8224  1.6925 -0.0414
 3071SOL     OW20674   1.018   2.973   9.630 -0.2156  0.4457 -0.0990
 3071SOL    HW120675   0.990   2.884   9.653  2.1277 -0.7536 -1.8224
 3071SOL    HW220676   1.111   2.951   9.623 -1.2053 -4.1935  1.1081
 3072SOL     OW20677   0.134   1.657  17.090  0.5947  0.1597  0.0956
 3072SOL    HW120678   0.058   1.709  17.064  0.6585  0.2419  0.0720
 3072SOL    HW220679   0.112   1.618  17.174 -0.2472  1.1030  0.3167
 3073SOL     OW20680   1.113   1.730   7.719 -0.3130  0.1574 -0.1704
 3073SOL    HW120681   1.106   1.668   7.792  1.7434  1.8813  1.5148
 3073SOL    HW220682   1.071   1.808   7.754 -0.1057 -0.3310  1.1931
 3074SOL     OW20683   3.798   0.875   4.083  0.5427  0.3204 -0.0719
 3074SOL    HW120684   3.893   0.869   4.094  0.6704 -0.2707 -1.5269
 3074SOL    HW220685   3.796   0.949   4.022  2.9548 -0.2886 -0.9098
 3075SOL     OW20686   3.172   4.138   0.062  0.4798 -0.1909 -0.0661
 3075SOL    HW120687   3.081   4.140   0.031  0.3407  1.6475  0.4851
 3075SOL    HW220688   3.154   4.129   0.156 -1.7192 -2.1054 -0.6621
 3076SOL     OW20689   1.096   0.470   3.302  0.4013  0.2297 -0.2151
 3076SOL    HW120690   1.055   0.555   3.318  0.7698  0.9533 -3.1138
 3076SOL    HW220691   1.054   0.450   3.219  0.6269  1.1563 -0.5522
 3077SOL     OW20692   3.400   3.981   9.003  0.3164 -0.5526 -0.0038
 3077SOL    HW120693   3.357   3.905   8.963 -2.7569 -0.2901  2.8420
 3077SOL    HW220694   3.333   4.049   9.010  0.3692 -0.4483 -0.5574
 3078SOL     OW20695   3.492   1.462  13.005  0.3192 -0.1389  0.2196
 3078SOL    HW120696   3.585   1.455  13.027 -0.2418 -2.3484  1.8606
 3078SOL    HW220697   3.489   1.529  12.936 -0.3806  1.4650  1.7939
 3079SOL     OW20698   3.317   0.629  17.642  0.3016 -0.4500  0.4397
 3079SOL    HW120699   3.285   0.613  17.553  3.1830 -0.0396 -0.6697
 3079SOL    HW220700   3.338   0.722  17.647  1.2287 -0.7190  1.9227
 3080SOL     OW20701   4.254   0.440   9.028 -0.0603 -0.4910 -0.0889
 3080SOL    HW120702   4.234   0.483   9.111  0.2551 -1.7468  0.6461
 3080SOL    HW220703   4.169   0.396   9.037  1.2988 -2.8602  1.2861
 3081SOL     OW20704   0.420   2.240   3.521 -0.4302 -0.2772 -0.2334
 3081SOL    HW120705   0.481   2.298   3.475  1.5808 -1.7512  0.5863
 3081SOL    HW220706   0.454   2.225   3.609  2.2140  0.2442 -1.1772
 3082SOL     OW20707   3.065   2.621  15.971 -0.1927  0.0915  0.5864
 3082SOL    HW120708   3.140   2.605  15.913 -0.4864  1.1910 -0.0930
 3082SOL    HW220709   3.014   2.543  15.953 -1.1069  0.1117  3.2095
 3083SOL     OW20710   4.094   4.114   1.173  0.1480  0.0877 -0.2958
 3083SOL    HW120711   4.025   4.146   1.232 -0.5298 -0.6549 -0.6733
 3083SOL    HW220712   4.038   4.113   1.095 -0.5775  0.1767  0.2151
 3084SOL     OW20713   0.576   3.069   2.044  0.0248 -0.5210 -0.6930
 3084SOL    HW120714   0.534   2.996   1.997 -0.2533 -0.1399 -1.0311
 3084SOL    HW220715   0.670   3.052   2.037  0.2482  1.1473 -1.7288
 3085SOL     OW20716   1.731   0.765   1.616 -0.1653 -0.2666  0.1452
 3085SOL    HW120717   1.760   0.698   1.677  0.3579 -0.9948 -0.8993
 3085SOL    HW220718   1.807   0.823   1.626  0.2493 -0.9167  0.7170
 3086SOL     OW20719   4.428   1.962   2.437  0.0264 -0.3523  0.4910
 3086SOL    HW120720   4.521   1.964   2.416  0.3210 -2.2342  1.6471
 3086SOL    HW220721   4.432   1.952   2.532 -0.1137 -2.0933  0.3043
 3087SOL     OW20722   1.262   0.322   5.422  0.1487 -0.1845  0.7200
 3087SOL    HW120723   1.321   0.318   5.347  1.5500  0.1101  1.8079
 3087SOL    HW220724   1.180   0.335   5.374  2.2795  1.4957 -2.4704
 3088SOL     OW20725   2.838   0.912   6.427  0.1224 -0.4081 -0.4374
 3088SOL    HW120726   2.857   0.943   6.338 -1.7765  0.1535 -0.6501
 3088SOL    HW220727   2.830   0.992   6.479 -0.3747 -1.1493  0.6368
 3089SOL     OW20728   1.234   2.472   8.173  0.4548 -0.0700 -0.1614
 3089SOL    HW120729   1.305   2.533   8.191  1.1316 -0.7335 -0.5402
 3089SOL    HW220730   1.260   2.423   8.095 -0.5833  0.1941 -0.6626
 3090SOL     OW20731   4.440   4.424   2.225  0.0837 -0.4468  0.7656
 3090SOL    HW120732   4.527   4.428   2.265  0.4940  1.2825 -0.2877
 3090SOL    HW220733   4.433   4.486   2.152  1.1417 -0.3419  0.7468
 3091SOL     OW20734   2.495   3.903   8.334  0.0151  0.1036  0.6646
 3091SOL    HW120735   2.458   3.957   8.404  2.1312  1.6437  0.6155
 3091SOL    HW220736   2.423   3.887   8.273  0.3598 -0.9856  0.5368
 3092SOL     OW20737   3.107   0.972   5.536 -0.0620  0.1503 -0.1624
 3092SOL    HW120738   3.193   0.995   5.572  0.2035  0.8252 -1.2459
 3092SOL    HW220739   3.045   1.019   5.593 -0.3860 -1.6068  0.9520
 3093SOL     OW20740   1.005   0.383   5.304 -0.3954 -0.2819 -0.6333
 3093SOL    HW120741   0.973   0.463   5.262  0.6601 -0.7599 -2.3882
 3093SOL    HW220742   1.018   0.330   5.225 -1.8698 -1.4627 -0.0538
 3094SOL     OW20743   4.700   0.183  10.402  0.4176  0.3441  0.1887
 3094SOL    HW120744   4.610   0.186  10.369  0.9809  1.9398 -1.2159
 3094SOL    HW220745   4.723   0.090  10.398  0.8118  0.4773 -0.6404
 3095SOL     OW20746   0.497   0.460  11.673 -0.1587  0.2673 -0.0268
 3095SOL    HW120747   0.528   0.543  11.636  3.5213 -1.3657 -0.5983
 3095SOL    HW220748   0.467   0.499  11.755  0.8572 -1.5350  1.1971
 3096SOL     OW20749   3.146   0.609   8.926  0.6070  0.3241 -0.1337
 3096SOL    HW120750   3.185   0.551   8.861  1.1819  0.5080  0.0485
 3096SOL    HW220751   3.055   0.581   8.918  1.1804 -1.6623  0.4149
 3097SOL     OW20752   0.201   0.833   1.266  0.0034 -0.6587  0.5434
 3097SOL    HW120753   0.156   0.763   1.313  0.4613 -0.8917  0.6370
 3097SOL    HW220754   0.210   0.782   1.185 -0.5875 -1.6925  1.1433
 3098SOL     OW20755   4.527   1.337   5.432 -0.0327 -0.3537  0.3562
 3098SOL    HW120756   4.618   1.314   5.414  0.3949  1.1677  0.6014
 3098SOL    HW220757   4.522   1.319   5.526  1.3212  0.6564  0.6158
 3099SOL     OW20758   3.713   3.471   6.996 -0.1032 -0.0137  0.3333
 3099SOL    HW120759   3.618   3.473   7.008 -0.2422 -0.7545 -0.6101
 3099SOL    HW220760   3.713   3.565   6.979 -0.5074 -0.2499 -1.0011
 3100SOL     OW20761   3.872   0.808  16.579 -0.8329  0.0962 -0.2466
 3100SOL    HW120762   3.966   0.792  16.570 -1.1697 -0.8050 -2.2410
 3100SOL    HW220763   3.845   0.730  16.628  1.4476 -0.4705  0.0844
 3101SOL     OW20764   2.504   3.908  16.453  0.4908  0.3842 -0.7652
 3101SOL    HW120765   2.527   3.927  16.544 -1.9487 -2.3901  0.4067
 3101SOL    HW220766   2.586   3.885  16.408 -0.0984 -1.5881 -0.8196
 3102SOL     OW20767   4.384   0.830   8.221  0.0029  0.3199 -0.1319
 3102SOL    HW120768   4.294   0.861   8.217  0.4395  1.5241 -0.5527
 3102SOL    HW220769   4.431   0.898   8.171  0.5800 -2.2281 -3.0832
 3103SOL     OW20770   3.390   0.993   8.000  0.3493  0.1592  0.5539
 3103SOL    HW120771   3.386   0.957   8.089  3.5872 -0.1035  0.6031
 3103SOL    HW220772   3.318   0.943   7.961  0.6815  1.2037 -1.3363
 3104SOL     OW20773   0.885   2.383  10.153  0.3911  0.2690 -0.5185
 3104SOL    HW120774   0.790   2.381  10.169  0.1033  1.0885 -2.0795
 3104SOL    HW220775   0.886   2.437  10.074  0.3460  2.4556  0.9544
 3105SOL     OW20776   2.544   0.418   3.210  0.6482 -1.0434  0.0477
 3105SOL    HW120777   2.457   0.452   3.230  1.4231  1.2246 -0.3411
 3105SOL    HW220778   2.532   0.324   3.199  0.4082 -1.0044 -0.0134
 3106SOL     OW20779   3.276   1.217  17.405 -0.6746  0.3293  0.0382
 3106SOL    HW120780   3.371   1.226  17.417 -0.3277 -0.1737 -2.2413
 3106SOL    HW220781   3.275   1.123  17.420 -0.8610  0.3680  0.2705
 3107SOL     OW20782   3.127   4.506   4.789 -0.3441 -0.0943 -0.0916
 3107SOL    HW120783   3.198   4.530   4.848 -0.7546 -2.3845  1.2949
 3107SOL    HW220784   3.174   4.431   4.754 -1.0722 -0.4355 -0.3187
 3108SOL     OW20785   4.286   0.421  16.962 -0.0554 -0.1747 -0.1540
 3108SOL    HW120786   4.375   0.389  16.946 -0.0644 -0.6291  0.7068
 3108SOL    HW220787   4.235   0.350  16.921  0.9051 -0.2382 -1.2463
 3109SOL     OW20788   2.120   4.351   9.040 -0.0054  0.2217 -0.2756
 3109SOL    HW120789   2.159   4.423   9.089  2.6238 -1.3536 -0.0879
 3109SOL    HW220790   2.198   4.307   9.007 -0.1959 -2.1752  2.4766
 3110SOL     OW20791   3.736   4.408   9.889  0.3744 -0.0660  0.1944
 3110SOL    HW120792   3.699   4.493   9.865  3.5485  0.6869 -2.0128
 3110SOL    HW220793   3.704   4.349   9.821  0.0404 -0.5114  0.7363
 3111SOL     OW20794   4.425   4.717   8.830 -0.0108 -0.2014  0.1734
 3111SOL    HW120795   4.442   4.623   8.827 -0.7022 -0.2844 -1.0703
 3111SOL    HW220796   4.483   0.015   8.758 -0.6953 -1.8319 -0.8893
 3112SOL     OW20797   3.667   3.017   6.143  0.0132 -0.0059 -0.2265
 3112SOL    HW120798   3.668   3.105   6.181  0.7001 -0.1065  0.0028
 3112SOL    HW220799   3.697   2.965   6.218 -0.2971  1.1585  0.6984
 3113SOL     OW20800   0.086   3.933  11.215 -0.0973 -0.1226 -0.1346
 3113SOL    HW120801   0.033   3.889  11.149  1.2956 -2.1184  0.0652
 3113SOL    HW220802   0.034   4.013  11.226 -0.1692 -0.0234 -1.2749
 3114SOL     OW20803   0.084   0.426   7.703 -0.5928 -0.3941 -0.3965
 3114SOL    HW120804   0.155   0.394   7.758 -0.4425  0.2974 -0.1875
 3114SOL    HW220805   0.011   0.457   7.757  0.4293  0.2158  0.6420
 3115SOL     OW20806   2.446   3.026   6.357  0.3042 -0.2976 -0.1349
 3115SOL    HW120807   2.415   3.085   6.288  2.7070  1.1950  0.0682
 3115SOL    HW220808   2.510   3.082   6.399  1.4616 -1.1546 -0.7652
 3116SOL     OW20809   1.183   1.021   8.292  0.0651  0.0425 -0.6633
 3116SOL    HW120810   1.133   0.961   8.237  2.8546 -1.3966 -1.6442
 3116SOL    HW220811   1.158   1.101   8.246 -2.3878 -0.5829 -0.4446
 3117SOL     OW20812   3.235   4.665  17.502 -0.0655 -0.1251 -0.4389
 3117SOL    HW120813   3.225   4.678  17.596  0.5865  2.1562 -0.6969
 3117SOL    HW220814   3.141   4.649  17.488  0.1163 -1.9720  0.4314
 3118SOL     OW20815   3.563   4.626   7.620 -0.5638 -0.1972 -0.4227
 3118SOL    HW120816   3.643   4.582   7.649 -1.2263 -1.6439 -0.8064
 3118SOL    HW220817   3.539   4.584   7.538 -1.4828  0.9032 -0.7298
 3119SOL     OW20818   4.608   4.462   0.427  0.4256  0.0121 -0.4067
 3119SOL    HW120819   4.550   4.398   0.385 -0.1344  0.1337  0.1662
 3119SOL    HW220820   4.571   4.488   0.512  0.9908 -2.2140  0.4992
 3120SOL     OW20821   0.558   2.891   2.283  0.3440 -0.4954 -0.6150
 3120SOL    HW120822   0.588   2.822   2.224 -1.0255 -2.4860  1.0241
 3120SOL    HW220823   0.483   2.857   2.332 -1.2707 -0.7255 -3.2660
 3121SOL     OW20824   2.123   4.159  15.140 -0.1570 -0.0286  0.1451
 3121SOL    HW120825   2.134   4.165  15.045  1.1259  0.6496  0.3296
 3121SOL    HW220826   2.178   4.234  15.163 -0.0839  0.1810 -0.7087
 3122SOL     OW20827   4.507   2.286   6.146 -0.1134 -0.6281  0.6181
 3122SOL    HW120828   4.457   2.365   6.167  2.1909  0.9012  0.2477
 3122SOL    HW220829   4.552   2.296   6.062 -0.6118 -2.5631  0.1034
 3123SOL     OW20830   2.058   2.818   6.978 -0.5506  0.3544  0.8012
 3123SOL    HW120831   2.054   2.723   6.970 -0.0517  0.5699 -1.7631
 3123SOL    HW220832   2.112   2.845   6.904  0.4983 -1.4856  0.8954
 3124SOL     OW20833   2.401   3.106  16.016 -0.2989 -0.1037  0.1772
 3124SOL    HW120834   2.324   3.153  16.047 -0.5786 -0.1665 -0.4137
 3124SOL    HW220835   2.367   3.016  16.016  0.1712 -0.2843  0.3403
 3125SOL     OW20836   2.461   0.342   4.301 -0.2433  0.1003  0.2525
 3125SOL    HW120837   2.478   0.342   4.395 -0.2927  1.5707  0.2650
 3125SOL    HW220838   2.546   0.349   4.258 -1.2744  1.3618 -1.5761
 3126SOL     OW20839   3.743   0.591  16.669  0.1405  0.6136 -0.2174
 3126SOL    HW120840   3.715   0.582  16.761  4.2461  2.9367  1.2313
 3126SOL    HW220841   3.722   0.501  16.642 -0.0867 -0.1686  2.5581
 3127SOL     OW20842   2.818   2.152   1.733  0.1965  0.2227 -0.0323
 3127SOL    HW120843   2.832   2.170   1.640 -0.2617  2.5160  0.3266
 3127SOL    HW220844   2.864   2.222   1.780 -1.1694  2.5368 -2.1115
 3128SOL     OW20845   1.331   4.584   2.606 -0.3692 -0.1879 -0.1356
 3128SOL    HW120846   1.294   4.672   2.611 -2.5289 -1.1561  1.3704
 3128SOL    HW220847   1.413   4.599   2.560 -0.7103  0.0329 -0.6730
 3129SOL     OW20848   2.913   2.487  13.593 -0.1545 -0.3101 -0.1923
 3129SOL    HW120849   2.927   2.480  13.687  0.4734  0.4111 -0.2374
 3129SOL    HW220850   2.845   2.420  13.580  0.2359 -1.2900  2.8854
 3130SOL     OW20851   2.923   4.595   7.739  0.6433 -0.0264  0.4987
 3130SOL    HW120852   2.940   4.635   7.654  0.2743  0.0721  0.4703
 3130SOL    HW220853   2.990   4.633   7.795 -0.4372 -0.5425  2.1310
 3131SOL     OW20854   3.265   2.414   2.220 -0.1781  0.0242  0.1050
 3131SOL    HW120855   3.347   2.463   2.220 -0.2380  0.1330 -1.0894
 3131SOL    HW220856   3.280   2.362   2.299  0.2301  0.9069  0.6032
 3132SOL     OW20857   0.256   1.204   8.084 -0.2148 -0.1419  0.2175
 3132SOL    HW120858   0.349   1.227   8.093 -0.8506  2.7167 -0.6202
 3132SOL    HW220859   0.211   1.270   8.032 -1.9666 -0.4299  1.3679
 3133SOL     OW20860   3.274   1.353   9.915  0.0753  0.6127  0.0184
 3133SOL    HW120861   3.251   1.308   9.834 -1.1065 -1.2536  1.3972
 3133SOL    HW220862   3.369   1.339   9.915 -0.4725 -3.1008  0.4239
 3134SOL     OW20863   4.650   2.514   7.039  0.5741 -0.1826 -0.1757
 3134SOL    HW120864   4.617   2.468   7.116  1.9746  0.3762  0.7633
 3134SOL    HW220865   4.700   2.591   7.068 -1.9577  1.4056 -0.0762
 3135SOL     OW20866   0.502   4.515  11.332 -0.5159 -0.3687 -0.0134
 3135SOL    HW120867   0.582   4.470  11.359 -0.6423 -0.1304  0.7490
 3135SOL    HW220868   0.519   4.597  11.378 -0.0493 -0.8332  0.6485
 3136SOL     OW20869   3.149   1.990   8.605  0.1987  0.1837 -0.4626
 3136SOL    HW120870   3.075   2.030   8.558  0.2625 -1.9459 -2.3895
 3136SOL    HW220871   3.118   1.899   8.609 -0.4150  0.4607  0.8710
 3137SOL     OW20872   0.394   0.709   5.339  0.0304 -0.2766  0.8134
 3137SOL    HW120873   0.342   0.761   5.277 -0.0937  1.7620  2.6275
 3137SOL    HW220874   0.400   0.757   5.421  1.6610 -1.8955  1.6131
 3138SOL     OW20875   1.366   4.108  14.916  0.0110 -0.4549 -0.1078
 3138SOL    HW120876   1.305   4.169  14.875  1.1150  0.2670 -0.6854
 3138SOL    HW220877   1.318   4.028  14.935  1.5061 -1.2090  0.4718
 3139SOL     OW20878   1.329   2.377   6.398  0.1481  0.6846  0.1717
 3139SOL    HW120879   1.350   2.414   6.312  0.3074  0.0767 -0.0510
 3139SOL    HW220880   1.304   2.458   6.442  0.1363 -0.0931  1.5646
 3140SOL     OW20881   4.550   1.384   9.028  0.3256  0.0238  0.2301
 3140SOL    HW120882   4.556   1.324   9.103  2.9483 -2.8374 -2.2826
 3140SOL    HW220883   4.639   1.380   8.993  0.4752 -0.6563  0.6760
 3141SOL     OW20884   3.641   0.264   1.884  0.3667 -0.0393  0.7604
 3141SOL    HW120885   3.706   0.325   1.919  1.3605 -0.1821 -0.8539
 3141SOL    HW220886   3.695   0.252   1.807 -1.0576 -1.2626 -0.0382
 3142SOL     OW20887   3.151   3.379   2.770  0.0363  0.4890  0.5906
 3142SOL    HW120888   3.222   3.433   2.734  0.1885  0.0868  0.2819
 3142SOL    HW220889   3.127   3.342   2.685  0.9957  0.1281  0.4680
 3143SOL     OW20890   2.033   2.395  15.096 -0.3162  0.4606 -0.4746
 3143SOL    HW120891   1.945   2.386  15.133  0.1735  0.8463  0.7866
 3143SOL    HW220892   2.072   2.474  15.134 -0.3289 -1.2064  3.0708
 3144SOL     OW20893   0.081   2.662   6.066  0.0324  0.9070 -0.2668
 3144SOL    HW120894   0.164   2.646   6.021  0.7267 -3.4186  2.5323
 3144SOL    HW220895   0.117   2.677   6.153 -0.6763  3.0871 -0.3469
 3145SOL     OW20896   3.491   3.339   4.408  0.3586 -0.7541  0.0699
 3145SOL    HW120897   3.476   3.432   4.391 -1.6640 -0.4338  3.5143
 3145SOL    HW220898   3.456   3.306   4.326 -0.2937 -1.2081  0.5259
 3146SOL     OW20899   2.203   0.911   3.784  0.2181 -0.5627 -0.1263
 3146SOL    HW120900   2.240   0.892   3.871 -1.4844 -0.9945  0.5043
 3146SOL    HW220901   2.158   0.828   3.769 -1.0691  0.2269 -0.6325
 3147SOL     OW20902   0.047   4.677   0.133  0.5427 -0.3715  0.3137
 3147SOL    HW120903   0.028   4.583   0.122  1.2240 -0.7973  2.9156
 3147SOL    HW220904   0.142   4.685   0.140  0.4884  0.8765 -0.4082
 3148SOL     OW20905   0.787   0.109   7.346  0.6115  0.7484 -0.4978
 3148SOL    HW120906   0.788   0.015   7.363 -0.4211  1.1340  1.6712
 3148SOL    HW220907   0.765   0.142   7.433 -1.2323 -0.9199 -0.3444
 3149SOL     OW20908   0.558   1.351   0.243 -0.1680 -0.0894 -0.5290
 3149SOL    HW120909   0.580   1.274   0.190 -0.3730 -0.0302 -0.7023
 3149SOL    HW220910   0.581   1.422   0.184 -0.7948  1.2350  0.8414
 3150SOL     OW20911   3.841   0.841   8.292  0.0514 -0.4097  0.1071
 3150SOL    HW120912   3.891   0.875   8.366 -1.2944  1.4612  0.1661
 3150SOL    HW220913   3.787   0.916   8.265 -0.4856  0.4243  3.5255
 3151SOL     OW20914   2.900   2.022   6.731  0.3940 -0.3935 -0.2987
 3151SOL    HW120915   2.973   2.057   6.781  1.3247 -1.9999 -0.5319
 3151SOL    HW220916   2.845   2.100   6.734  0.0514 -0.6292 -0.4357
 3152SOL     OW20917   3.476   2.717  15.626  0.5481 -0.3726 -0.1877
 3152SOL    HW120918   3.550   2.756  15.674 -0.8722  1.4922  0.4412
 3152SOL    HW220919   3.456   2.768  15.548 -2.2789 -2.3544 -0.7601
 3153SOL     OW20920   2.707   3.879  10.997  0.6965 -0.2283  0.3088
 3153SOL    HW120921   2.673   3.854  10.911  0.0017 -0.2504  0.5918
 3153SOL    HW220922   2.622   3.885  11.041  0.2632 -1.1055 -0.4223
 3154SOL     OW20923   4.060   1.777   3.843 -0.3575 -0.3500 -0.1966
 3154SOL    HW120924   4.090   1.692   3.876 -1.5390 -0.6261  0.1671
 3154SOL    HW220925   3.977   1.749   3.806 -0.9116  1.7415 -0.5166
 3155SOL     OW20926   4.561   1.503   6.826  0.0376 -0.5260  0.6119
 3155SOL    HW120927   4.515   1.448   6.889  0.1440 -2.4951 -1.0274
 3155SOL    HW220928   4.650   1.468   6.836  0.1444 -0.4693 -0.1897
 3156SOL     OW20929   1.807   4.541   8.755 -0.0655 -0.2693 -0.1692
 3156SOL    HW120930   1.831   4.570   8.842  0.7408  0.3274 -0.5909
 3156SOL    HW220931   1.715   4.568   8.745 -0.0186  0.4115  1.2106
 3157SOL     OW20932   2.205   3.832  11.859 -0.4569  0.2687  0.6315
 3157SOL    HW120933   2.179   3.915  11.818  1.6000 -0.0847 -1.4213
 3157SOL    HW220934   2.188   3.846  11.952 -0.9664 -0.3076  0.6292
 3158SOL     OW20935   3.336   2.429   6.082 -0.3344 -0.4933 -0.0307
 3158SOL    HW120936   3.242   2.438   6.091 -0.3003  1.6898 -1.8620
 3158SOL    HW220937   3.369   2.488   6.150 -0.7704  0.1280 -0.3687
 3159SOL     OW20938   3.890   2.978   1.142 -0.2260 -0.6235  0.2969
 3159SOL    HW120939   3.892   3.019   1.056 -1.7843 -2.3509 -0.5519
 3159SOL    HW220940   3.854   2.892   1.122 -0.6531  0.4167 -3.2615
 3160SOL     OW20941   4.433   0.671   7.292  0.0283  0.1565  0.0378
 3160SOL    HW120942   4.399   0.751   7.251 -0.8502 -0.6849 -0.8730
 3160SOL    HW220943   4.513   0.701   7.335 -1.0364  0.5389  1.7730
 3161SOL     OW20944   3.954   2.764   5.797 -0.3033  0.0348 -0.0335
 3161SOL    HW120945   3.925   2.835   5.855  0.1964 -0.1767  0.4814
 3161SOL    HW220946   3.880   2.756   5.737 -0.7052  1.3269  0.2899
 3162SOL     OW20947   0.667   0.034   8.901 -0.6031  0.1269 -0.3349
 3162SOL    HW120948   0.750   0.079   8.915 -1.7270  1.2128  2.8928
 3162SOL    HW220949   0.689   4.688   8.961 -1.0080  1.9536  2.0108
 3163SOL     OW20950   0.580   1.962   2.687  0.4760 -0.6645 -0.0359
 3163SOL    HW120951   0.497   1.943   2.731  0.6799 -1.2125  0.1053
 3163SOL    HW220952   0.636   1.896   2.729  0.9178 -0.0551  0.3451
 3164SOL     OW20953   1.643   3.054   4.451 -0.0763  0.1222 -0.5916
 3164SOL    HW120954   1.640   3.022   4.360 -0.4209 -1.5435  0.0091
 3164SOL    HW220955   1.735   3.075   4.469 -0.0288  0.1689 -0.8802
 3165SOL     OW20956   3.994   0.544   5.968 -0.4584 -0.4298  0.2374
 3165SOL    HW120957   4.013   0.533   5.875  0.2801  1.6843  0.1432
 3165SOL    HW220958   4.044   0.472   6.005 -1.1236 -2.5897 -3.1253
 3166SOL     OW20959   1.539   2.983   8.668  0.1814  0.2662  0.3994
 3166SOL    HW120960   1.464   3.042   8.655 -1.8357 -2.2604  0.7487
 3166SOL    HW220961   1.617   3.040   8.674  1.0353 -1.2871  3.6672
 3167SOL     OW20962   1.350   2.086   3.355  0.3263  0.3564  0.1237
 3167SOL    HW120963   1.260   2.115   3.349 -0.4676 -1.9583  0.6884
 3167SOL    HW220964   1.382   2.100   3.266  1.2573  0.2236  0.4287
 3168SOL     OW20965   1.662   1.793   0.427  0.2837  0.3958 -0.0458
 3168SOL    HW120966   1.746   1.797   0.474  0.5260  1.9115 -0.6235
 3168SOL    HW220967   1.655   1.886   0.407  2.5673  0.2223 -1.6521
 3169SOL     OW20968   4.138   2.604   4.825 -0.0800 -0.1580 -0.7703
 3169SOL    HW120969   4.089   2.619   4.744 -1.1336 -3.7568 -0.7631
 3169SOL    HW220970   4.222   2.635   4.790  0.1460  1.0371  0.8325
 3170SOL     OW20971   0.896   4.145   9.049  0.0647 -1.3499  0.5364
 3170SOL    HW120972   0.897   4.225   8.998 -1.0555 -1.1017  0.9086
 3170SOL    HW220973   0.802   4.126   9.056 -0.0639  0.1425  2.7821
 3171SOL     OW20974   1.754   1.451   4.694 -0.3663  0.6830  0.3891
 3171SOL    HW120975   1.801   1.504   4.631 -0.7218 -0.5905 -0.9427
 3171SOL    HW220976   1.818   1.381   4.703 -1.5925 -0.2075  2.3055
 3172SOL     OW20977   4.442   1.621   0.498 -0.0796  0.5475 -0.3346
 3172SOL    HW120978   4.404   1.666   0.423  0.1354 -0.3111 -0.9638
 3172SOL    HW220979   4.445   1.535   0.455 -1.1571  0.0093  0.6573
 3173SOL     OW20980   1.872   3.664   4.445  0.2342  0.0318  0.2525
 3173SOL    HW120981   1.826   3.625   4.370 -0.6802  1.3684  0.1182
 3173SOL    HW220982   1.796   3.672   4.503 -0.8719 -2.4434 -0.8610
 3174SOL     OW20983   1.214   0.245   4.802  0.0370 -0.4406 -0.2507
 3174SOL    HW120984   1.187   0.177   4.741 -0.2829 -0.3552 -0.2001
 3174SOL    HW220985   1.262   0.302   4.742  1.6949 -1.4501  0.0958
 3175SOL     OW20986   0.220   2.863   1.589 -0.4925 -0.2170 -0.6513
 3175SOL    HW120987   0.177   2.780   1.566  1.6201 -1.8715  1.4330
 3175SOL    HW220988   0.310   2.840   1.565 -0.4793 -0.5905 -0.2586
 3176SOL     OW20989   4.425   3.701   5.199 -0.2043 -0.2892  1.0446
 3176SOL    HW120990   4.440   3.661   5.285  0.3543  1.4694  1.7842
 3176SOL    HW220991   4.488   3.773   5.199 -0.0034 -0.4870 -2.7665
 3177SOL     OW20992   0.013   2.448   8.493 -0.2009 -0.8296  0.6464
 3177SOL    HW120993   0.025   2.517   8.558 -0.4413 -1.4504  1.3495
 3177SOL    HW220994   4.722   2.504   8.417 -0.3873 -0.8103  0.7009
 3178SOL     OW20995   3.376   2.006   6.718 -0.0081 -0.5812 -0.0114
 3178SOL    HW120996   3.384   2.047   6.632  0.7857 -0.5558  0.0724
 3178SOL    HW220997   3.419   1.921   6.708 -0.9183 -0.7590 -2.6070
 3179SOL     OW20998   4.621   2.068   3.986 -0.1730  0.2444 -0.4311
 3179SOL    HW120999   4.638   2.043   4.077  0.6786  1.1931 -0.3247
 3179SOL    HW221000   4.660   1.991   3.945  0.9947 -0.5963  2.3047
 3180SOL     OW21001   3.545   4.708  17.321 -0.0212 -0.1835 -0.4395
 3180SOL    HW121002   3.562   4.624  17.277 -0.1290 -0.1791 -0.4881
 3180SOL    HW221003   3.452   0.001  17.310  0.4523  1.6560 -1.5366
 3181SOL     OW21004   3.068   2.076   2.001 -0.3681  0.2488 -0.0571
 3181SOL    HW121005   3.047   2.015   1.931 -1.7901  1.3466 -0.5729
 3181SOL    HW221006   3.141   2.133   1.977 -1.4089  0.6584 -2.1961
 3182SOL     OW21007   2.122   3.994  13.820  0.3999 -0.0491  0.2612
 3182SOL    HW121008   2.057   3.971  13.753  0.4700 -1.5295  0.7026
 3182SOL    HW221009   2.131   4.089  13.813 -0.2236  0.0842  1.2145
 3183SOL     OW21010   2.646   4.035   2.155  0.1235 -0.3558  0.2300
 3183SOL    HW121011   2.664   3.994   2.071  0.9147 -1.2848  0.8445
 3183SOL    HW221012   2.595   3.969   2.203 -0.1757  0.4968  1.0896
 3184SOL     OW21013   0.680   4.284   8.075 -0.1996  0.3214  0.4068
 3184SOL    HW121014   0.671   4.377   8.098  3.0923  0.1376  2.3887
 3184SOL    HW221015   0.746   4.291   8.006 -0.3813  1.1134  0.3098
 3185SOL     OW21016   4.534   0.909  17.059  0.0498 -0.2452 -0.0247
 3185SOL    HW121017   4.627   0.889  17.071 -0.5159 -2.7064  0.2985
 3185SOL    HW221018   4.522   0.988  17.112  0.1133  0.8652 -1.6604
 3186SOL     OW21019   1.658   1.982   3.864 -0.3557 -0.3250 -0.7652
 3186SOL    HW121020   1.603   2.054   3.896  1.6207  0.7991  0.1185
 3186SOL    HW221021   1.611   1.907   3.900  1.5686 -0.6959  0.9941
 3187SOL     OW21022   4.665   0.268   2.912 -0.2663 -0.1844 -0.0611
 3187SOL    HW121023   4.587   0.264   2.967 -0.6064  0.5504 -0.5001
 3187SOL    HW221024   4.704   0.355   2.925  0.3871 -0.6009  0.8394
 3188SOL     OW21025   3.369   3.703   3.124  0.1624 -0.1564 -0.4873
 3188SOL    HW121026   3.433   3.738   3.062 -0.2459  1.0987 -0.1934
 3188SOL    HW221027   3.390   3.758   3.199  0.7115  1.4014 -1.7902
 3189SOL     OW21028   3.761   0.277   6.560  0.7139  0.2631  0.4507
 3189SOL    HW121029   3.740   0.344   6.625 -0.3169  0.3319  0.0628
 3189SOL    HW221030   3.681   0.275   6.507  0.9466 -0.4622  0.1173
 3190SOL     OW21031   2.971   0.351   6.610  0.3898  0.1059  0.2724
 3190SOL    HW121032   3.064   0.330   6.617  0.5014 -0.0428 -1.4981
 3190SOL    HW221033   2.983   0.442   6.584  2.5237  0.2700  1.8966
 3191SOL     OW21034   1.736   2.520   8.262  0.6307  0.3507 -0.1893
 3191SOL    HW121035   1.701   2.432   8.254  1.3384 -0.0638  1.2840
 3191SOL    HW221036   1.765   2.539   8.173  0.2025 -1.1875 -0.6551
 3192SOL     OW21037   2.939   0.811   4.254  0.2774  0.0675 -0.0298
 3192SOL    HW121038   2.888   0.893   4.255 -0.0673 -0.1760  1.3133
 3192SOL    HW221039   2.923   0.782   4.164  1.5886 -2.5085  0.5812
 3193SOL     OW21040   3.074   1.050  14.532  0.1474 -0.8783  0.2289
 3193SOL    HW121041   3.162   1.085  14.542 -0.6224  0.6370  1.6255
 3193SOL    HW221042   3.043   1.067  14.621 -0.0658  3.3744 -0.6509
 3194SOL     OW21043   3.186   3.515   7.448  0.3475  0.7354 -0.6087
 3194SOL    HW121044   3.204   3.568   7.526  0.9018 -0.8242  0.3383
 3194SOL    HW221045   3.096   3.488   7.467  0.4927  1.9519  1.7723
 3195SOL     OW21046   0.689   3.304   2.648  0.3448  0.0483  0.0244
 3195SOL    HW121047   0.779   3.306   2.617  0.1635 -0.5517 -0.5499
 3195SOL    HW221048   0.690   3.384   2.701  0.0053 -0.6152  1.0266
 3196SOL     OW21049   1.804   0.339   5.077  0.2456  0.3664  0.1362
 3196SOL    HW121050   1.896   0.362   5.065  0.1162  0.2999 -1.0169
 3196SOL    HW221051   1.767   0.426   5.065  0.0007  0.4337  1.3958
 3197SOL     OW21052   3.016   3.978   6.178 -0.7117 -0.6656 -0.2952
 3197SOL    HW121053   3.027   3.894   6.222  2.0773 -0.2803 -0.2383
 3197SOL    HW221054   2.957   4.019   6.240  1.6299 -0.5885  1.9124
 3198SOL     OW21055   0.921   4.673   2.110 -0.1276  0.0599 -0.5040
 3198SOL    HW121056   0.881   0.034   2.118 -1.6180 -0.7094  0.3573
 3198SOL    HW221057   0.967   4.682   2.027  0.4406 -1.8610 -0.4123
 3199SOL     OW21058   3.438   0.306   2.667 -0.0172 -0.2818  0.5148
 3199SOL    HW121059   3.419   0.244   2.597  0.5522 -0.5907  0.6264
 3199SOL    HW221060   3.475   0.380   2.618  0.5671 -1.7805 -1.3108
 3200SOL     OW21061   4.585   1.344  16.089  0.1363  0.1130  0.5327
 3200SOL    HW121062   4.647   1.288  16.137 -0.1542 -0.4478  0.2456
 3200SOL    HW221063   4.576   1.308  16.001  1.2951 -1.8644  1.2322
 3201SOL     OW21064   2.848   3.010  10.634  0.1894 -0.3964 -0.2046
 3201SOL    HW121065   2.819   2.928  10.673 -1.6280  0.4459  0.2133
 3201SOL    HW221066   2.801   3.073  10.689 -1.4149 -0.0019 -2.0454
 3202SOL     OW21067   3.820   1.802   0.070  0.6693 -0.0833 -0.1239
 3202SOL    HW121068   3.828   1.845  17.686 -0.7200 -0.2289 -0.3226
 3202SOL    HW221069   3.888   1.844   0.123  1.7792 -1.3459 -0.5525
 3203SOL     OW21070   1.250   0.465  16.366 -0.3822 -0.0289 -0.2976
 3203SOL    HW121071   1.222   0.473  16.457  0.2660 -0.6466 -0.0419
 3203SOL    HW221072   1.289   0.551  16.349 -0.3762  0.2252  1.0024
 3204SOL     OW21073   0.207   3.617   5.141 -0.4771 -0.3232  0.5037
 3204SOL    HW121074   0.119   3.610   5.103 -0.7133 -1.0600  1.2022
 3204SOL    HW221075   0.201   3.555   5.213  1.8055 -1.1697 -0.0534
 3205SOL     OW21076   3.747   3.499   5.373  0.8814  0.1092  0.8719
 3205SOL    HW121077   3.686   3.450   5.428  0.7023 -2.6086 -1.7870
 3205SOL    HW221078   3.688   3.541   5.311 -0.3135 -1.3724  1.0142
 3206SOL     OW21079   3.944   1.152   3.902  0.3203 -0.6579  0.3169
 3206SOL    HW121080   3.875   1.173   3.965  0.7860  0.7218  0.3618
 3206SOL    HW221081   3.935   1.226   3.842  0.4238  0.4370  1.6468
 3207SOL     OW21082   2.795   3.855   2.987  0.0375  0.4402  0.1776
 3207SOL    HW121083   2.756   3.925   2.935 -0.0733  0.9051  0.8853
 3207SOL    HW221084   2.819   3.896   3.070 -2.7492 -2.5915  2.5057
 3208SOL     OW21085   0.864   1.376   2.283  0.3521 -0.2587 -0.1067
 3208SOL    HW121086   0.808   1.416   2.215 -0.1809 -0.8674 -0.0282
 3208SOL    HW221087   0.942   1.343   2.239 -1.2743 -1.5773 -2.0043
 3209SOL     OW21088   3.163   2.416   5.402  0.2472  0.3455 -0.1775
 3209SOL    HW121089   3.085   2.405   5.457 -0.8938  0.5455 -1.7680
 3209SOL    HW221090   3.190   2.329   5.374 -1.8718 -0.0088 -1.1075
 3210SOL     OW21091   1.512   0.336   3.818  0.1634  0.0537 -0.2945
 3210SOL    HW121092   1.560   0.384   3.751 -0.2563  0.5550 -0.2290
 3210SOL    HW221093   1.426   0.345   3.778  0.8659 -2.2810 -2.3314
 3211SOL     OW21094   1.653   2.100   7.624  0.1822  0.1078 -0.4785
 3211SOL    HW121095   1.695   2.053   7.552  1.3420  2.5438 -1.4023
 3211SOL    HW221096   1.612   2.036   7.681  0.0068  0.1873 -0.5163
 3212SOL     OW21097   1.470   2.390   5.293  0.0795 -0.2764  0.0887
 3212SOL    HW121098   1.480   2.348   5.208  2.1746  1.5323 -0.5354
 3212SOL    HW221099   1.497   2.322   5.355 -0.4952 -0.8713 -0.3119
 3213SOL     OW21100   0.703   1.446   5.904  0.9151 -0.1122 -0.3259
 3213SOL    HW121101   0.615   1.469   5.877  1.6957  3.4414  0.2035
 3213SOL    HW221102   0.745   1.525   5.871  0.3882  1.3492  2.5442
 3214SOL     OW21103   1.719   1.074   5.721 -0.2743 -0.8605  0.1948
 3214SOL    HW121104   1.624   1.066   5.728 -0.4253  2.1536  1.5205
 3214SOL    HW221105   1.719   1.155   5.772 -1.4030 -1.2914  0.8737
 3215SOL     OW21106   1.485   2.940   0.701  0.7626 -0.0213  0.1301
 3215SOL    HW121107   1.406   2.969   0.655  1.0940  1.9601  0.8233
 3215SOL    HW221108   1.502   2.855   0.660  0.8621  1.5804 -3.1330
 3216SOL     OW21109   3.126   0.348  17.198  0.1537  0.0961 -0.0944
 3216SOL    HW121110   3.186   0.330  17.270  0.7691 -1.1435 -0.9101
 3216SOL    HW221111   3.147   0.277  17.137 -2.4086 -1.1542  0.5072
 3217SOL     OW21112   3.424   0.080   7.794  0.0300 -0.1651  0.6133
 3217SOL    HW121113   3.502   0.043   7.752 -1.1612 -1.2075 -0.6786
 3217SOL    HW221114   3.354   0.056   7.733  0.0508 -2.0542  1.3328
 3218SOL     OW21115   4.328   0.421   1.567  0.1541 -0.8782  0.6273
 3218SOL    HW121116   4.410   0.407   1.520  0.0340 -0.8175  0.4048
 3218SOL    HW221117   4.289   0.473   1.497 -0.5021 -0.0506  1.6118
 3219SOL     OW21118   3.268   4.273   8.268  0.5020 -0.2253 -0.2893
 3219SOL    HW121119   3.266   4.208   8.197  0.3844 -0.0807 -0.4199
 3219SOL    HW221120   3.206   4.230   8.327  0.6415 -0.5160 -0.3555
 3220SOL     OW21121   4.096   0.391   8.127 -0.8332 -0.0739 -0.1278
 3220SOL    HW121122   4.154   0.426   8.059 -1.1018  1.0802  0.2430
 3220SOL    HW221123   4.053   0.469   8.162  0.8947 -0.6032  3.1768
 3221SOL     OW21124   2.270   2.548   8.431 -0.0832 -0.4665  0.1901
 3221SOL    HW121125   2.223   2.626   8.400 -1.2164 -1.3608 -0.3313
 3221SOL    HW221126   2.275   2.572   8.524  0.8357 -0.8840  0.2496
 3222SOL     OW21127   0.471   1.903   4.636 -0.0859 -0.2465  0.4674
 3222SOL    HW121128   0.443   1.943   4.719 -1.1456 -0.7071  0.3315
 3222SOL    HW221129   0.553   1.948   4.616 -0.9366  0.4111 -1.4753
 3223SOL     OW21130   1.738   2.515  13.263  0.2992  0.3986 -0.0847
 3223SOL    HW121131   1.663   2.575  13.253  0.3746  0.4938 -0.0739
 3223SOL    HW221132   1.745   2.475  13.176 -0.8216  0.9431 -0.4350
 3224SOL     OW21133   4.430   3.229  14.420 -0.1256  0.1933  0.0471
 3224SOL    HW121134   4.517   3.252  14.452  0.0551  1.3413 -1.3378
 3224SOL    HW221135   4.462   3.182  14.343 -1.0533 -0.2838 -0.0526
 3225SOL     OW21136   2.209   1.538  13.446 -0.2434  0.2702 -0.5816
 3225SOL    HW121137   2.232   1.457  13.492 -1.6744  0.2161  0.0186
 3225SOL    HW221138   2.242   1.517  13.358  0.0074  0.3726 -0.5114
 3226SOL     OW21139   2.449   0.985   9.776  0.5920 -0.3876 -0.0368
 3226SOL    HW121140   2.445   1.009   9.869 -0.0656  2.8903 -0.9122
 3226SOL    HW221141   2.497   0.902   9.772  1.2171 -0.0883  1.4562
 3227SOL     OW21142   0.262   4.599   5.318  0.3111 -0.2549  0.1390
 3227SOL    HW121143   0.269   4.694   5.330  1.5304 -0.2022 -1.0109
 3227SOL    HW221144   0.317   4.585   5.241  1.3879  2.8472  0.3479
 3228SOL     OW21145   1.030   0.217   2.426 -0.0309 -0.0783 -0.2941
 3228SOL    HW121146   1.073   0.298   2.451  2.3503 -1.1358 -1.0256
 3228SOL    HW221147   1.077   0.185   2.349 -1.7671  0.7016 -1.6901
 3229SOL     OW21148   2.801   4.269   9.005  0.2989  0.3013 -0.0915
 3229SOL    HW121149   2.862   4.311   9.066  0.4616  1.0649 -0.7965
 3229SOL    HW221150   2.726   4.313   9.045 -1.4898 -2.2290 -0.6680
 3230SOL     OW21151   2.759   4.068   3.606  0.2247  0.7138  0.0428
 3230SOL    HW121152   2.790   4.083   3.517 -0.6042 -3.9569 -1.0249
 3230SOL    HW221153   2.739   3.974   3.607  0.4738  0.6551 -0.5190
 3231SOL     OW21154   2.207   0.456  16.753 -0.2498 -0.5922 -0.5240
 3231SOL    HW121155   2.161   0.384  16.708 -2.2897 -0.0692  0.7207
 3231SOL    HW221156   2.291   0.431  16.715 -0.4761 -2.6090  0.2828
 3232SOL     OW21157   3.231   2.848   7.371  0.4202  0.0662 -0.4741
 3232SOL    HW121158   3.202   2.757   7.383 -0.0981  0.3848  0.7422
 3232SOL    HW221159   3.142   2.881   7.362  0.9944  1.7028 -0.1772
 3233SOL     OW21160   1.058   0.106   8.384 -0.2156  0.1594  0.1541
 3233SOL    HW121161   0.964   0.106   8.363 -0.0495 -0.6699 -0.5568
 3233SOL    HW221162   1.043   0.120   8.478  0.8654  0.5679  0.2587
 3234SOL     OW21163   2.216   1.844   1.081  0.0197 -0.2386  0.3422
 3234SOL    HW121164   2.219   1.938   1.065  3.0943 -0.3291  0.3654
 3234SOL    HW221165   2.186   1.841   1.172  0.6485 -0.2571  0.5499
 3235SOL     OW21166   0.392   1.303  12.542  0.8960 -0.0800  0.0818
 3235SOL    HW121167   0.346   1.316  12.459  0.6998 -0.9412  0.0628
 3235SOL    HW221168   0.326   1.338  12.602  1.0843  1.0183 -0.3383
 3236SOL     OW21169   3.785   4.357   0.088  0.3758  0.1133 -0.9560
 3236SOL    HW121170   3.846   4.391   0.022 -0.6163  1.3769 -1.2147
 3236SOL    HW221171   3.704   4.382   0.044  0.5090  2.1357 -0.0134
 3237SOL     OW21172   4.484   1.050   5.156 -0.3298 -0.4549 -0.0361
 3237SOL    HW121173   4.456   0.967   5.117 -3.5519  1.4513 -1.7693
 3237SOL    HW221174   4.513   1.095   5.077  2.2896  0.6876  1.5685
 3238SOL     OW21175   4.477   4.593   1.966  0.0932 -0.3872 -0.3522
 3238SOL    HW121176   4.531   4.634   2.034 -0.8816 -2.5681  1.7233
 3238SOL    HW221177   4.543   4.559   1.906  1.1342 -3.1497  2.3431
 3239SOL     OW21178   4.587   3.994   4.198  0.5273  0.1302 -0.5179
 3239SOL    HW121179   4.538   3.942   4.134  0.2182  0.9220 -0.9311
 3239SOL    HW221180   4.680   3.972   4.186  0.6460  0.8072 -0.8608
 3240SOL     OW21181   1.199   1.970   9.211  0.4486  0.3276 -0.0782
 3240SOL    HW121182   1.179   2.013   9.294 -0.7317 -0.6731  0.1528
 3240SOL    HW221183   1.295   1.970   9.214  0.4107 -0.8830  1.2917
 3241SOL     OW21184   2.461   1.397   7.123 -0.0766 -0.2310 -0.0603
 3241SOL    HW121185   2.388   1.346   7.157  0.0515 -0.9704 -0.8884
 3241SOL    HW221186   2.496   1.350   7.047 -0.4423 -0.7909  0.1192
 3242SOL     OW21187   2.485   4.676   9.049  0.8286  0.0647  0.1747
 3242SOL    HW121188   2.510   4.724   9.128 -0.4635 -0.1143  0.7000
 3242SOL    HW221189   2.462   0.025   8.994 -2.5635  1.9383  4.0652
 3243SOL     OW21190   3.595   0.155   8.007  0.3793  0.2050  0.3044
 3243SOL    HW121191   3.529   0.185   7.944  0.4012  0.9442  0.6364
 3243SOL    HW221192   3.559   0.070   8.031  1.7518 -0.3522  0.3830
 3244SOL     OW21193   4.458   0.685   8.437 -0.1490 -0.1431 -0.0680
 3244SOL    HW121194   4.543   0.709   8.400 -0.1948  0.2669  0.0958
 3244SOL    HW221195   4.417   0.729   8.362 -0.8911 -1.1335 -0.2522
 3245SOL     OW21196   0.869   2.524   5.729 -0.2001 -0.0044  0.2743
 3245SOL    HW121197   0.919   2.578   5.668 -0.0698  0.3969  0.7405
 3245SOL    HW221198   0.836   2.462   5.663 -0.0559  0.8870 -0.6370
 3246SOL     OW21199   4.480   0.833  10.164  0.9623 -0.4014  0.1939
 3246SOL    HW121200   4.520   0.896  10.104  0.1752 -1.7815 -1.7594
 3246SOL    HW221201   4.442   0.770  10.104  0.4078  0.1274 -0.0181
 3247SOL     OW21202   2.953   0.041  11.976  0.5959  0.2730  0.0108
 3247SOL    HW121203   2.989   0.117  11.932 -0.2469  1.9453  2.2216
 3247SOL    HW221204   2.948   0.067  12.068  2.4457 -1.9807  0.7509
 3248SOL     OW21205   4.393   3.813   5.845 -0.1934 -0.2959 -0.2183
 3248SOL    HW121206   4.338   3.735   5.857 -0.6292  0.1044  0.4547
 3248SOL    HW221207   4.385   3.812   5.750  0.7142 -3.5051 -0.2360
 3249SOL     OW21208   2.298   2.707   0.068  0.0813 -0.3100 -0.1536
 3249SOL    HW121209   2.335   2.670   0.147 -0.3993  0.1475  0.2863
 3249SOL    HW221210   2.267   2.796   0.089  0.0077 -0.7036  1.3667
 3250SOL     OW21211   1.294   2.794   5.397 -0.1936 -0.4916  0.2823
 3250SOL    HW121212   1.245   2.780   5.479  0.5288 -2.3221  0.3882
 3250SOL    HW221213   1.267   2.727   5.334 -0.6913  0.3012 -0.3467
 3251SOL     OW21214   1.176   1.950   0.656  0.8961  0.1575 -0.5472
 3251SOL    HW121215   1.107   1.910   0.603 -0.3134 -0.8714  1.8076
 3251SOL    HW221216   1.221   1.873   0.690 -0.7078 -1.0733 -1.1986
 3252SOL     OW21217   4.597   2.370   2.801  0.2700  0.3513  0.1973
 3252SOL    HW121218   4.520   2.334   2.756  0.2682  0.1294  0.3736
 3252SOL    HW221219   4.643   2.290   2.828 -0.0808  0.4883  1.1936
 3253SOL     OW21220   3.782   2.876   6.347 -0.3542  0.0589 -0.1117
 3253SOL    HW121221   3.753   2.786   6.334  0.3685  0.1623 -2.5194
 3253SOL    HW221222   3.877   2.862   6.346 -0.9020 -3.2803 -1.9396
 3254SOL     OW21223   3.657   1.534   4.056  0.5750  0.5747 -0.5248
 3254SOL    HW121224   3.598   1.464   4.085 -1.8917  1.9783 -2.1657
 3254SOL    HW221225   3.599   1.608   4.073 -0.6367 -0.3162 -0.7909
 3255SOL     OW21226   1.603   1.462   3.960 -0.3779 -0.4749  0.3022
 3255SOL    HW121227   1.623   1.371   3.984 -0.5308 -0.6888 -0.3762
 3255SOL    HW221228   1.517   1.475   3.998 -0.2563 -1.1688  0.8039
 3256SOL     OW21229   4.284   0.062  13.234 -0.2638 -0.1659 -0.3894
 3256SOL    HW121230   4.284   0.112  13.316 -3.1010 -0.7081 -0.0497
 3256SOL    HW221231   4.251   0.133  13.178 -1.1542 -0.5902 -0.4051
 3257SOL     OW21232   0.119   0.815   4.487  0.1478 -0.2215  0.3338
 3257SOL    HW121233   0.150   0.863   4.564  2.2079 -0.9978 -0.0155
 3257SOL    HW221234   0.106   0.886   4.424 -0.1912  0.6896  1.4361
 3258SOL     OW21235   4.416   4.427   4.700  0.0325  0.6783  0.1540
 3258SOL    HW121236   4.478   4.381   4.756 -1.6886  0.0342  1.5395
 3258SOL    HW221237   4.466   4.421   4.619 -0.4823 -0.6703 -0.0470
 3259SOL     OW21238   1.117   1.171   7.966  0.1085  0.4361 -0.4315
 3259SOL    HW121239   1.049   1.211   7.912 -0.1644 -0.1820 -0.5493
 3259SOL    HW221240   1.090   1.198   8.053  1.0697  0.0815 -0.0139
 3260SOL     OW21241   4.503   0.713   3.388  0.1989  0.0267  0.1082
 3260SOL    HW121242   4.559   0.646   3.347  2.8612  1.2432  1.7760
 3260SOL    HW221243   4.439   0.649   3.419  1.1821 -0.9311  0.1613
 3261SOL     OW21244   1.552   0.414  16.619 -0.6332 -0.1737 -0.7416
 3261SOL    HW121245   1.531   0.371  16.702 -1.1153 -1.3929 -1.5074
 3261SOL    HW221246   1.543   0.338  16.561  0.4390 -2.1232  1.6316
 3262SOL     OW21247   0.729   1.190  12.348 -0.0852  0.5934  0.2010
 3262SOL    HW121248   0.764   1.263  12.398 -1.2864  1.5959 -0.4258
 3262SOL    HW221249   0.669   1.142  12.405  1.4321 -0.4494  0.9232
 3263SOL     OW21250   0.657   4.600   8.647 -0.1975  0.0074 -0.1862
 3263SOL    HW121251   0.650   4.630   8.738  0.1687  2.4619 -0.9693
 3263SOL    HW221252   0.685   4.511   8.673 -0.1894 -0.7488 -2.8096
 3264SOL     OW21253   3.752   3.888   6.738 -0.0226  0.0625 -0.0731
 3264SOL    HW121254   3.680   3.851   6.686 -1.0838  2.0958 -0.0665
 3264SOL    HW221255   3.708   3.956   6.790 -0.3049 -1.7167  1.9830
 3265SOL     OW21256   3.128   2.490   3.294  0.9870  0.3636 -0.1969
 3265SOL    HW121257   3.125   2.396   3.312  0.7806 -0.0917 -2.6124
 3265SOL    HW221258   3.107   2.522   3.382 -1.3085 -1.1903 -0.1999
 3266SOL     OW21259   1.717   1.586   6.311 -0.1626 -0.0164 -0.5951
 3266SOL    HW121260   1.761   1.644   6.374  2.6680 -2.6600 -0.1239
 3266SOL    HW221261   1.628   1.607   6.339 -0.0178  1.2585 -1.0921
 3267SOL     OW21262   3.060   0.610   0.346 -0.5638 -0.9525 -0.2109
 3267SOL    HW121263   3.031   0.662   0.271 -1.9772 -0.3046  0.7791
 3267SOL    HW221264   3.141   0.571   0.314 -0.7170 -0.2919 -1.4157
 3268SOL     OW21265   3.056   2.259  10.609 -0.2192 -0.2346 -0.1143
 3268SOL    HW121266   3.042   2.340  10.558 -0.3731  0.2060  0.6209
 3268SOL    HW221267   3.057   2.205  10.530 -1.4018 -2.0684  1.1382
 3269SOL     OW21268   3.400   2.176   3.637  0.1943 -0.1478  0.3158
 3269SOL    HW121269   3.493   2.150   3.633  0.5117  1.2050 -0.9059
 3269SOL    HW221270   3.356   2.099   3.599  0.6078 -0.4151  0.3732
 3270SOL     OW21271   2.300   1.759   9.310  0.8185  0.3107 -0.8171
 3270SOL    HW121272   2.226   1.700   9.323  0.4606  0.8218 -0.5515
 3270SOL    HW221273   2.297   1.799   9.397 -0.0996  0.9331 -1.1407
 3271SOL     OW21274   3.213   1.689   2.040  0.4364  0.4611  0.0021
 3271SOL    HW121275   3.307   1.679   2.051  0.1384 -0.1717  2.0097
 3271SOL    HW221276   3.199   1.696   2.135  0.4529 -2.7173  0.2484
 3272SOL     OW21277   0.615   3.981  13.325 -0.3525  0.7480  0.3830
 3272SOL    HW121278   0.588   3.891  13.307  1.4590  0.3061 -0.1504
 3272SOL    HW221279   0.673   3.996  13.250  0.4796 -1.8581  0.4923
 3273SOL     OW21280   2.648   2.918   1.828 -0.1838  0.2145 -0.0999
 3273SOL    HW121281   2.590   2.851   1.792  0.8850 -1.4528  1.2415
 3273SOL    HW221282   2.725   2.914   1.771  0.2915 -1.2775  0.6500
 3274SOL     OW21283   1.800   4.119   3.039 -0.8079 -0.8662  0.9639
 3274SOL    HW121284   1.842   4.057   2.979 -0.9232 -0.5015  0.5000
 3274SOL    HW221285   1.731   4.151   2.980  1.4324  0.3720 -0.9970
 3275SOL     OW21286   2.051   3.758   4.192 -0.5617 -0.2676  0.1829
 3275SOL    HW121287   2.112   3.684   4.189  0.5590  0.5928  1.7848
 3275SOL    HW221288   1.975   3.731   4.140 -1.1361 -0.9018  1.3462
 3276SOL     OW21289   2.058   0.866  16.036  0.5166 -0.4111  0.8211
 3276SOL    HW121290   1.970   0.856  16.072  0.2762  1.8082  0.8917
 3276SOL    HW221291   2.117   0.831  16.101 -0.2539  1.2687  2.4250
 3277SOL     OW21292   2.835   0.134   4.620  0.2169 -0.0843 -0.8236
 3277SOL    HW121293   2.867   0.202   4.561  1.2730 -0.4685 -0.7085
 3277SOL    HW221294   2.917   0.086   4.636 -0.4736 -0.9186  0.1935
 3278SOL     OW21295   4.351   2.231   4.333  0.2695 -0.3036 -0.5232
 3278SOL    HW121296   4.398   2.164   4.383 -0.1089  2.0485  2.9579
 3278SOL    HW221297   4.278   2.181   4.296  0.5268 -1.2912  0.2847
 3279SOL     OW21298   0.252   1.148   3.792  0.8503 -0.4090  0.0866
 3279SOL    HW121299   0.211   1.233   3.813 -2.5581 -1.5804 -1.7562
 3279SOL    HW221300   0.273   1.119   3.881  0.1756  0.0157  0.3861
 3280SOL     OW21301   3.638   1.021  12.757 -0.3625  0.1042 -0.3428
 3280SOL    HW121302   3.677   0.982  12.678 -0.1216 -1.1781  0.4022
 3280SOL    HW221303   3.549   1.023  12.723  0.3014  0.7008 -2.0495
 3281SOL     OW21304   2.981   3.881   3.262 -0.5362 -0.0252 -0.4639
 3281SOL    HW121305   3.031   3.833   3.196  0.2979 -1.5404  1.2466
 3281SOL    HW221306   3.007   3.971   3.245 -2.3020 -0.3142 -4.8026
 3282SOL     OW21307   1.763   4.535   4.167 -0.5956 -1.0937 -0.1599
 3282SOL    HW121308   1.799   4.446   4.174  0.1276 -0.5761  2.6106
 3282SOL    HW221309   1.812   4.570   4.093 -1.1960  1.6525  0.7345
 3283SOL     OW21310   1.135   3.955  10.875 -0.2643  0.1668  0.1536
 3283SOL    HW121311   1.206   3.941  10.812  1.0169  1.2051  1.3918
 3283SOL    HW221312   1.155   4.037  10.921  1.3502 -0.4229  0.4975
 3284SOL     OW21313   2.815   4.315   1.715  0.2196 -0.5649  0.0816
 3284SOL    HW121314   2.860   4.239   1.678 -0.1942 -0.5004 -0.5582
 3284SOL    HW221315   2.894   4.365   1.738  0.4773  0.5436 -3.0988
 3285SOL     OW21316   4.441   2.644   4.890 -0.1234 -0.0651  0.2646
 3285SOL    HW121317   4.424   2.583   4.961 -0.8089 -0.0377  0.1279
 3285SOL    HW221318   4.428   2.586   4.814  0.1180 -1.4891  1.3219
 3286SOL     OW21319   2.519   3.933   8.726  0.6481 -0.1089  0.2114
 3286SOL    HW121320   2.494   4.002   8.664 -0.8159 -1.1065 -0.3091
 3286SOL    HW221321   2.433   3.904   8.758  1.1886  0.2856  2.0372
 3287SOL     OW21322   1.322   3.460   8.631 -0.1714 -0.2297  0.5848
 3287SOL    HW121323   1.371   3.470   8.550  0.7836 -3.7000  0.7389
 3287SOL    HW221324   1.289   3.550   8.623 -0.8280 -0.6578 -1.5903
 3288SOL     OW21325   1.695   2.080   4.386  0.2700  0.5905 -0.0241
 3288SOL    HW121326   1.790   2.095   4.386  0.2757  0.5509 -0.1821
 3288SOL    HW221327   1.678   2.028   4.308 -0.7593  0.4832  0.2761
 3289SOL     OW21328   2.400   3.428  16.636 -0.2244  0.2206  0.1004
 3289SOL    HW121329   2.373   3.497  16.574 -1.3268 -0.9548 -0.7341
 3289SOL    HW221330   2.378   3.469  16.720 -1.8001 -0.1800 -0.1139
 3290SOL     OW21331   1.976   1.763  17.589 -0.1567 -0.0248 -0.0949
 3290SOL    HW121332   1.979   1.765  17.685 -1.7230  0.9914 -0.0695
 3290SOL    HW221333   1.905   1.824  17.571  0.3475  0.9864  1.3773
 3291SOL     OW21334   0.508   2.958   8.271 -0.0135 -0.5138  0.1131
 3291SOL    HW121335   0.435   3.017   8.292  1.6833  2.3482 -2.1046
 3291SOL    HW221336   0.546   2.923   8.351  1.2364  0.4641 -0.0685
 3292SOL     OW21337   1.492   3.452   4.942 -0.4812 -0.2632  0.2661
 3292SOL    HW121338   1.502   3.419   5.031 -0.5388  0.9562  0.7177
 3292SOL    HW221339   1.406   3.494   4.941 -0.1523  0.4296  2.0418
 3293SOL     OW21340   4.222   0.621   7.576  0.3784  0.2710  0.9124
 3293SOL    HW121341   4.261   0.543   7.617  0.3416 -0.1523  0.1484
 3293SOL    HW221342   4.236   0.680   7.649  2.2784  2.7705 -1.4879
 3294SOL     OW21343   4.138   1.133  17.183  0.3189  0.3521  0.2811
 3294SOL    HW121344   4.090   1.092  17.111 -0.1136  0.1354  0.6946
 3294SOL    HW221345   4.230   1.127  17.154  0.4164 -0.2738  0.7240
 3295SOL     OW21346   1.777   3.646   7.889 -0.5313  0.0986  0.7231
 3295SOL    HW121347   1.736   3.580   7.832  2.2399  0.4152 -1.6288
 3295SOL    HW221348   1.852   3.598   7.923 -0.6670  0.5209  1.6101
 3296SOL     OW21349   1.643   0.756  10.995  0.0892 -0.3407  0.4416
 3296SOL    HW121350   1.573   0.697  11.022 -2.2136  1.8799 -0.7448
 3296SOL    HW221351   1.719   0.711  11.032  0.6044 -0.2363 -0.4940
 3297SOL     OW21352   1.151   4.219   9.912 -0.3590 -0.1978 -0.1360
 3297SOL    HW121353   1.184   4.301   9.874  1.7136 -1.1289 -0.3682
 3297SOL    HW221354   1.236   4.190   9.944  0.6028  2.8268  0.0939
 3298SOL     OW21355   1.365   0.287   8.509 -0.3047 -0.4242  0.0755
 3298SOL    HW121356   1.274   0.316   8.505 -0.7300 -1.7465  0.1024
 3298SOL    HW221357   1.365   0.229   8.586 -0.3210 -1.3087 -0.5914
 3299SOL     OW21358   1.795   2.322  15.229  0.6342 -0.2355 -0.4422
 3299SOL    HW121359   1.750   2.358  15.306  1.6170 -0.5150  0.2568
 3299SOL    HW221360   1.746   2.356  15.154  1.6628  0.0621 -0.9875
 3300SOL     OW21361   1.220   3.736  17.408 -0.1399 -0.2508  1.0511
 3300SOL    HW121362   1.186   3.812  17.361  1.9631 -0.7042 -1.1291
 3300SOL    HW221363   1.187   3.665  17.352  1.4153  0.0116 -0.1731
 3301SOL     OW21364   0.026   1.391  13.487  0.2758  0.7171  0.1600
 3301SOL    HW121365   4.718   1.428  13.405 -3.0943 -1.4967  0.5430
 3301SOL    HW221366   4.667   1.377  13.530 -0.1518 -0.2796 -1.0289
 3302SOL     OW21367   4.367   4.423   7.736 -0.1538 -0.0940 -0.0697
 3302SOL    HW121368   4.347   4.396   7.646  0.4090  0.4414 -0.3550
 3302SOL    HW221369   4.336   4.349   7.787 -1.4856 -0.0903 -0.8686
 3303SOL     OW21370   2.362   0.525   4.564  0.4101  0.1621  0.1014
 3303SOL    HW121371   2.407   0.596   4.610  2.4639  0.1111 -1.8150
 3303SOL    HW221372   2.442   0.486   4.529  0.7819  0.8942  0.1303
 3304SOL     OW21373   2.453   1.920   2.971 -0.1313 -0.0555  0.1263
 3304SOL    HW121374   2.528   1.914   2.913 -1.3860 -1.3965 -1.3412
 3304SOL    HW221375   2.503   1.917   3.053  1.1601  1.4538 -0.6071
 3305SOL     OW21376   0.144   2.799   2.325  0.0956 -0.1763 -0.4028
 3305SOL    HW121377   0.163   2.871   2.264  2.5118  0.1278  0.7100
 3305SOL    HW221378   0.053   2.781   2.302  0.0864 -0.7744  0.1133
 3306SOL     OW21379   3.653   2.852   1.340 -0.1339 -0.3095 -0.5328
 3306SOL    HW121380   3.613   2.787   1.282 -3.0720  0.4469  0.6547
 3306SOL    HW221381   3.645   2.926   1.279 -0.1260  0.9592  0.9914
 3307SOL     OW21382   0.525   1.129  13.597 -0.6583  0.4310 -0.1243
 3307SOL    HW121383   0.544   1.223  13.594 -2.2566  0.7559 -0.0970
 3307SOL    HW221384   0.612   1.096  13.572 -0.8631 -0.1270 -0.0892
 3308SOL     OW21385   4.207   0.190  17.535 -0.1106  0.5280 -0.0266
 3308SOL    HW121386   4.302   0.189  17.547  0.0777 -0.8018 -1.6781
 3308SOL    HW221387   4.182   0.098  17.527  0.9968  0.1284  1.1498
 3309SOL     OW21388   0.280   2.964  16.813 -0.5004 -0.0465 -0.6835
 3309SOL    HW121389   0.346   2.990  16.877  1.4903  1.0014 -3.1451
 3309SOL    HW221390   0.317   2.882  16.778  0.9429  1.2588 -2.2434
 3310SOL     OW21391   3.292   2.629   4.053  0.0146  0.1891 -0.1785
 3310SOL    HW121392   3.243   2.710   4.041 -0.7574 -0.4572 -1.3952
 3310SOL    HW221393   3.252   2.584   4.127  0.9711 -0.3320  0.0331
 3311SOL     OW21394   1.549   3.273   6.622  0.0577  0.9162 -0.0954
 3311SOL    HW121395   1.605   3.221   6.564  0.4751  1.3536 -0.0900
 3311SOL    HW221396   1.487   3.205   6.647 -1.8218  1.8970 -2.0311
 3312SOL     OW21397   3.456   4.482  16.451  0.3641  0.3302 -0.1384
 3312SOL    HW121398   3.521   4.477  16.380 -0.1076 -1.2333 -0.4641
 3312SOL    HW221399   3.402   4.551  16.412 -1.1762 -1.4230 -1.0801
 3313SOL     OW21400   3.911   2.652   3.245 -0.5239  0.4852 -0.5752
 3313SOL    HW121401   3.833   2.637   3.191 -1.6069  1.0559  0.8321
 3313SOL    HW221402   3.969   2.584   3.210 -0.1853  0.8800 -0.7743
 3314SOL     OW21403   1.820   4.464   3.866  0.0878  0.4962 -0.4619
 3314SOL    HW121404   1.864   4.546   3.885  0.4877  0.0129  0.7182
 3314SOL    HW221405   1.844   4.445   3.775  1.7575  0.5794 -0.0392
 3315SOL     OW21406   1.958   0.641   5.284 -0.2055 -0.5153 -0.1995
 3315SOL    HW121407   2.026   0.599   5.337  1.4551  1.0550 -1.0794
 3315SOL    HW221408   1.880   0.588   5.300 -0.8996  0.6831  0.3589
 3316SOL     OW21409   2.793   0.998  11.902 -0.3708  0.1381  0.1680
 3316SOL    HW121410   2.709   0.974  11.941  0.2644 -0.9562  0.8686
 3316SOL    HW221411   2.801   0.944  11.823 -0.7383 -0.5266  0.5830
 3317SOL     OW21412   4.114   2.157   0.176 -0.0348  0.2826  0.3443
 3317SOL    HW121413   4.106   2.210   0.096 -1.0155 -0.0418  0.2258
 3317SOL    HW221414   4.086   2.222   0.241 -0.0902  1.1765 -0.5744
 3318SOL     OW21415   1.472   2.504   4.777  0.0976  0.3452 -0.1555
 3318SOL    HW121416   1.405   2.441   4.805 -0.4130  0.8624 -0.2220
 3318SOL    HW221417   1.549   2.465   4.819  0.0206  0.8131  0.4108
 3319SOL     OW21418   3.347   1.177   5.332  0.0493 -0.2248  0.0959
 3319SOL    HW121419   3.293   1.176   5.411  0.7748  0.8834  0.6113
 3319SOL    HW221420   3.344   1.269   5.306 -3.6949 -0.5214 -0.5162
 3320SOL     OW21421   0.661   3.398   3.913  0.7046 -0.1223  0.1394
 3320SOL    HW121422   0.575   3.416   3.951 -0.7807 -1.1897 -2.7131
 3320SOL    HW221423   0.644   3.341   3.838 -0.9699  2.7470 -1.6822
 3321SOL     OW21424   4.316   0.245   7.053  0.1744  0.0505  0.3750
 3321SOL    HW121425   4.346   0.181   6.989 -1.8516 -0.9054  0.3750
 3321SOL    HW221426   4.363   0.216   7.132 -1.5126  2.6281  2.3204
 3322SOL     OW21427   3.976   3.588   8.786  0.5640 -0.2294 -0.1948
 3322SOL    HW121428   3.919   3.525   8.742  1.0769 -2.2217  2.0606
 3322SOL    HW221429   3.930   3.672   8.788  0.2995 -0.4211  1.3778
 3323SOL     OW21430   0.329   0.571   2.044 -0.2119 -0.4057 -0.0584
 3323SOL    HW121431   0.373   0.563   1.959  1.2901 -0.7878  0.7489
 3323SOL    HW221432   0.278   0.491   2.057  2.2140 -1.5388  2.5295
 3324SOL     OW21433   0.059   3.011   0.731 -0.1753  0.4111 -0.1706
 3324SOL    HW121434   0.133   2.981   0.784 -0.5129 -1.3524 -0.6909
 3324SOL    HW221435   0.108   3.005   0.649  0.4963  0.5136  0.2243
 3325SOL     OW21436   3.850   2.346   9.895 -0.1974  0.0681  0.5768
 3325SOL    HW121437   3.816   2.348   9.806 -2.1493  0.0682  1.3288
 3325SOL    HW221438   3.901   2.428   9.893 -1.0557  0.6303  2.1155
 3326SOL     OW21439   2.629   4.357   3.597 -0.4017  0.4503 -0.0611
 3326SOL    HW121440   2.720   4.327   3.591  0.3604  2.4463  1.7556
 3326SOL    HW221441   2.599   4.309   3.520 -1.2593  1.0793 -0.1100
 3327SOL     OW21442   2.744   2.253   6.780  0.3757 -0.1488  0.3953
 3327SOL    HW121443   2.807   2.256   6.852 -0.0716  1.2659  0.7167
 3327SOL    HW221444   2.747   2.342   6.744  0.4379 -0.0591  0.6238
 3328SOL     OW21445   4.018   3.099   6.366 -0.8197 -0.2020  0.6045
 3328SOL    HW121446   4.053   3.097   6.277 -1.4172  0.6879  0.3615
 3328SOL    HW221447   3.929   3.130   6.352 -1.7758 -2.5877  1.3834
 3329SOL     OW21448   2.332   2.936   7.033 -0.2268  0.2764 -0.1350
 3329SOL    HW121449   2.277   2.893   7.098  0.1490 -1.9170 -1.2601
 3329SOL    HW221450   2.278   3.002   6.991 -1.3566 -0.2789  0.4667
 3330SOL     OW21451   4.552   2.814   5.750 -0.4080 -0.0756  0.1679
 3330SOL    HW121452   4.625   2.813   5.688 -1.1059  0.7196 -0.6709
 3330SOL    HW221453   4.580   2.750   5.816  2.8203 -0.8827 -2.0114
 3331SOL     OW21454   0.186   2.990   7.737 -0.1200  0.0372  0.0659
 3331SOL    HW121455   0.262   3.043   7.761 -0.0762 -0.2692  0.6016
 3331SOL    HW221456   0.209   2.941   7.658 -0.5885 -0.5229  0.2807
 3332SOL     OW21457   3.935   2.502  17.212  0.1096 -0.1323  0.0790
 3332SOL    HW121458   3.983   2.538  17.138 -0.0159 -0.7217 -0.2843
 3332SOL    HW221459   3.888   2.580  17.241  1.1768 -0.5465  2.9835
 3333SOL     OW21460   1.613   2.893   6.068 -0.1365  0.1056 -0.0985
 3333SOL    HW121461   1.637   2.828   6.134 -0.4478 -1.2118 -1.2796
 3333SOL    HW221462   1.591   2.833   5.997  1.8418 -0.5306 -0.1587
 3334SOL     OW21463   1.132   3.666   3.198 -0.3329  0.6528 -0.1768
 3334SOL    HW121464   1.109   3.617   3.277 -1.7576  1.7219  0.0526
 3334SOL    HW221465   1.180   3.740   3.235 -1.0632  0.6335  0.8027
 3335SOL     OW21466   2.091   3.889  15.245 -0.5378  0.0925  0.0298
 3335SOL    HW121467   2.126   3.971  15.210  1.4541 -1.9260 -2.7701
 3335SOL    HW221468   2.077   3.905  15.338  2.1115  0.7945  0.3035
 3336SOL     OW21469   3.975   4.480  14.514  0.3620 -0.4892 -0.0353
 3336SOL    HW121470   4.052   4.423  14.519  0.5707 -0.3850 -1.8713
 3336SOL    HW221471   3.904   4.421  14.537 -0.2927 -0.4045 -1.8591
 3337SOL     OW21472   4.383   2.989  13.157 -0.2886 -0.0166 -0.1031
 3337SOL    HW121473   4.387   3.082  13.135 -0.5035 -0.2462 -1.0906
 3337SOL    HW221474   4.470   2.960  13.130 -1.1420 -0.6335 -2.2248
 3338SOL     OW21475   0.042   1.565   8.568  0.2454 -0.0604  0.1655
 3338SOL    HW121476   0.117   1.517   8.604  1.3330  1.7527  0.2841
 3338SOL    HW221477   4.699   1.518   8.616 -0.6301  0.4016 -0.6382
 3339SOL     OW21478   0.972   1.538   3.092  0.7538 -0.0300 -0.4664
 3339SOL    HW121479   0.931   1.621   3.118  1.5949  0.3333 -0.3100
 3339SOL    HW221480   0.959   1.539   2.997  3.5032  0.1383 -0.8297
 3340SOL     OW21481   0.630   0.585   3.141  0.0837  0.1694 -0.3626
 3340SOL    HW121482   0.691   0.535   3.195  1.6376  1.5215 -0.8634
 3340SOL    HW221483   0.656   0.674   3.168 -0.4296  0.1847  0.0804
 3341SOL     OW21484   0.887   0.320   6.361  0.2151  0.0183  0.9091
 3341SOL    HW121485   0.818   0.301   6.298  0.7831 -1.1602  0.6425
 3341SOL    HW221486   0.887   0.239   6.413 -0.2683  1.2908  2.9128
 3342SOL     OW21487   3.548   2.401   0.563 -0.2156  0.5886  0.5718
 3342SOL    HW121488   3.628   2.435   0.525  1.4985 -2.3529  1.5238
 3342SOL    HW221489   3.564   2.416   0.656 -0.6441 -1.0274  0.9129
 3343SOL     OW21490   1.171   4.724  16.151 -0.2491 -0.0955 -0.0336
 3343SOL    HW121491   1.241   4.720  16.087 -0.7981  0.4026 -0.6667
 3343SOL    HW221492   1.211   0.070  16.202  0.7763 -0.6331 -0.0973
 3344SOL     OW21493   4.485   2.309   8.557  0.0114 -0.5605 -0.2403
 3344SOL    HW121494   4.565   2.349   8.591 -0.4860  1.0487 -0.9715
 3344SOL    HW221495   4.501   2.318   8.463  2.5987  0.5570  0.3102
 3345SOL     OW21496   3.216   1.631   8.428 -0.5501  0.6892 -0.2336
 3345SOL    HW121497   3.134   1.661   8.388 -0.6948  1.7193  0.8379
 3345SOL    HW221498   3.177   1.612   8.513 -2.1614  0.9959 -0.8994
 3346SOL     OW21499   0.604   0.155   4.437  0.0294 -0.3030 -0.7433
 3346SOL    HW121500   0.541   0.198   4.380 -1.0824 -0.5611  0.2989
 3346SOL    HW221501   0.678   0.132   4.379  0.6282 -0.7819  0.2105
 3347SOL     OW21502   2.873   2.057  17.121  0.0933  0.0579  0.1658
 3347SOL    HW121503   2.858   1.967  17.150 -1.9619  0.3513  0.0190
 3347SOL    HW221504   2.791   2.064  17.073 -1.4110  0.6686  2.8542
 3348SOL     OW21505   3.380   2.211   5.155 -0.5765  0.3417  0.2043
 3348SOL    HW121506   3.296   2.186   5.118 -0.6175  1.3485 -0.3884
 3348SOL    HW221507   3.447   2.182   5.094 -0.8970  0.0593 -0.0065
 3349SOL     OW21508   0.831   1.059  11.611 -0.4466  0.2208  0.6993
 3349SOL    HW121509   0.761   1.112  11.649  0.2336  0.8852  1.0224
 3349SOL    HW221510   0.916   1.089  11.643  0.0837  1.5621 -2.0270
 3350SOL     OW21511   4.579   4.164   0.091  0.0799 -0.2151 -0.0139
 3350SOL    HW121512   4.528   4.141   0.169  1.5748  1.3517  1.4395
 3350SOL    HW221513   4.641   4.092   0.078  1.1702  0.8454 -0.6304
 3351SOL     OW21514   4.474   4.498   0.666 -0.0604 -0.2112 -0.0524
 3351SOL    HW121515   4.378   4.496   0.665 -0.1252  0.4254  3.2322
 3351SOL    HW221516   4.501   4.421   0.715  0.4728 -0.3014 -0.5002
 3352SOL     OW21517   1.909   2.748   2.927  0.3990 -0.5797 -0.5258
 3352SOL    HW121518   1.853   2.764   2.851 -2.5198  2.7674  2.3150
 3352SOL    HW221519   1.842   2.757   2.994  0.9021  0.4652 -0.1661
 3353SOL     OW21520   3.633   1.925   3.798 -0.5326  0.1375  0.1777
 3353SOL    HW121521   3.628   1.941   3.892  2.6512  1.1480  0.1832
 3353SOL    HW221522   3.562   1.862   3.786  0.3919 -0.7607 -0.6033
 3354SOL     OW21523   3.004   0.991  17.471  0.0181  0.2826  0.0882
 3354SOL    HW121524   2.958   0.907  17.472 -1.1504  0.9367  0.0273
 3354SOL    HW221525   3.096   0.980  17.498  0.5749  1.3371 -1.3860
 3355SOL     OW21526   2.591   1.331   2.520  0.1213 -0.8193  0.5120
 3355SOL    HW121527   2.620   1.339   2.612  0.4103 -0.0298  0.3529
 3355SOL    HW221528   2.668   1.286   2.484  0.6592 -0.2243  0.8995
 3356SOL     OW21529   1.261   3.891   3.244  0.2667  0.1701 -0.3025
 3356SOL    HW121530   1.299   3.916   3.329  0.3080 -3.0947  0.6574
 3356SOL    HW221531   1.345   3.879   3.199  0.1819  1.7918 -0.8927
 3357SOL     OW21532   0.479   1.984   1.875 -0.2071  0.2667 -0.1461
 3357SOL    HW121533   0.420   1.915   1.904 -0.6611 -0.0613 -1.8158
 3357SOL    HW221534   0.517   1.941   1.798 -1.1470 -0.3343 -0.2624
 3358SOL     OW21535   0.202   1.423   3.940 -0.0575 -0.3582  0.4052
 3358SOL    HW121536   0.261   1.498   3.946 -0.1611 -0.1265 -1.2962
 3358SOL    HW221537   0.150   1.443   3.862 -1.0831  0.4591  1.2909
 3359SOL     OW21538   3.047   4.065  13.352 -0.1408  0.0725 -0.6528
 3359SOL    HW121539   3.056   3.992  13.413 -0.4410 -0.0700 -0.7804
 3359SOL    HW221540   3.038   4.021  13.268  2.3376 -1.5131 -0.0827
 3360SOL     OW21541   3.048   3.419   8.660 -0.0061  0.0837  0.3279
 3360SOL    HW121542   3.114   3.474   8.703 -1.1394  1.3211  0.4680
 3360SOL    HW221543   3.054   3.445   8.568 -0.9299 -0.8360  0.0102
 3361SOL     OW21544   0.567   3.715  13.213 -0.6204 -0.3553 -0.3247
 3361SOL    HW121545   0.609   3.774  13.151 -1.7912  1.0630  0.2307
 3361SOL    HW221546   0.475   3.725  13.187 -0.7886 -1.3231 -0.1218
 3362SOL     OW21547   4.305   3.148  17.320 -0.0550  0.3808 -0.2421
 3362SOL    HW121548   4.290   3.143  17.225 -0.1913  3.7787 -0.4083
 3362SOL    HW221549   4.232   3.100  17.358  0.1654  0.0509 -0.2362
 3363SOL     OW21550   4.188   2.226   3.781 -0.0468 -0.2920  0.1676
 3363SOL    HW121551   4.196   2.306   3.833  0.8861 -1.2750  1.5481
 3363SOL    HW221552   4.251   2.165   3.819  0.4563  1.5105  2.2714
 3364SOL     OW21553   1.822   0.937  14.564  0.1250 -0.3027 -0.6972
 3364SOL    HW121554   1.791   0.885  14.490 -0.6073  0.8148 -1.1638
 3364SOL    HW221555   1.858   1.019  14.530 -1.9988  1.7597  2.0423
 3365SOL     OW21556   3.944   1.982   6.866  0.4123 -0.3133  0.4781
 3365SOL    HW121557   3.947   2.075   6.888 -1.8663  0.5167 -2.8346
 3365SOL    HW221558   4.035   1.958   6.850  0.8322  2.4296 -1.2899
 3366SOL     OW21559   4.564   4.521   6.321 -0.3917 -0.3826 -0.3672
 3366SOL    HW121560   4.555   4.426   6.321  1.3987 -0.5483 -1.2660
 3366SOL    HW221561   4.526   4.533   6.408  0.7376  0.4161  0.0036
 3367SOL     OW21562   3.588   2.874  16.562  0.0318 -0.0517  0.1489
 3367SOL    HW121563   3.633   2.821  16.628  0.4503  0.3164  0.1608
 3367SOL    HW221564   3.626   2.831  16.485  1.4967  2.0964 -0.3040
 3368SOL     OW21565   1.458   3.879  13.049  0.5484 -0.2338 -0.3568
 3368SOL    HW121566   1.514   3.934  12.995 -1.5297  1.8680 -0.3592
 3368SOL    HW221567   1.477   3.914  13.136  0.3651 -1.4015  0.1617
 3369SOL     OW21568   0.819   4.269  10.521  0.3725  0.0758 -0.0645
 3369SOL    HW121569   0.735   4.259  10.565  0.8922 -2.1181  0.4253
 3369SOL    HW221570   0.822   4.363  10.500 -1.8849  0.1422 -0.0793
 3370SOL     OW21571   2.411   1.877   5.671 -0.1049 -0.2355  0.1614
 3370SOL    HW121572   2.390   1.867   5.764 -0.3079  1.7931  0.3532
 3370SOL    HW221573   2.397   1.788   5.639 -2.0388 -0.0188  0.4443
 3371SOL     OW21574   0.713   3.406   5.042 -0.2635 -0.0434  0.1885
 3371SOL    HW121575   0.699   3.482   4.986 -1.5524 -0.3868  0.0588
 3371SOL    HW221576   0.645   3.405   5.109 -1.1275  0.9739 -0.6844
 3372SOL     OW21577   3.091   2.469   6.146  0.4247 -0.4625  0.4564
 3372SOL    HW121578   3.080   2.480   6.240  1.4148 -2.2794  0.8006
 3372SOL    HW221579   3.004   2.442   6.116  0.8259 -0.2041 -0.9547
 3373SOL     OW21580   3.411   3.024  12.156  0.2738  0.1666 -0.1999
 3373SOL    HW121581   3.438   3.023  12.064 -2.6714 -1.8305 -1.0629
 3373SOL    HW221582   3.469   2.956  12.191  0.5369  1.2000  1.3414
 3374SOL     OW21583   3.794   3.712   3.950  0.7302  0.1112  0.3216
 3374SOL    HW121584   3.792   3.767   4.027 -0.5078 -2.6839  2.3036
 3374SOL    HW221585   3.847   3.758   3.885  0.2363  1.2213  0.7028
 3375SOL     OW21586   1.665   2.996   4.188 -0.1970  0.1921 -0.0328
 3375SOL    HW121587   1.731   2.928   4.175 -0.0948  0.3873 -0.5441
 3375SOL    HW221588   1.699   3.071   4.140 -3.4878  2.1699  0.7079
 3376SOL     OW21589   1.884   2.160  11.813  0.4667  0.5045 -0.0931
 3376SOL    HW121590   1.826   2.217  11.863  0.6388  2.5896 -2.2494
 3376SOL    HW221591   1.957   2.177  11.871  0.5989 -2.2993  0.5591
 3377SOL     OW21592   0.844   2.072  10.081 -0.8536 -0.3074 -0.0120
 3377SOL    HW121593   0.782   2.143  10.065 -0.0704 -0.0247 -1.7758
 3377SOL    HW221594   0.922   2.111  10.041 -0.2610 -0.6088  0.8522
 3378SOL     OW21595   2.152   4.203   2.002 -0.2863  0.2431  0.3009
 3378SOL    HW121596   2.201   4.281   1.977 -0.0428  0.1719  0.5553
 3378SOL    HW221597   2.061   4.233   2.004 -0.5273 -0.5357  1.1013
 3379SOL     OW21598   2.407   3.430  15.657 -0.0553  0.1254  0.4081
 3379SOL    HW121599   2.439   3.346  15.689 -0.9523  0.0737  1.1688
 3379SOL    HW221600   2.472   3.490  15.691 -0.5263  1.7929 -1.6292
 3380SOL     OW21601   1.786   3.653   3.747 -0.1285 -0.0559  0.2173
 3380SOL    HW121602   1.755   3.672   3.835 -1.1411 -2.8262  0.4501
 3380SOL    HW221603   1.756   3.732   3.700  0.2572  0.5237  0.9567
 3381SOL     OW21604   2.871   0.421  13.227  0.7156 -0.0274 -0.7262
 3381SOL    HW121605   2.952   0.417  13.177 -1.1235 -0.3659 -3.7182
 3381SOL    HW221606   2.851   0.513  13.213  1.7909  0.2239 -0.5795
 3382SOL     OW21607   0.631   1.689  14.782  0.1144  0.1786  0.3051
 3382SOL    HW121608   0.554   1.677  14.837  0.8804  1.7665  1.7108
 3382SOL    HW221609   0.672   1.603  14.790 -0.3864  0.2017  3.0605
 3383SOL     OW21610   4.392   3.478   0.650 -0.1332  0.1049  0.5366
 3383SOL    HW121611   4.419   3.447   0.736  0.0963  0.5089  0.6097
 3383SOL    HW221612   4.328   3.546   0.674 -1.6014 -1.5434  1.3155
 3384SOL     OW21613   2.585   3.391   8.994  0.1259 -0.0652  0.5169
 3384SOL    HW121614   2.584   3.297   9.012  0.9565 -0.3666 -1.0159
 3384SOL    HW221615   2.679   3.406   9.005  0.0962  0.1718  0.4448
 3385SOL     OW21616   4.068   2.717  15.359  0.3150  0.2802  0.2111
 3385SOL    HW121617   3.973   2.716  15.347  0.2697 -0.2724  0.6571
 3385SOL    HW221618   4.086   2.639  15.305 -2.7304 -0.1817 -0.1338
 3386SOL     OW21619   2.891   0.730   6.121 -0.5878 -0.6270 -0.3545
 3386SOL    HW121620   2.870   0.654   6.176 -2.6607 -0.4826 -0.9398
 3386SOL    HW221621   2.818   0.715   6.060 -0.2423  1.0271 -1.1800
 3387SOL     OW21622   2.563   3.093   8.467  0.1324 -0.1518  0.9334
 3387SOL    HW121623   2.620   3.102   8.390 -1.3812 -0.7159 -0.2489
 3387SOL    HW221624   2.600   3.024   8.523  1.2246  1.4373  2.1631
 3388SOL     OW21625   2.122   0.462   7.656 -0.5928 -0.0442 -0.1602
 3388SOL    HW121626   2.115   0.444   7.562  0.7987  1.9367 -0.6513
 3388SOL    HW221627   2.153   0.379   7.692  2.5217  0.7534 -0.9466
 3389SOL     OW21628   4.230   2.218   3.502  0.3234 -0.3345  0.0440
 3389SOL    HW121629   4.228   2.186   3.593 -1.0211 -0.0782  0.1020
 3389SOL    HW221630   4.150   2.269   3.495  0.3287 -0.4612 -0.9347
 3390SOL     OW21631   2.754   2.061   0.725  0.3259 -0.1487 -0.3440
 3390SOL    HW121632   2.677   2.030   0.678  0.3341 -2.0782  0.9636
 3390SOL    HW221633   2.707   2.125   0.779 -0.9225  1.2900 -3.1245
 3391SOL     OW21634   0.147   3.152   4.643  0.1057 -0.2539 -0.3372
 3391SOL    HW121635   0.174   3.153   4.552  2.7302 -1.1037  0.4347
 3391SOL    HW221636   0.172   3.242   4.665 -0.2984 -0.5617  1.3768
 3392SOL     OW21637   1.324   0.742   4.621 -0.0718 -0.0897 -0.2422
 3392SOL    HW121638   1.417   0.740   4.597 -0.0581 -3.6068  0.1323
 3392SOL    HW221639   1.279   0.725   4.539  0.3218 -1.8991 -0.0816
 3393SOL     OW21640   4.303   3.380  15.085 -0.1280 -0.2831  0.6826
 3393SOL    HW121641   4.390   3.352  15.058 -0.2554 -0.8961  0.9058
 3393SOL    HW221642   4.294   3.462  15.035 -0.2508 -0.7414 -0.0508
 3394SOL     OW21643   2.818   0.925   3.385  0.3061 -0.4266 -0.3862
 3394SOL    HW121644   2.818   0.834   3.414 -1.2777  0.0210  1.0053
 3394SOL    HW221645   2.842   0.962   3.469 -1.9321  0.5465 -0.1651
 3395SOL     OW21646   2.371   1.355  13.254  0.3263  0.1412  0.3924
 3395SOL    HW121647   2.358   1.262  13.240 -2.4359  0.6403 -0.3182
 3395SOL    HW221648   2.430   1.349  13.330  0.7304  0.1591  0.0814
 3396SOL     OW21649   0.329   0.780   5.864 -0.2814  0.1879  0.2018
 3396SOL    HW121650   0.287   0.855   5.905 -3.0154 -0.5398 -1.2545
 3396SOL    HW221651   0.344   0.806   5.773 -1.7000  1.3695  0.3183
 3397SOL     OW21652   4.049   3.803   8.306  0.3418  0.8959  0.5107
 3397SOL    HW121653   4.083   3.755   8.381  2.2273  1.0216 -0.2647
 3397SOL    HW221654   4.123   3.849   8.267  0.6720  0.0163  0.0734
 3398SOL     OW21655   3.993   1.961  12.140 -0.3650  0.0741  0.0146
 3398SOL    HW121656   4.081   1.957  12.102  0.8695 -3.1547  3.3041
 3398SOL    HW221657   3.962   1.871  12.144  0.0875  0.1394  4.7175
 3399SOL     OW21658   4.073   1.702   6.134 -0.0167 -0.1563 -0.6610
 3399SOL    HW121659   4.089   1.756   6.057  0.2659  1.4016  0.4892
 3399SOL    HW221660   3.985   1.668   6.120 -0.5501  0.8699  0.2332
 3400SOL     OW21661   2.038   3.780   7.707 -0.1427  0.7828 -0.2123
 3400SOL    HW121662   1.995   3.762   7.624 -0.9078  0.1959  0.3047
 3400SOL    HW221663   2.104   3.711   7.702  0.2364  1.2478 -1.4681
 3401SOL     OW21664   0.229   2.271   6.983  0.6051  0.1816  0.0854
 3401SOL    HW121665   0.161   2.263   7.050 -1.0544  2.1776 -1.3768
 3401SOL    HW221666   0.227   2.185   6.940  2.2601  0.4812 -0.5794
 3402SOL     OW21667   4.382   4.009  11.285 -0.2297  0.2359  0.2652
 3402SOL    HW121668   4.474   4.018  11.308 -0.1297 -0.3857  0.1066
 3402SOL    HW221669   4.393   4.012  11.190  0.4140 -0.7896  0.3075
 3403SOL     OW21670   3.080   3.971  11.353 -0.3634  0.2591  0.2908
 3403SOL    HW121671   3.005   3.983  11.294 -0.5206  0.1630  0.4680
 3403SOL    HW221672   3.066   3.882  11.387  0.2062  0.4090  0.9062
 3404SOL     OW21673   4.276   1.319   4.774  0.1642  0.7079 -0.6532
 3404SOL    HW121674   4.276   1.343   4.867 -1.6595  1.4517 -0.8489
 3404SOL    HW221675   4.368   1.335   4.753 -0.0411 -0.0678 -2.1439
 3405SOL     OW21676   3.352   3.183   8.577 -0.0942  0.2957 -0.0197
 3405SOL    HW121677   3.421   3.117   8.578 -1.1779 -0.8046  1.7684
 3405SOL    HW221678   3.357   3.221   8.665 -1.0028  0.4919 -0.0499
 3406SOL     OW21679   1.065   3.283   7.773  0.1103  0.1701  0.8938
 3406SOL    HW121680   1.095   3.343   7.705 -0.9676  0.9256  1.0936
 3406SOL    HW221681   1.009   3.218   7.731  0.9330 -0.4817  0.8091
 3407SOL     OW21682   4.573   1.475   2.724  0.1686 -0.4528 -0.5683
 3407SOL    HW121683   4.495   1.530   2.713  0.2176 -0.6098 -1.7282
 3407SOL    HW221684   4.590   1.487   2.817 -0.3096  1.7822 -0.7667
 3408SOL     OW21685   0.314   2.920   2.959 -0.5516 -0.2474 -0.2111
 3408SOL    HW121686   0.233   2.938   2.912  0.1415  3.0239 -0.1249
 3408SOL    HW221687   0.290   2.835   2.995 -0.1399  0.1181  0.9291
 3409SOL     OW21688   0.728   1.479   6.269  0.4972 -0.1675 -0.0961
 3409SOL    HW121689   0.784   1.404   6.248 -1.9873 -1.5081 -1.8000
 3409SOL    HW221690   0.789   1.530   6.324 -1.9978  0.2425  2.2787
 3410SOL     OW21691   1.265   1.166  16.296 -0.4028  0.2056 -0.5847
 3410SOL    HW121692   1.181   1.123  16.308  0.1943 -0.2379  1.9163
 3410SOL    HW221693   1.332   1.097  16.295  1.3581  1.8653  2.6899
 3411SOL     OW21694   0.349   2.247  10.394  0.8259  0.0926  0.1676
 3411SOL    HW121695   0.344   2.229  10.300  1.0038 -0.1477  0.2043
 3411SOL    HW221696   0.443   2.236  10.400  0.9213  0.3033 -1.0533
 3412SOL     OW21697   4.331   3.665   7.246  0.0495  0.2388 -0.2914
 3412SOL    HW121698   4.277   3.660   7.325  0.4432  0.1828 -0.0230
 3412SOL    HW221699   4.298   3.590   7.197 -2.4117 -0.4752  2.4481
 3413SOL     OW21700   3.984   2.546   2.289 -0.0946 -0.1199 -0.4972
 3413SOL    HW121701   4.031   2.509   2.214 -0.2949  0.9456 -1.1504
 3413SOL    HW221702   4.030   2.627   2.310 -1.6690  0.5077  0.4857
 3414SOL     OW21703   1.776   2.831   0.449 -0.6016  0.3851 -0.2686
 3414SOL    HW121704   1.707   2.771   0.420  0.0886 -0.1538 -0.7737
 3414SOL    HW221705   1.843   2.824   0.381  0.3794 -1.9954  0.9360
 3415SOL     OW21706   0.654   0.710   6.454 -0.0942  0.5031  0.8111
 3415SOL    HW121707   0.658   0.719   6.359  1.1332  0.6632  0.8724
 3415SOL    HW221708   0.639   0.616   6.463 -1.6539  0.7129  0.3219
 3416SOL     OW21709   1.031   1.145   4.926 -0.1364 -0.3971 -0.3670
 3416SOL    HW121710   1.067   1.064   4.890 -0.6307 -1.3021  1.1753
 3416SOL    HW221711   1.079   1.146   5.009  0.6808 -1.4648 -0.8130
 3417SOL     OW21712   1.714   3.906   7.900 -0.3356 -0.0393  0.1834
 3417SOL    HW121713   1.763   3.947   7.829 -2.2233  0.7215 -0.6785
 3417SOL    HW221714   1.740   3.815   7.885 -1.5064 -0.2903 -0.3117
 3418SOL     OW21715   3.181   0.158   2.078  0.5058  0.4646  0.0608
 3418SOL    HW121716   3.142   0.241   2.052  0.3977 -0.0231 -1.3089
 3418SOL    HW221717   3.111   0.118   2.130 -0.1336 -3.8351 -4.1079
 3419SOL     OW21718   0.925   1.875   5.435  0.4339 -0.0335 -0.3477
 3419SOL    HW121719   0.917   1.958   5.483  0.5264 -0.0758 -0.2602
 3419SOL    HW221720   0.899   1.894   5.345 -1.6818  0.7620  0.4144
 3420SOL     OW21721   1.638   3.834   9.612  0.6298  0.3395 -0.1040
 3420SOL    HW121722   1.628   3.746   9.649 -1.2987  0.2939 -0.6947
 3420SOL    HW221723   1.561   3.876   9.650 -0.4179 -0.3440 -1.4396
 3421SOL     OW21724   4.636   0.732   4.797 -0.0052  0.3946 -0.0662
 3421SOL    HW121725   4.686   0.699   4.722 -0.6803  0.6873 -0.6457
 3421SOL    HW221726   4.566   0.778   4.751  0.6307  2.2059  0.7636
 3422SOL     OW21727   3.602   3.049   1.156 -0.0374  0.3806  0.3549
 3422SOL    HW121728   3.566   3.133   1.184 -1.5320  0.2201 -1.1352
 3422SOL    HW221729   3.606   3.053   1.061  4.4780  0.2585  0.5577
 3423SOL     OW21730   3.312   3.595   1.810 -0.4638  0.3288  0.5247
 3423SOL    HW121731   3.374   3.607   1.882  1.4990  3.2146 -1.6498
 3423SOL    HW221732   3.272   3.511   1.833  1.2268 -1.2149 -2.1547
 3424SOL     OW21733   3.552   1.667   3.283  0.3252 -0.2705 -0.2276
 3424SOL    HW121734   3.588   1.579   3.276  2.4283  0.5137  0.8277
 3424SOL    HW221735   3.548   1.696   3.192  1.0252  0.1845 -0.1125
 3425SOL     OW21736   2.145   2.535   4.757  0.5717 -0.3506  0.0572
 3425SOL    HW121737   2.121   2.462   4.814 -2.4967 -1.2851 -2.4463
 3425SOL    HW221738   2.200   2.480   4.702  0.4811  1.3067 -1.6667
 3426SOL     OW21739   3.700   3.389   9.085  0.6892  0.3304  0.5468
 3426SOL    HW121740   3.782   3.423   9.049  0.7686 -0.1385  0.2898
 3426SOL    HW221741   3.637   3.459   9.065 -1.3819 -1.5227  0.5554
 3427SOL     OW21742   4.557   2.069  10.670 -0.4524  0.2251 -0.3131
 3427SOL    HW121743   4.645   2.095  10.644  0.4247 -1.4165  0.9865
 3427SOL    HW221744   4.533   2.140  10.730  0.3779 -0.9683  1.4224
 3428SOL     OW21745   4.232   0.592   6.697  0.2259  0.4184 -0.4583
 3428SOL    HW121746   4.239   0.501   6.670 -0.0926  0.1925  0.2205
 3428SOL    HW221747   4.202   0.638   6.618  0.6488  0.4641 -0.5909
 3429SOL     OW21748   2.763   0.547   8.904  0.0955 -1.2380  0.0930
 3429SOL    HW121749   2.746   0.604   8.979  2.1776  1.3629 -1.3941
 3429SOL    HW221750   2.771   0.615   8.836 -0.6546  0.2894  1.5265
 3430SOL     OW21751   0.773   2.303   8.069 -0.7776  0.2954 -0.2225
 3430SOL    HW121752   0.833   2.352   8.014  2.0912 -0.7350  2.0101
 3430SOL    HW221753   0.836   2.235   8.091 -1.4681 -1.1232 -2.5968
 3431SOL     OW21754   4.130   0.963  14.111 -0.6076  0.0583  0.0889
 3431SOL    HW121755   4.182   0.910  14.173  1.5825  0.6532 -1.2511
 3431SOL    HW221756   4.039   0.938  14.127 -1.0113  0.2983 -1.8750
 3432SOL     OW21757   1.710   0.594   5.024  0.3346  0.5052 -0.3275
 3432SOL    HW121758   1.644   0.571   4.959 -0.7297 -1.6539  1.5216
 3432SOL    HW221759   1.746   0.671   4.980  1.5121  1.3822  2.1278
 3433SOL     OW21760   1.934   1.198   8.679 -0.0084 -0.4699 -0.1779
 3433SOL    HW121761   1.906   1.290   8.672 -0.6912 -0.6536  0.1574
 3433SOL    HW221762   1.863   1.164   8.625 -0.5785  0.6163 -0.1272
 3434SOL     OW21763   0.240   0.157  12.873 -0.2952 -0.0486  0.0492
 3434SOL    HW121764   0.300   0.137  12.944 -1.0428  1.0803  1.0152
 3434SOL    HW221765   0.188   0.078  12.856  0.4183 -0.5551  0.2517
 3435SOL     OW21766   2.612   4.706   5.286 -0.4573  0.6366  0.4830
 3435SOL    HW121767   2.544   0.007   5.348 -2.3489 -1.2047 -0.8610
 3435SOL    HW221768   2.572   4.725   5.202  0.6029  1.7519  0.2281
 3436SOL     OW21769   1.324   0.873   2.351 -0.0758 -0.3876  0.3954
 3436SOL    HW121770   1.232   0.873   2.375 -0.1386  1.1563  0.1096
 3436SOL    HW221771   1.377   0.845   2.426 -0.5623  1.5925  1.4726
 3437SOL     OW21772   1.477   0.316   8.120  0.4461 -0.2877 -0.2339
 3437SOL    HW121773   1.564   0.354   8.133 -0.6048  3.1629 -3.3928
 3437SOL    HW221774   1.417   0.380   8.157  1.3186  1.4337 -1.7469
 3438SOL     OW21775   4.288   1.645   4.838 -0.6244  0.6351 -0.6609
 3438SOL    HW121776   4.196   1.651   4.813 -0.4571 -0.2847 -1.5206
 3438SOL    HW221777   4.276   1.715   4.901 -1.4548 -0.5065  0.4444
 3439SOL     OW21778   1.743   3.103  15.836 -0.3815 -0.5443  0.1294
 3439SOL    HW121779   1.716   3.135  15.749  0.8348  0.7996  0.2479
 3439SOL    HW221780   1.739   3.182  15.889 -1.1778 -1.2618  1.1584
 3440SOL     OW21781   4.111   2.623  11.615  0.1771  0.6935 -0.5690
 3440SOL    HW121782   4.019   2.606  11.592  0.0338  1.9270 -0.8754
 3440SOL    HW221783   4.092   2.638  11.708 -3.1595  1.7060 -1.4140
 3441SOL     OW21784   2.428   0.740   1.759  0.2683  0.5209 -0.3540
 3441SOL    HW121785   2.517   0.770   1.744  0.0628  0.8417 -0.9340
 3441SOL    HW221786   2.431   0.650   1.725 -0.5826  0.3865 -0.0753
 3442SOL     OW21787   3.517   4.239   3.074 -0.0423  0.3404  0.0379
 3442SOL    HW121788   3.462   4.292   3.131 -2.5665 -1.8752 -0.3333
 3442SOL    HW221789   3.502   4.270   2.985  1.8934  1.5959  0.1578
 3443SOL     OW21790   3.126   2.933   2.812  0.3976  0.4830 -0.2212
 3443SOL    HW121791   3.093   2.888   2.734 -2.3091  0.7216  0.7786
 3443SOL    HW221792   3.068   3.009   2.811 -0.1316  0.1097  4.1694
 3444SOL     OW21793   4.112   3.406   0.141  0.0362  0.4609 -0.4911
 3444SOL    HW121794   4.093   3.321   0.099 -2.0791  0.6475  0.0993
 3444SOL    HW221795   4.189   3.389   0.194 -0.0609 -3.0261 -1.4309
 3445SOL     OW21796   1.143   3.909  13.534  0.1145 -0.9011 -0.1723
 3445SOL    HW121797   1.061   3.868  13.561 -0.2947  0.2361  0.3183
 3445SOL    HW221798   1.150   3.993  13.579  1.0229 -1.3286  0.4918
 3446SOL     OW21799   1.799   0.188   9.919  0.2063 -0.7535 -0.3556
 3446SOL    HW121800   1.855   0.196   9.996  0.8084  0.3624 -0.9074
 3446SOL    HW221801   1.860   0.171   9.848  1.1354  1.0802 -0.0138
 3447SOL     OW21802   1.304   0.562  16.852  0.2296 -0.0783  0.7123
 3447SOL    HW121803   1.263   0.512  16.782  0.2992  0.1170  0.5339
 3447SOL    HW221804   1.344   0.495  16.909  1.6385 -2.1636 -2.7398
 3448SOL     OW21805   1.828   3.895  14.514  0.1938 -0.4981 -0.3080
 3448SOL    HW121806   1.745   3.926  14.549  1.1013  0.1228  1.3033
 3448SOL    HW221807   1.809   3.821  14.456 -0.2389 -0.6132 -0.0132
 3449SOL     OW21808   0.681   1.752   1.260 -0.2104  0.0643  0.1214
 3449SOL    HW121809   0.776   1.761   1.263 -0.0950 -1.1469  0.2128
 3449SOL    HW221810   0.663   1.846   1.258 -3.2317 -0.5051  1.3871
 3450SOL     OW21811   4.540   0.170  12.604  0.3083  0.3401  0.1130
 3450SOL    HW121812   4.555   0.212  12.689 -2.0493  0.4190  0.4680
 3450SOL    HW221813   4.632   0.162  12.578 -0.1754 -0.8415 -1.1901
 3451SOL     OW21814   4.594   0.895   1.049 -0.1153 -0.1918 -0.4079
 3451SOL    HW121815   4.570   0.877   0.958 -2.1026  0.1032  0.0549
 3451SOL    HW221816   4.588   0.989   1.061  1.0079 -0.0880 -0.6456
 3452SOL     OW21817   3.500   4.501   5.234  0.0873  0.0693  0.7448
 3452SOL    HW121818   3.479   4.409   5.251  0.5192 -0.2407 -0.4117
 3452SOL    HW221819   3.550   4.521   5.313 -1.3391 -1.4520  2.0407
 3453SOL     OW21820   4.206   4.314   6.369  0.0162  0.0309 -0.3065
 3453SOL    HW121821   4.127   4.340   6.416 -0.5516 -2.0852 -0.1119
 3453SOL    HW221822   4.171   4.312   6.279  1.3254 -1.6507 -0.7759
 3454SOL     OW21823   1.667   3.693   4.614  0.2718  0.3378  0.3309
 3454SOL    HW121824   1.582   3.737   4.604 -0.1039 -0.3492  0.5237
 3454SOL    HW221825   1.671   3.700   4.710  0.4458 -2.8435  0.5304
 3455SOL     OW21826   2.491   1.774  12.961  0.0396 -0.2007 -0.1626
 3455SOL    HW121827   2.448   1.690  12.979 -0.6661 -0.1664 -1.6985
 3455SOL    HW221828   2.554   1.750  12.894  1.4931 -0.2786  1.2409
 3456SOL     OW21829   3.402   1.443   7.074  0.2606 -0.0188  0.4370
 3456SOL    HW121830   3.314   1.466   7.044 -0.0080  0.1456  1.3558
 3456SOL    HW221831   3.453   1.507   7.024 -1.1504 -0.6357 -1.7824
 3457SOL     OW21832   0.446   3.839   6.630 -0.1804  0.0707  0.7997
 3457SOL    HW121833   0.443   3.861   6.537  0.2107  0.2392  0.8280
 3457SOL    HW221834   0.489   3.753   6.633 -1.9687 -0.8949 -1.2818
 3458SOL     OW21835   2.373   0.373   4.833  0.1237 -0.6282 -0.2459
 3458SOL    HW121836   2.323   0.309   4.783 -1.1137  0.7306 -0.7412
 3458SOL    HW221837   2.374   0.449   4.775  2.3032  0.1872  0.8363
 3459SOL     OW21838   2.398   1.975   0.854  0.4788  0.3289 -0.2966
 3459SOL    HW121839   2.443   1.895   0.881 -1.9401 -0.7366  0.5331
 3459SOL    HW221840   2.316   1.938   0.820  1.4908 -1.7205 -0.5353
 3460SOL     OW21841   4.154   3.861   1.790  0.0992  0.6280 -0.0127
 3460SOL    HW121842   4.104   3.808   1.728 -0.4977 -0.8299  1.7090
 3460SOL    HW221843   4.097   3.889   1.862 -0.4092 -0.5638  0.0425
 3461SOL     OW21844   0.631   2.326   3.082 -0.4452 -0.2558 -0.2887
 3461SOL    HW121845   0.662   2.241   3.052 -0.4716 -0.1837 -0.5196
 3461SOL    HW221846   0.665   2.328   3.172  1.9303  0.3506 -1.1974
 3462SOL     OW21847   3.164   1.013   5.972  0.0483 -0.1840  0.7143
 3462SOL    HW121848   3.095   1.025   5.907  1.1151  1.4925 -0.1076
 3462SOL    HW221849   3.171   0.919   5.992 -1.4109 -0.4359  0.0530
 3463SOL     OW21850   0.438   0.652   9.956  0.0974 -0.1175 -0.3168
 3463SOL    HW121851   0.345   0.627   9.960 -0.0213  0.5141  0.7900
 3463SOL    HW221852   0.428   0.728   9.898  2.3570 -0.1891 -0.7819
 3464SOL     OW21853   2.144   0.079  10.543 -0.2387 -0.3684 -0.4812
 3464SOL    HW121854   2.109   0.146  10.601  0.0384 -0.3045 -0.3901
 3464SOL    HW221855   2.074   0.071  10.477 -1.2683  0.9618  0.4433
 3465SOL     OW21856   1.091   0.684   2.100 -0.1944 -0.1282 -0.2791
 3465SOL    HW121857   1.104   0.606   2.153  0.6084 -1.0322 -1.8020
 3465SOL    HW221858   1.117   0.647   2.016  4.5411 -0.7420  1.4225
 3466SOL     OW21859   1.307   1.158  11.748 -0.0493  0.0406  0.2682
 3466SOL    HW121860   1.320   1.101  11.672 -1.1003  2.2022 -1.5230
 3466SOL    HW221861   1.318   1.245  11.710  1.7755 -0.4025 -0.1925
 3467SOL     OW21862   0.952   0.781   7.694 -0.8684  0.4740  0.5350
 3467SOL    HW121863   0.997   0.790   7.778 -1.4464 -0.4163  0.9385
 3467SOL    HW221864   0.863   0.765   7.725 -2.2358  4.0926 -1.4435
 3468SOL     OW21865   3.952   1.291  14.747  0.0803  0.3631  0.5055
 3468SOL    HW121866   3.958   1.358  14.679  0.3926  0.1622  0.3329
 3468SOL    HW221867   3.862   1.263  14.730  0.0675  0.9059 -0.3269
 3469SOL     OW21868   0.683   0.348  12.304 -0.0806 -0.1529 -0.4142
 3469SOL    HW121869   0.652   0.421  12.357 -0.3699 -0.6455  0.0999
 3469SOL    HW221870   0.773   0.354  12.335 -1.2404 -0.8213  3.1679
 3470SOL     OW21871   3.844   2.399   5.523 -0.7275 -0.2486  0.7771
 3470SOL    HW121872   3.789   2.473   5.498  1.4077  1.7909  2.1844
 3470SOL    HW221873   3.807   2.374   5.608  0.0908 -1.0381  0.8927
 3471SOL     OW21874   2.914   0.888   8.843 -0.4561  0.3435 -0.1754
 3471SOL    HW121875   2.862   0.866   8.766  0.0057 -1.2336 -0.0472
 3471SOL    HW221876   2.996   0.924   8.809  0.0626 -0.6395  0.0180
 3472SOL     OW21877   3.102   3.604  13.835  0.4210  0.3192 -0.0369
 3472SOL    HW121878   3.026   3.583  13.889  0.3301 -0.4423 -0.4595
 3472SOL    HW221879   3.177   3.574  13.886  0.0494  1.0346  0.9307
 3473SOL     OW21880   2.215   2.566   3.691 -0.2890 -0.6373  0.1153
 3473SOL    HW121881   2.158   2.632   3.732  0.7810  1.8437 -2.3863
 3473SOL    HW221882   2.284   2.625   3.662  0.1581 -1.2900 -0.1400
 3474SOL     OW21883   3.988   0.044   4.872  0.1426 -0.0663  0.0667
 3474SOL    HW121884   4.055   4.708   4.840 -0.7243 -1.7030  1.3613
 3474SOL    HW221885   4.043   0.073   4.946 -0.0312 -1.0038  0.5688
 3475SOL     OW21886   1.347   1.025   5.427 -0.2077 -0.4100  0.6740
 3475SOL    HW121887   1.273   1.082   5.450 -1.9793 -2.1116 -0.7086
 3475SOL    HW221888   1.397   1.078   5.366  0.8714 -1.2938  0.7800
 3476SOL     OW21889   4.141   1.114   4.328 -0.3228 -0.3237 -0.7647
 3476SOL    HW121890   4.214   1.052   4.333  1.3189  1.7980  1.6402
 3476SOL    HW221891   4.183   1.183   4.378  1.2467 -1.0383 -1.0929
 3477SOL     OW21892   1.845   1.850   4.829 -0.2628 -0.0560  0.0493
 3477SOL    HW121893   1.862   1.763   4.865 -0.0884 -0.7903 -1.7605
 3477SOL    HW221894   1.759   1.833   4.790 -0.5070 -0.7945  0.9172
 3478SOL     OW21895   0.753   4.095  11.983  0.3655 -0.5011 -0.5784
 3478SOL    HW121896   0.709   4.105  11.899 -2.0252 -0.4406  0.6910
 3478SOL    HW221897   0.731   4.006  12.008  1.4115 -0.7835 -0.6643
 3479SOL     OW21898   3.826   4.136   4.558 -0.2908  0.0536  0.0358
 3479SOL    HW121899   3.830   4.230   4.576  0.5024 -0.3004  1.6436
 3479SOL    HW221900   3.763   4.110   4.625 -1.0887 -0.7864 -1.0368
 3480SOL     OW21901   1.609   1.910   8.791 -0.3599 -0.0577 -0.0612
 3480SOL    HW121902   1.560   1.979   8.746 -0.0948  0.2737  0.1613
 3480SOL    HW221903   1.682   1.967   8.816  0.3296 -1.2332  0.6162
 3481SOL     OW21904   2.393   2.710   7.541 -0.0422 -0.0235 -0.4511
 3481SOL    HW121905   2.339   2.631   7.552 -0.1913  0.1915  0.3968
 3481SOL    HW221906   2.476   2.665   7.524  0.0288  0.2347 -0.7819
 3482SOL     OW21907   0.411   1.898  11.635  0.1506  0.3569  0.0373
 3482SOL    HW121908   0.425   1.991  11.618 -1.0680  0.4754 -0.2653
 3482SOL    HW221909   0.406   1.847  11.555 -0.8949 -0.7614  0.8196
 3483SOL     OW21910   0.337   3.450   4.960 -0.3917 -0.2703 -0.0544
 3483SOL    HW121911   0.328   3.502   4.880 -1.7385  1.4908  1.2438
 3483SOL    HW221912   0.278   3.491   5.023  1.7668  1.4937  0.8466
 3484SOL     OW21913   0.802   4.278   3.774 -0.2125  0.2584  0.2092
 3484SOL    HW121914   0.820   4.319   3.859  2.1026 -1.1769  0.4088
 3484SOL    HW221915   0.822   4.348   3.712  1.2561 -0.4282 -0.1033
 3485SOL     OW21916   0.702   0.304   3.636  0.1950  0.1746  0.5891
 3485SOL    HW121917   0.622   0.313   3.687  0.0887 -2.0438  0.7878
 3485SOL    HW221918   0.735   0.218   3.661  3.1813  1.6125  1.5376
 3486SOL     OW21919   4.417   2.068   5.933 -0.3109  0.3735  0.2589
 3486SOL    HW121920   4.464   2.048   6.014 -0.7609  0.6997  0.6009
 3486SOL    HW221921   4.408   2.163   5.941  2.5031  0.4501  2.7699
 3487SOL     OW21922   2.601   0.361   5.668  0.5098  0.2027  0.3782
 3487SOL    HW121923   2.642   0.312   5.739  1.3374 -0.4571 -0.5504
 3487SOL    HW221924   2.670   0.363   5.602 -0.0596 -1.5330 -0.2746
 3488SOL     OW21925   4.650   3.855   6.149  0.0675  0.6055  0.1105
 3488SOL    HW121926   4.692   3.822   6.229 -2.0994 -0.9856  0.5863
 3488SOL    HW221927   4.558   3.868   6.169  0.6889  1.4192  2.4119
 3489SOL     OW21928   3.385   2.246   2.520  0.4227  0.3476  0.1411
 3489SOL    HW121929   3.435   2.323   2.492 -0.9131  0.6782 -1.3103
 3489SOL    HW221930   3.453   2.180   2.511  1.3926  1.0599  2.3375
 3490SOL     OW21931   3.036   3.341  16.839 -0.6789  0.0788  0.0906
 3490SOL    HW121932   3.063   3.384  16.758  2.5119 -0.5557  0.7835
 3490SOL    HW221933   3.082   3.398  16.901  0.3881 -1.1319  0.4312
 3491SOL     OW21934   0.480   0.515  15.965 -0.5663 -0.6580 -0.4188
 3491SOL    HW121935   0.475   0.597  15.917 -0.7550  0.4361  1.4407
 3491SOL    HW221936   0.561   0.485  15.926  0.9108  0.8246  1.4869
 3492SOL     OW21937   3.165   3.149   5.943 -0.4495  0.1527  0.4284
 3492SOL    HW121938   3.147   3.082   6.009  1.4868  0.2258  1.0308
 3492SOL    HW221939   3.258   3.167   5.954 -0.7866  1.0877  1.8194
 3493SOL     OW21940   1.221   1.005  13.931  0.4837  0.3976 -0.0515
 3493SOL    HW121941   1.132   1.034  13.947  0.7444  1.8912 -1.3118
 3493SOL    HW221942   1.256   1.067  13.867  0.5190 -0.4611 -0.8606
 3494SOL     OW21943   4.106   0.714   6.468 -0.4922  0.0853  0.1585
 3494SOL    HW121944   4.063   0.779   6.523 -0.1481 -0.4653  1.0708
 3494SOL    HW221945   4.035   0.652   6.448 -1.8391  0.6413  3.3012
 3495SOL     OW21946   4.722   3.535   0.187  0.7030 -0.5492  0.8195
 3495SOL    HW121947   0.015   3.442   0.175  1.2849 -0.4418  0.8882
 3495SOL    HW221948   4.671   3.532   0.269  1.1198  0.1519  1.0996
 3496SOL     OW21949   1.574   3.761   8.395  0.1213  0.1159 -0.0939
 3496SOL    HW121950   1.658   3.738   8.357 -1.2624  0.9630 -3.6479
 3496SOL    HW221951   1.599   3.807   8.475  2.5160  1.0622 -1.3802
 3497SOL     OW21952   1.045   4.714   4.352 -0.4237  0.0698  0.3730
 3497SOL    HW121953   1.052   0.077   4.316  2.3832  0.7698  2.6792
 3497SOL    HW221954   1.108   4.666   4.299 -2.4185 -1.6940 -0.4309
 3498SOL     OW21955   1.687   0.411   9.814 -0.2444  0.2762  0.1086
 3498SOL    HW121956   1.697   0.343   9.881  2.1074  0.1299 -0.3622
 3498SOL    HW221957   1.693   0.495   9.859  3.1734  0.3099 -0.4079
 3499SOL     OW21958   0.311   4.317   7.198  0.2114  0.0558  0.1605
 3499SOL    HW121959   0.332   4.335   7.106 -1.6146 -1.7142 -0.6031
 3499SOL    HW221960   0.241   4.380   7.218 -0.4517 -0.1413 -1.5238
 3500SOL     OW21961   1.908   0.737   4.611  0.0491 -0.3807  0.2243
 3500SOL    HW121962   1.874   0.791   4.540  0.4402 -1.3916 -0.7316
 3500SOL    HW221963   1.984   0.691   4.576 -1.1061 -2.0386 -0.0964
 3501SOL     OW21964   2.584   4.495   8.824 -0.7372  0.1012 -0.3519
 3501SOL    HW121965   2.649   4.552   8.784 -0.9410  1.2775  0.9888
 3501SOL    HW221966   2.550   4.539   8.902 -1.7901 -4.3419  1.6998
 3502SOL     OW21967   0.901   2.781   4.618 -0.5237 -0.3097 -0.2068
 3502SOL    HW121968   0.870   2.862   4.578  0.0121  0.1718  0.3477
 3502SOL    HW221969   0.995   2.800   4.611 -0.4963  0.1298  1.3880
 3503SOL     OW21970   2.070   2.851   9.751  0.4572  0.5465 -0.1069
 3503SOL    HW121971   2.102   2.908   9.682 -0.5597  1.1003 -0.1168
 3503SOL    HW221972   2.105   2.884   9.834 -0.1739  0.9681 -0.0045
 3504SOL     OW21973   0.226   3.991   5.839 -0.2061  0.4134  0.1406
 3504SOL    HW121974   0.207   4.024   5.751 -2.8815 -0.8957  0.2316
 3504SOL    HW221975   0.209   4.068   5.893  1.2029  1.0016 -0.2308
 3505SOL     OW21976   2.145   1.591   7.458  0.5350 -0.1508 -0.5316
 3505SOL    HW121977   2.177   1.502   7.469 -0.5400 -0.7428 -2.2124
 3505SOL    HW221978   2.125   1.611   7.549  0.6536  2.5845 -1.0909
 3506SOL     OW21979   1.522   2.711  10.824 -0.5971 -0.6713 -0.1804
 3506SOL    HW121980   1.544   2.736  10.734  4.7403 -0.4237  1.1808
 3506SOL    HW221981   1.557   2.623  10.834  2.0017  0.4616  0.8177
 3507SOL     OW21982   3.631   3.783   2.985  0.0609  0.1833  0.1675
 3507SOL    HW121983   3.704   3.787   2.923 -1.8128  5.4413 -1.7006
 3507SOL    HW221984   3.634   3.693   3.017 -1.8719 -0.2997 -1.0013
 3508SOL     OW21985   4.007   0.876  14.901 -0.4743  0.2976 -0.4217
 3508SOL    HW121986   3.990   0.787  14.933 -1.9014  0.6327 -0.2216
 3508SOL    HW221987   3.943   0.922  14.955 -1.4610 -1.1278 -0.3581
 3509SOL     OW21988   1.913   1.173   7.495 -0.4996  0.1086 -0.3705
 3509SOL    HW121989   2.002   1.142   7.509 -1.2128 -1.8760 -0.1246
 3509SOL    HW221990   1.883   1.193   7.584  0.9738 -1.8392  0.5742
 3510SOL     OW21991   2.599   0.389   2.930  0.2835  0.3906 -0.5219
 3510SOL    HW121992   2.580   0.479   2.903 -3.6938  0.2451  1.7999
 3510SOL    HW221993   2.565   0.404   3.019  0.0413 -2.3620 -0.1420
 3511SOL     OW21994   1.319   3.819   6.076  0.0825  0.1899  0.1260
 3511SOL    HW121995   1.415   3.828   6.075  0.4214 -3.0109  3.7200
 3511SOL    HW221996   1.295   3.858   6.160  1.7872 -1.0488  1.1968
 3512SOL     OW21997   3.703   0.121   2.135 -0.3110 -0.7326 -0.1781
 3512SOL    HW121998   3.661   0.178   2.071  1.0826  1.5838  0.9657
 3512SOL    HW221999   3.721   0.046   2.078 -1.6035 -1.3090  0.1863
 3513SOL     OW22000   0.683   3.032   5.796 -0.0436  0.3642  0.3682
 3513SOL    HW122001   0.588   3.020   5.797  0.3494 -2.7254 -0.4247
 3513SOL    HW222002   0.689   3.067   5.706  0.3162 -0.6977 -0.0153
 3514SOL     OW22003   3.687   1.060   4.610 -0.0447  0.4757  0.3770
 3514SOL    HW122004   3.753   1.077   4.542 -1.0997  1.2994 -0.4423
 3514SOL    HW222005   3.728   0.987   4.655 -2.2173 -0.0426  1.5278
 3515SOL     OW22006   3.932   2.345   4.339  0.3119 -0.2910  0.2140
 3515SOL    HW122007   3.914   2.265   4.388  0.3524  1.3274  2.9010
 3515SOL    HW222008   3.866   2.400   4.381  0.4227 -0.1572  0.2121
 3516SOL     OW22009   2.187   4.661   6.339 -0.9482 -0.4131  0.0493
 3516SOL    HW122010   2.234   0.020   6.340  0.3811 -1.1539 -0.6084
 3516SOL    HW222011   2.102   4.693   6.370  0.0298  1.4812  0.7811
 3517SOL     OW22012   1.824   1.470   7.219 -0.6547  0.2351  0.2348
 3517SOL    HW122013   1.793   1.517   7.296 -1.3118  2.2151 -1.2365
 3517SOL    HW222014   1.740   1.465   7.172  0.3845  0.5430 -1.6584
 3518SOL     OW22015   0.284   2.125   8.543  0.4178 -0.0951 -0.0633
 3518SOL    HW122016   0.213   2.188   8.546  1.7447  1.3319  1.2030
 3518SOL    HW222017   0.348   2.167   8.486  0.7070 -0.2028  0.1761
 3519SOL     OW22018   1.937   4.002   7.242  0.4460 -0.3663  0.4529
 3519SOL    HW122019   1.891   3.987   7.324  0.1155  0.0977  0.3508
 3519SOL    HW222020   2.022   3.966   7.268 -0.0939 -1.2024  1.0618
 3520SOL     OW22021   0.617   3.505   3.317  0.7967  0.0879 -0.0560
 3520SOL    HW122022   0.615   3.479   3.409  1.2329  0.9749  0.2065
 3520SOL    HW222023   0.675   3.581   3.310  1.1827 -0.3057 -1.1433
 3521SOL     OW22024   2.500   4.028   9.484  0.2289 -0.0623  0.1050
 3521SOL    HW122025   2.516   4.088   9.556  2.8624 -0.5543 -0.0601
 3521SOL    HW222026   2.434   4.084   9.444 -0.1253 -0.1864  0.5216
 3522SOL     OW22027   0.019   0.538   3.017  0.4699 -0.0039  0.0038
 3522SOL    HW122028   0.106   0.560   2.983  0.8344  0.7758  1.4694
 3522SOL    HW222029   4.705   0.625   3.010  0.2524  0.0381  1.6729
 3523SOL     OW22030   0.896   3.369  14.836  0.1563 -0.0695 -0.1819
 3523SOL    HW122031   0.914   3.283  14.797  0.7333  0.3027 -0.7396
 3523SOL    HW222032   0.898   3.434  14.766 -1.5500 -0.2895 -0.4289
 3524SOL     OW22033   1.690   0.111  12.537  0.0502  0.2362  0.6634
 3524SOL    HW122034   1.779   0.113  12.503 -0.3532 -1.9612 -0.5259
 3524SOL    HW222035   1.688   0.206  12.529  1.4091  0.3861  2.1635
 3525SOL     OW22036   3.251   2.414   0.606  0.3232  0.2115  0.1596
 3525SOL    HW122037   3.343   2.440   0.600  0.2997  0.1667 -0.4639
 3525SOL    HW222038   3.213   2.502   0.609 -1.5653 -0.5221 -1.8277
 3526SOL     OW22039   1.193   0.434  11.998  0.0322  0.5696  0.2666
 3526SOL    HW122040   1.200   0.529  11.984 -0.3712  0.3757 -1.2843
 3526SOL    HW222041   1.099   0.423  12.010  0.1136 -0.8044 -0.3421
 3527SOL     OW22042   1.471   2.423   3.902 -0.1704 -0.6556 -0.1476
 3527SOL    HW122043   1.471   2.486   3.829  0.2081 -0.7378 -0.2148
 3527SOL    HW222044   1.479   2.479   3.978  1.9899 -0.0552 -0.8350
 3528SOL     OW22045   4.024   4.069  12.432 -0.1722  0.8352  0.2395
 3528SOL    HW122046   3.934   4.066  12.465 -0.8635 -2.0050 -1.9306
 3528SOL    HW222047   4.068   4.025  12.504  0.9470 -0.4857 -1.2601
 3529SOL     OW22048   1.267   4.197   6.476 -0.3183 -0.0121 -0.2939
 3529SOL    HW122049   1.202   4.264   6.498 -1.2654 -0.3564 -2.0494
 3529SOL    HW222050   1.341   4.248   6.442 -0.3218 -0.1852 -0.5608
 3530SOL     OW22051   2.100   3.358  10.597  0.0184 -0.3389 -0.5389
 3530SOL    HW122052   2.152   3.410  10.658  0.8615 -1.9111  0.0896
 3530SOL    HW222053   2.016   3.402  10.610 -0.9844 -2.3627 -0.1994
 3531SOL     OW22054   0.154   0.347  13.838 -0.4206 -0.3133  0.2367
 3531SOL    HW122055   0.077   0.366  13.890 -0.7755  1.7762 -1.0537
 3531SOL    HW222056   0.230   0.370  13.891  0.0151 -1.3949  0.0841
 3532SOL     OW22057   4.387   3.642  14.371  0.9026 -0.2923  0.4257
 3532SOL    HW122058   4.330   3.579  14.327  0.1656  0.9242 -0.3752
 3532SOL    HW222059   4.463   3.660  14.317  0.3366  0.8739  0.0067
 3533SOL     OW22060   2.787   3.477   3.732 -0.1649  0.5190 -0.2326
 3533SOL    HW122061   2.759   3.539   3.799 -0.8763  0.8026 -0.7942
 3533SOL    HW222062   2.777   3.390   3.771  0.7604  0.5155  0.0036
 3534SOL     OW22063   2.612   2.846   4.061 -0.1401  0.0812  0.8246
 3534SOL    HW122064   2.683   2.909   4.072 -0.4739  0.9485 -2.0719
 3534SOL    HW222065   2.553   2.894   4.003 -0.6287  0.0457  1.2907
 3535SOL     OW22066   4.140   4.583   7.966  0.2945  0.0038  0.6693
 3535SOL    HW122067   4.115   4.493   7.945  0.1835 -0.1031  1.2545
 3535SOL    HW222068   4.204   4.569   8.036  0.1885  2.9666  1.3510
 3536SOL     OW22069   1.011   3.640   9.148  0.0709 -0.4052  0.2212
 3536SOL    HW122070   1.039   3.636   9.239  1.0147 -1.2253 -0.1083
 3536SOL    HW222071   0.993   3.734   9.137 -0.8137 -0.4087  1.5906
 3537SOL     OW22072   3.737   3.518   2.843 -0.1652  0.3156  0.2836
 3537SOL    HW122073   3.810   3.575   2.821 -0.2532  0.7190  1.0578
 3537SOL    HW222074   3.734   3.509   2.938  0.2451  2.0620  0.4603
 3538SOL     OW22075   2.015   1.185   8.043 -0.1745  0.2345  1.0262
 3538SOL    HW122076   2.074   1.210   7.972 -0.1723 -3.1249 -0.1718
 3538SOL    HW222077   2.038   1.092   8.049 -0.0957  0.1180 -0.8815
 3539SOL     OW22078   4.209   4.049   5.272 -0.6751  0.5060 -0.5464
 3539SOL    HW122079   4.185   4.112   5.203  1.4382 -0.0925 -1.8509
 3539SOL    HW222080   4.286   4.098   5.303 -0.5038  1.1463 -1.9944
 3540SOL     OW22081   4.494   0.634   2.448  0.1895  0.0197 -0.0713
 3540SOL    HW122082   4.401   0.612   2.445  0.4526 -1.2786  1.3929
 3540SOL    HW222083   4.485   0.702   2.515  1.8078 -1.2307  1.4014
 3541SOL     OW22084   1.131   4.599   5.958 -0.0088  0.5224 -0.5371
 3541SOL    HW122085   1.129   4.615   5.864  0.6633  0.9955 -0.4737
 3541SOL    HW222086   1.099   4.511   5.978  0.4218  0.4524 -0.1590
 3542SOL     OW22087   1.247   0.724   4.356 -0.6544 -0.3418 -0.5688
 3542SOL    HW122088   1.168   0.766   4.321  0.0261 -0.2342 -1.9568
 3542SOL    HW222089   1.240   0.636   4.320 -0.1823 -0.5760 -0.0904
 3543SOL     OW22090   3.887   1.594   8.356  0.0901  0.6351  0.0491
 3543SOL    HW122091   3.885   1.665   8.292 -0.2673  0.6254  0.0474
 3543SOL    HW222092   3.981   1.585   8.369  0.2952  0.5578 -1.5451
 3544SOL     OW22093   3.894   4.529  17.298 -0.5132  0.0987 -0.1812
 3544SOL    HW122094   3.808   4.539  17.258 -1.3551 -1.7741  1.1505
 3544SOL    HW222095   3.959   4.551  17.230 -0.9734 -2.1527 -1.3583
 3545SOL     OW22096   1.288   2.479  13.264  0.6766 -0.3655  0.3376
 3545SOL    HW122097   1.201   2.505  13.234 -0.0479 -0.9479  1.9682
 3545SOL    HW222098   1.269   2.401  13.317 -1.2186 -0.6758 -0.7686
 3546SOL     OW22099   3.012   3.795   5.443 -0.4612 -0.4012 -0.0234
 3546SOL    HW122100   3.014   3.800   5.348 -2.2408 -0.7246 -0.0782
 3546SOL    HW222101   3.035   3.884   5.469 -1.4446 -0.6804  1.8681
 3547SOL     OW22102   2.324   1.718   6.350 -0.4326  0.0629 -0.1296
 3547SOL    HW122103   2.360   1.798   6.388 -1.1684  0.4020 -0.1478
 3547SOL    HW222104   2.238   1.757   6.331 -1.0901  0.6707  3.9396
 3548SOL     OW22105   3.756   1.225   0.068 -0.2358 -0.1951 -0.4265
 3548SOL    HW122106   3.708   1.163   0.012  0.0325  1.3284 -2.3677
 3548SOL    HW222107   3.840   1.221   0.022  0.2894 -0.2214  0.5367
 3549SOL     OW22108   0.488   1.197   9.427  0.1083  0.3302  0.1341
 3549SOL    HW122109   0.558   1.257   9.402  0.4355  1.4632  3.7245
 3549SOL    HW222110   0.509   1.191   9.520  1.9990  1.9878 -0.1925
 3550SOL     OW22111   1.891   2.937  17.461 -0.2290 -0.5948 -0.8315
 3550SOL    HW122112   1.916   2.912  17.550  1.1239 -1.2515 -1.3818
 3550SOL    HW222113   1.968   2.904  17.415  0.5155 -0.3718  0.2509
 3551SOL     OW22114   0.184   2.641  11.346  0.1724  0.2625 -0.8296
 3551SOL    HW122115   0.195   2.673  11.436  0.1307  0.2089 -0.8056
 3551SOL    HW222116   0.180   2.721  11.294 -2.7111 -0.6743 -2.0609
 3552SOL     OW22117   4.204   3.020   7.384 -0.7245 -0.0828  0.7242
 3552SOL    HW122118   4.143   3.076   7.432  0.7297  0.3705  2.0266
 3552SOL    HW222119   4.234   2.965   7.457  1.0975 -2.1078 -1.5464
 3553SOL     OW22120   3.003   3.041   1.862  0.7740 -0.3706 -0.0405
 3553SOL    HW122121   2.988   3.115   1.804 -0.8230 -0.2045  0.6024
 3553SOL    HW222122   2.958   2.971   1.814 -0.8428  0.1858  0.6943
 3554SOL     OW22123   4.210   4.341  16.945  0.2293  0.5160 -0.2365
 3554SOL    HW122124   4.128   4.311  16.908  0.5522 -1.3797  0.5778
 3554SOL    HW222125   4.274   4.326  16.875 -0.9314 -1.0599 -0.9519
 3555SOL     OW22126   4.618   4.641   4.773 -0.3567  0.3867 -0.4873
 3555SOL    HW122127   4.547   4.632   4.709 -0.4195  0.9956 -0.5034
 3555SOL    HW222128   4.694   4.633   4.714  0.5827  0.2922  0.7366
 3556SOL     OW22129   4.473   0.569  12.343  0.6030 -0.0983  0.6243
 3556SOL    HW122130   4.559   0.610  12.339  1.5767 -2.2431 -0.0671
 3556SOL    HW222131   4.499   0.478  12.350 -0.1721 -0.3217  0.5998
 3557SOL     OW22132   4.520   2.434  14.266  0.1005 -0.4463  0.0494
 3557SOL    HW122133   4.608   2.465  14.289  0.1900 -0.1837 -0.6599
 3557SOL    HW222134   4.504   2.382  14.345 -3.0472 -0.4628 -0.6073
 3558SOL     OW22135   1.595   4.105   2.382 -0.0764 -0.1452  0.0486
 3558SOL    HW122136   1.584   4.146   2.296 -1.7895 -0.6142  0.0316
 3558SOL    HW222137   1.528   4.037   2.373 -0.2897  0.3309 -2.0249
 3559SOL     OW22138   4.595   0.170   8.116 -0.2824 -0.0195 -0.1643
 3559SOL    HW122139   4.525   0.122   8.159 -1.4670  1.5488 -0.3428
 3559SOL    HW222140   4.589   0.133   8.028 -0.1090  1.3214 -0.7418
 3560SOL     OW22141   2.642   4.598   5.777 -0.1912  0.4183 -0.1826
 3560SOL    HW122142   2.557   4.635   5.751  0.5365  2.2534  0.0563
 3560SOL    HW222143   2.617   4.506   5.772 -1.3065  0.6294  1.5743
 3561SOL     OW22144   1.508   1.550   2.698  0.5223 -0.2831 -0.2071
 3561SOL    HW122145   1.519   1.641   2.725  2.2417 -0.7394  0.5915
 3561SOL    HW222146   1.435   1.522   2.754  0.6056  1.3092  0.6839
 3562SOL     OW22147   4.324   0.948   1.093 -0.0260  0.0346 -0.1433
 3562SOL    HW122148   4.340   1.017   1.028 -0.2491  0.7635  0.5736
 3562SOL    HW222149   4.415   0.918   1.099 -0.3165 -0.4932  1.6890
 3563SOL     OW22150   4.258   2.785  15.555 -0.1894  0.3372 -0.0100
 3563SOL    HW122151   4.299   2.758  15.472  0.4177  0.5957  0.2046
 3563SOL    HW222152   4.167   2.761  15.537 -0.4777  1.3138  0.1595
 3564SOL     OW22153   4.087   3.175   4.878 -0.5976  0.0924 -0.1577
 3564SOL    HW122154   4.155   3.111   4.856 -0.7416 -0.0197 -0.2750
 3564SOL    HW222155   4.089   3.236   4.804  1.0709  0.0522 -0.1369
 3565SOL     OW22156   2.565   0.373  12.748  0.1936 -0.5197  0.1958
 3565SOL    HW122157   2.500   0.380  12.818 -1.8832  0.1426 -1.7659
 3565SOL    HW222158   2.625   0.306  12.782  1.3516  0.1687 -0.5005
 3566SOL     OW22159   1.453   2.395  14.280  0.2939  0.2883  0.3536
 3566SOL    HW122160   1.444   2.308  14.319  0.3689  1.4224  2.8740
 3566SOL    HW222161   1.363   2.416  14.256 -0.1745 -2.3504 -0.1803
 3567SOL     OW22162   2.611   3.652   4.627 -0.4356 -0.1514  0.0065
 3567SOL    HW122163   2.694   3.605   4.619 -1.3442 -2.2999  3.4552
 3567SOL    HW222164   2.557   3.606   4.563 -0.4747  0.8192 -0.6641
 3568SOL     OW22165   2.922   0.506   7.072  0.3525 -0.1252  0.2014
 3568SOL    HW122166   2.878   0.461   7.000 -2.9415  0.3326  1.9258
 3568SOL    HW222167   2.859   0.575   7.091  2.2400  1.0260  2.2332
 3569SOL     OW22168   4.586   3.582   4.275 -0.6083 -0.1483  0.4856
 3569SOL    HW122169   4.583   3.517   4.205 -1.4508 -0.3787  0.7393
 3569SOL    HW222170   4.679   3.603   4.269 -1.0014  0.9247 -2.0591
 3570SOL     OW22171   4.027   0.883   4.700  0.0781  0.0088  0.1859
 3570SOL    HW122172   4.017   0.941   4.624  0.2898 -0.6916 -0.3728
 3570SOL    HW222173   4.079   0.812   4.662  0.0812  1.0222 -1.6944
 3571SOL     OW22174   1.975   2.719   6.112 -0.5077  0.4690  1.0203
 3571SOL    HW122175   1.897   2.737   6.164 -1.0682  2.4445 -0.4905
 3571SOL    HW222176   1.984   2.798   6.059  0.7885 -0.1417  0.3189
 3572SOL     OW22177   0.868   2.712   0.958 -0.1425 -0.3572  0.1384
 3572SOL    HW122178   0.828   2.771   0.894 -0.4865 -1.1358 -0.3740
 3572SOL    HW222179   0.939   2.770   0.987  1.0392 -1.6196 -0.1920
 3573SOL     OW22180   2.741   1.194   2.280 -0.2106 -0.2631  0.1150
 3573SOL    HW122181   2.789   1.263   2.234 -1.3284 -0.0298 -0.7020
 3573SOL    HW222182   2.691   1.161   2.206  2.2664 -2.1423 -0.7020
 3574SOL     OW22183   2.955   3.097   4.325 -0.5565 -0.8233  0.2853
 3574SOL    HW122184   2.983   3.109   4.416  2.1821 -0.9507 -0.5444
 3574SOL    HW222185   3.033   3.057   4.286  0.6948  0.5542  1.3713
 3575SOL     OW22186   3.806   0.556   7.802 -0.0735  0.3643 -0.0472
 3575SOL    HW122187   3.716   0.588   7.797 -0.9370 -1.8739  0.9434
 3575SOL    HW222188   3.846   0.634   7.840  2.2939  0.2414 -2.2558
 3576SOL     OW22189   3.269   0.543   3.327  0.0847 -0.3303  0.6311
 3576SOL    HW122190   3.184   0.581   3.304  1.0310  1.2804 -0.2222
 3576SOL    HW222191   3.323   0.563   3.251 -1.6223  0.1517 -0.4522
 3577SOL     OW22192   2.772   1.623   3.524  0.1975  0.3480 -0.5371
 3577SOL    HW122193   2.682   1.607   3.493 -0.7685 -0.5759  2.8117
 3577SOL    HW222194   2.820   1.612   3.442 -1.4526  1.0696 -1.6162
 3578SOL     OW22195   1.755   0.381  10.945 -0.1529  0.2557  0.2640
 3578SOL    HW122196   1.784   0.448  11.008  1.3900 -1.0986  0.9940
 3578SOL    HW222197   1.799   0.413  10.865 -0.7215  1.6198  0.4907
 3579SOL     OW22198   3.116   2.015   7.108  0.2089 -0.3723  0.6203
 3579SOL    HW122199   3.045   1.951   7.102  1.0559 -1.6126  3.6933
 3579SOL    HW222200   3.178   1.956   7.152 -0.0133  0.4585  2.0276
 3580SOL     OW22201   4.489   0.361  15.415  0.7253  0.2467  0.6412
 3580SOL    HW122202   4.405   0.370  15.370  0.5551  0.6444  1.0466
 3580SOL    HW222203   4.471   0.376  15.508 -2.2257  2.4233 -0.2619
 3581SOL     OW22204   4.000   0.874   1.811 -0.5249  0.0523 -0.0367
 3581SOL    HW122205   4.046   0.845   1.732  0.4416  0.2362  0.4571
 3581SOL    HW222206   3.912   0.858   1.778  0.0006 -3.1172  0.0446
 3582SOL     OW22207   1.873   1.031   7.019  0.4574 -0.2059 -0.0516
 3582SOL    HW122208   1.925   1.091   7.073 -0.3633  0.2496  0.2518
 3582SOL    HW222209   1.836   1.091   6.954  0.4236  1.2848  1.3182
 3583SOL     OW22210   1.555   4.216   6.339 -0.1106  0.6982 -0.5605
 3583SOL    HW122211   1.648   4.216   6.317 -0.7182  0.0351 -3.1361
 3583SOL    HW222212   1.553   4.223   6.435  3.1933 -0.8790 -0.3739
 3584SOL     OW22213   2.075   0.188   3.150 -0.2097  0.0513 -0.2623
 3584SOL    HW122214   2.146   0.137   3.112  0.2544  0.5533 -0.0657
 3584SOL    HW222215   2.106   0.193   3.241  0.6960  1.7551 -0.6558
 3585SOL     OW22216   3.150   1.598   4.491 -0.0404  0.7914  0.0129
 3585SOL    HW122217   3.068   1.622   4.534 -0.7425  1.5516 -1.7379
 3585SOL    HW222218   3.160   1.515   4.538  0.5386  1.5936  1.2993
 3586SOL     OW22219   3.858   0.250  17.215  0.3016 -0.0149  0.2160
 3586SOL    HW122220   3.837   0.221  17.303 -1.5472  0.7788  0.0341
 3586SOL    HW222221   3.857   0.165  17.169  2.1919  0.3360 -0.4951
 3587SOL     OW22222   3.389   1.750   6.046 -0.5339  0.3020  0.4460
 3587SOL    HW122223   3.350   1.680   6.098 -1.9580  1.4982  1.0268
 3587SOL    HW222224   3.480   1.754   6.073 -1.9924  1.2884  5.2903
 3588SOL     OW22225   4.474   4.586   6.578  0.7587 -0.4814  0.5566
 3588SOL    HW122226   4.521   4.651   6.629  0.1782  0.0800  0.3685
 3588SOL    HW222227   4.391   4.583   6.625 -0.4584 -0.2150 -1.5598
 3589SOL     OW22228   3.722   0.959   6.521  0.4047  0.4301  0.5506
 3589SOL    HW122229   3.735   0.964   6.616 -1.3101 -1.5988  0.8910
 3589SOL    HW222230   3.770   0.879   6.499  2.2338  2.0885 -1.5512
 3590SOL     OW22231   4.228   1.869  15.704  0.1523  0.0321 -0.2787
 3590SOL    HW122232   4.236   1.911  15.790 -0.8776  0.6230 -0.4684
 3590SOL    HW222233   4.232   1.775  15.724 -0.7684 -0.0151 -0.2973
 3591SOL     OW22234   1.827   0.058   3.134  0.1316  0.0233  0.2817
 3591SOL    HW122235   1.790   0.092   3.216 -0.9023 -1.6536  0.5007
 3591SOL    HW222236   1.913   0.097   3.149  0.5010 -1.4273  1.8847
 3592SOL     OW22237   2.732   2.727   4.286  0.0266  0.2618 -0.4536
 3592SOL    HW122238   2.701   2.779   4.212  0.3181  0.4196 -0.4623
 3592SOL    HW222239   2.816   2.691   4.258 -0.0916 -0.8211  0.5596
 3593SOL     OW22240   1.103   0.576  16.036 -0.1731  0.3129 -0.1019
 3593SOL    HW122241   1.156   0.634  16.091 -0.5835 -1.2747  1.9651
 3593SOL    HW222242   1.163   0.503  16.021 -1.8514 -1.3616  1.3746
 3594SOL     OW22243   2.156   4.265  17.032 -0.3427 -0.5651  0.1977
 3594SOL    HW122244   2.104   4.295  16.957  0.5073 -1.0966 -0.6080
 3594SOL    HW222245   2.127   4.174  17.035 -0.9012 -0.3195  2.2920
 3595SOL     OW22246   3.862   1.474   4.741  0.4371  0.5519  0.3909
 3595SOL    HW122247   3.790   1.414   4.761  0.2039  0.4611 -0.6942
 3595SOL    HW222248   3.840   1.486   4.648 -1.0816  1.0599  0.8168
 3596SOL     OW22249   0.223   1.943  17.132  0.4816 -0.5397  1.1116
 3596SOL    HW122250   0.206   1.849  17.138  0.1413 -0.5495  0.0303
 3596SOL    HW222251   0.134   1.963  17.103  1.0264 -0.4622 -0.4837
 3597SOL     OW22252   2.567   3.741   8.108 -0.0466 -0.0837 -0.1466
 3597SOL    HW122253   2.577   3.793   8.188 -2.1802 -0.9560  0.6765
 3597SOL    HW222254   2.628   3.780   8.045 -0.5934 -1.5817 -1.6000
 3598SOL     OW22255   4.265   0.399   4.696 -0.3523  0.4283  0.1065
 3598SOL    HW122256   4.332   0.333   4.679 -0.2107  0.7026 -0.4167
 3598SOL    HW222257   4.186   0.344   4.694  1.0871 -1.5762 -1.8445
 3599SOL     OW22258   2.984   0.262   8.331  0.1960  0.4643 -0.1811
 3599SOL    HW122259   2.917   0.211   8.285  0.6136 -0.8001  0.6069
 3599SOL    HW222260   3.068   0.225   8.304 -0.2064 -1.1801  0.7715
 3600SOL     OW22261   2.688   0.032  14.144 -0.1584  0.4014  0.1030
 3600SOL    HW122262   2.670   0.059  14.054 -2.2765 -1.1293  0.0589
 3600SOL    HW222263   2.609   4.714  14.176 -0.6031 -0.0780 -1.6629
 3601SOL     OW22264   4.556   0.796   1.307  0.4486 -0.0884  0.7673
 3601SOL    HW122265   4.640   0.769   1.345  1.4574  0.9874 -0.6999
 3601SOL    HW222266   4.574   0.808   1.214 -1.1851 -2.8532  0.0916
 3602SOL     OW22267   2.881   2.426   5.599  0.0292  0.1699  0.0644
 3602SOL    HW122268   2.890   2.330   5.602  0.2884  0.1752 -0.5949
 3602SOL    HW222269   2.822   2.430   5.524 -0.0683  0.5676  0.1654
 3603SOL     OW22270   1.650   3.737   4.903  0.6513  0.1418 -0.7155
 3603SOL    HW122271   1.681   3.799   4.969 -2.5465  0.5031  0.4474
 3603SOL    HW222272   1.652   3.658   4.957  0.6483 -0.4770 -1.6150
 3604SOL     OW22273   3.529   3.479   3.768 -0.0909 -0.1373  0.4432
 3604SOL    HW122274   3.475   3.547   3.808 -0.8607 -0.3514 -0.2438
 3604SOL    HW222275   3.467   3.406   3.776  0.9487 -1.2337 -1.5867
 3605SOL     OW22276   1.773   1.626   0.259 -0.4478 -0.0888  0.1466
 3605SOL    HW122277   1.810   1.558   0.316 -1.4292 -1.8909 -1.3847
 3605SOL    HW222278   1.708   1.671   0.313 -1.8458 -4.1497  1.8388
 3606SOL     OW22279   3.817   4.150  17.472 -0.0540 -0.3920  0.5217
 3606SOL    HW122280   3.816   4.092  17.396 -0.9632 -1.4636  1.3397
 3606SOL    HW222281   3.899   4.124  17.514  1.0956  0.4138 -1.2196
 3607SOL     OW22282   1.403   2.664   3.003 -0.3276  0.4733  0.3481
 3607SOL    HW122283   1.419   2.571   3.019  0.6618  0.6050  0.1235
 3607SOL    HW222284   1.331   2.680   3.063 -0.0974 -1.4104  1.1195
 3608SOL     OW22285   3.458   0.878   4.014 -0.2024 -0.3497  0.3130
 3608SOL    HW122286   3.471   0.785   4.034 -0.8627 -0.1249  1.7292
 3608SOL    HW222287   3.364   0.880   3.996 -0.6553  0.1927  2.8161
 3609SOL     OW22288   4.327   0.626   0.439 -0.3543 -0.3747 -0.0366
 3609SOL    HW122289   4.304   0.541   0.402 -0.8498 -0.9950  1.6734
 3609SOL    HW222290   4.253   0.676   0.405 -0.1354  1.1670  1.7433
 3610SOL     OW22291   4.478   3.024   6.692  0.3497 -0.9103 -0.5043
 3610SOL    HW122292   4.519   3.098   6.737 -0.9566 -0.0720 -0.7063
 3610SOL    HW222293   4.407   3.014   6.756 -0.0837 -0.9015 -0.9864
 3611SOL     OW22294   2.496   3.532  12.169  0.2790  0.2329  0.0208
 3611SOL    HW122295   2.563   3.586  12.210 -0.2491  0.5360  0.4863
 3611SOL    HW222296   2.480   3.464  12.235  0.2969 -0.4808 -0.7192
 3612SOL     OW22297   0.253   0.507   5.029  0.2676 -0.5905  0.1700
 3612SOL    HW122298   0.337   0.551   5.013  0.4895 -0.3429  2.0677
 3612SOL    HW222299   0.198   0.575   5.068  0.2296 -0.5197 -0.0054
 3613SOL     OW22300   4.035   0.527   5.695 -0.1510 -0.1059 -0.5105
 3613SOL    HW122301   4.022   0.456   5.633  0.7199  1.4964 -2.5190
 3613SOL    HW222302   4.014   0.607   5.647 -1.7600 -0.7571 -0.8924
 3614SOL     OW22303   0.400   1.979   6.218  0.3775  0.2345 -0.7221
 3614SOL    HW122304   0.441   2.064   6.205  0.3687  0.3011 -0.3235
 3614SOL    HW222305   0.347   1.980   6.138  0.8123 -2.5711 -1.0563
 3615SOL     OW22306   0.422   0.654  14.588  0.4110 -0.1742  0.2212
 3615SOL    HW122307   0.507   0.697  14.579  0.2620  0.3717  1.3865
 3615SOL    HW222308   0.411   0.611  14.503 -1.8442  1.3005 -0.2354
 3616SOL     OW22309   0.067   2.747   6.998 -0.1656 -0.2402  0.0242
 3616SOL    HW122310   0.118   2.669   6.974  0.6957  0.5365 -0.6556
 3616SOL    HW222311   0.120   2.817   6.961  0.5441 -0.5810  0.3872
 3617SOL     OW22312   1.159   1.553   2.383 -0.4925 -0.5064 -0.5505
 3617SOL    HW122313   1.150   1.585   2.293 -2.1764 -0.7647 -0.4840
 3617SOL    HW222314   1.231   1.490   2.372  0.9789  1.6382 -3.1288
 3618SOL     OW22315   2.371   4.662   5.730  0.4204 -0.1119 -0.3399
 3618SOL    HW122316   2.305   4.619   5.784  0.7630  1.0403  1.0187
 3618SOL    HW222317   2.348   4.639   5.641 -0.5274 -0.4715 -0.0006
 3619SOL     OW22318   2.114   1.723   8.146 -0.0041  0.2213  0.6533
 3619SOL    HW122319   2.073   1.637   8.152  0.7774 -0.2115 -0.1900
 3619SOL    HW222320   2.200   1.704   8.184 -0.4755  0.2008  1.7149
 3620SOL     OW22321   3.671   0.404   4.618  0.0344 -0.1009  0.1105
 3620SOL    HW122322   3.718   0.436   4.696 -1.8199  1.7441  0.4711
 3620SOL    HW222323   3.607   0.475   4.612  0.3971  0.0564 -1.8433
 3621SOL     OW22324   2.593   4.079   7.427 -0.4382  0.0028 -0.4428
 3621SOL    HW122325   2.531   4.128   7.481 -0.6982 -0.7423 -0.0660
 3621SOL    HW222326   2.540   4.003   7.401  0.1128 -0.8323  0.9029
 3622SOL     OW22327   2.365   2.198   4.899 -0.2128  0.2995  0.1025
 3622SOL    HW122328   2.434   2.153   4.851 -0.8753 -2.0635  1.3645
 3622SOL    HW222329   2.408   2.275   4.937 -0.2152  1.2625 -1.8375
 3623SOL     OW22330   1.819   2.519   6.782  0.2361  0.4655 -0.6709
 3623SOL    HW122331   1.769   2.601   6.788 -0.4393 -0.1738  2.6353
 3623SOL    HW222332   1.896   2.538   6.836  0.4095 -3.8301  0.5806
 3624SOL     OW22333   3.178   1.422   9.576  0.7306  0.1948 -0.0144
 3624SOL    HW122334   3.258   1.474   9.575  1.4655 -0.9364  0.1041
 3624SOL    HW222335   3.207   1.332   9.589 -1.4777 -0.7749 -1.8196
 3625SOL     OW22336   0.859   0.440   0.890 -0.1483  0.2714  1.1858
 3625SOL    HW122337   0.853   0.448   0.795  0.8103 -0.3308  1.0713
 3625SOL    HW222338   0.942   0.484   0.907 -0.6963  1.1675  1.5307
 3626SOL     OW22339   1.214   2.002   6.287  0.0858  0.2309 -0.0491
 3626SOL    HW122340   1.261   1.921   6.310 -0.3908  0.0830  0.4131
 3626SOL    HW222341   1.267   2.037   6.216  0.2517  0.7228  0.3167
 3627SOL     OW22342   2.519   3.200   7.892  0.1811 -0.2136  0.5660
 3627SOL    HW122343   2.557   3.286   7.911 -1.3250  0.5627  0.0465
 3627SOL    HW222344   2.593   3.166   7.841  0.4501 -1.3026  1.6744
 3628SOL     OW22345   3.191   3.714  16.231 -0.3332  0.1187  0.1116
 3628SOL    HW122346   3.249   3.640  16.210 -0.0477  0.2650  0.3822
 3628SOL    HW222347   3.109   3.666  16.237 -0.8028  0.8704 -0.3205
 3629SOL     OW22348   4.074   1.474   8.687 -0.0714 -0.0715 -0.0088
 3629SOL    HW122349   4.039   1.563   8.675  0.0227  0.3133  2.6768
 3629SOL    HW222350   4.161   1.491   8.652 -1.1560  0.5238 -2.4209
 3630SOL     OW22351   2.185   4.216  13.278  0.1840 -0.0757  0.3228
 3630SOL    HW122352   2.107   4.261  13.309  0.0479  0.0702 -0.2279
 3630SOL    HW222353   2.207   4.256  13.194  0.7990 -1.2721 -0.0890
 3631SOL     OW22354   4.055   4.609  13.335 -0.1681  0.6647  0.0106
 3631SOL    HW122355   3.968   4.617  13.296 -0.2097  1.9910  0.3674
 3631SOL    HW222356   4.066   4.688  13.388  2.9818  1.3360 -1.6270
 3632SOL     OW22357   4.144   4.008  15.358 -0.0414 -0.0623  0.2245
 3632SOL    HW122358   4.120   4.034  15.447  0.2384  1.1298 -0.0537
 3632SOL    HW222359   4.179   4.092  15.330  1.0115 -0.7714 -0.6149
 3633SOL     OW22360   0.932   4.605  16.068  0.5388  0.0289 -0.0252
 3633SOL    HW122361   1.022   4.628  16.090 -0.1216 -0.0658  2.7995
 3633SOL    HW222362   0.905   4.696  16.062  0.0660 -0.1526 -0.6771
 3634SOL     OW22363   3.645   3.434   1.250  0.0610  0.2227 -0.3492
 3634SOL    HW122364   3.723   3.378   1.251 -1.5426 -1.9481  2.9664
 3634SOL    HW222365   3.578   3.373   1.221  0.0547  0.3359 -0.5715
 3635SOL     OW22366   1.217   3.736  10.604  0.0374  0.1353 -0.0612
 3635SOL    HW122367   1.167   3.814  10.580 -2.3112 -1.4527 -0.3722
 3635SOL    HW222368   1.272   3.717  10.528 -0.0753 -0.6939  0.0686
 3636SOL     OW22369   0.856   2.691   8.702 -0.2728  0.3615  0.2599
 3636SOL    HW122370   0.811   2.745   8.767  0.4318 -0.3740  1.3670
 3636SOL    HW222371   0.846   2.599   8.730  2.3177 -0.8022 -2.7449
 3637SOL     OW22372   4.138   4.585  15.770 -0.2793  0.2913  0.1445
 3637SOL    HW122373   4.080   4.653  15.805  0.5646  1.2380 -0.2845
 3637SOL    HW222374   4.137   4.518  15.838  2.4676 -0.0500 -0.1506
 3638SOL     OW22375   4.368   2.184  14.118 -0.0326  0.6003  0.0881
 3638SOL    HW122376   4.388   2.091  14.110 -1.6582  0.3183 -0.5105
 3638SOL    HW222377   4.326   2.181  14.204  1.1337 -0.8325  0.6246
 3639SOL     OW22378   4.168   0.304   6.099  0.2043  0.0062 -0.3271
 3639SOL    HW122379   4.081   0.278   6.131  0.7377  0.0748  1.2000
 3639SOL    HW222380   4.187   0.223   6.051  0.1099 -0.5990  0.6378
 3640SOL     OW22381   3.270   4.379   7.248  0.2711  0.2327  0.1281
 3640SOL    HW122382   3.324   4.458   7.247  0.2856  0.2366  1.7745
 3640SOL    HW222383   3.189   4.422   7.274  0.2878 -0.0198  0.5908
 3641SOL     OW22384   3.196   1.508   6.914  0.2619  0.1978 -0.2370
 3641SOL    HW122385   3.265   1.552   6.864 -0.4766  0.0279 -1.3903
 3641SOL    HW222386   3.149   1.453   6.852  0.1436 -1.1581  1.0598
 3642SOL     OW22387   3.498   3.703   7.807 -0.1892  0.0646 -0.2813
 3642SOL    HW122388   3.538   3.730   7.725 -1.7006 -0.0838 -1.0606
 3642SOL    HW222389   3.567   3.661   7.858 -0.5775 -0.4742 -0.1941
 3643SOL     OW22390   1.988   0.700   6.102 -0.0074 -0.6640 -0.0038
 3643SOL    HW122391   1.983   0.625   6.041  2.3072 -1.0123  0.2583
 3643SOL    HW222392   2.050   0.763   6.067 -1.0210 -1.1560 -2.7041
 3644SOL     OW22393   0.915   4.188  10.036  0.0612  0.0561  0.4625
 3644SOL    HW122394   0.957   4.114  10.081  0.3005 -0.1492 -0.1053
 3644SOL    HW222395   0.990   4.229   9.993  0.1321 -0.3273  0.2270
 3645SOL     OW22396   0.586   3.909   4.053 -0.2535  0.4700 -0.3402
 3645SOL    HW122397   0.585   3.828   4.002 -0.3550  0.1625  0.1533
 3645SOL    HW222398   0.528   3.959   3.996 -1.9861 -0.8102  0.2812
 3646SOL     OW22399   0.493   0.957  14.454 -0.2094 -0.0922 -0.4028
 3646SOL    HW122400   0.505   0.934  14.362 -0.6392 -2.3902  0.1111
 3646SOL    HW222401   0.555   0.896  14.494 -1.9512 -1.1499  0.7058
 3647SOL     OW22402   3.137   4.302   4.616  0.1920  0.0223  0.2871
 3647SOL    HW122403   3.059   4.298   4.561  2.3849 -0.8211 -2.7416
 3647SOL    HW222404   3.156   4.213   4.647  2.4744 -0.7133 -3.2596
 3648SOL     OW22405   2.402   3.183   4.811  0.7153 -0.1738  0.3534
 3648SOL    HW122406   2.317   3.148   4.783  0.9020 -1.0537  0.8798
 3648SOL    HW222407   2.436   3.214   4.727 -0.1193  2.1000  0.8475
 3649SOL     OW22408   0.395   4.614   5.061  0.2451  0.0954  0.2820
 3649SOL    HW122409   0.461   4.671   5.021  1.0657 -0.2929  1.0756
 3649SOL    HW222410   0.434   4.526   5.061 -1.4385 -0.6516 -0.7509
 3650SOL     OW22411   1.057   2.438  10.433 -0.1743 -0.0997 -0.0387
 3650SOL    HW122412   1.095   2.439  10.346  1.5616 -0.5918  0.7068
 3650SOL    HW222413   0.965   2.440  10.406  0.0197  0.7814 -0.6328
 3651SOL     OW22414   0.283   4.016   7.949 -0.3182 -0.2080  0.3114
 3651SOL    HW122415   0.194   4.031   7.916 -0.4530 -2.5113 -0.3785
 3651SOL    HW222416   0.332   4.076   7.893 -0.3530 -0.1905  0.2997
 3652SOL     OW22417   3.099   4.079   2.168 -0.2700  0.1132 -0.0023
 3652SOL    HW122418   3.084   3.998   2.217  2.0078  1.5346  2.9576
 3652SOL    HW222419   3.009   4.112   2.173  0.2803  1.4781  0.7633
 3653SOL     OW22420   3.777   3.011   2.455 -0.2152  0.0845 -0.3951
 3653SOL    HW122421   3.812   2.938   2.505 -1.8029 -0.4358 -0.0491
 3653SOL    HW222422   3.808   2.989   2.367 -0.4103  2.4293 -1.0636
 3654SOL     OW22423   4.393   2.076  16.904  0.8708 -0.2192 -0.7429
 3654SOL    HW122424   4.369   2.052  16.814  1.9686 -0.9129 -0.8529
 3654SOL    HW222425   4.474   2.124  16.889 -0.5150  2.5379  0.6123
 3655SOL     OW22426   1.640   2.999  13.306  0.1480 -0.8211  0.5664
 3655SOL    HW122427   1.616   3.092  13.301 -0.4179 -0.9836  0.1872
 3655SOL    HW222428   1.576   2.967  13.370 -0.0087 -1.1102  0.2640
 3656SOL     OW22429   4.606   1.973   9.094 -0.7699  0.1130 -0.0234
 3656SOL    HW122430   4.580   2.063   9.117  0.8706  0.2590  1.2035
 3656SOL    HW222431   4.531   1.941   9.043  0.9420 -3.2117 -0.4122
 3657SOL     OW22432   2.593   4.007   1.153  0.2470 -0.2234 -0.5461
 3657SOL    HW122433   2.575   4.067   1.081  0.1831  2.8293  2.0281
 3657SOL    HW222434   2.511   3.959   1.138  0.2861 -0.2215 -0.7643
 3658SOL     OW22435   0.451   0.511   4.740  0.3277 -0.3563  0.4949
 3658SOL    HW122436   0.452   0.596   4.785  0.1826  0.7702 -1.6119
 3658SOL    HW222437   0.362   0.499   4.707 -0.0184  1.0679  0.8945
 3659SOL     OW22438   2.058   0.810   8.431  0.8560  0.1062 -0.2473
 3659SOL    HW122439   2.011   0.727   8.442 -0.7315  1.4322  2.9211
 3659SOL    HW222440   2.087   0.831   8.519  1.5625 -0.6646 -0.2972
 3660SOL     OW22441   4.387   0.820   1.512  0.5282 -0.0376 -0.3633
 3660SOL    HW122442   4.441   0.821   1.433  0.3289 -0.2709 -0.5019
 3660SOL    HW222443   4.447   0.758   1.555  0.2272 -0.6237 -0.7991
 3661SOL     OW22444   1.155   3.485   7.599 -0.0957 -0.4671 -0.0124
 3661SOL    HW122445   1.106   3.567   7.591 -0.0786 -0.5453 -0.9739
 3661SOL    HW222446   1.226   3.521   7.652 -0.2136  0.3477 -0.4055
 3662SOL     OW22447   4.280   0.585   4.928  0.0373 -0.4376 -0.0151
 3662SOL    HW122448   4.235   0.573   5.011  1.5871 -0.0800  0.8862
 3662SOL    HW222449   4.242   0.517   4.873 -0.9369 -0.1299  0.2797
 3663SOL     OW22450   1.598   0.018   4.201  0.1341  0.6005  0.2892
 3663SOL    HW122451   1.642   4.658   4.205 -0.4303  0.3648  1.7672
 3663SOL    HW222452   1.630   0.056   4.119 -0.8859  1.9026  0.4931
 3664SOL     OW22453   1.963   4.361   7.450 -0.1132  0.4302  0.2309
 3664SOL    HW122454   1.892   4.356   7.386 -1.7378 -2.2659  2.2307
 3664SOL    HW222455   1.938   4.291   7.510  2.5670  0.0561  0.9205
 3665SOL     OW22456   1.887   4.519   1.365 -0.0829 -0.6099 -0.5100
 3665SOL    HW122457   1.822   4.569   1.315 -0.6663  3.0068  3.8211
 3665SOL    HW222458   1.927   4.580   1.428  1.9477 -3.5985  1.0652
 3666SOL     OW22459   2.561   4.064   1.517  0.2045 -0.3460  0.2545
 3666SOL    HW122460   2.561   4.114   1.436  0.3964 -0.7205  0.0254
 3666SOL    HW222461   2.655   4.072   1.537  0.3345 -1.8223  0.2675
 3667SOL     OW22462   3.118   1.748   3.852  0.0535 -0.3524  0.1508
 3667SOL    HW122463   3.098   1.798   3.931 -1.0423  0.1515 -0.4449
 3667SOL    HW222464   3.043   1.695   3.824 -1.4000  0.5797  2.3049
 3668SOL     OW22465   0.186   4.696   0.534  0.2913  0.0263 -0.1271
 3668SOL    HW122466   0.167   0.061   0.508 -2.2954 -0.0721  1.4234
 3668SOL    HW222467   0.282   4.702   0.543 -0.0016  1.8971  1.7931
 3669SOL     OW22468   1.811   0.089   7.157 -0.2639  0.4155  0.8074
 3669SOL    HW122469   1.731   0.112   7.110 -1.5175 -2.3091  1.6302
 3669SOL    HW222470   1.854   0.175   7.157 -0.2646  0.4334 -2.7908
 3670SOL     OW22471   2.052   3.921   4.456 -0.0031 -0.2426 -0.0723
 3670SOL    HW122472   2.063   3.893   4.547  1.0616 -1.0758 -0.4683
 3670SOL    HW222473   2.026   3.840   4.412 -0.9842  0.8041 -1.4479
 3671SOL     OW22474   0.017   3.804   2.519  0.1758 -0.1135  0.2562
 3671SOL    HW122475   0.071   3.876   2.552 -0.9585  0.9196 -0.1523
 3671SOL    HW222476   4.696   3.860   2.456 -1.5370  0.1590  1.7298
 3672SOL     OW22477   0.965   2.216   0.444 -0.2823  0.1212  0.1424
 3672SOL    HW122478   0.933   2.261   0.366  3.3095  1.7400 -0.3779
 3672SOL    HW222479   0.892   2.155   0.458 -1.6166  1.5908 -0.4633
 3673SOL     OW22480   0.901   3.181   9.487  0.1955 -0.5396 -0.0519
 3673SOL    HW122481   0.806   3.180   9.500 -0.1631 -0.5049 -2.6890
 3673SOL    HW222482   0.923   3.104   9.539  0.6895 -0.1916  0.2572
 3674SOL     OW22483   0.258   3.480  13.361  0.0074  0.1939 -0.0728
 3674SOL    HW122484   0.241   3.392  13.326 -0.3242  0.3223 -0.2304
 3674SOL    HW222485   0.239   3.527  13.280 -0.4204  0.6521  0.2932
 3675SOL     OW22486   4.444   3.007  15.295  0.2575 -0.0329 -0.2084
 3675SOL    HW122487   4.358   3.048  15.307 -0.2840 -1.7461  1.6869
 3675SOL    HW222488   4.455   3.012  15.200  0.2604  0.7537 -0.1661
 3676SOL     OW22489   2.286   0.998   1.458  0.2381 -0.5573 -0.3065
 3676SOL    HW122490   2.210   0.980   1.514 -0.2777  0.4517 -0.6746
 3676SOL    HW222491   2.315   1.085   1.487  3.4228 -1.7429  0.0183
 3677SOL     OW22492   0.765   1.409   5.452  0.2739  0.3047 -0.0353
 3677SOL    HW122493   0.756   1.503   5.472  1.0406  0.0041  1.7223
 3677SOL    HW222494   0.781   1.375   5.540 -3.2133 -4.3157 -1.2418
 3678SOL     OW22495   1.218   0.472  10.905 -0.3858  0.2134 -0.2739
 3678SOL    HW122496   1.294   0.530  10.911 -0.5124  0.3327  0.2052
 3678SOL    HW222497   1.148   0.529  10.936 -0.9015 -0.9565  0.6927
 3679SOL     OW22498   3.038   3.182   7.116 -0.0392 -0.3691 -0.5849
 3679SOL    HW122499   3.028   3.094   7.151  1.2066 -0.5916 -0.8072
 3679SOL    HW222500   2.984   3.181   7.036 -0.9486 -2.2504  0.0406
 3680SOL     OW22501   1.632   4.091  12.973  0.5799  0.0821  0.1351
 3680SOL    HW122502   1.591   4.135  12.898 -2.3584  0.6233  2.0757
 3680SOL    HW222503   1.685   4.161  13.013 -0.6813  0.9051  0.3572
 3681SOL     OW22504   2.278   3.615  16.025  0.2743 -0.4733  0.8306
 3681SOL    HW122505   2.330   3.546  15.984 -1.3082 -1.5579  0.6075
 3681SOL    HW222506   2.247   3.564  16.100  0.9101  0.9046  2.0086
 3682SOL     OW22507   3.689   2.108   2.892  0.7295  0.0006 -0.0060
 3682SOL    HW122508   3.719   2.053   2.820  2.7985  0.7041  0.3104
 3682SOL    HW222509   3.734   2.060   2.962 -0.6509 -1.9097 -0.4388
 3683SOL     OW22510   1.108   3.547  16.552  0.4620  0.3520  0.4398
 3683SOL    HW122511   1.147   3.494  16.483 -2.1321 -0.7177 -0.1889
 3683SOL    HW222512   1.035   3.497  16.588 -0.7309  2.7175  1.3004
 3684SOL     OW22513   2.449   2.893   4.744  0.3312  0.5660 -0.6582
 3684SOL    HW122514   2.420   2.879   4.654  0.9771 -0.9834 -0.6270
 3684SOL    HW222515   2.376   2.941   4.783  0.0636 -0.2614 -0.1205
 3685SOL     OW22516   0.786   4.087   6.744 -1.1235  0.0174 -0.2478
 3685SOL    HW122517   0.696   4.064   6.769 -1.3300  2.1576  1.0420
 3685SOL    HW222518   0.787   4.182   6.756  0.1218 -0.0351  0.0209
 3686SOL     OW22519   0.935   4.354   5.063  0.5009 -0.5679 -0.1787
 3686SOL    HW122520   0.913   4.408   4.987 -1.2822  3.0742  2.8930
 3686SOL    HW222521   0.954   4.272   5.018  1.2510 -0.8743  0.7060
 3687SOL     OW22522   0.492   1.579   8.738 -0.2720 -0.0871 -0.0440
 3687SOL    HW122523   0.518   1.643   8.672 -1.6057  0.6891  0.1923
 3687SOL    HW222524   0.575   1.532   8.751  0.1993  0.9781  0.7521
 3688SOL     OW22525   3.965   1.093   4.517  0.1640  0.7225  0.4475
 3688SOL    HW122526   4.000   1.077   4.429 -3.0100 -1.0373 -0.4726
 3688SOL    HW222527   4.001   1.180   4.533 -0.0120  1.0704 -1.0631
 3689SOL     OW22528   2.984   4.559   8.581 -0.5518 -0.4257 -0.1043
 3689SOL    HW122529   3.058   4.619   8.592 -1.3393 -0.1433  3.7838
 3689SOL    HW222530   2.977   4.559   8.486  1.9133 -0.9336 -0.2639
 3690SOL     OW22531   3.033   4.210   8.432 -0.1846 -0.1578  0.4754
 3690SOL    HW122532   3.018   4.215   8.527 -1.6086 -1.3153  0.3179
 3690SOL    HW222533   2.991   4.289   8.397 -1.5304 -1.9895 -1.9967
 3691SOL     OW22534   3.186   2.281   2.947  0.3981 -0.6103  0.2530
 3691SOL    HW122535   3.166   2.239   2.863 -0.3059  0.2882 -0.0206
 3691SOL    HW222536   3.230   2.364   2.928  2.0929 -1.6483 -0.4061
 3692SOL     OW22537   2.925   2.674   3.186 -1.0958 -0.9317 -0.5851
 3692SOL    HW122538   2.983   2.658   3.111 -2.6343 -0.6118 -1.8564
 3692SOL    HW222539   2.989   2.709   3.248 -0.9607 -1.1795 -0.5822
 3693SOL     OW22540   4.230   1.358  15.809 -0.0172  0.0602  0.6947
 3693SOL    HW122541   4.249   1.363  15.903  0.7474  0.3956  0.5213
 3693SOL    HW222542   4.217   1.263  15.801 -1.5675  0.2535  0.9467
 3694SOL     OW22543   2.017   2.312  13.264  0.5428 -0.0707 -0.3145
 3694SOL    HW122544   2.106   2.293  13.235  0.5360 -0.8234  0.1536
 3694SOL    HW222545   1.973   2.234  13.229 -2.6984  1.1498  1.0674
 3695SOL     OW22546   0.065   0.158   6.232 -0.1515  0.0598 -0.4907
 3695SOL    HW122547   0.146   0.154   6.180 -0.5973 -0.6875 -1.1319
 3695SOL    HW222548   0.008   0.097   6.183 -0.0759 -0.8048  0.4990
 3696SOL     OW22549   0.547   1.628   3.776 -0.2325 -0.1344  0.1201
 3696SOL    HW122550   0.614   1.660   3.716 -1.1529  0.6850 -0.4645
 3696SOL    HW222551   0.579   1.538   3.781  1.1094  0.3158 -0.4573
 3697SOL     OW22552   4.323   1.374   4.261 -0.1723 -0.2450  0.2506
 3697SOL    HW122553   4.363   1.424   4.332 -0.7688  1.3250 -0.5149
 3697SOL    HW222554   4.372   1.412   4.187 -0.7449  0.8140  0.4126
 3698SOL     OW22555   2.214   3.231   4.206  0.2917  0.5504  0.1695
 3698SOL    HW122556   2.282   3.277   4.158  0.6657  0.5424  0.6918
 3698SOL    HW222557   2.185   3.306   4.259 -0.8019  0.0404  0.2923
 3699SOL     OW22558   0.672   2.496   9.912 -0.8004  0.1688  0.5389
 3699SOL    HW122559   0.760   2.519   9.942 -0.8614 -0.0995  0.9329
 3699SOL    HW222560   0.655   2.420   9.968 -2.4955 -0.6969 -1.1490
 3700SOL     OW22561   0.164   1.032   2.640 -0.2701  0.0632 -0.2547
 3700SOL    HW122562   0.172   1.108   2.582  1.4889 -0.7308 -1.0372
 3700SOL    HW222563   0.209   0.972   2.581  0.2206 -0.9255  1.1091
 3701SOL     OW22564   0.566   1.974   5.054  0.1028 -0.1011 -0.2181
 3701SOL    HW122565   0.502   2.043   5.039 -0.3964 -0.6789 -0.7066
 3701SOL    HW222566   0.634   2.005   4.994 -0.4107  1.1003 -0.1776
 3702SOL     OW22567   1.855   2.939   7.124  0.0281 -0.1169  0.2550
 3702SOL    HW122568   1.844   3.024   7.081  0.9132  0.1366  0.5271
 3702SOL    HW222569   1.917   2.904   7.061 -0.2842 -2.1389  1.0794
 3703SOL     OW22570   2.989   2.163   2.451 -0.0204 -0.6654 -0.6159
 3703SOL    HW122571   2.907   2.116   2.442 -0.8171  0.6231  0.0145
 3703SOL    HW222572   2.955   2.252   2.437 -0.3428 -0.9281 -1.5116
 3704SOL     OW22573   2.149   2.330  14.727  0.2954 -0.3600  0.1591
 3704SOL    HW122574   2.128   2.268  14.797  2.3683 -2.0408 -0.6918
 3704SOL    HW222575   2.243   2.319  14.713  0.2245 -1.6827  0.7538
 3705SOL     OW22576   0.509   2.771   1.617  0.0678 -0.0791 -0.2800
 3705SOL    HW122577   0.487   2.807   1.703  0.9083  1.4717 -0.7030
 3705SOL    HW222578   0.574   2.703   1.636  1.0059  0.8063 -0.3112
 3706SOL     OW22579   4.639   0.807   7.447  0.0013  0.7888 -0.0862
 3706SOL    HW122580   4.646   0.721   7.487  1.0131  1.6662  1.6457
 3706SOL    HW222581   4.637   0.866   7.523  0.4469  0.7012 -0.0071
 3707SOL     OW22582   2.650   3.055   4.899 -0.1674 -0.4157  0.0097
 3707SOL    HW122583   2.586   3.122   4.877  0.0808 -0.1558  0.0848
 3707SOL    HW222584   2.606   2.982   4.855  0.8629 -0.4365 -0.9849
 3708SOL     OW22585   2.945   1.683   5.175 -0.9898  0.8043  0.2310
 3708SOL    HW122586   2.913   1.657   5.088 -0.0340  0.1664  0.0774
 3708SOL    HW222587   2.936   1.778   5.164  0.1116  0.9318  0.5089
 3709SOL     OW22588   1.084   2.096  13.091  0.3761  0.3212  0.3185
 3709SOL    HW122589   1.048   2.028  13.147 -1.7375  1.7794  0.7438
 3709SOL    HW222590   1.117   2.049  13.015  0.2557  1.7247 -0.5999
 3710SOL     OW22591   4.104   1.712   3.068 -0.4020  0.6337  0.5795
 3710SOL    HW122592   4.148   1.693   2.985  0.1205  3.0897  0.3255
 3710SOL    HW222593   4.090   1.805   3.054  0.1268  0.6194 -0.0176
 3711SOL     OW22594   4.477   3.043   7.801 -0.4766 -0.5302  0.3882
 3711SOL    HW122595   4.435   2.996   7.873 -0.4503 -1.9639 -0.5323
 3711SOL    HW222596   4.569   3.040   7.826  0.0107  0.4560 -1.2804
 3712SOL     OW22597   2.370   3.327  12.034  0.4735 -0.4462  0.1178
 3712SOL    HW122598   2.374   3.422  12.025 -0.5424 -0.4705 -0.6416
 3712SOL    HW222599   2.459   3.308  12.063  0.2439  1.2191  1.8756
 3713SOL     OW22600   4.278   0.438   2.245 -0.2889 -0.2189  0.2646
 3713SOL    HW122601   4.275   0.342   2.245 -1.0816 -0.1955 -0.1584
 3713SOL    HW222602   4.327   0.455   2.165  2.1384 -2.0991  1.3461
 3714SOL     OW22603   3.707   3.528   7.902 -0.7372 -0.1812 -0.1740
 3714SOL    HW122604   3.776   3.481   7.950  0.5709  0.6725 -1.1985
 3714SOL    HW222605   3.655   3.535   7.981  0.1920 -1.9797  0.5890
 3715SOL     OW22606   0.893   0.812   3.127  0.0263  0.2520  0.6727
 3715SOL    HW122607   0.902   0.894   3.174 -0.8983  0.4657  0.4924
 3715SOL    HW222608   0.881   0.755   3.202 -0.4016 -1.1036 -0.4178
 3716SOL     OW22609   0.077   3.284   2.564  0.1459  0.7808  0.1169
 3716SOL    HW122610   0.124   3.345   2.622  1.3623 -1.8992  1.9390
 3716SOL    HW222611   0.030   3.343   2.505  0.1073  0.8550  0.2212
 3717SOL     OW22612   0.718   3.080  15.560 -0.2760 -0.6239 -0.1889
 3717SOL    HW122613   0.687   3.085  15.651  0.2363 -2.7666  0.1198
 3717SOL    HW222614   0.695   3.166  15.525  1.9991  0.0432 -0.0394
 3718SOL     OW22615   2.715   3.896   4.845 -0.1281  0.1319 -0.2588
 3718SOL    HW122616   2.661   3.868   4.919 -1.6557  0.3946 -1.2717
 3718SOL    HW222617   2.658   3.891   4.768 -1.3794  0.9009  0.6190
 3719SOL     OW22618   4.345   3.796   7.581 -0.3743 -0.5614  0.0505
 3719SOL    HW122619   4.426   3.835   7.547  0.1484 -1.8876 -0.1936
 3719SOL    HW222620   4.376   3.759   7.664  2.6199  0.5650 -0.5907
 3720SOL     OW22621   0.248   3.665  13.160  0.0374  0.2527 -0.1655
 3720SOL    HW122622   0.286   3.751  13.142 -1.3768  0.9701  0.2775
 3720SOL    HW222623   0.185   3.668  13.089 -1.5526 -1.8213  1.1666
 3721SOL     OW22624   0.439   3.337   7.473 -0.3749  0.0863  0.1068
 3721SOL    HW122625   0.388   3.258   7.454 -0.5942  0.7512 -2.0271
 3721SOL    HW222626   0.525   3.308   7.444 -0.7200  0.8928 -1.7344
 3722SOL     OW22627   2.907   0.253   1.749  0.3883  0.1904 -0.2301
 3722SOL    HW122628   2.995   0.252   1.786  1.0949 -1.9348 -1.9735
 3722SOL    HW222629   2.857   0.196   1.807 -0.7994 -0.4670 -1.8850
 3723SOL     OW22630   3.085   3.972   8.320 -0.5202  0.1525 -0.1311
 3723SOL    HW122631   3.053   4.051   8.364 -3.5690 -0.0386 -2.0005
 3723SOL    HW222632   3.052   3.996   8.234 -1.8153 -0.1106  0.2828
 3724SOL     OW22633   3.069   4.322   8.701  0.3707 -0.2731 -0.0841
 3724SOL    HW122634   3.025   4.403   8.674 -0.8620 -1.1870 -0.7911
 3724SOL    HW222635   3.109   4.348   8.784 -0.1099 -0.9607  0.3624
 3725SOL     OW22636   3.179   1.939   0.524 -0.4832 -0.4010 -0.0096
 3725SOL    HW122637   3.093   1.965   0.493  0.9827  2.1466 -1.9141
 3725SOL    HW222638   3.166   1.920   0.617 -2.2064  0.4996 -0.0726
 3726SOL     OW22639   1.548   1.270   2.011  0.0765  0.1703  0.1485
 3726SOL    HW122640   1.525   1.177   2.020  1.6419 -0.0698  1.7970
 3726SOL    HW222641   1.466   1.312   2.038  0.2690  0.7881 -0.2473
 3727SOL     OW22642   0.938   3.376   9.248 -0.1785  0.5846  0.2968
 3727SOL    HW122643   0.846   3.389   9.268  0.0131  0.2600  1.4099
 3727SOL    HW222644   0.959   3.440   9.180  0.0831  0.4804  0.2776
 3728SOL     OW22645   0.589   2.717   6.070  0.7311 -0.0640  0.5829
 3728SOL    HW122646   0.613   2.676   5.987 -0.0565 -1.0163  0.8287
 3728SOL    HW222647   0.510   2.752   6.030  2.0325  1.8374 -0.2913
 3729SOL     OW22648   4.706   1.750   8.940  0.4102 -0.3031 -0.2387
 3729SOL    HW122649   4.708   1.779   9.031  2.4890 -1.4474  0.0601
 3729SOL    HW222650   0.069   1.784   8.922  0.5333  1.1097  3.0415
 3730SOL     OW22651   2.750   2.154  11.857  0.5414  0.0676  0.2445
 3730SOL    HW122652   2.767   2.247  11.842  1.4566 -0.0802  0.3739
 3730SOL    HW222653   2.758   2.159  11.952  0.7692  0.0621  0.2247
 3731SOL     OW22654   1.140   2.044   9.474  0.2252 -0.2595 -0.4658
 3731SOL    HW122655   1.222   2.026   9.520 -0.4269 -1.2009  0.3306
 3731SOL    HW222656   1.139   2.139   9.463  1.3192 -0.0530  1.1688
 3732SOL     OW22657   2.719   1.395  11.240 -0.0545 -0.2151 -0.6952
 3732SOL    HW122658   2.776   1.402  11.163  0.5599  2.3508 -0.0128
 3732SOL    HW222659   2.758   1.463  11.294  1.3257  0.1249 -2.1343
 3733SOL     OW22660   3.817   1.863  16.626  0.0174 -0.2228 -0.2216
 3733SOL    HW122661   3.775   1.827  16.704  1.2376 -2.3296 -0.5241
 3733SOL    HW222662   3.896   1.907  16.659 -1.9383  2.2525  1.0790
 3734SOL     OW22663   2.958   2.960   9.599 -0.1044 -0.0878  0.2975
 3734SOL    HW122664   2.998   2.970   9.685  0.6110 -0.9573  0.0691
 3734SOL    HW222665   2.922   2.872   9.612  1.0681 -0.5927  0.0969
 3735SOL     OW22666   4.118   0.849   4.989 -0.1704 -0.1098 -0.3241
 3735SOL    HW122667   4.057   0.923   4.994  1.0864  0.8005  1.5130
 3735SOL    HW222668   4.176   0.875   4.917 -0.0953  1.8136  0.4190
 3736SOL     OW22669   2.474   1.794  10.862  0.6839  0.5427 -0.0968
 3736SOL    HW122670   2.460   1.714  10.913  0.8362  1.1937  0.9666
 3736SOL    HW222671   2.548   1.822  10.916 -0.7209  0.1057  2.0807
 3737SOL     OW22672   1.550   1.885   6.008  0.2180 -0.0272  0.1318
 3737SOL    HW122673   1.524   1.809   5.958  1.2155 -1.0810  1.2114
 3737SOL    HW222674   1.609   1.921   5.942 -0.7980 -1.3885 -1.4829
 3738SOL     OW22675   0.813   0.658   1.918  0.7013  0.0728 -0.1058
 3738SOL    HW122676   0.852   0.705   1.844  1.0645  0.1097  0.1125
 3738SOL    HW222677   0.836   0.719   1.987 -0.3230  0.3215  0.0143
 3739SOL     OW22678   3.671   1.495  16.853 -0.1067 -0.1263  0.0969
 3739SOL    HW122679   3.611   1.487  16.928 -1.8423 -0.7859 -1.3559
 3739SOL    HW222680   3.610   1.471  16.783  1.1057  1.6310 -1.5630
 3740SOL     OW22681   3.287   3.735   2.465 -0.2228  0.5673 -0.6192
 3740SOL    HW122682   3.283   3.644   2.436  1.3011  0.7239 -1.3496
 3740SOL    HW222683   3.366   3.732   2.519  0.6087  1.8964 -1.7521
 3741SOL     OW22684   2.474   3.160   5.154  0.1538  0.2488 -0.4870
 3741SOL    HW122685   2.482   3.075   5.196 -0.2037 -0.5881 -2.1276
 3741SOL    HW222686   2.565   3.178   5.129  0.9181 -1.5406  0.9992
 3742SOL     OW22687   1.476   0.525   8.482 -0.1042 -0.2018 -0.4515
 3742SOL    HW122688   1.418   0.452   8.504  0.4011 -1.2275 -2.4813
 3742SOL    HW222689   1.558   0.476   8.477 -0.3944 -0.8285  1.0203
 3743SOL     OW22690   2.681   1.865  11.037  0.1436 -0.1614 -0.5018
 3743SOL    HW122691   2.680   1.943  11.092  2.0013  0.7946 -1.8426
 3743SOL    HW222692   2.752   1.816  11.078 -0.5862  0.2365  1.2340
 3744SOL     OW22693   4.533   1.811  12.768 -0.1723  0.7415  0.3506
 3744SOL    HW122694   4.605   1.866  12.737  1.1636 -0.8080  0.7309
 3744SOL    HW222695   4.477   1.888  12.781 -0.9373  0.3158 -0.3939
 3745SOL     OW22696   0.875   3.110   5.162 -0.1745 -0.2123 -0.0742
 3745SOL    HW122697   0.810   3.175   5.188  0.6353  0.1686  1.0417
 3745SOL    HW222698   0.821   3.034   5.181 -0.9358 -0.2615 -2.5062
 3746SOL     OW22699   3.720   1.127   2.165 -0.7534  0.0686  0.5585
 3746SOL    HW122700   3.762   1.211   2.148  0.4972 -0.8715 -0.9226
 3746SOL    HW222701   3.694   1.145   2.256 -0.5589 -0.6574  0.7574
 3747SOL     OW22702   0.128   1.356   8.973 -0.8313  0.2432  0.1849
 3747SOL    HW122703   0.186   1.411   8.921  0.1166  0.0682  1.0756
 3747SOL    HW222704   0.131   1.285   8.910 -0.1935 -0.0981  0.6085
 3748SOL     OW22705   3.544   4.094  14.231 -0.3955 -0.1386 -0.1297
 3748SOL    HW122706   3.540   4.040  14.152  0.1812 -0.2215 -0.1013
 3748SOL    HW222707   3.638   4.114  14.228 -1.1167  3.1361 -1.2281
 3749SOL     OW22708   0.812   1.041  11.929  0.0416 -0.5021 -0.0879
 3749SOL    HW122709   0.884   1.060  11.870 -2.3303 -0.5663 -3.0015
 3749SOL    HW222710   0.789   0.950  11.915  0.0031 -0.5639  0.3612
 3750SOL     OW22711   3.832   0.763   7.991 -0.2227  0.3422  0.1485
 3750SOL    HW122712   3.828   0.769   8.087 -1.0476 -0.0062  0.1326
 3750SOL    HW222713   3.800   0.849   7.963 -0.0503  0.3172 -0.1201
 3751SOL     OW22714   1.372   3.737   3.592  0.5534 -0.5092 -0.0288
 3751SOL    HW122715   1.335   3.746   3.679 -1.4233 -2.3972 -0.6736
 3751SOL    HW222716   1.363   3.642   3.582  1.3290 -0.6541  0.7185
 3752SOL     OW22717   3.388   0.910   2.265 -0.0499 -0.1558  0.0719
 3752SOL    HW122718   3.360   0.827   2.227 -1.8402  0.6579 -0.3933
 3752SOL    HW222719   3.471   0.878   2.298  0.1100  0.8789  0.6872
 3753SOL     OW22720   1.409   0.665   1.916  0.1300 -0.0147  0.2540
 3753SOL    HW122721   1.413   0.759   1.897 -0.5444 -0.0226  0.0570
 3753SOL    HW222722   1.324   0.642   1.880  0.6302  0.8966 -1.4725
 3754SOL     OW22723   3.317   3.326   5.445  0.2431  0.3979  0.0688
 3754SOL    HW122724   3.395   3.378   5.460  0.1312  0.5917 -0.0165
 3754SOL    HW222725   3.267   3.346   5.525 -1.9086  0.5699 -1.3173
 3755SOL     OW22726   3.040   0.154  13.399  0.3904  0.0969  0.1720
 3755SOL    HW122727   3.118   0.185  13.354  0.9858 -0.3473  0.9065
 3755SOL    HW222728   2.985   0.112  13.332 -0.2662 -0.5857  1.1380
 3756SOL     OW22729   2.783   1.627  12.903  0.8581 -0.1438 -0.2709
 3756SOL    HW122730   2.744   1.543  12.880  0.5622  0.0707 -0.5693
 3756SOL    HW222731   2.850   1.599  12.965  0.2150 -0.0245  0.4770
 3757SOL     OW22732   2.098   2.825   2.640 -0.0574 -0.0450 -0.2050
 3757SOL    HW122733   2.120   2.862   2.555  3.3740 -1.7074 -0.0368
 3757SOL    HW222734   2.005   2.810   2.623  0.0558 -1.4255  0.4746
 3758SOL     OW22735   4.318   2.110   5.635 -0.1441  0.2559 -0.5103
 3758SOL    HW122736   4.235   2.138   5.595 -0.3607  0.3131 -0.0176
 3758SOL    HW222737   4.300   2.130   5.727 -0.3430  0.5280 -0.6085
 3759SOL     OW22738   1.707   1.075   7.967  0.0113  1.6253  0.2239
 3759SOL    HW122739   1.729   1.111   7.882  1.2890  1.7885  0.6362
 3759SOL    HW222740   1.698   0.982   7.944  0.2289  1.0918  2.2953
 3760SOL     OW22741   2.918   1.921   3.234 -0.3499  0.2001  0.3728
 3760SOL    HW122742   2.961   1.943   3.317  0.2373 -2.9169  0.9018
 3760SOL    HW222743   2.972   1.974   3.175  0.4823 -0.3114  0.6694
 3761SOL     OW22744   2.519   1.693   0.570  0.1324  0.3451 -0.1134
 3761SOL    HW122745   2.590   1.656   0.622 -1.2788  0.3035  1.8059
 3761SOL    HW222746   2.463   1.616   0.567  0.2824  0.2768 -1.0188
 3762SOL     OW22747   2.710   3.290   6.703 -0.1401 -0.4011 -0.2137
 3762SOL    HW122748   2.752   3.375   6.716  1.6476 -1.4972  1.2608
 3762SOL    HW222749   2.656   3.300   6.625  0.4233  1.7224 -0.3449
 3763SOL     OW22750   4.407   0.028   6.900  0.3258  0.7661  0.6167
 3763SOL    HW122751   4.347   4.687   6.865  0.1884  0.6951  0.9892
 3763SOL    HW222752   4.468   0.031   6.826  0.7248 -0.1986  0.8969
 3764SOL     OW22753   4.408   2.849   7.226  0.3105 -0.0685 -0.4617
 3764SOL    HW122754   4.407   2.781   7.293 -0.7332  0.2981 -0.1168
 3764SOL    HW222755   4.328   2.816   7.185 -0.8604  2.4807 -0.2766
 3765SOL     OW22756   3.460   1.277   0.087 -0.3400 -0.4469 -0.2013
 3765SOL    HW122757   3.528   1.219   0.051 -0.6269 -1.2897  0.6140
 3765SOL    HW222758   3.378   1.229   0.080  0.1562 -1.1680 -1.0809
 3766SOL     OW22759   0.801   0.842   4.388  0.1528  0.5128 -0.3720
 3766SOL    HW122760   0.845   0.924   4.411 -0.0658  0.1344  1.4613
 3766SOL    HW222761   0.753   0.869   4.310  0.0470  0.3935 -0.3479
 3767SOL     OW22762   1.078   2.815   5.590  0.1922  0.0254 -0.4699
 3767SOL    HW122763   1.087   2.909   5.574 -1.8696  0.0127 -1.7618
 3767SOL    HW222764   1.004   2.794   5.533  0.0864  1.6177 -0.9046
 3768SOL     OW22765   2.974   2.419   4.048  0.3346 -0.4912 -0.1660
 3768SOL    HW122766   2.914   2.373   4.106  2.1925 -2.0349  0.4939
 3768SOL    HW222767   2.969   2.352   3.980  1.9431 -0.0718 -0.7003
 3769SOL     OW22768   1.224   0.060   5.204  0.3409  0.2969  0.0588
 3769SOL    HW122769   1.319   0.056   5.221  0.0395  1.0794  1.8829
 3769SOL    HW222770   1.207   4.695   5.175  0.1964  0.6674 -1.0185
 3770SOL     OW22771   1.327   0.670  14.007 -0.5123  0.3837  0.1801
 3770SOL    HW122772   1.396   0.620  13.964 -1.2356  0.4229 -1.0304
 3770SOL    HW222773   1.323   0.623  14.091  1.6966 -1.2869 -0.6584
 3771SOL     OW22774   2.408   1.992   6.402  0.1121  0.5057 -0.3437
 3771SOL    HW122775   2.463   2.022   6.474  0.4050  0.4497 -0.5466
 3771SOL    HW222776   2.325   2.039   6.417 -0.1018 -0.2383  0.7302
 3772SOL     OW22777   4.381   4.282  14.110 -0.8352 -1.3740 -0.0884
 3772SOL    HW122778   4.438   4.258  14.183  0.3199  0.7230 -0.3063
 3772SOL    HW222779   4.425   4.260  14.028 -0.2837 -0.6311  0.0160
 3773SOL     OW22780   2.116   4.620  11.361 -0.3006  0.1481 -0.4236
 3773SOL    HW122781   2.028   4.624  11.400  0.6739  1.5986  1.6114
 3773SOL    HW222782   2.175   4.611  11.435  1.3828  1.8141 -1.5345
 3774SOL     OW22783   2.137   0.818   9.041  0.3660  0.3318  0.2035
 3774SOL    HW122784   2.145   0.898   9.093 -0.6241  0.0662  0.7507
 3774SOL    HW222785   2.217   0.820   8.989  0.3523 -2.2242  0.0911
 3775SOL     OW22786   1.962   3.773   3.264  0.3032 -0.9313 -0.5311
 3775SOL    HW122787   2.037   3.752   3.319  0.1641  2.1652  0.8411
 3775SOL    HW222788   1.997   3.856   3.231 -1.5558  0.3132  0.6611
 3776SOL     OW22789   1.218   3.950  11.782  0.0079  0.4089 -0.3558
 3776SOL    HW122790   1.141   4.006  11.782  0.8332  1.5785  2.2645
 3776SOL    HW222791   1.270   3.996  11.848 -0.8497 -1.8019  1.8901
 3777SOL     OW22792   0.831   0.287  11.198  0.1245  0.9058  0.6834
 3777SOL    HW122793   0.845   0.195  11.178 -0.4191  0.8581  0.5242
 3777SOL    HW222794   0.769   0.320  11.133 -0.3482  0.6180  0.9867
 3778SOL     OW22795   2.162   2.624  15.158 -0.2719 -0.4535  0.2073
 3778SOL    HW122796   2.246   2.658  15.126 -0.7559  0.1250 -0.4486
 3778SOL    HW222797   2.146   2.685  15.230 -1.6012 -0.9314  0.3174
 3779SOL     OW22798   4.448   1.389   8.064  0.2366 -0.2741 -0.8918
 3779SOL    HW122799   4.381   1.455   8.051 -1.6310 -1.6828  1.5537
 3779SOL    HW222800   4.525   1.433   8.028 -0.9258  0.6699 -2.2084
 3780SOL     OW22801   4.409   3.894   8.551  0.5804  0.2291 -0.2457
 3780SOL    HW122802   4.425   3.808   8.590  0.4227 -0.4902 -1.7850
 3780SOL    HW222803   4.318   3.904   8.578  0.7510  1.3236 -0.0622
 3781SOL     OW22804   0.937   0.144   8.913 -0.2348  0.1451 -0.2001
 3781SOL    HW122805   0.968   0.200   8.984 -0.7255 -1.1139  1.0120
 3781SOL    HW222806   0.936   0.059   8.957  1.7137  0.9739  1.4274
 3782SOL     OW22807   0.841   1.110  16.860 -0.6439 -0.2095  0.0279
 3782SOL    HW122808   0.815   1.135  16.949 -0.3334  0.2613 -0.0118
 3782SOL    HW222809   0.936   1.097  16.868 -0.6409  0.0565  0.4355
 3783SOL     OW22810   3.340   3.098   6.595 -0.0907  0.2005 -0.1121
 3783SOL    HW122811   3.273   3.056   6.649 -0.6156  0.4630 -0.5727
 3783SOL    HW222812   3.343   3.181   6.644 -2.8626 -0.4548  1.1323
 3784SOL     OW22813   0.402   2.779  13.494  0.1111  0.3025  0.2095
 3784SOL    HW122814   0.486   2.794  13.450  0.8453 -0.2336  1.4370
 3784SOL    HW222815   0.438   2.767  13.582  0.0520 -0.6723  0.1065
 3785SOL     OW22816   2.984   3.860  10.900 -0.2452 -0.2789 -0.3191
 3785SOL    HW122817   2.899   3.851  10.943 -0.6033  0.9133 -0.7920
 3785SOL    HW222818   3.050   3.853  10.969 -0.1235 -1.1783 -0.5232
 3786SOL     OW22819   1.439   0.868  13.767  0.3684  0.1908  0.3216
 3786SOL    HW122820   1.425   0.953  13.726 -3.6052 -0.3870  0.4315
 3786SOL    HW222821   1.383   0.815  13.710  0.5457  0.2661  0.0799
 3787SOL     OW22822   3.985   0.494   8.546  0.8326  0.3965 -0.2953
 3787SOL    HW122823   3.963   0.409   8.509 -1.4798  0.7338  0.3112
 3787SOL    HW222824   3.923   0.502   8.619  0.8544  0.5268 -0.2919
 3788SOL     OW22825   1.832   2.761  10.144  0.1077  0.1868  0.2148
 3788SOL    HW122826   1.914   2.776  10.191 -0.1348  1.8159  0.1347
 3788SOL    HW222827   1.836   2.669  10.120  1.7339  0.4460 -0.4868
 3789SOL     OW22828   3.397   4.622   3.166 -0.0361  0.0754 -0.3319
 3789SOL    HW122829   3.424   4.594   3.078 -0.6299 -1.1000 -0.1361
 3789SOL    HW222830   3.455   4.572   3.224 -1.9820 -0.8912  0.7788
 3790SOL     OW22831   2.855   4.578   3.048 -0.2139 -0.3615  0.3329
 3790SOL    HW122832   2.927   4.546   2.994 -0.0861  0.8375 -0.1971
 3790SOL    HW222833   2.787   4.513   3.029 -1.1637  0.9856 -0.8469
 3791SOL     OW22834   3.757   1.807   1.528  0.5538  0.1640 -0.1239
 3791SOL    HW122835   3.738   1.779   1.438 -1.9875  3.0301 -0.4873
 3791SOL    HW222836   3.848   1.836   1.525  0.6792 -0.0555  1.8114
 3792SOL     OW22837   3.760   1.514  12.839  0.0322 -0.0063  0.4789
 3792SOL    HW122838   3.683   1.564  12.810 -0.2237 -0.1770  0.8658
 3792SOL    HW222839   3.781   1.556  12.923 -2.4817  1.2182  0.5092
 3793SOL     OW22840   0.152   3.780   5.455  0.6005  0.1710 -0.2946
 3793SOL    HW122841   0.150   3.752   5.547 -0.4659  0.1832 -0.3138
 3793SOL    HW222842   0.167   3.692   5.419  1.9571  0.6793 -0.9508
 3794SOL     OW22843   3.825   0.232   8.661  0.3943  0.5565  0.0259
 3794SOL    HW122844   3.825   0.145   8.622  0.5879 -0.4211  2.1967
 3794SOL    HW222845   3.854   0.212   8.750 -3.2608 -0.9706  0.8550
 3795SOL     OW22846   0.458   0.757  14.883  0.0454 -0.2413 -0.1490
 3795SOL    HW122847   0.488   0.822  14.946 -0.8707 -3.0741  3.2230
 3795SOL    HW222848   0.442   0.812  14.806  2.7221 -0.1933 -0.6598
 3796SOL     OW22849   1.143   2.535   7.316 -0.1226 -0.1233 -0.2173
 3796SOL    HW122850   1.107   2.585   7.389 -2.4225  0.2129 -1.5566
 3796SOL    HW222851   1.061   2.502   7.280 -0.2265 -1.7652  1.5487
 3797SOL     OW22852   1.989   3.449   9.237 -0.1660  0.1341  0.1387
 3797SOL    HW122853   1.921   3.482   9.296  0.5405  3.0709 -0.6811
 3797SOL    HW222854   2.034   3.527   9.205  0.2249  0.8775  2.5575
 3798SOL     OW22855   0.313   4.008   0.902 -0.2293 -0.2686  0.1659
 3798SOL    HW122856   0.403   4.040   0.908 -0.3572  0.2990 -0.8950
 3798SOL    HW222857   0.267   4.070   0.845 -0.2505 -0.3996  0.0402
 3799SOL     OW22858   0.268   2.296   4.689  0.7913 -0.2015  0.1245
 3799SOL    HW122859   0.237   2.242   4.617 -0.5314  1.1245 -0.3060
 3799SOL    HW222860   0.230   2.255   4.766  0.2212 -1.8195 -1.0187
 3800SOL     OW22861   4.012   1.988  16.748  0.1236  0.2136  0.2846
 3800SOL    HW122862   4.018   1.977  16.843  1.5286 -2.3240 -0.1198
 3800SOL    HW222863   4.052   2.073  16.728  0.3243  0.4659  1.7987
 3801SOL     OW22864   2.962   3.530   4.055 -0.5759  0.2197 -0.2755
 3801SOL    HW122865   3.005   3.603   4.101 -2.2125 -0.4010  2.2339
 3801SOL    HW222866   2.969   3.465   4.125  0.3197  0.8429  0.2214
 3802SOL     OW22867   0.974   2.278   9.857  0.2203  0.0867  0.7034
 3802SOL    HW122868   0.942   2.366   9.879  0.4061  0.5324 -0.8005
 3802SOL    HW222869   0.898   2.246   9.808 -0.2852  3.1381 -0.5237
 3803SOL     OW22870   0.833   2.926   6.461 -0.2008 -0.1992  0.5029
 3803SOL    HW122871   0.772   2.969   6.520 -0.7447  1.7983 -1.5383
 3803SOL    HW222872   0.774   2.869   6.412  1.5986 -0.1782 -1.6759
 3804SOL     OW22873   1.752   0.473  11.225 -0.3133 -0.2702  0.1565
 3804SOL    HW122874   1.736   0.522  11.306  0.0526 -0.2402  0.2099
 3804SOL    HW222875   1.811   0.532  11.179 -1.4418  1.1962  0.6068
 3805SOL     OW22876   4.341   0.682   5.984 -0.2070 -0.0925  0.7219
 3805SOL    HW122877   4.372   0.688   5.894  0.6270 -0.9884  0.9489
 3805SOL    HW222878   4.273   0.749   5.982 -0.9602 -0.9060 -0.8850
 3806SOL     OW22879   4.221   1.291   0.250 -0.7479 -0.2561 -0.2445
 3806SOL    HW122880   4.200   1.335   0.333 -2.2678 -1.8604  0.2250
 3806SOL    HW222881   4.195   1.357   0.186 -0.5579  1.3343  1.3163
 3807SOL     OW22882   1.858   0.780  17.672  0.0534 -0.1418  0.0061
 3807SOL    HW122883   1.951   0.758  17.660  0.1558  0.7107 -0.7242
 3807SOL    HW222884   1.854   0.789   0.065 -1.2830  3.5986 -0.4177
 3808SOL     OW22885   1.639   2.240   2.653  0.0278 -0.8975  0.5519
 3808SOL    HW122886   1.612   2.257   2.562 -0.0278 -0.1318  0.7062
 3808SOL    HW222887   1.711   2.179   2.645 -2.0866 -3.5327  1.7354
 3809SOL     OW22888   0.203   3.977   7.392  0.1098  0.3409  0.0998
 3809SOL    HW122889   0.151   4.054   7.370 -1.3934 -0.9712 -0.9007
 3809SOL    HW222890   0.139   3.927   7.443 -0.5285  1.3917  0.3253
 3810SOL     OW22891   4.062   4.189   5.103  0.4038 -0.1632  0.3374
 3810SOL    HW122892   4.068   4.275   5.145 -4.5894  0.3146  0.0520
 3810SOL    HW222893   3.968   4.178   5.109 -0.0124  1.8343 -2.7862
 3811SOL     OW22894   4.417   2.882   5.014 -0.4898 -0.5550  0.0077
 3811SOL    HW122895   4.448   2.801   4.974 -0.7444 -0.0103 -1.2956
 3811SOL    HW222896   4.346   2.844   5.067 -0.7544 -0.1991 -0.0900
 3812SOL     OW22897   1.298   3.078   8.349  0.2984  0.2495  0.7141
 3812SOL    HW122898   1.392   3.083   8.367  0.3000  1.5959  0.3675
 3812SOL    HW222899   1.267   3.125   8.426 -3.2275  1.5692 -1.5153
 3813SOL     OW22900   3.782   2.145  15.367 -0.1744 -0.2278 -0.0341
 3813SOL    HW122901   3.734   2.224  15.343  1.2151  0.4870 -0.4911
 3813SOL    HW222902   3.717   2.075  15.369  0.8278 -1.1060  3.0146
 3814SOL     OW22903   0.144   3.262   7.024  0.1619  0.0664 -0.1140
 3814SOL    HW122904   0.137   3.296   7.114  1.1692 -1.1426  0.4204
 3814SOL    HW222905   0.168   3.337   6.971  2.4340 -1.0103 -0.6032
 3815SOL     OW22906   3.534   1.684   8.704  0.3894 -0.1060 -0.2790
 3815SOL    HW122907   3.576   1.610   8.661 -1.8532 -0.7756 -1.3270
 3815SOL    HW222908   3.527   1.731   8.621 -0.0349 -0.1690 -0.2808
 3816SOL     OW22909   0.705   1.076   2.013  0.5761  0.2837  0.0973
 3816SOL    HW122910   0.764   1.012   2.053  2.1995  1.1097 -0.9862
 3816SOL    HW222911   0.756   1.126   1.949  0.6522 -1.0415 -0.8876
 3817SOL     OW22912   1.236   1.435   3.110 -0.5233  0.4953  0.5749
 3817SOL    HW122913   1.150   1.478   3.112 -1.7375 -1.6715 -3.3742
 3817SOL    HW222914   1.270   1.440   3.199 -0.0868  0.0684  0.4295
 3818SOL     OW22915   2.331   3.596  11.775 -0.2486 -0.4196  0.0830
 3818SOL    HW122916   2.307   3.686  11.795 -0.9523 -0.1958 -1.8156
 3818SOL    HW222917   2.251   3.576  11.726 -0.9462 -1.8270  1.7676
 3819SOL     OW22918   1.609   0.713   4.611  0.0954  0.0364  0.3364
 3819SOL    HW122919   1.594   0.644   4.547  0.9327 -0.4663  0.6849
 3819SOL    HW222920   1.676   0.770   4.574  0.3562 -0.5665 -0.1206
 3820SOL     OW22921   2.292   4.432   9.615  0.3166  0.1457 -0.0627
 3820SOL    HW122922   2.223   4.367   9.627  0.4850  0.0315  0.2881
 3820SOL    HW222923   2.301   4.413   9.522 -0.9627 -1.0552  0.0538
 3821SOL     OW22924   2.217   4.688   8.371 -0.5527  0.7547 -0.3477
 3821SOL    HW122925   2.188   4.633   8.444 -2.1265 -1.6314 -2.7647
 3821SOL    HW222926   2.264   4.619   8.324  1.8180  2.2156 -0.0869
 3822SOL     OW22927   1.229   3.966   5.579  0.4891  0.3821  0.3501
 3822SOL    HW122928   1.158   3.922   5.532  0.4666  0.1749  0.5782
 3822SOL    HW222929   1.213   4.051   5.538  1.6226  0.0509 -0.7937
 3823SOL     OW22930   1.500   2.561   8.443 -0.4556  0.1082 -0.4861
 3823SOL    HW122931   1.571   2.582   8.382  0.6261 -0.3417  0.6264
 3823SOL    HW222932   1.456   2.646   8.445 -0.9451 -0.1395 -0.8423
 3824SOL     OW22933   0.085   2.221  14.509  0.3955  0.0891  0.4359
 3824SOL    HW122934   4.723   2.253  14.483 -0.0925 -1.6247 -0.0285
 3824SOL    HW222935   0.127   2.300  14.477  0.5012  0.4992  1.5653
 3825SOL     OW22936   1.568   1.700   6.621 -0.0417  0.0089 -0.0660
 3825SOL    HW122937   1.497   1.676   6.562 -2.3193  0.2247  2.6163
 3825SOL    HW222938   1.518   1.744   6.689 -1.0696 -1.1479 -0.0771
 3826SOL     OW22939   2.648   1.582   4.985  0.1021 -0.5173 -0.4948
 3826SOL    HW122940   2.726   1.611   4.936 -0.6870  0.1495 -1.3495
 3826SOL    HW222941   2.626   1.512   4.925  2.1177 -2.3082  0.8159
 3827SOL     OW22942   2.113   0.470   5.437  0.4161  0.4516 -0.0822
 3827SOL    HW122943   2.111   0.396   5.377 -2.3818  0.7603 -0.3841
 3827SOL    HW222944   2.201   0.495   5.410 -0.2942  0.8593 -1.9893
 3828SOL     OW22945   0.283   2.610   6.624 -0.3614  0.1290  0.1503
 3828SOL    HW122946   0.291   2.621   6.530  0.1806  1.4389  0.3530
 3828SOL    HW222947   0.265   2.516   6.630 -0.0092 -0.0128 -1.3007
 3829SOL     OW22948   2.213   4.508  17.512 -0.0286 -0.6317  0.3035
 3829SOL    HW122949   2.132   4.557  17.499 -0.8714 -1.7842  1.2122
 3829SOL    HW222950   2.211   4.463  17.427 -0.6918  0.0118 -0.0256
 3830SOL     OW22951   0.438   1.801   8.964  0.1059  0.3838 -0.2841
 3830SOL    HW122952   0.439   1.761   9.051 -0.0677  2.4837  0.6669
 3830SOL    HW222953   0.453   1.728   8.904 -0.3141  0.0674 -0.0034
 3831SOL     OW22954   2.683   3.434   3.369 -0.1642  0.1754  0.4001
 3831SOL    HW122955   2.748   3.370   3.341 -2.3541 -1.0043 -1.9839
 3831SOL    HW222956   2.709   3.511   3.318  1.0216 -1.0033 -0.7505
 3832SOL     OW22957   4.201   4.573   3.089  0.3661 -0.0548 -0.3216
 3832SOL    HW122958   4.119   4.610   3.122  0.4752 -0.1261  0.0379
 3832SOL    HW222959   4.269   4.627   3.128  0.1475  0.5954 -0.8593
 3833SOL     OW22960   2.853   1.313  15.818  0.9725 -0.0382  0.4525
 3833SOL    HW122961   2.806   1.355  15.746  1.0720  1.0724  1.0380
 3833SOL    HW222962   2.853   1.380  15.887 -2.2958 -0.1567  0.5348
 3834SOL     OW22963   4.272   2.486   2.472  0.4951  0.4550  0.3161
 3834SOL    HW122964   4.318   2.401   2.471  2.8889  1.7451  0.1735
 3834SOL    HW222965   4.346   2.529   2.515  1.3187 -0.5611 -0.0772
 3835SOL     OW22966   4.160   2.205   8.912  0.3323 -0.6001 -0.7877
 3835SOL    HW122967   4.210   2.142   8.860  1.5200  0.7192 -1.2424
 3835SOL    HW222968   4.130   2.262   8.841  0.0946  1.6053  1.0852
 3836SOL     OW22969   3.053   4.537   2.867 -0.2810 -0.4590  0.2540
 3836SOL    HW122970   3.037   4.509   2.776  0.1981 -1.4895  0.4818
 3836SOL    HW222971   3.114   4.610   2.856  1.9728 -2.2571  0.8567
 3837SOL     OW22972   2.389   0.463  12.966  1.1626 -0.3321  0.3338
 3837SOL    HW122973   2.352   0.548  12.988  0.3999 -0.9169  1.3612
 3837SOL    HW222974   2.473   0.465  13.012  1.7006  2.2685 -0.7675
 3838SOL     OW22975   4.017   2.046  17.033 -0.0814 -0.0707 -0.2737
 3838SOL    HW122976   4.023   2.073  17.125  3.1344 -0.5330 -0.3354
 3838SOL    HW222977   4.028   2.137  17.002 -3.5199  0.8916  1.3923
 3839SOL     OW22978   2.831   0.195   8.606  0.1512  0.4738 -0.0666
 3839SOL    HW122979   2.813   0.252   8.531  0.1224 -2.3303 -2.1504
 3839SOL    HW222980   2.926   0.204   8.611  0.1426 -0.6503  2.1509
 3840SOL     OW22981   0.742   0.764   8.244  0.4165 -0.4463 -0.0078
 3840SOL    HW122982   0.781   0.676   8.240  0.0586 -0.6305  0.5978
 3840SOL    HW222983   0.664   0.764   8.299 -0.1282 -0.0730 -0.7761
 3841SOL     OW22984   0.479   1.353   8.943 -0.5346 -0.7998 -0.1124
 3841SOL    HW122985   0.498   1.322   8.855  1.0985  4.4084 -1.6437
 3841SOL    HW222986   0.520   1.292   9.004  1.7824  0.4009 -0.4536
 3842SOL     OW22987   3.616   2.376   3.731 -0.6453 -0.3763 -0.0717
 3842SOL    HW122988   3.639   2.422   3.651  1.9885  1.2955  1.6550
 3842SOL    HW222989   3.634   2.293   3.687  1.4418  0.8734 -1.5343
 3843SOL     OW22990   3.982   0.312   7.570  0.4338  0.1401 -0.3308
 3843SOL    HW122991   4.065   0.359   7.582  0.1284  0.9641 -1.4774
 3843SOL    HW222992   3.940   0.341   7.651 -0.0680 -1.5775  0.0061
 3844SOL     OW22993   2.988   4.721   6.168  0.0587  0.5964  0.2910
 3844SOL    HW122994   2.997   4.717   6.264 -0.4794  2.0413  0.3995
 3844SOL    HW222995   3.056   4.661   6.138  0.6791  1.9358 -0.9617
 3845SOL     OW22996   3.144   1.767   4.853  1.0083  0.3630 -0.4731
 3845SOL    HW122997   3.177   1.720   4.930 -1.1939 -1.0143 -0.3845
 3845SOL    HW222998   3.203   1.736   4.784  0.5489 -0.1585 -0.6253
 3846SOL     OW22999   4.163   2.866  15.017 -0.1282 -0.3895 -0.1834
 3846SOL    HW123000   4.087   2.905  14.976 -0.8795 -1.4063  0.2377
 3846SOL    HW223001   4.234   2.925  14.993 -0.5709  1.3399  2.7273
 3847SOL     OW23002   4.006   4.313   0.804 -0.4478  0.0355  0.0522
 3847SOL    HW123003   4.081   4.372   0.800  0.3837 -0.9586  0.9478
 3847SOL    HW223004   3.948   4.367   0.857  0.9988  0.1066  1.5480
 3848SOL     OW23005   4.570   4.642   5.289  0.2703  0.0595  0.0324
 3848SOL    HW123006   4.520   4.720   5.265  1.8089  1.4405  1.3357
 3848SOL    HW223007   4.573   4.658   5.384 -1.8706  1.6102 -0.1629
 3849SOL     OW23008   4.333   0.315   8.289 -0.4367  0.1904  0.0003
 3849SOL    HW123009   4.258   0.329   8.231  0.8768  1.8579 -1.3064
 3849SOL    HW223010   4.307   0.375   8.359 -1.7764 -0.3746 -0.0246
 3850SOL     OW23011   1.902   3.515  17.196 -0.5464 -0.1025 -0.2480
 3850SOL    HW123012   1.849   3.438  17.173  0.5602 -0.6262 -1.0867
 3850SOL    HW223013   1.854   3.561  17.265 -1.9297 -0.0656 -1.2236
 3851SOL     OW23014   4.500   2.575   7.895 -0.0412  0.1072 -0.4269
 3851SOL    HW123015   4.519   2.619   7.977 -0.0707  1.9028 -1.3948
 3851SOL    HW223016   4.426   2.526   7.932 -1.6042  2.5655 -0.3278
 3852SOL     OW23017   2.130   3.053   8.089  0.1417 -0.3687 -0.2780
 3852SOL    HW123018   2.073   3.093   8.155  1.7380  0.6198  0.5016
 3852SOL    HW223019   2.210   3.039   8.140 -0.5187 -0.4383  0.7439
 3853SOL     OW23020   4.171   4.049   1.599 -0.6352 -0.5480  0.3046
 3853SOL    HW123021   4.076   4.056   1.597 -0.6008  0.2553  1.6238
 3853SOL    HW223022   4.186   3.986   1.669  1.5392 -2.3309 -1.7694
 3854SOL     OW23023   1.991   4.461   8.193  0.1714 -0.1172  0.0791
 3854SOL    HW123024   2.049   4.445   8.267  1.8272 -4.6921 -2.1963
 3854SOL    HW223025   1.913   4.413   8.221  1.2770 -0.8836  1.9110
 3855SOL     OW23026   1.384   4.515   6.570  0.0793 -0.8375  0.0341
 3855SOL    HW123027   1.427   4.594   6.604  2.1284 -1.0918 -1.9687
 3855SOL    HW223028   1.339   4.485   6.649 -0.3007  0.0570  0.1598
 3856SOL     OW23029   3.962   0.476  16.897 -0.1745  0.2079 -0.7004
 3856SOL    HW123030   3.912   0.406  16.855  1.1383  0.4261 -2.6043
 3856SOL    HW223031   3.987   0.446  16.984 -1.1586  2.2643  0.2834
 3857SOL     OW23032   1.930   1.174  16.095  0.0683 -0.3939 -0.8763
 3857SOL    HW123033   1.993   1.149  16.028 -0.2837 -4.3422  0.2309
 3857SOL    HW223034   1.946   1.268  16.100 -2.0700  0.0229 -1.9310
 3858SOL     OW23035   0.473   3.680   2.304  0.1806 -0.3190 -0.4253
 3858SOL    HW123036   0.427   3.611   2.352  1.7177 -1.1362 -0.1459
 3858SOL    HW223037   0.558   3.693   2.345 -0.4093  1.6932  0.1787
 3859SOL     OW23038   4.691   1.067   5.370  0.3831  0.1516  0.5839
 3859SOL    HW123039   4.642   1.070   5.288 -0.3261  0.0038  1.0022
 3859SOL    HW223040   4.674   0.978   5.401  2.3554 -0.9205 -1.4458
 3860SOL     OW23041   3.360   3.543  13.953  0.0005  0.2381 -0.7755
 3860SOL    HW123042   3.407   3.602  14.012 -0.4969 -0.7729  0.6188
 3860SOL    HW223043   3.362   3.457  13.996  1.1025  0.8711  0.4457
 3861SOL     OW23044   2.382   3.964   4.477 -0.2238 -0.1415  0.9050
 3861SOL    HW123045   2.292   3.983   4.452 -0.6452 -2.6458  0.4477
 3861SOL    HW223046   2.428   4.041   4.510  0.1042  1.1778 -2.5336
 3862SOL     OW23047   0.178   4.346   8.132  0.1753 -0.4832  0.2368
 3862SOL    HW123048   0.089   4.380   8.119 -0.0092 -1.1864 -0.3427
 3862SOL    HW223049   0.193   4.374   8.223 -0.7713  1.4667 -0.2008
 3863SOL     OW23050   0.890   2.631   9.021  0.1140  0.1849 -0.4222
 3863SOL    HW123051   0.934   2.546   9.024  2.8538  1.6675  1.5759
 3863SOL    HW223052   0.895   2.656   9.113  0.0679  0.6790 -0.5559
 3864SOL     OW23053   2.384   2.473   1.004  0.3215  0.0343 -0.1590
 3864SOL    HW123054   2.303   2.457   1.051 -1.0265 -2.0034 -3.1821
 3864SOL    HW223055   2.394   2.390   0.957  2.9545  0.3789 -0.2442
 3865SOL     OW23056   0.557   1.408   7.043  0.0904 -0.4556 -0.4515
 3865SOL    HW123057   0.534   1.340   6.980 -1.0914 -0.8058  0.3601
 3865SOL    HW223058   0.621   1.360   7.096 -0.5842 -2.6515 -1.6424
 3866SOL     OW23059   2.782   1.704   0.935 -0.4884  0.2127  0.6146
 3866SOL    HW123060   2.776   1.662   0.849  0.3248  2.5019 -0.5519
 3866SOL    HW223061   2.692   1.696   0.968 -0.2273  0.1886  1.3159
 3867SOL     OW23062   4.016   1.897   1.549 -0.2182  0.3965 -0.2281
 3867SOL    HW123063   4.005   1.974   1.494  1.2125  1.7070  1.3138
 3867SOL    HW223064   4.069   1.919   1.626 -1.3102  2.0177  0.0556
 3868SOL     OW23065   3.551   3.005  16.282 -0.2585  0.0008  0.8928
 3868SOL    HW123066   3.629   3.058  16.266 -0.2790 -0.4163 -0.5230
 3868SOL    HW223067   3.589   2.918  16.292  3.2169  1.5669  1.3882
 3869SOL     OW23068   2.126   1.187   6.482  0.1341 -0.1112  0.4841
 3869SOL    HW123069   2.133   1.277   6.450 -1.2668  0.0733  0.6837
 3869SOL    HW223070   2.115   1.137   6.401 -1.5828 -3.0760  2.5382
 3870SOL     OW23071   3.204   2.440  12.875  0.2129  0.8744  0.2049
 3870SOL    HW123072   3.212   2.460  12.782 -0.0843  1.7727  0.3734
 3870SOL    HW223073   3.250   2.356  12.883 -2.0581 -0.7208 -3.3284
 3871SOL     OW23074   2.388   2.717   5.483  0.2665  0.4831 -0.0900
 3871SOL    HW123075   2.305   2.671   5.475  0.1062  0.5275  1.3837
 3871SOL    HW223076   2.440   2.693   5.405  0.2828  0.9060 -0.2122
 3872SOL     OW23077   4.092   4.067  12.119 -0.4907  0.1571  0.2526
 3872SOL    HW123078   4.093   4.028  12.206 -1.3717  0.2897  0.3282
 3872SOL    HW223079   4.185   4.064  12.094 -0.5497  1.6542 -0.1761
 3873SOL     OW23080   3.329   3.781   6.031  0.5988 -0.0549  0.6884
 3873SOL    HW123081   3.235   3.792   6.043  0.0840  0.1060 -3.5992
 3873SOL    HW223082   3.346   3.796   5.938 -2.1634 -0.8099  0.0507
 3874SOL     OW23083   3.902   0.809   2.884 -0.7413  0.0286  0.0936
 3874SOL    HW123084   3.954   0.801   2.964 -0.9965 -0.8576  0.1705
 3874SOL    HW223085   3.959   0.770   2.818  0.6060 -1.2680  2.0349
 3875SOL     OW23086   3.779   2.957   8.906  0.0478  0.1360 -0.2308
 3875SOL    HW123087   3.836   2.921   8.973 -1.0339 -3.3357 -1.1632
 3875SOL    HW223088   3.828   2.930   8.828  2.5329  3.5848  0.1362
 3876SOL     OW23089   0.429   3.823   8.089  0.0077  0.2716  0.0658
 3876SOL    HW123090   0.512   3.853   8.127  0.4159 -0.4554 -0.2467
 3876SOL    HW223091   0.388   3.903   8.057  0.0395  0.0638 -0.4942
 3877SOL     OW23092   2.055   0.423   4.728 -0.3544  0.3436  0.4522
 3877SOL    HW123093   2.105   0.349   4.693 -1.7752 -0.8014  0.8198
 3877SOL    HW223094   2.069   0.485   4.656 -2.6916 -2.5155 -2.4716
 3878SOL     OW23095   2.833   3.243  13.510 -0.3003 -0.1392  0.4566
 3878SOL    HW123096   2.818   3.311  13.576 -1.3875 -1.7905  1.8877
 3878SOL    HW223097   2.845   3.289  13.427 -0.6816 -0.2683  0.3278
 3879SOL     OW23098   0.523   0.864   8.059 -0.3853  0.2507  0.0131
 3879SOL    HW123099   0.593   0.928   8.052 -0.8871  0.7005 -0.8011
 3879SOL    HW223100   0.529   0.847   8.153 -1.8623  0.4931  0.1546
 3880SOL     OW23101   0.444   3.528   1.209 -0.1540  0.4138 -0.3054
 3880SOL    HW123102   0.350   3.530   1.228 -0.2523  3.7916 -1.1067
 3880SOL    HW223103   0.463   3.622   1.210  0.5205  0.2669  0.3708
 3881SOL     OW23104   2.774   2.369   1.290  0.4651  0.1934  0.3402
 3881SOL    HW123105   2.778   2.459   1.319 -2.2656  0.8634 -1.3806
 3881SOL    HW223106   2.724   2.390   1.211  1.1337 -2.2459 -0.7509
 3882SOL     OW23107   2.950   2.592   3.551  0.4532  0.0699  0.0043
 3882SOL    HW123108   3.030   2.629   3.589  0.9211  0.6251 -1.5448
 3882SOL    HW223109   2.966   2.502   3.579  0.3685  0.0291 -0.0777
 3883SOL     OW23110   3.557   3.177  11.141  0.1524 -0.1400 -0.4832
 3883SOL    HW123111   3.591   3.197  11.228  2.7800 -1.7155 -1.1414
 3883SOL    HW223112   3.472   3.141  11.164  1.1398 -1.4273  1.1431
 3884SOL     OW23113   4.268   1.710   4.281 -0.1858  0.4467  0.4559
 3884SOL    HW123114   4.325   1.676   4.212 -0.6248 -1.0624  0.8494
 3884SOL    HW223115   4.195   1.744   4.229 -1.9848 -2.4583  1.0655
 3885SOL     OW23116   4.255   0.950   8.815  0.1262 -0.8912  0.6236
 3885SOL    HW123117   4.274   1.041   8.792 -2.0326 -0.6927 -0.3526
 3885SOL    HW223118   4.273   0.957   8.909 -0.2006 -3.8238  0.8928
 3886SOL     OW23119   2.549   2.337  16.003  0.5870  0.5545 -0.4745
 3886SOL    HW123120   2.594   2.320  15.920 -0.0563  0.9940 -0.9145
 3886SOL    HW223121   2.518   2.248  16.017  0.0433  0.8321  0.0688
 3887SOL     OW23122   0.476   3.538   2.974  0.0340 -0.3022  0.3341
 3887SOL    HW123123   0.421   3.460   2.988 -0.9784  0.3097 -0.2151
 3887SOL    HW223124   0.453   3.592   3.049  0.2059  0.6398 -0.2928
 3888SOL     OW23125   1.635   4.103   7.216 -0.6606  0.1283 -0.1204
 3888SOL    HW123126   1.619   4.149   7.133  2.9046  0.9542 -0.3711
 3888SOL    HW223127   1.688   4.172   7.256 -1.0020 -0.1640  0.8374
 3889SOL     OW23128   2.458   2.181   8.182  0.4036 -0.6756  0.1441
 3889SOL    HW123129   2.451   2.264   8.135 -2.5913  0.0029  1.8183
 3889SOL    HW223130   2.483   2.206   8.271  0.4396  0.2154 -0.1155
 3890SOL     OW23131   0.670   3.720   6.730 -0.3337 -0.5099  1.0387
 3890SOL    HW123132   0.744   3.731   6.789  1.1429 -1.4014 -0.6213
 3890SOL    HW223133   0.618   3.795   6.761  0.8817  0.8519 -0.2454
 3891SOL     OW23134   1.985   0.255  10.687  0.0876 -0.4038  0.2398
 3891SOL    HW123135   2.031   0.278  10.768  1.5829  0.2873 -0.7976
 3891SOL    HW223136   1.944   0.340  10.672  2.5057  0.5036 -1.1775
 3892SOL     OW23137   2.570   3.471   8.067  0.6216  0.8380 -0.0044
 3892SOL    HW123138   2.525   3.451   8.149  0.5676 -0.5547 -0.3636
 3892SOL    HW223139   2.600   3.560   8.084  1.1543  0.6128  0.2332
 3893SOL     OW23140   4.162   2.152   1.482 -0.0401  0.2719  0.2629
 3893SOL    HW123141   4.241   2.148   1.536 -0.3669 -2.6752  0.5354
 3893SOL    HW223142   4.109   2.211   1.535 -1.5539  0.2781 -1.2604
 3894SOL     OW23143   4.491   0.823   2.072  0.1831  0.8233 -0.2703
 3894SOL    HW123144   4.563   0.866   2.117 -0.7198  1.0715  0.9253
 3894SOL    HW223145   4.495   0.889   2.002  1.4200  1.0645  0.0346
 3895SOL     OW23146   2.077   0.404   1.827 -0.5859  0.2431  0.1599
 3895SOL    HW123147   2.135   0.480   1.832 -0.8640  0.5649 -1.8082
 3895SOL    HW223148   2.129   0.334   1.868  3.6850  2.1759 -2.0450
 3896SOL     OW23149   0.684   4.472  11.690 -0.0934  0.0898  0.0826
 3896SOL    HW123150   0.695   4.380  11.665  1.7505 -0.0289  1.3602
 3896SOL    HW223151   0.694   4.514  11.604  1.6974 -0.7388 -0.1249
 3897SOL     OW23152   0.171   3.915   6.349 -0.5869 -0.1982  0.0322
 3897SOL    HW123153   0.115   3.993   6.342  0.2544  0.3487 -0.5843
 3897SOL    HW223154   0.261   3.946   6.348 -0.4676 -0.4888  1.8906
 3898SOL     OW23155   2.146   1.632   8.635 -0.0215  0.0592 -0.6017
 3898SOL    HW123156   2.190   1.684   8.702 -1.0918 -0.4754  0.5245
 3898SOL    HW223157   2.056   1.665   8.634 -0.6378 -1.6360 -1.7311
 3899SOL     OW23158   1.508   4.412   8.209 -0.2672 -0.3102 -0.5595
 3899SOL    HW123159   1.440   4.345   8.219  1.1829 -1.6453  0.4181
 3899SOL    HW223160   1.490   4.472   8.280 -0.0270 -0.6044 -0.2466
 3900SOL     OW23161   3.350   4.622  16.934  0.1329  0.1650  0.3570
 3900SOL    HW123162   3.418   4.568  16.892  0.8525 -0.5203  2.4196
 3900SOL    HW223163   3.283   4.557  16.958 -0.5752  0.3784 -1.0116
 3901SOL     OW23164   4.353   4.456  13.390 -0.1129  0.1868 -0.1143
 3901SOL    HW123165   4.384   4.365  13.392 -0.7465 -0.0292 -0.3902
 3901SOL    HW223166   4.360   4.472  13.484 -0.4768 -1.0315  0.1203
 3902SOL     OW23167   1.734   0.733   4.090  0.4453 -0.3536 -0.1606
 3902SOL    HW123168   1.681   0.654   4.081  0.6687 -0.4856 -0.3165
 3902SOL    HW223169   1.668   0.803   4.093  1.4372  0.7163 -3.3291
 3903SOL     OW23170   1.425   1.438   3.722 -0.3337 -0.3253 -0.1921
 3903SOL    HW123171   1.439   1.513   3.665  0.9972  1.5653  2.6260
 3903SOL    HW223172   1.492   1.453   3.788 -0.3993 -1.4731  0.1462
 3904SOL     OW23173   4.558   0.617   1.698 -0.3694  0.7735  0.3810
 3904SOL    HW123174   4.642   0.617   1.742  0.1019 -0.5934 -0.5245
 3904SOL    HW223175   4.579   0.554   1.629 -1.3195  0.4082  0.4183
 3905SOL     OW23176   4.322   3.096  10.334 -0.2191 -0.3509 -0.0596
 3905SOL    HW123177   4.366   3.020  10.296  0.4081  0.1880 -0.4111
 3905SOL    HW223178   4.319   3.063  10.424  0.0735 -0.3793 -0.0605
 3906SOL     OW23179   0.466   2.186   9.475 -0.2362 -0.1918  0.6326
 3906SOL    HW123180   0.424   2.148   9.552  0.1636  2.7077  2.3039
 3906SOL    HW223181   0.382   2.199   9.431  0.1354  2.7540  0.7743
 3907SOL     OW23182   0.741   3.708   4.933  0.4755  0.0943  0.2818
 3907SOL    HW123183   0.762   3.756   4.853 -0.7037  3.4211  1.9430
 3907SOL    HW223184   0.817   3.722   4.989  2.0260 -0.9475 -1.5411
 3908SOL     OW23185   3.936   3.870  11.942 -0.3275  0.3614  0.5483
 3908SOL    HW123186   3.896   3.903  12.023  2.0715 -0.2902  2.0210
 3908SOL    HW223187   4.030   3.880  11.960 -0.2748 -0.8236  0.9325
 3909SOL     OW23188   4.601   3.549   3.406 -0.4126 -0.1421 -0.3208
 3909SOL    HW123189   4.624   3.472   3.456  2.0361  0.8989  0.1276
 3909SOL    HW223190   4.649   3.613   3.459  0.9613 -1.0496 -0.4763
 3910SOL     OW23191   1.520   0.544  11.391 -0.1089 -0.1055  0.2694
 3910SOL    HW123192   1.590   0.526  11.453 -0.7707 -0.1935  0.9919
 3910SOL    HW223193   1.466   0.465  11.399 -0.5812  0.0297 -1.5043
 3911SOL     OW23194   0.362   0.908   2.797 -0.1628 -0.2427  0.3114
 3911SOL    HW123195   0.289   0.930   2.740 -0.0197 -1.1083 -0.2143
 3911SOL    HW223196   0.411   0.849   2.739  1.9244  0.1233  1.7058
 3912SOL     OW23197   0.451   1.953  14.673 -0.0540  0.5346  0.5360
 3912SOL    HW123198   0.514   2.014  14.712  0.0175  1.3792 -0.9174
 3912SOL    HW223199   0.519   1.885  14.672  0.6544  1.2748 -1.4292
 3913SOL     OW23200   3.927   0.268   3.353 -0.1239 -0.1110 -0.4610
 3913SOL    HW123201   3.884   0.249   3.437 -1.3293  0.7838 -0.8876
 3913SOL    HW223202   4.013   0.300   3.382 -0.9305 -0.3685  2.2315
 3914SOL     OW23203   3.270   1.939  17.683 -0.0080  0.0952 -0.0970
 3914SOL    HW123204   3.255   1.884   0.059  1.4703 -0.4870 -0.2367
 3914SOL    HW223205   3.347   1.988   0.011  0.3490 -0.1016 -0.7036
 3915SOL     OW23206   4.043   3.266   5.466 -0.2371  0.0044 -0.3833
 3915SOL    HW123207   4.134   3.240   5.457 -0.0035  0.3548  1.0537
 3915SOL    HW223208   4.022   3.212   5.542 -2.4756  1.0776 -0.2397
 3916SOL     OW23209   0.093   0.788  16.997 -0.1858  0.2096  0.0122
 3916SOL    HW123210   0.091   0.725  16.925  3.0068 -0.3933  0.4171
 3916SOL    HW223211   0.120   0.726  17.065 -1.4671 -0.0875  0.2427
 3917SOL     OW23212   1.205   3.379  16.363 -0.5776 -0.2474 -0.7348
 3917SOL    HW123213   1.252   3.296  16.372  1.6567  0.6946 -3.8179
 3917SOL    HW223214   1.170   3.370  16.274 -0.8616 -1.1669 -0.5257
 3918SOL     OW23215   3.972   2.283  16.017 -0.2719  1.2006  0.1023
 3918SOL    HW123216   3.881   2.262  16.038 -0.2551 -0.8892 -1.8395
 3918SOL    HW223217   3.972   2.376  15.993  1.9500  1.3425  0.6346
 3919SOL     OW23218   2.274   4.598   8.685  0.0332  0.0550 -0.3238
 3919SOL    HW123219   2.212   4.656   8.730 -0.7790 -0.3582 -0.9155
 3919SOL    HW223220   2.359   4.641   8.690  0.4011 -0.7834  0.4663
 3920SOL     OW23221   0.105   4.658  12.828  0.6876 -0.1463 -0.6090
 3920SOL    HW123222   0.165   4.608  12.882  0.7866  1.2619  0.5753
 3920SOL    HW223223   0.081   4.585  12.771  1.5688 -2.2228  1.6936
 3921SOL     OW23224   4.181   3.004   3.575  0.0898 -0.2310 -0.4698
 3921SOL    HW123225   4.093   3.035   3.551 -0.2868  1.3849  3.0036
 3921SOL    HW223226   4.164   2.917   3.609 -0.2326 -1.0357 -2.6668
 3922SOL     OW23227   1.119   4.569  15.235  0.5076 -0.7239  0.0878
 3922SOL    HW123228   1.109   4.514  15.313 -0.6452 -0.6499 -0.0196
 3922SOL    HW223229   1.213   4.584  15.248  0.3718  1.4382 -1.3821
 3923SOL     OW23230   4.382   2.633   9.836 -0.0945  0.2338  0.0040
 3923SOL    HW123231   4.379   2.573   9.910  2.0557  1.3357  0.9930
 3923SOL    HW223232   4.313   2.600   9.780 -1.4476 -0.4099  2.0614
 3924SOL     OW23233   1.444   4.075   0.600 -0.2535  0.7018  0.2738
 3924SOL    HW123234   1.397   4.042   0.523  1.8908  0.0809 -0.7836
 3924SOL    HW223235   1.372   4.130   0.631 -0.9536 -0.7148  1.1721
 3925SOL     OW23236   2.290   2.086   2.187 -0.1125 -0.1996  0.3068
 3925SOL    HW123237   2.354   2.045   2.129  0.6522 -2.7849  2.9802
 3925SOL    HW223238   2.226   2.016   2.202 -2.2824  2.0043  1.3363
 3926SOL     OW23239   4.152   3.553   4.030  0.6164  0.3825  0.2442
 3926SOL    HW123240   4.093   3.506   4.088  2.6602 -1.7147  0.6439
 3926SOL    HW223241   4.229   3.495   4.026 -0.0696 -0.5787  0.9333
 3927SOL     OW23242   2.139   2.882  14.928  0.8087 -0.2414 -0.7597
 3927SOL    HW123243   2.084   2.959  14.946  1.0449 -0.1501 -0.4195
 3927SOL    HW223244   2.197   2.892  15.004 -2.6538  3.2918  1.4805
 3928SOL     OW23245   3.403   3.821   5.775  0.4350  0.1970  0.5167
 3928SOL    HW123246   3.336   3.777   5.723  0.0456 -0.6148  1.7057
 3928SOL    HW223247   3.474   3.827   5.710 -1.4030  1.6548 -1.3739
 3929SOL     OW23248   4.454   2.891  11.036 -0.2328 -0.2660  0.4332
 3929SOL    HW123249   4.528   2.848  11.078  0.5889 -0.4453 -1.2187
 3929SOL    HW223250   4.447   2.976  11.078 -2.5068 -1.1783  1.9142
 3930SOL     OW23251   0.258   3.045  10.357  0.4386  0.5879 -0.7604
 3930SOL    HW123252   0.298   3.100  10.424 -0.1498  0.6682 -0.4727
 3930SOL    HW223253   0.339   3.025  10.310  0.4922  0.5992 -0.6724
 3931SOL     OW23254   1.352   1.392  11.092  0.5704 -0.1433  0.6563
 3931SOL    HW123255   1.379   1.344  11.014 -1.9228  0.8499 -0.8003
 3931SOL    HW223256   1.258   1.410  11.086  0.4848 -0.0606  2.2490
 3932SOL     OW23257   1.950   2.420   7.363  0.4320  0.1264  0.0285
 3932SOL    HW123258   1.995   2.491   7.319 -0.8506  0.0802 -1.3546
 3932SOL    HW223259   1.892   2.472   7.419  0.0422 -1.4630  1.1404
 3933SOL     OW23260   3.757   3.819   7.201 -0.2192  0.4925 -0.0801
 3933SOL    HW123261   3.793   3.819   7.113  0.3948  3.7805  0.1523
 3933SOL    HW223262   3.831   3.782   7.248 -0.0401  1.0101  0.0414
 3934SOL     OW23263   4.018   0.387   6.445 -0.2889  0.2753 -0.2138
 3934SOL    HW123264   3.998   0.325   6.515  2.6192  0.6980  0.9851
 3934SOL    HW223265   4.108   0.381   6.413  0.2990  1.8793  1.1520
 3935SOL     OW23266   4.159   2.913   2.588  0.4803  0.2118 -0.5790
 3935SOL    HW123267   4.235   2.907   2.646 -1.7371  3.3642  2.7159
 3935SOL    HW223268   4.159   3.009   2.586  0.7187  0.2229 -0.0040
 3936SOL     OW23269   1.541   1.273  15.925  0.0911 -0.1601 -0.5318
 3936SOL    HW123270   1.565   1.335  15.993 -1.7395 -0.3387  0.2650
 3936SOL    HW223271   1.455   1.248  15.959  0.1812 -0.8468 -0.7964
 3937SOL     OW23272   2.114   1.399   8.473  0.2705 -0.5264 -0.1166
 3937SOL    HW123273   2.147   1.475   8.520  0.4746  0.3251 -1.6321
 3937SOL    HW223274   2.070   1.439   8.398  1.1056  0.0098 -0.3159
 3938SOL     OW23275   0.313   1.620   6.838 -0.5156 -0.2328 -0.2311
 3938SOL    HW123276   0.272   1.538   6.864 -0.3563 -0.0199  0.6806
 3938SOL    HW223277   0.338   1.650   6.925 -2.5564 -1.0619  0.6356
 3939SOL     OW23278   2.626   1.330   0.540 -0.2647  0.7004  0.6736
 3939SOL    HW123279   2.609   1.261   0.604 -0.9560  0.8125  0.6157
 3939SOL    HW223280   2.538   1.346   0.504 -0.1798  1.6222  0.8640
 3940SOL     OW23281   4.524   3.851   7.314  0.6182  0.4725 -0.0281
 3940SOL    HW123282   4.527   3.930   7.261  4.4923  1.9187  2.3270
 3940SOL    HW223283   4.460   3.788   7.280  1.5201  0.0002 -0.8656
 3941SOL     OW23284   2.561   3.970  16.752  0.1655 -0.4799 -0.2491
 3941SOL    HW123285   2.650   3.997  16.774  0.3088  0.4471 -2.0244
 3941SOL    HW223286   2.510   4.027  16.809  0.4544 -1.8310  1.3593
 3942SOL     OW23287   0.213   2.004   6.938 -0.2687 -0.2923 -0.3705
 3942SOL    HW123288   0.206   1.973   6.848  0.0662 -0.2278 -0.4220
 3942SOL    HW223289   0.304   1.974   6.944  0.1034  0.5762 -1.5709
 3943SOL     OW23290   4.637   3.920   8.433  0.1922  0.0236 -0.0214
 3943SOL    HW123291   4.619   4.011   8.408 -1.6915  0.0658  1.4623
 3943SOL    HW223292   4.558   3.899   8.482  0.4610 -1.0388 -0.0335
 3944SOL     OW23293   0.571   0.134  11.734  0.1959 -0.6663  0.0344
 3944SOL    HW123294   0.540   0.221  11.760  1.7218  0.6596 -2.5784
 3944SOL    HW223295   0.661   0.157  11.714 -0.3298 -0.5996 -2.3088
 3945SOL     OW23296   3.434   3.249   5.201  0.5255 -0.3230  0.0338
 3945SOL    HW123297   3.427   3.334   5.157  0.3433 -1.0645 -1.3411
 3945SOL    HW223298   3.360   3.259   5.262  0.4775 -0.2412 -0.0384
 3946SOL     OW23299   0.760   2.790   2.928 -0.2389 -0.3500 -0.1412
 3946SOL    HW123300   0.842   2.801   2.881 -1.3131  1.6205 -1.5452
 3946SOL    HW223301   0.722   2.878   2.934 -0.6099 -0.5234  0.0530
 3947SOL     OW23302   4.373   3.693   0.082  0.6129 -0.2003 -0.4699
 3947SOL    HW123303   4.315   3.659   0.014 -1.4568 -1.2311  1.8364
 3947SOL    HW223304   4.401   3.778   0.048 -2.7024  1.0211 -0.1681
 3948SOL     OW23305   0.317   4.352   6.469  0.0766  0.2546  0.0498
 3948SOL    HW123306   0.298   4.306   6.387  2.4136  1.5797 -1.2173
 3948SOL    HW223307   0.246   4.307   6.515 -0.3549  0.6870 -0.1807
 3949SOL     OW23308   3.206   0.489   9.340  0.3147  0.0637  0.1494
 3949SOL    HW123309   3.116   0.474   9.367  0.3789 -0.6169 -0.0216
 3949SOL    HW223310   3.225   0.397   9.323 -1.0190 -0.2637  0.4094
 3950SOL     OW23311   1.772   1.783   5.728  0.0587  0.2813 -0.1678
 3950SOL    HW123312   1.778   1.694   5.692  0.0016  0.3909 -0.4395
 3950SOL    HW223313   1.863   1.802   5.748 -0.0912 -0.9801  1.7283
 3951SOL     OW23314   3.194   1.135   4.879  0.2915 -0.4421  0.6363
 3951SOL    HW123315   3.102   1.121   4.902  0.1116 -0.4684 -0.0825
 3951SOL    HW223316   3.246   1.112   4.956  1.3722 -1.4651 -0.3864
 3952SOL     OW23317   0.503   0.913   1.329 -0.2357 -0.2807  0.0183
 3952SOL    HW123318   0.409   0.901   1.317 -0.6152  0.8418  1.8285
 3952SOL    HW223319   0.529   0.828   1.365 -1.5330 -1.2167 -1.2353
 3953SOL     OW23320   2.920   4.456  12.681  0.6915  0.0800 -0.5852
 3953SOL    HW123321   2.965   4.459  12.596 -1.4010  0.7437 -1.6533
 3953SOL    HW223322   2.858   4.385  12.670  0.0960  0.3897  0.7702
 3954SOL     OW23323   1.420   4.107   4.616 -0.2383 -0.5198 -0.5075
 3954SOL    HW123324   1.445   4.072   4.701  1.9194  0.7665 -0.6046
 3954SOL    HW223325   1.442   4.036   4.554 -0.4192 -0.3847 -0.7256
 3955SOL     OW23326   1.176   2.213   0.621  0.0416  0.1863  0.4206
 3955SOL    HW123327   1.098   2.221   0.566  1.0879  0.0648 -1.0785
 3955SOL    HW223328   1.165   2.122   0.648 -0.5388  0.1106 -0.0653
 3956SOL     OW23329   1.664   1.470   3.298 -0.5186  0.4287  0.3780
 3956SOL    HW123330   1.726   1.431   3.236 -0.8283 -0.1292  0.4243
 3956SOL    HW223331   1.609   1.527   3.244 -0.7392 -0.2085 -0.0709
 3957SOL     OW23332   3.536   2.121  12.120 -0.4597  0.1329 -0.7108
 3957SOL    HW123333   3.629   2.110  12.102 -0.5179 -0.6444 -0.5211
 3957SOL    HW223334   3.501   2.049  12.068 -1.9785 -1.1118  2.0384
 3958SOL     OW23335   2.512   0.832   6.863 -0.1580 -0.0740  0.0740
 3958SOL    HW123336   2.571   0.877   6.924 -0.1608 -0.2032  0.1714
 3958SOL    HW223337   2.568   0.816   6.787 -1.6919 -1.5243 -0.7405
 3959SOL     OW23338   2.783   1.149   1.879  0.5660  0.3223 -0.0847
 3959SOL    HW123339   2.814   1.073   1.829  0.7751  1.3396 -1.5037
 3959SOL    HW223340   2.853   1.213   1.865  0.6292  0.1961 -0.3460
 3960SOL     OW23341   1.367   3.039   3.459 -0.5224 -0.4200 -0.5571
 3960SOL    HW123342   1.360   3.104   3.390 -1.6600  0.2724  0.2100
 3960SOL    HW223343   1.463   3.035   3.461 -0.3765  3.3095  1.1844
 3961SOL     OW23344   3.082   2.521   6.799  0.2158 -0.0730 -0.2592
 3961SOL    HW123345   3.086   2.433   6.762 -0.2076 -0.3999  0.4673
 3961SOL    HW223346   2.991   2.530   6.770  0.1666  1.4403  0.3755
 3962SOL     OW23347   0.937   1.430   4.901  0.3547  0.1640 -0.4135
 3962SOL    HW123348   0.958   1.337   4.902 -0.8910 -0.1025  1.8363
 3962SOL    HW223349   0.872   1.434   4.971  0.0321 -3.0657 -0.5586
 3963SOL     OW23350   3.918   4.149  14.580 -0.3275  0.0922  0.1524
 3963SOL    HW123351   3.957   4.171  14.495  0.4778 -2.7989 -0.2262
 3963SOL    HW223352   3.850   4.216  14.585 -0.9255 -0.4869 -0.1560
 3964SOL     OW23353   0.175   2.675  10.369  0.0514  0.2432 -0.1846
 3964SOL    HW123354   0.197   2.590  10.406  0.3219  0.1187 -0.6371
 3964SOL    HW223355   0.222   2.733  10.429 -2.3396  1.6763  0.3227
 3965SOL     OW23356   1.024   4.234   7.019 -0.5275 -0.7839 -0.1268
 3965SOL    HW123357   0.996   4.171   6.951  1.8440 -0.7100 -1.1967
 3965SOL    HW223358   1.082   4.283   6.960  0.3923 -1.8112 -0.0772
 3966SOL     OW23359   1.087   1.571   9.694 -0.0478 -0.0108  0.4105
 3966SOL    HW123360   1.090   1.635   9.623  1.0098  0.7183  1.1025
 3966SOL    HW223361   1.006   1.524   9.678 -1.6611  2.9163 -0.0777
 3967SOL     OW23362   2.090   2.325   2.169  0.2586  0.0443  0.2566
 3967SOL    HW123363   2.145   2.359   2.098  2.0855  1.5184  2.3901
 3967SOL    HW223364   2.138   2.243   2.181 -0.8435 -0.8820 -1.6163
 3968SOL     OW23365   0.355   4.180  16.857 -0.0541  0.3241 -0.0910
 3968SOL    HW123366   0.387   4.120  16.925  0.7779  0.0075 -0.7659
 3968SOL    HW223367   0.320   4.256  16.903 -0.7271 -0.8856  1.4116
 3969SOL     OW23368   2.874   2.241   6.481  0.2843  0.5043  0.6923
 3969SOL    HW123369   2.856   2.168   6.421 -1.3960 -0.3018  2.1574
 3969SOL    HW223370   2.833   2.321   6.448 -1.0635  0.2907  1.8293
 3970SOL     OW23371   1.449   2.930  13.549  0.6671 -0.2178 -0.0667
 3970SOL    HW123372   1.406   3.011  13.573 -0.0379 -0.0782 -1.8521
 3970SOL    HW223373   1.383   2.879  13.503 -1.4164  1.4805  1.0665
 3971SOL     OW23374   1.737   3.200   7.403 -0.2480 -0.4095  0.0452
 3971SOL    HW123375   1.719   3.291   7.379 -1.0834 -0.6125 -0.1106
 3971SOL    HW223376   1.671   3.202   7.473 -0.3232 -0.9827 -0.0095
 3972SOL     OW23377   4.637   4.453   8.064  0.0619 -0.0215  0.2007
 3972SOL    HW123378   4.630   4.540   8.026  1.2861  0.9398  2.1915
 3972SOL    HW223379   4.548   4.436   8.095  0.5215 -0.1409  1.4355
 3973SOL     OW23380   2.397   1.654  17.385 -0.1940  0.2102 -0.2651
 3973SOL    HW123381   2.469   1.618  17.438 -0.4056 -0.9685 -0.7630
 3973SOL    HW223382   2.334   1.584  17.402 -0.0137  0.1929  0.3366
 3974SOL     OW23383   2.722   3.201   0.867 -0.2218 -0.0266  0.3762
 3974SOL    HW123384   2.699   3.127   0.923 -0.0691  1.1078  1.9731
 3974SOL    HW223385   2.636   3.243   0.865 -1.0156 -1.5544  3.0195
 3975SOL     OW23386   2.410   1.541   3.700  0.3584 -0.3937  0.0934
 3975SOL    HW123387   2.456   1.527   3.617 -1.6175  1.4752 -1.3089
 3975SOL    HW223388   2.402   1.636   3.694 -0.1858 -0.5301 -1.4599
 3976SOL     OW23389   0.219   1.367  12.329  0.4545 -0.1039 -0.3734
 3976SOL    HW123390   0.274   1.410  12.263 -2.5763  0.2769 -2.6346
 3976SOL    HW223391   0.172   1.445  12.360 -0.4471  0.0562 -2.1288
 3977SOL     OW23392   1.803   0.914  16.121 -0.2654 -0.0661  0.0447
 3977SOL    HW123393   1.836   1.001  16.141 -0.2963 -0.4977  1.9668
 3977SOL    HW223394   1.744   0.938  16.049  0.5194  2.7475  0.3388
 3978SOL     OW23395   3.946   1.122  13.754 -0.0122  0.0574  0.3855
 3978SOL    HW123396   4.008   1.195  13.746  2.0416 -1.7949 -0.5838
 3978SOL    HW223397   3.910   1.136  13.842  0.3589  1.8478  0.2569
 3979SOL     OW23398   2.072   1.573   3.354 -0.5293  0.2481 -0.4456
 3979SOL    HW123399   2.059   1.568   3.449 -1.2150 -2.3466 -0.6806
 3979SOL    HW223400   2.020   1.648   3.325 -3.0666 -0.6816  1.6766
 3980SOL     OW23401   3.697   0.130   2.676 -0.1622  0.2927 -0.3964
 3980SOL    HW123402   3.677   0.219   2.704  0.8285  1.7167 -4.1218
 3980SOL    HW223403   3.689   0.085   2.760 -1.8833  0.3658 -0.5298
 3981SOL     OW23404   4.722   4.581  13.112  0.4087  0.0152  0.3498
 3981SOL    HW123405   4.710   4.669  13.148 -0.3895  1.0955 -2.5668
 3981SOL    HW223406   0.086   4.581  13.076  0.3105  1.2856  0.0963
 3982SOL     OW23407   1.955   4.449   6.478  0.6511 -0.4760  0.0181
 3982SOL    HW123408   1.982   4.531   6.519  1.5999 -0.2337 -1.0948
 3982SOL    HW223409   1.973   4.390   6.552  1.2243 -2.3238 -1.6034
 3983SOL     OW23410   2.059   4.637   7.516 -0.0301  0.3103 -0.6186
 3983SOL    HW123411   2.038   4.550   7.483 -1.3137  0.5512 -0.4245
 3983SOL    HW223412   1.993   4.635   7.585  0.3713  0.3027 -0.2373
 3984SOL     OW23413   2.064   0.454   2.533 -0.0041 -0.1453  0.5139
 3984SOL    HW123414   2.123   0.511   2.581 -1.2641  1.4166  0.2180
 3984SOL    HW223415   2.054   0.384   2.598  0.6590  1.1978  2.0393
 3985SOL     OW23416   2.146   4.377   4.229  0.5602 -0.4453  0.2655
 3985SOL    HW123417   2.164   4.455   4.177  0.3807 -1.7330 -1.7154
 3985SOL    HW223418   2.077   4.404   4.290  0.9287 -1.2317  1.0399
 3986SOL     OW23419   3.478   4.319   8.789  0.1921  0.0378  0.0025
 3986SOL    HW123420   3.484   4.309   8.694  0.7876  1.9925 -0.1715
 3986SOL    HW223421   3.384   4.320   8.806  0.3859 -0.6504  1.1238
 3987SOL     OW23422   3.274   0.486   2.819 -0.2288 -0.2325 -0.3648
 3987SOL    HW123423   3.321   0.418   2.771  0.5062 -1.4388  2.0164
 3987SOL    HW223424   3.339   0.556   2.827 -0.8436  0.4680 -1.5187
 3988SOL     OW23425   3.358   3.704   4.619  0.1852 -0.3382  0.2255
 3988SOL    HW123426   3.386   3.670   4.534 -1.3613 -0.8165 -0.0881
 3988SOL    HW223427   3.296   3.769   4.587  0.1837  0.8518  2.6291
 3989SOL     OW23428   1.308   4.323   8.745 -0.0633 -0.3233 -0.4006
 3989SOL    HW123429   1.237   4.312   8.809  0.6536 -0.2128  0.4053
 3989SOL    HW223430   1.293   4.412   8.712 -0.9117 -0.5576 -0.6403
 3990SOL     OW23431   1.230   3.257   4.751 -0.6154 -0.3122 -0.2759
 3990SOL    HW123432   1.308   3.303   4.721 -2.4379  3.1783  0.2862
 3990SOL    HW223433   1.206   3.310   4.827  1.3961 -1.2806  1.0370
 3991SOL     OW23434   3.370   2.759  14.701  0.0055 -0.3386  0.3853
 3991SOL    HW123435   3.281   2.785  14.726 -0.2657 -0.1991 -0.7264
 3991SOL    HW223436   3.396   2.831  14.643  2.0011 -0.3575  1.2428
 3992SOL     OW23437   1.614   1.348   4.239  0.4836 -0.3225  0.0704
 3992SOL    HW123438   1.525   1.345   4.273 -0.0015  0.0263 -1.1722
 3992SOL    HW223439   1.614   1.444   4.238 -0.2404 -0.3091  1.6877
 3993SOL     OW23440   0.438   2.521   8.773  0.9708  0.7601 -0.1706
 3993SOL    HW123441   0.522   2.476   8.784  0.8254  0.1149 -1.6633
 3993SOL    HW223442   0.386   2.483   8.844  1.3312  1.7545  0.6312
 3994SOL     OW23443   2.414   3.627   9.743 -0.0115 -0.5524  0.4676
 3994SOL    HW123444   2.420   3.583   9.828 -0.9492  1.2162  1.4364
 3994SOL    HW223445   2.325   3.601   9.719 -0.0544  1.1523 -1.2547
 3995SOL     OW23446   3.596   1.139  11.855  0.5190  0.1849 -0.1330
 3995SOL    HW123447   3.588   1.043  11.856  1.6528  0.0927  0.3156
 3995SOL    HW223448   3.637   1.150  11.769  0.7016  0.8464  0.0373
 3996SOL     OW23449   0.313   0.672  15.137  0.1962  0.2440 -0.0936
 3996SOL    HW123450   0.222   0.642  15.132 -0.0324  0.5619  2.4299
 3996SOL    HW223451   0.317   0.724  15.056  2.0226  0.0611 -0.1316
 3997SOL     OW23452   4.203   1.441   2.078 -0.1383 -0.3196 -0.5100
 3997SOL    HW123453   4.133   1.461   2.015  1.3340  0.5058 -1.8734
 3997SOL    HW223454   4.241   1.363   2.037  1.2508 -0.3793  0.9032
 3998SOL     OW23455   3.022   1.663   3.392  0.1886 -0.0687  0.2471
 3998SOL    HW123456   3.042   1.721   3.466  1.3644  2.2222 -1.8613
 3998SOL    HW223457   3.104   1.614   3.391  0.0811 -0.2121 -1.3236
 3999SOL     OW23458   0.045   3.138  14.720  0.6182  0.3659  0.0173
 3999SOL    HW123459   0.008   3.212  14.769 -0.3755  0.6070 -1.1012
 3999SOL    HW223460   0.019   3.166  14.632 -1.2162 -0.4636  0.2866
 4000SOL     OW23461   0.946   3.206   3.128  0.0296  0.3636 -0.7645
 4000SOL    HW123462   0.913   3.243   3.046 -1.0030 -0.7069 -0.8335
 4000SOL    HW223463   1.039   3.213   3.105  0.4033 -1.1978  0.2986
 4001SOL     OW23464   1.449   2.482   1.318  0.5420 -0.3571 -0.6275
 4001SOL    HW123465   1.384   2.549   1.335  1.9993  1.4075 -1.9680
 4001SOL    HW223466   1.500   2.527   1.250  1.3152 -2.8599 -1.7323
 4002SOL     OW23467   2.506   3.806   2.192 -0.8559  0.0260  0.0853
 4002SOL    HW123468   2.417   3.838   2.176 -2.0712 -3.0754  0.8157
 4002SOL    HW223469   2.504   3.736   2.127 -0.1535 -1.3205  1.5266
 4003SOL     OW23470   4.244   0.244  13.483 -0.1005  0.5157 -0.2940
 4003SOL    HW123471   4.307   0.215  13.550 -1.3191  1.7268  1.3763
 4003SOL    HW223472   4.202   0.318  13.527 -0.0856  0.7539 -0.6777
 4004SOL     OW23473   3.289   1.173  13.311  0.0957 -0.5547 -0.6288
 4004SOL    HW123474   3.328   1.198  13.227 -1.3528 -0.6993 -1.3571
 4004SOL    HW223475   3.367   1.166  13.366 -0.6442  1.2045  0.6297
 4005SOL     OW23476   1.616   1.366   6.496  0.6509  0.0230  0.1951
 4005SOL    HW123477   1.547   1.340   6.558 -1.5128  1.1266 -1.7794
 4005SOL    HW223478   1.680   1.408   6.554 -0.4356 -0.2514  1.5991
 4006SOL     OW23479   3.202   4.195   9.003  0.1567 -0.1252 -0.2131
 4006SOL    HW123480   3.170   4.281   8.973  1.6684  1.2090  2.0079
 4006SOL    HW223481   3.238   4.222   9.087  1.3770 -1.7032 -0.2286
 4007SOL     OW23482   0.908   1.174  14.954  0.0313 -0.3138  0.1225
 4007SOL    HW123483   0.831   1.149  14.903 -0.4619  1.2121  0.1182
 4007SOL    HW223484   0.976   1.179  14.887  0.4160 -0.9397  0.4629
 4008SOL     OW23485   2.447   2.716   3.652 -0.3252 -0.8872  0.3497
 4008SOL    HW123486   2.480   2.781   3.715  1.1400 -1.1132 -0.1841
 4008SOL    HW223487   2.452   2.769   3.573  2.8792 -0.5263  0.7974
 4009SOL     OW23488   1.811   4.042  10.863  0.1084  0.0839  0.1158
 4009SOL    HW123489   1.821   4.101  10.938  0.2368  1.4902 -1.0041
 4009SOL    HW223490   1.867   4.088  10.799  2.1432 -1.6142  0.6798
 4010SOL     OW23491   3.735   4.337  14.576  0.0148 -0.1703  0.0091
 4010SOL    HW123492   3.685   4.399  14.524 -0.4110 -2.2620 -2.0927
 4010SOL    HW223493   3.669   4.302  14.636 -0.2898  2.9041  1.4836
 4011SOL     OW23494   1.708   3.692   1.038  0.3703 -0.3943  0.1820
 4011SOL    HW123495   1.799   3.699   1.010  0.3955  2.0328  0.8977
 4011SOL    HW223496   1.719   3.665   1.129 -0.4984 -0.2625  0.3258
 4012SOL     OW23497   0.074   2.410   6.421  0.0954  0.1528  0.5028
 4012SOL    HW123498   0.095   2.316   6.426  1.5151  0.4530  0.1446
 4012SOL    HW223499   4.712   2.395   6.383  1.4250 -4.6834 -0.6984
 4013SOL     OW23500   3.273   4.037   6.922  0.2496 -0.0651 -0.1720
 4013SOL    HW123501   3.191   4.082   6.898 -0.1319 -0.7739 -0.2010
 4013SOL    HW223502   3.281   4.064   7.013 -1.1812 -1.9529  0.5177
 4014SOL     OW23503   1.799   3.644   5.592  0.2698  0.1903  0.2407
 4014SOL    HW123504   1.864   3.579   5.566  0.7520  1.4399 -1.6346
 4014SOL    HW223505   1.757   3.582   5.653 -0.6198 -1.2060 -1.8034
 4015SOL     OW23506   2.370   2.425   4.563  0.0046 -0.2707 -0.2620
 4015SOL    HW123507   2.322   2.468   4.492 -1.8146 -2.0517 -0.1098
 4015SOL    HW223508   2.461   2.457   4.561  1.0499 -3.2067  0.3117
 4016SOL     OW23509   2.679   0.518   6.258  0.2949  0.0851 -0.0083
 4016SOL    HW123510   2.586   0.539   6.258  1.0246  3.3178  0.0707
 4016SOL    HW223511   2.727   0.548   6.336  1.9217  1.8597 -1.6949
 4017SOL     OW23512   1.222   0.969  17.572  0.0946  0.0246 -0.4633
 4017SOL    HW123513   1.230   0.934  17.483  1.0496  0.6788 -0.6325
 4017SOL    HW223514   1.302   1.021  17.579 -1.0317  1.6220  0.6117
 4018SOL     OW23515   0.369   0.389   6.828 -0.7332  0.3334 -0.0015
 4018SOL    HW123516   0.330   0.381   6.915  0.5451  0.8472  0.6105
 4018SOL    HW223517   0.456   0.425   6.844 -0.2052 -0.8687 -0.1633
 4019SOL     OW23518   3.020   0.998  17.047  0.6055  0.3480 -0.6811
 4019SOL    HW123519   2.969   1.078  17.035 -1.6452 -1.2358 -1.7493
 4019SOL    HW223520   3.026   0.955  16.961 -1.3284 -0.0950 -0.6091
 4020SOL     OW23521   3.546   3.523  10.028 -0.2233 -0.1289  0.3497
 4020SOL    HW123522   3.458   3.533   9.991  0.9421 -1.6126 -2.8541
 4020SOL    HW223523   3.531   3.460  10.098  0.4011 -1.1514 -0.4403
 4021SOL     OW23524   0.884   0.653   3.336  0.0094 -0.1693 -0.2509
 4021SOL    HW123525   0.900   0.695   3.420 -1.0652  1.8705 -1.0645
 4021SOL    HW223526   0.855   0.565   3.359 -2.9861  0.1830 -2.5891
 4022SOL     OW23527   3.474   0.059   1.846  0.6418  0.6613 -0.2116
 4022SOL    HW123528   3.528   0.134   1.871  0.5712  0.9444 -0.8852
 4022SOL    HW223529   3.507   0.036   1.759  1.6432  1.3326 -0.0110
 4023SOL     OW23530   0.403   3.433  13.591  0.5066 -0.2510  0.1423
 4023SOL    HW123531   0.417   3.342  13.564  0.1776 -0.0794 -0.5919
 4023SOL    HW223532   0.341   3.459  13.523  1.3131 -0.9543 -0.8475
 4024SOL     OW23533   2.256   3.493  16.250  0.4961  0.1965  0.4355
 4024SOL    HW123534   2.293   3.405  16.240 -0.6269  0.0299 -2.2097
 4024SOL    HW223535   2.297   3.531  16.327 -1.3213  2.6188  0.2094
 4025SOL     OW23536   1.902   1.600   4.916 -0.2780  0.5407 -0.3889
 4025SOL    HW123537   1.904   1.512   4.878 -0.6752  0.0499  0.7126
 4025SOL    HW223538   1.897   1.588   5.011  1.9713 -2.3641 -0.6297
 4026SOL     OW23539   1.393   3.096   6.982 -0.0906  0.3993 -0.2565
 4026SOL    HW123540   1.434   3.091   7.068  0.7626 -1.3090 -0.7609
 4026SOL    HW223541   1.371   3.189   6.983 -0.2010  0.3352  1.9174
 4027SOL     OW23542   4.635   0.714   6.521  0.5803  0.5009 -0.2403
 4027SOL    HW123543   0.004   0.698   6.518  0.1091 -2.5860  1.4523
 4027SOL    HW223544   4.604   0.641   6.467 -0.7564 -0.4530  1.7968
 4028SOL     OW23545   0.288   1.318   2.253  0.0683 -0.2190 -0.0393
 4028SOL    HW123546   0.231   1.289   2.181  0.8172 -0.2871 -0.6036
 4028SOL    HW223547   0.372   1.293   2.214 -0.1352 -1.3234  0.2315
 4029SOL     OW23548   4.343   0.477   6.184 -0.4995  0.2637  0.5148
 4029SOL    HW123549   4.297   0.404   6.142  0.3967  0.2417 -0.4430
 4029SOL    HW223550   4.314   0.552   6.130 -1.9017  0.1359  1.0962
 4030SOL     OW23551   4.445   2.951   3.480 -0.5512  0.3491 -0.2441
 4030SOL    HW123552   4.350   2.947   3.483 -0.5099 -0.2612  0.3312
 4030SOL    HW223553   4.467   2.925   3.391 -0.7503  4.4168 -1.4664
 4031SOL     OW23554   2.397   3.277  10.682  0.1851 -0.2579  0.3703
 4031SOL    HW123555   2.349   3.217  10.739  0.1878  1.2716  1.9915
 4031SOL    HW223556   2.399   3.358  10.733  1.9108  1.0703 -1.7914
 4032SOL     OW23557   4.051   4.323   7.938 -0.6901 -0.1843  0.3100
 4032SOL    HW123558   4.051   4.273   7.855 -0.1879 -0.4991  0.4980
 4032SOL    HW223559   3.984   4.288   7.996 -0.5574 -1.6062 -0.3666
 4033SOL     OW23560   1.986   2.982   0.907 -0.1964 -0.5101 -0.1594
 4033SOL    HW123561   2.041   2.928   0.963 -2.3771 -2.6617 -0.0670
 4033SOL    HW223562   1.959   2.928   0.833 -0.7504 -0.7148  0.1931
 4034SOL     OW23563   1.236   0.782   8.752  0.2352 -0.7065 -0.8008
 4034SOL    HW123564   1.221   0.833   8.672 -0.0342  1.4438  0.6147
 4034SOL    HW223565   1.174   0.710   8.750  0.4033 -0.8637 -0.1654
 4035SOL     OW23566   4.699   3.022   8.805 -0.5138  0.1189  0.2262
 4035SOL    HW123567   4.634   3.091   8.819 -1.1847 -0.3521 -0.5912
 4035SOL    HW223568   4.676   3.006   8.714 -1.1174  2.1186  0.0279
 4036SOL     OW23569   4.146   1.974  13.965 -0.0072  0.0297 -0.0237
 4036SOL    HW123570   4.116   2.055  13.924  3.7357  1.0067 -0.8048
 4036SOL    HW223571   4.240   1.981  13.951 -0.4557  0.6803 -2.7148
 4037SOL     OW23572   2.628   0.393   1.962  0.1582  0.1927  0.0426
 4037SOL    HW123573   2.623   0.486   1.982 -0.0933  0.6831 -2.3339
 4037SOL    HW223574   2.596   0.389   1.872 -1.8234  1.7073  0.6898
 4038SOL     OW23575   4.309   4.383   1.373 -0.1554 -0.6600  0.1923
 4038SOL    HW123576   4.364   4.309   1.399  0.7598 -0.8187 -2.2383
 4038SOL    HW223577   4.247   4.380   1.446  1.2402  1.0019  1.4276
 4039SOL     OW23578   4.668   4.272  15.358 -0.3625  1.0159 -0.3576
 4039SOL    HW123579   4.680   4.364  15.334 -0.0631  1.0326 -0.1414
 4039SOL    HW223580   0.016   4.235  15.308 -0.1040 -0.7001  1.2929
 4040SOL     OW23581   2.188   1.643  14.679 -0.0626  0.0132 -0.0386
 4040SOL    HW123582   2.158   1.562  14.720 -0.6565 -0.2815 -1.0554
 4040SOL    HW223583   2.176   1.620  14.586 -1.0871 -1.4351  0.4489
 4041SOL     OW23584   3.504   1.118   6.556  1.1128 -0.3418  0.3400
 4041SOL    HW123585   3.526   1.200   6.600  1.0705 -1.0818  1.7322
 4041SOL    HW223586   3.587   1.071   6.550  0.3311 -1.3928 -2.1695
 4042SOL     OW23587   0.933   4.343   4.011  0.2142  0.0415  0.0024
 4042SOL    HW123588   1.024   4.364   3.989 -0.8259  3.2645 -1.1375
 4042SOL    HW223589   0.953   4.272   4.072  0.7630 -0.5015 -0.7948
 4043SOL     OW23590   2.813   4.081   6.321  0.6468  0.2029  0.4980
 4043SOL    HW123591   2.821   4.150   6.387  1.8506 -0.0891  0.6668
 4043SOL    HW223592   2.719   4.082   6.308  0.6641 -0.7867  0.2481
 4044SOL     OW23593   3.259   2.265  17.248  0.5426  0.0590 -0.7927
 4044SOL    HW123594   3.207   2.237  17.173 -2.3687  0.2337  1.1810
 4044SOL    HW223595   3.223   2.211  17.318  1.3680  0.8879  0.2658
 4045SOL     OW23596   0.209   1.929   9.434 -0.1514 -0.5061  0.2957
 4045SOL    HW123597   0.294   1.947   9.473 -0.1866 -1.3465  0.7625
 4045SOL    HW223598   0.204   1.985   9.356  1.9746 -0.0466  0.4983
 4046SOL     OW23599   2.184   0.465  14.499 -0.6928  0.1030 -0.1412
 4046SOL    HW123600   2.255   0.506  14.450 -0.5030 -1.6857 -1.4006
 4046SOL    HW223601   2.115   0.531  14.502  0.1599  0.9821 -0.0150
 4047SOL     OW23602   4.156   4.401   8.334  0.3277 -0.2058 -0.7487
 4047SOL    HW123603   4.206   4.339   8.280  1.4071 -0.2606  0.3212
 4047SOL    HW223604   4.087   4.342   8.365 -1.3023  1.8243 -0.5324
 4048SOL     OW23605   2.384   2.972   0.848 -0.6324 -0.9485 -0.1311
 4048SOL    HW123606   2.343   2.922   0.918 -0.3641  0.4771  1.0498
 4048SOL    HW223607   2.472   2.987   0.884 -1.1964  2.8407 -0.2680
 4049SOL     OW23608   4.333   0.468   7.913 -0.2777  0.3566  0.3029
 4049SOL    HW123609   4.318   0.562   7.924  0.0991  0.7378 -2.4912
 4049SOL    HW223610   4.398   0.442   7.978  1.3808 -0.3016 -1.6042
 4050SOL     OW23611   2.943   4.593   8.945 -0.4840  0.5063  0.4143
 4050SOL    HW123612   2.878   4.609   8.878  0.0201 -0.2282 -0.2600
 4050SOL    HW223613   2.883   4.587   9.019  0.0399  0.2368  0.8173
 4051SOL     OW23614   2.539   4.372  10.061 -0.0441 -0.2050  0.4184
 4051SOL    HW123615   2.627   4.370  10.100 -0.0041 -1.7171  0.2433
 4051SOL    HW223616   2.485   4.345  10.135 -2.3057  1.2252 -0.7130
 4052SOL     OW23617   1.130   4.443   8.205  0.7184  0.2681  0.6537
 4052SOL    HW123618   1.087   4.369   8.164  0.5969 -0.4804  2.1127
 4052SOL    HW223619   1.175   4.496   8.139 -0.7853 -0.2271 -0.7371
 4053SOL     OW23620   3.010   0.895   7.977  0.0098 -0.3549  0.4358
 4053SOL    HW123621   2.995   0.884   7.883 -1.0774  0.1320  0.5515
 4053SOL    HW223622   2.957   0.824   8.014  0.1179 -1.3230 -1.2911
 4054SOL     OW23623   2.393   0.343   0.730  0.0271 -0.2306  0.0170
 4054SOL    HW123624   2.398   0.437   0.746  0.3775 -0.2340 -0.0716
 4054SOL    HW223625   2.464   0.317   0.789 -1.0919 -0.6414  1.1765
 4055SOL     OW23626   2.792   4.390   2.122 -0.0039 -0.5112 -0.3102
 4055SOL    HW123627   2.883   4.375   2.098  0.3582 -0.8930  1.3037
 4055SOL    HW223628   2.747   4.374   2.039 -0.5692  1.2551 -0.3604
 4056SOL     OW23629   1.537   0.878   6.725 -0.1542 -0.7098  0.0879
 4056SOL    HW123630   1.558   0.950   6.666 -2.4651  0.5666  0.8509
 4056SOL    HW223631   1.616   0.875   6.780 -0.4710 -0.3322  0.5611
 4057SOL     OW23632   1.821   0.870  10.470  0.4755  0.0918 -0.1044
 4057SOL    HW123633   1.835   0.833  10.557 -0.1021 -0.5219 -0.2720
 4057SOL    HW223634   1.758   0.938  10.496  0.6301  0.3579 -0.4225
 4058SOL     OW23635   0.030   2.848   5.570  0.0578 -0.5505  0.0531
 4058SOL    HW123636   0.015   2.863   5.476 -1.4553  0.2682  0.4219
 4058SOL    HW223637   0.003   2.937   5.593  0.1517 -0.5813  0.2766
 4059SOL     OW23638   0.472   1.384   5.578 -0.3615 -0.4364 -0.0164
 4059SOL    HW123639   0.438   1.472   5.596 -0.5013 -0.3144 -0.8797
 4059SOL    HW223640   0.509   1.353   5.661  0.8803 -0.3268 -0.5319
 4060SOL     OW23641   0.232   1.482   7.475  0.0294  0.4036 -0.1028
 4060SOL    HW123642   0.310   1.481   7.530  2.2209  0.3933 -3.2061
 4060SOL    HW223643   0.163   1.456   7.537  0.6863 -0.7258  0.1540
 4061SOL     OW23644   1.720   2.134   2.150 -0.0058 -0.8850  0.3587
 4061SOL    HW123645   1.803   2.086   2.156  0.1531 -0.5326  0.9459
 4061SOL    HW223646   1.694   2.121   2.059  0.4548 -0.4554  0.1672
 4062SOL     OW23647   0.252   1.280   5.993  0.3811  0.8659  0.3650
 4062SOL    HW123648   0.212   1.245   6.073 -3.8788  0.1924 -2.0374
 4062SOL    HW223649   0.194   1.356   5.991 -1.4408 -0.5007  0.2853
 4063SOL     OW23650   4.648   2.088   6.998 -0.0773  0.5497 -0.1417
 4063SOL    HW123651   4.682   2.165   6.953  0.4236  1.4979  1.8545
 4063SOL    HW223652   4.656   2.021   6.930  1.9250  0.3650  0.2619
 4064SOL     OW23653   3.303   3.248   4.595  0.0093 -0.0621 -0.3766
 4064SOL    HW123654   3.368   3.273   4.529  1.1322  2.7861  1.8207
 4064SOL    HW223655   3.245   3.179   4.563 -0.2925  0.2830 -0.5743
 4065SOL     OW23656   3.299   4.091   6.655 -0.0720 -0.9917  0.4594
 4065SOL    HW123657   3.268   4.110   6.744  1.2937  0.6385  0.5895
 4065SOL    HW223658   3.271   4.000   6.648 -1.4984 -0.4519 -0.7207
 4066SOL     OW23659   1.949   2.439   3.232 -0.2984  0.4520 -0.0922
 4066SOL    HW123660   2.008   2.480   3.169  0.8089 -2.5929 -1.0509
 4066SOL    HW223661   1.861   2.466   3.205 -0.1490  1.5366  0.4909
 4067SOL     OW23662   0.420   2.448   4.385 -0.3156  0.2077  0.1349
 4067SOL    HW123663   0.494   2.508   4.377  0.9034 -1.0380  2.0535
 4067SOL    HW223664   0.348   2.498   4.425  0.1542  2.5324 -1.8826
 4068SOL     OW23665   2.613   2.713   8.318 -0.3430 -0.1381 -0.1179
 4068SOL    HW123666   2.702   2.743   8.337 -0.9301  1.3449  0.2821
 4068SOL    HW223667   2.624   2.729   8.224 -0.5974  1.5352  0.1395
 4069SOL     OW23668   1.839   0.292   7.520  0.2961 -0.2268  0.6584
 4069SOL    HW123669   1.755   0.320   7.484  1.0246  0.1847 -0.6945
 4069SOL    HW223670   1.810   0.286   7.612 -2.6322  1.6677 -0.1365
 4070SOL     OW23671   4.681   4.127   5.294 -0.9805 -0.0377 -0.4926
 4070SOL    HW123672   4.694   4.220   5.274 -1.8253  0.3816  0.8798
 4070SOL    HW223673   0.045   4.097   5.310 -0.6492  0.7181 -0.9571
 4071SOL     OW23674   1.891   4.162   4.948 -0.1681  0.2188 -0.2616
 4071SOL    HW123675   1.842   4.135   4.871  0.5970 -2.0461  0.0471
 4071SOL    HW223676   1.941   4.087   4.980 -2.3240 -1.4687 -0.8911
 4072SOL     OW23677   3.780   4.605   2.022  0.4419 -0.2356 -0.9253
 4072SOL    HW123678   3.777   4.509   2.018  0.0702 -0.2230 -0.9128
 4072SOL    HW223679   3.767   4.623   1.929  2.1096  1.3472 -0.8482
 4073SOL     OW23680   0.653   0.728   0.294  0.5153  0.2809 -0.0700
 4073SOL    HW123681   0.686   0.775   0.370  1.0067 -2.2986  1.3006
 4073SOL    HW223682   0.736   0.695   0.260  1.5620  0.2673  2.5078
 4074SOL     OW23683   0.218   2.131  13.243 -0.1629  0.5671 -0.0727
 4074SOL    HW123684   0.273   2.053  13.247  1.2329  1.4346 -2.3152
 4074SOL    HW223685   0.234   2.159  13.333 -2.1494  2.6089 -0.3595
 4075SOL     OW23686   2.266   3.414   9.610 -0.0180 -0.3671 -0.6889
 4075SOL    HW123687   2.246   3.355   9.537  0.7521 -0.1154 -1.1041
 4075SOL    HW223688   2.183   3.459   9.627  0.0567 -0.3087 -0.4812
 4076SOL     OW23689   1.137   3.361   8.946 -0.6096 -0.2047  0.1593
 4076SOL    HW123690   1.111   3.295   8.882  0.1902 -3.2642  2.9647
 4076SOL    HW223691   1.115   3.304   9.020 -2.1824  0.4674  0.1910
 4077SOL     OW23692   2.705   3.608   7.242 -0.3407  0.3902 -0.6023
 4077SOL    HW123693   2.671   3.607   7.153  0.5768  4.5819 -1.0185
 4077SOL    HW223694   2.636   3.567   7.294 -0.7189 -2.7597 -3.6495
 4078SOL     OW23695   2.633   3.346  10.969  0.2365  0.1016  0.1464
 4078SOL    HW123696   2.715   3.377  10.929  0.1837 -0.4857 -0.4124
 4078SOL    HW223697   2.572   3.411  10.934  1.9525  1.0461 -1.1194
 4079SOL     OW23698   0.895   2.507   4.853 -0.0669  0.6242 -0.4593
 4079SOL    HW123699   0.915   2.594   4.889 -0.5606  0.9740 -1.0300
 4079SOL    HW223700   0.828   2.522   4.787  0.8624  1.1983 -1.2845
 4080SOL     OW23701   1.789   1.805   6.489 -0.0450  0.2400  0.0181
 4080SOL    HW123702   1.716   1.765   6.536 -1.5358 -0.5209 -2.9043
 4080SOL    HW223703   1.785   1.895   6.520 -0.6185  0.5785 -1.0430
 4081SOL     OW23704   3.640   2.156   6.615  0.3397 -0.0516 -0.2166
 4081SOL    HW123705   3.635   2.176   6.522  3.3578 -0.3838 -0.4536
 4081SOL    HW223706   3.676   2.067   6.613  0.1186 -0.1960  1.8394
 4082SOL     OW23707   2.695   0.792   1.737 -0.4350  0.2137  0.5837
 4082SOL    HW123708   2.742   0.709   1.735 -0.8495 -0.0404  1.4587
 4082SOL    HW223709   2.772   0.849   1.739 -1.3773  1.4845  0.3851
 4083SOL     OW23710   3.663   0.831   5.043  0.2639  0.2160  0.2725
 4083SOL    HW123711   3.635   0.889   5.114  0.3994 -1.0269  1.3201
 4083SOL    HW223712   3.631   0.747   5.073  0.7191  1.0480  3.0409
 4084SOL     OW23713   1.752   0.663   8.282  0.2657  0.1308  0.3411
 4084SOL    HW123714   1.660   0.688   8.288 -0.4997 -2.7795  0.5482
 4084SOL    HW223715   1.788   0.749   8.301  1.8926 -0.4916  0.1029
 4085SOL     OW23716   3.509   1.018   1.543 -0.2700 -0.3459 -0.2305
 4085SOL    HW123717   3.507   1.113   1.538 -0.2935 -0.3778 -0.8965
 4085SOL    HW223718   3.486   0.995   1.452 -1.7935  2.4651 -0.5395
 4086SOL     OW23719   4.611   1.035  13.042 -0.3455 -0.2885  0.3614
 4086SOL    HW123720   4.646   1.098  13.105  0.6068 -2.2391  1.7863
 4086SOL    HW223721   4.578   1.101  12.981 -1.4465 -1.7364 -0.6324
 4087SOL     OW23722   4.725   4.695   7.701  0.0165  0.1556 -0.0434
 4087SOL    HW123723   4.701   4.704   7.608 -0.2008 -0.7420 -0.0758
 4087SOL    HW223724   0.094   4.679   7.701  0.0358  0.2388  2.9961
 4088SOL     OW23725   1.546   0.177   0.653 -0.3189 -0.2081 -0.0808
 4088SOL    HW123726   1.568   0.088   0.624 -2.7843 -0.8804  0.0938
 4088SOL    HW223727   1.457   0.191   0.621 -0.0180  0.4169 -0.6366
 4089SOL     OW23728   0.142   0.384   1.487 -0.7587 -0.0001  0.8168
 4089SOL    HW123729   0.168   0.369   1.578  0.6193  0.2095  0.4562
 4089SOL    HW223730   0.219   0.388   1.430 -0.7219  2.1814  1.0371
 4090SOL     OW23731   1.793   3.814   0.476  0.0111 -1.2258  0.0685
 4090SOL    HW123732   1.721   3.806   0.538 -1.2086  2.5916 -0.9058
 4090SOL    HW223733   1.776   3.741   0.416  1.2331 -1.2045 -0.3174
 4091SOL     OW23734   3.650   3.959   3.866  0.6529 -0.1307 -0.3195
 4091SOL    HW123735   3.621   4.048   3.886  0.1158 -0.2233 -0.7003
 4091SOL    HW223736   3.637   3.947   3.772 -1.1914  1.8437 -0.3206
 4092SOL     OW23737   0.055   2.860   8.342 -0.3405  0.3429 -0.2969
 4092SOL    HW123738   0.083   2.914   8.267  0.4341 -1.4965 -1.3468
 4092SOL    HW223739   0.035   2.775   8.302  1.6119  0.0047 -0.5801
 4093SOL     OW23740   1.960   3.756   2.562  0.1137 -0.1836 -0.3913
 4093SOL    HW123741   1.872   3.781   2.535 -0.5905 -0.3390  1.7608
 4093SOL    HW223742   1.951   3.672   2.606 -0.8387 -0.6623 -1.5064
 4094SOL     OW23743   1.773   2.768   3.154  0.0245 -0.6909 -0.1927
 4094SOL    HW123744   1.735   2.856   3.162  1.3986 -0.0105 -1.2727
 4094SOL    HW223745   1.836   2.766   3.226 -1.0930 -1.0285  0.7836
 4095SOL     OW23746   4.607   1.870  14.735  0.1010  0.4164  0.0615
 4095SOL    HW123747   4.541   1.814  14.775  0.1939  0.4051  0.1997
 4095SOL    HW223748   4.578   1.958  14.761  0.5485  0.6357 -0.1755
 4096SOL     OW23749   4.320   4.209   1.044  0.1631 -0.0093 -0.3858
 4096SOL    HW123750   4.324   4.117   1.017 -1.0172  0.3333 -1.7536
 4096SOL    HW223751   4.272   4.199   1.126  0.6119  0.1571 -0.1085
 4097SOL     OW23752   3.755   2.374  15.664  0.5365 -0.4358  0.3870
 4097SOL    HW123753   3.664   2.402  15.661 -0.3054 -3.2380 -0.2698
 4097SOL    HW223754   3.779   2.406  15.751  1.6212 -0.8004  0.2312
 4098SOL     OW23755   3.119   2.610   7.438  0.0369  0.1836 -0.1338
 4098SOL    HW123756   3.156   2.522   7.427 -1.7752 -0.4280 -1.3012
 4098SOL    HW223757   3.162   2.621   7.523 -1.4513 -1.3128  0.8092
 4099SOL     OW23758   0.728   3.079   5.544 -0.0266  0.4852 -0.1229
 4099SOL    HW123759   0.696   3.153   5.492 -1.4418 -0.8816 -1.1895
 4099SOL    HW223760   0.822   3.093   5.528 -0.4908  3.4663 -0.1674
 4100SOL     OW23761   2.893   4.308   3.497 -0.2230  0.5742 -0.2365
 4100SOL    HW123762   2.851   4.306   3.411  2.0430  1.9494 -1.4051
 4100SOL    HW223763   2.953   4.382   3.486  0.3113 -0.0762 -1.7317
 4101SOL     OW23764   4.077   3.110   4.544 -0.0974  0.1575 -0.9333
 4101SOL    HW123765   4.030   3.190   4.565 -1.0748 -0.9797  1.2663
 4101SOL    HW223766   4.161   3.147   4.517  1.0404 -1.4225  0.4874
 4102SOL     OW23767   1.672   3.585   0.335 -0.1049  0.2801 -0.0980
 4102SOL    HW123768   1.583   3.596   0.303 -0.9374  0.0154  2.1046
 4102SOL    HW223769   1.666   3.490   0.348 -0.6577  0.3547  0.2222
 4103SOL     OW23770   2.267   4.621   1.490  0.2039  0.3204  0.4005
 4103SOL    HW123771   2.240   4.686   1.425  0.0087 -2.1604 -2.0195
 4103SOL    HW223772   2.212   4.643   1.565  0.9780 -0.3631  1.1628
 4104SOL     OW23773   4.369   0.077   2.866  0.2537  0.1253 -0.3328
 4104SOL    HW123774   4.397   0.141   2.801  0.8262 -2.1150 -2.3143
 4104SOL    HW223775   4.279   0.072   2.835 -0.0180  5.6334 -0.3968
 4105SOL     OW23776   2.720   1.624   8.439 -0.6091  0.0023  0.6222
 4105SOL    HW123777   2.647   1.676   8.406  1.8453  4.0268  1.5763
 4105SOL    HW223778   2.709   1.645   8.532  1.0881 -1.0400  1.0521
 4106SOL     OW23779   3.517   3.104   5.529 -0.3693 -0.5897  0.2006
 4106SOL    HW123780   3.435   3.078   5.487  0.1404  1.1306 -1.8177
 4106SOL    HW223781   3.583   3.082   5.464 -0.5826 -1.8087  0.3871
 4107SOL     OW23782   4.711   2.488  11.219 -0.4492  0.3199 -0.6884
 4107SOL    HW123783   4.652   2.545  11.268 -1.2468 -1.3094  0.2483
 4107SOL    HW223784   0.067   2.535  11.236  0.8147 -2.1023  0.0360
 4108SOL     OW23785   0.726   1.353  12.885 -0.0502 -0.5796  0.3065
 4108SOL    HW123786   0.819   1.345  12.862  0.5532  0.3624  2.4075
 4108SOL    HW223787   0.687   1.346  12.798 -0.4462 -1.7264  0.5765
 4109SOL     OW23788   3.813   1.874   4.291  0.4491 -0.6939  0.1510
 4109SOL    HW123789   3.741   1.936   4.276  0.7660  0.0336  1.6868
 4109SOL    HW223790   3.774   1.819   4.359 -1.5256 -0.4503 -0.7821
 4110SOL     OW23791   2.528   4.365  13.013  0.0579  0.1974  0.3154
 4110SOL    HW123792   2.501   4.274  13.011  1.5596 -0.2293 -0.2124
 4110SOL    HW223793   2.445   4.412  13.026  0.4753  0.6738  1.2071
 4111SOL     OW23794   0.795   1.817   4.315 -0.4066 -0.2259 -0.2439
 4111SOL    HW123795   0.732   1.752   4.285 -1.7739  0.4980  1.0679
 4111SOL    HW223796   0.826   1.851   4.231  0.2234 -1.4183 -0.4860
 4112SOL     OW23797   1.400   1.830   8.207 -0.1147 -0.0391  0.2315
 4112SOL    HW123798   1.450   1.827   8.126 -0.4995 -0.8125  0.0255
 4112SOL    HW223799   1.442   1.768   8.266 -0.5890  0.6534  1.3016
 4113SOL     OW23800   0.452   0.605  11.978 -0.0090  0.0733 -0.3093
 4113SOL    HW123801   0.386   0.560  12.031  0.7933  2.4875  2.7097
 4113SOL    HW223802   0.400   0.680  11.948 -0.2763 -0.3004 -0.7752
 4114SOL     OW23803   4.634   4.366   4.530  0.1991  0.5164  0.4856
 4114SOL    HW123804   4.647   4.283   4.575 -1.2887  0.1291  0.2033
 4114SOL    HW223805   4.640   4.345   4.437  1.0703  0.9376  0.4466
 4115SOL     OW23806   4.314   4.284   4.037 -0.0131  0.0686  0.6560
 4115SOL    HW123807   4.240   4.318   3.987  0.5269  0.3789  0.0694
 4115SOL    HW223808   4.285   4.193   4.036 -1.4081  0.5117 -1.2164
 4116SOL     OW23809   4.402   4.211  15.509  0.0124 -0.3270  0.4072
 4116SOL    HW123810   4.483   4.163  15.492 -0.2179  0.0628 -1.7584
 4116SOL    HW223811   4.373   4.169  15.591 -0.8583 -1.4463 -0.4813
 4117SOL     OW23812   1.470   2.777   1.859  0.4281  0.3278  0.2626
 4117SOL    HW123813   1.509   2.861   1.835  1.5199 -0.3678 -0.4385
 4117SOL    HW223814   1.496   2.726   1.782 -1.9621 -0.9156  0.2926
 4118SOL     OW23815   3.119   1.355   5.470  0.4828  0.2033  0.3745
 4118SOL    HW123816   3.177   1.431   5.468  0.9009 -0.1386 -0.1672
 4118SOL    HW223817   3.037   1.377   5.425 -0.1343  1.9360  2.3452
 4119SOL     OW23818   2.179   0.284   5.212  0.1058  0.3904  0.1651
 4119SOL    HW123819   2.150   0.196   5.190  0.6315 -0.1272  1.5244
 4119SOL    HW223820   2.152   0.325   5.130  1.7325  1.4209  0.1397
 4120SOL     OW23821   1.519   0.768   5.980 -0.3539  0.2103 -0.3741
 4120SOL    HW123822   1.514   0.862   6.000 -0.9926  0.2739 -0.8307
 4120SOL    HW223823   1.574   0.749   6.055  0.2335  1.3486 -0.5043
 4121SOL     OW23824   2.310   1.174   3.730 -0.3622  0.7688 -0.1117
 4121SOL    HW123825   2.401   1.172   3.760 -0.5325 -0.0058  0.3677
 4121SOL    HW223826   2.282   1.086   3.757 -0.1417  1.1605  1.4130
 4122SOL     OW23827   2.147   4.710   2.728  0.1625  0.4899  0.3079
 4122SOL    HW123828   2.220   4.686   2.671 -0.2220  1.3315 -0.5455
 4122SOL    HW223829   2.080   4.649   2.700  0.5966 -0.5299  1.4917
 4123SOL     OW23830   4.213   1.488  11.102 -0.4389 -0.0403  0.1862
 4123SOL    HW123831   4.254   1.575  11.094 -1.0412  0.2611  0.3350
 4123SOL    HW223832   4.123   1.509  11.127 -0.5515 -0.6202  0.2562
 4124SOL     OW23833   2.681   3.663   6.740 -0.3706  0.5204 -0.3071
 4124SOL    HW123834   2.772   3.693   6.730 -0.2939  0.4533  0.1978
 4124SOL    HW223835   2.667   3.629   6.652 -1.2929  0.7028 -0.2254
 4125SOL     OW23836   3.083   2.843   2.224 -0.5281  0.1814  0.5347
 4125SOL    HW123837   3.002   2.847   2.275  0.7535 -1.5220  2.6593
 4125SOL    HW223838   3.075   2.756   2.185  0.6049  0.1964  0.2841
 4126SOL     OW23839   3.346   3.846   8.000 -0.3170  0.7140  0.0518
 4126SOL    HW123840   3.413   3.831   7.933 -0.9656 -2.5312  0.0899
 4126SOL    HW223841   3.401   3.823   8.075  0.4471  1.0036 -0.4161
 4127SOL     OW23842   4.610   1.860   7.794  0.0593 -0.1044 -0.6619
 4127SOL    HW123843   4.597   1.904   7.878  1.0017  0.9053 -1.0301
 4127SOL    HW223844   4.535   1.897   7.749  0.3269  0.1315 -0.9175
 4128SOL     OW23845   1.284   3.917   5.020 -0.3502 -0.1024  0.1291
 4128SOL    HW123846   1.289   4.003   5.061  0.1666  0.1104 -0.3928
 4128SOL    HW223847   1.190   3.904   5.010 -0.0388 -1.5691 -0.8800
 4129SOL     OW23848   3.758   2.420   8.616  0.2018  0.2251 -0.3126
 4129SOL    HW123849   3.823   2.481   8.652 -0.5746  1.8300 -1.6356
 4129SOL    HW223850   3.676   2.447   8.656 -1.5597 -2.0647 -2.3684
 4130SOL     OW23851   3.593   3.685   6.077 -0.4279  0.5589  0.2283
 4130SOL    HW123852   3.668   3.728   6.036 -1.3713  1.0072 -1.0612
 4130SOL    HW223853   3.519   3.742   6.052 -0.7622 -0.9149 -2.2180
 4131SOL     OW23854   2.142   3.049   9.549  0.3088 -0.3172 -0.0473
 4131SOL    HW123855   2.197   3.001   9.487 -0.0385 -0.2005 -0.4455
 4131SOL    HW223856   2.136   3.138   9.515 -1.3281 -0.6171 -0.5651
 4132SOL     OW23857   2.397   1.350   6.710 -0.5120 -0.3338  0.7216
 4132SOL    HW123858   2.401   1.439   6.674  0.4962 -0.6548  0.0408
 4132SOL    HW223859   2.402   1.290   6.636  0.1527  1.7655 -0.9142
 4133SOL     OW23860   1.991   2.002  15.390  0.0019 -0.1919  0.4123
 4133SOL    HW123861   2.004   2.095  15.404 -1.3081  0.2984 -1.6714
 4133SOL    HW223862   1.931   1.985  15.462 -0.6064 -3.8999 -0.9187
 4134SOL     OW23863   0.359   2.048   3.084 -0.0765 -0.0094 -0.5343
 4134SOL    HW123864   0.450   2.038   3.111  0.0023  2.2869  0.0613
 4134SOL    HW223865   0.314   2.045   3.169  1.0936 -2.7080 -0.0067
 4135SOL     OW23866   4.429   3.624   8.587  0.2018 -0.0305 -0.4162
 4135SOL    HW123867   4.466   3.621   8.675 -0.0596  0.7241 -0.2798
 4135SOL    HW223868   4.490   3.566   8.541 -1.8405 -1.9854 -0.6824
 4136SOL     OW23869   1.716   2.697  17.062 -0.2235 -0.1864 -0.2122
 4136SOL    HW123870   1.793   2.642  17.050  0.4748  0.2294  2.1934
 4136SOL    HW223871   1.691   2.716  16.972  2.0079  2.2285 -0.3322
 4137SOL     OW23872   0.037   4.126  14.773  0.2400 -0.6700 -0.0754
 4137SOL    HW123873   0.061   4.087  14.689 -0.3474  1.6748 -1.3197
 4137SOL    HW223874   0.035   4.050  14.831  0.1239 -1.8071 -1.5522
 4138SOL     OW23875   1.499   4.503  11.036  0.4404 -0.0984 -0.6509
 4138SOL    HW123876   1.491   4.570  10.968  1.0712  0.0642 -0.5677
 4138SOL    HW223877   1.439   4.438  10.998  0.0330 -0.3377  0.4144
 4139SOL     OW23878   3.784   2.470   0.414 -0.7415 -0.0551  0.6836
 4139SOL    HW123879   3.724   2.545   0.419  0.0011  0.5944 -0.1189
 4139SOL    HW223880   3.767   2.444   0.324  0.0506 -1.1304  0.8420
 4140SOL     OW23881   0.575   2.488   3.630  0.0160  0.6132  0.0448
 4140SOL    HW123882   0.597   2.513   3.540  1.5197 -0.5634  0.0745
 4140SOL    HW223883   0.539   2.570   3.662 -0.4872  0.1920  0.5376
 4141SOL     OW23884   0.828   4.230  16.579  0.1613 -0.1621 -0.2347
 4141SOL    HW123885   0.831   4.138  16.605  0.7625 -0.2292 -0.5482
 4141SOL    HW223886   0.740   4.241  16.615 -0.0276 -0.0498 -0.7332
 4142SOL     OW23887   2.814   2.766   3.741 -0.2935 -0.4470 -0.1198
 4142SOL    HW123888   2.908   2.760   3.724 -0.1934 -0.0928  0.3047
 4142SOL    HW223889   2.771   2.734   3.662 -0.0802 -1.2847  0.1100
 4143SOL     OW23890   3.495   3.336   5.805 -0.1751 -0.0772  0.9809
 4143SOL    HW123891   3.457   3.252   5.832  1.0341 -0.6447  0.9351
 4143SOL    HW223892   3.463   3.394   5.874  2.0374 -1.6755  3.3663
 4144SOL     OW23893   4.647   4.509   3.323  0.5714 -1.0625 -0.6203
 4144SOL    HW123894   4.630   4.559   3.403  0.7478 -0.2994 -1.0520
 4144SOL    HW223895   0.012   4.537   3.305  0.7216 -0.9203  0.3341
 4145SOL     OW23896   3.206   2.748  15.705  0.4341 -0.0596 -0.0560
 4145SOL    HW123897   3.168   2.674  15.659 -0.1011  0.7834 -0.9632
 4145SOL    HW223898   3.294   2.752  15.666 -0.2217 -2.0186 -1.6885
 4146SOL     OW23899   0.357   3.677   2.756  0.1084 -0.7595 -0.3240
 4146SOL    HW123900   0.391   3.655   2.843  0.9006 -1.7754 -0.8865
 4146SOL    HW223901   0.408   3.754   2.731 -1.2686  0.2644  0.0002
 4147SOL     OW23902   0.283   2.521  14.218 -0.7114  0.0788 -0.2113
 4147SOL    HW123903   0.342   2.594  14.197 -0.1397 -0.3737 -0.1646
 4147SOL    HW223904   0.312   2.462  14.148  0.2943  0.8728 -0.4799
 4148SOL     OW23905   2.914   3.126   4.867 -0.5080 -0.0925 -0.1776
 4148SOL    HW123906   2.956   3.044   4.893 -3.6675 -2.3548 -2.2968
 4148SOL    HW223907   2.824   3.100   4.852 -0.8055  1.2320 -0.7212
 4149SOL     OW23908   1.859   2.725   2.580  0.3168 -0.3334 -0.5348
 4149SOL    HW123909   1.766   2.745   2.592  0.6633  2.3479 -2.3667
 4149SOL    HW223910   1.845   2.658   2.513 -2.3031 -0.3453  0.0155
 4150SOL     OW23911   3.865   0.693   2.343 -0.1188  0.4471  0.1328
 4150SOL    HW123912   3.878   0.599   2.355 -0.1423  0.3285 -0.7296
 4150SOL    HW223913   3.904   0.699   2.256 -1.5979  1.3826 -0.4679
 4151SOL     OW23914   0.208   2.773   1.288  0.9256  0.4406 -0.5319
 4151SOL    HW123915   0.113   2.771   1.297  1.4690 -0.3537  4.8688
 4151SOL    HW223916   0.232   2.866   1.280  1.0849  0.6846  2.7573
 4152SOL     OW23917   0.793   0.649   7.468  0.3457  0.1434 -0.5217
 4152SOL    HW123918   0.881   0.684   7.483  0.2118  1.5332 -2.8799
 4152SOL    HW223919   0.773   0.631   7.559  0.4535  3.5200  0.1815
 4153SOL     OW23920   4.313   1.922   6.827 -0.3289  0.7564 -0.0462
 4153SOL    HW123921   4.258   1.889   6.756  0.5030 -0.6634 -0.0111
 4153SOL    HW223922   4.403   1.910   6.797 -0.9040 -0.6145 -1.2376
 4154SOL     OW23923   1.300   2.389  12.192 -0.0876 -0.6663 -0.1696
 4154SOL    HW123924   1.240   2.463  12.201  1.8158  0.7934  0.4381
 4154SOL    HW223925   1.356   2.402  12.269 -2.0985  2.7530  0.7383
 4155SOL     OW23926   0.536   0.442   6.471 -0.3214 -0.1498 -0.2376
 4155SOL    HW123927   0.552   0.368   6.529 -0.1769  1.7934  2.1978
 4155SOL    HW223928   0.495   0.403   6.394 -0.0367  0.1787 -0.5571
 4156SOL     OW23929   3.077   2.741   7.785  0.7829  0.3438 -0.3550
 4156SOL    HW123930   3.012   2.720   7.852  1.8275  0.4825  0.7061
 4156SOL    HW223931   3.094   2.653   7.753 -2.8339 -0.5512  0.1561
 4157SOL     OW23932   4.031   1.812   4.145 -0.0307  0.0653 -0.3903
 4157SOL    HW123933   4.053   1.875   4.077 -1.0889 -1.2601 -1.9318
 4157SOL    HW223934   3.955   1.835   4.198  1.7256 -0.0945  2.2167
 4158SOL     OW23935   0.346   0.395  12.168  0.0351 -0.2583  0.5517
 4158SOL    HW123936   0.417   0.333  12.177 -0.9547 -1.5769 -0.7582
 4158SOL    HW223937   0.301   0.398  12.252 -0.0816  1.2246  0.4444
 4159SOL     OW23938   1.871   4.137   2.306  0.2802 -0.3416  0.3980
 4159SOL    HW123939   1.790   4.087   2.318  0.4191 -1.1445 -1.8729
 4159SOL    HW223940   1.930   4.069   2.275 -0.5836 -0.1597 -1.6570
 4160SOL     OW23941   0.405   4.260  14.994 -0.6045  0.1158  0.3271
 4160SOL    HW123942   0.322   4.290  15.032 -0.4505 -0.1529  0.8814
 4160SOL    HW223943   0.457   4.263  15.074 -0.4712  1.4927  0.1933
 4161SOL     OW23944   0.179   1.287   5.585 -0.4407 -0.0424 -0.2317
 4161SOL    HW123945   0.120   1.216   5.611  1.2092 -0.5435  2.1180
 4161SOL    HW223946   0.265   1.247   5.586  0.3872  1.7305 -0.8005
 4162SOL     OW23947   3.543   0.121   7.457 -0.1140 -0.7579  0.2940
 4162SOL    HW123948   3.546   0.063   7.533  1.1549 -1.9183 -0.6391
 4162SOL    HW223949   3.522   0.207   7.493 -1.9765  0.0109 -2.6552
 4163SOL     OW23950   0.224   2.101  14.703  0.0149  0.5184  0.2432
 4163SOL    HW123951   0.292   2.043  14.669 -0.5023  0.9469 -1.5139
 4163SOL    HW223952   0.191   2.153  14.630 -0.3824  0.5927  0.4744
 4164SOL     OW23953   1.156   4.164   8.458 -0.6345 -0.2935  0.1787
 4164SOL    HW123954   1.079   4.216   8.436 -0.8123 -1.4196 -1.8832
 4164SOL    HW223955   1.136   4.119   8.540 -0.9917 -0.0404  0.2316
 4165SOL     OW23956   1.420   2.258  13.704 -0.4346  0.4093  0.1502
 4165SOL    HW123957   1.428   2.280  13.797  0.4029 -0.1193  0.2009
 4165SOL    HW223958   1.510   2.260  13.673  0.7069 -0.2110  3.3754
 4166SOL     OW23959   3.669   3.319   2.664  0.5892 -0.1031 -0.5327
 4166SOL    HW123960   3.578   3.322   2.693  0.8573  1.9506  0.0975
 4166SOL    HW223961   3.702   3.385   2.726 -1.1378 -1.3783  1.7563
 4167SOL     OW23962   1.565   2.942   5.237 -0.9869  0.6202  0.0071
 4167SOL    HW123963   1.641   2.992   5.209 -0.5244  0.3795  0.8309
 4167SOL    HW223964   1.546   2.898   5.154 -1.8180  0.1441  0.4521
 4168SOL     OW23965   3.746   3.114  15.056 -0.4161 -0.5692  0.1239
 4168SOL    HW123966   3.656   3.083  15.043 -0.0533 -1.5903  0.0057
 4168SOL    HW223967   3.785   3.058  14.989  0.7489  1.0479 -0.5384
 4169SOL     OW23968   4.664   1.384   7.179 -0.1713  0.8885 -0.4382
 4169SOL    HW123969   4.644   1.471   7.215  1.0061  2.1509 -2.8064
 4169SOL    HW223970   0.030   1.398   7.154  0.1603  1.4194  1.1221
 4170SOL     OW23971   0.558   1.077  12.532 -0.1301  0.2888 -0.0528
 4170SOL    HW123972   0.496   1.149  12.518 -1.7649 -0.8668  1.1739
 4170SOL    HW223973   0.520   1.030  12.607 -4.0034  1.0457 -1.5229
 4171SOL     OW23974   2.171   3.266  11.134  0.0318  0.9118  0.0493
 4171SOL    HW123975   2.120   3.321  11.074  1.5076  1.8823 -0.3005
 4171SOL    HW223976   2.100   3.243  11.195 -0.1514  0.0181 -0.4882
 4172SOL     OW23977   1.200   3.392   3.351  0.6477 -0.1462  0.0491
 4172SOL    HW123978   1.227   3.408   3.441  0.6536  0.5388 -0.0764
 4172SOL    HW223979   1.283   3.372   3.307  1.0316  1.5750 -0.0027
 4173SOL     OW23980   2.539   3.771  12.675  0.0081  0.7127 -0.1644
 4173SOL    HW123981   2.545   3.736  12.764 -0.2036  1.9019  0.3222
 4173SOL    HW223982   2.515   3.862  12.693  1.7607  1.0806  0.2702
 4174SOL     OW23983   1.731   3.034  10.140  0.4495 -0.1679 -0.2767
 4174SOL    HW123984   1.823   3.054  10.125 -0.0763 -0.7642 -4.3306
 4174SOL    HW223985   1.740   2.953  10.190  1.7835  0.1070 -0.0722
 4175SOL     OW23986   2.430   1.783   7.868 -0.5445  0.1192  0.8698
 4175SOL    HW123987   2.475   1.835   7.934  2.6422  0.2126 -1.3997
 4175SOL    HW223988   2.373   1.851   7.832  0.4986  1.6624  2.1539
 4176SOL     OW23989   0.865   4.330   8.846  0.2781  0.3037 -0.4189
 4176SOL    HW123990   0.913   4.381   8.780  1.2109 -0.4064 -0.2852
 4176SOL    HW223991   0.781   4.376   8.838 -1.0989 -2.0697  0.5189
 4177SOL     OW23992   4.619   0.773  10.600 -0.3141 -0.6589 -0.3003
 4177SOL    HW123993   4.565   0.695  10.611 -1.0507 -0.2005 -0.6766
 4177SOL    HW223994   4.594   0.839  10.666 -1.9134 -2.0109  0.4437
 4178SOL     OW23995   2.429   1.156   6.503 -0.3800  0.0646  0.0253
 4178SOL    HW123996   2.448   1.139   6.410 -0.3237 -0.4451  0.1259
 4178SOL    HW223997   2.334   1.157   6.507 -0.3453  1.7415  0.2363
 4179SOL     OW23998   4.266   3.669  15.239  0.1281  0.4142 -0.1472
 4179SOL    HW123999   4.271   3.656  15.334  1.3357  1.6719 -0.0344
 4179SOL    HW224000   4.190   3.612  15.229  0.4927 -0.2756  0.8960
 4180SOL     OW24001   3.945   0.869  13.322 -0.0646 -0.1810 -0.3251
 4180SOL    HW124002   3.996   0.826  13.254  1.8594  2.5505 -0.5728
 4180SOL    HW224003   3.947   0.810  13.398 -0.4937  2.5085  1.7518
 4181SOL     OW24004   1.609   1.243  14.949  0.2094  0.4011  0.2919
 4181SOL    HW124005   1.624   1.148  14.943  1.0114  0.4516  1.5989
 4181SOL    HW224006   1.692   1.281  14.978  0.2182 -0.6730  1.6701
 4182SOL     OW24007   4.525   0.307   1.761  0.4927  0.6443 -0.3513
 4182SOL    HW124008   4.475   0.259   1.828 -0.0070  0.2854 -0.9787
 4182SOL    HW224009   4.466   0.331   1.690  0.0992  1.0539  0.1034
 4183SOL     OW24010   4.624   4.711   3.047 -0.0136  0.2273 -0.3128
 4183SOL    HW124011   4.676   4.631   3.058 -0.5260 -0.1354 -0.5627
 4183SOL    HW224012   4.571   4.691   2.970 -0.9985 -1.6037  0.8241
 4184SOL     OW24013   2.735   4.167   8.763 -0.0224 -0.0400 -0.2010
 4184SOL    HW124014   2.752   4.076   8.786 -0.7875  0.0683  0.8104
 4184SOL    HW224015   2.775   4.214   8.836  1.0757  0.2035 -0.9715
 4185SOL     OW24016   1.117   2.886   1.091 -0.6955 -0.2989  0.0445
 4185SOL    HW124017   1.145   2.797   1.114  1.7814  0.1658 -1.0990
 4185SOL    HW224018   1.103   2.888   0.996  2.4411 -1.1746 -0.4564
 4186SOL     OW24019   2.261   0.976   7.221  0.2688 -0.4199  0.3257
 4186SOL    HW124020   2.332   1.002   7.163  2.4603  0.5200  3.4200
 4186SOL    HW224021   2.185   0.966   7.163  1.2920  0.1668 -1.0930
 4187SOL     OW24022   1.065   2.746   2.364  0.0650 -0.5287 -0.2163
 4187SOL    HW124023   0.973   2.762   2.382  0.5390  0.2702  1.4948
 4187SOL    HW224024   1.066   2.651   2.369  0.2753 -0.7008 -3.4558
 4188SOL     OW24025   0.153   4.374   6.964  0.4595 -0.1959 -0.0411
 4188SOL    HW124026   0.071   4.424   6.967  0.7815  0.2465  1.1385
 4188SOL    HW224027   0.131   4.282   6.948  0.3474  0.3746 -3.2471
 4189SOL     OW24028   2.814   3.610   2.145  0.0570  0.2036  0.5572
 4189SOL    HW124029   2.823   3.683   2.207  0.7343  1.9262 -1.5778
 4189SOL    HW224030   2.748   3.549   2.176  0.5129 -1.4490 -1.7611
 4190SOL     OW24031   0.259   1.574   4.862  0.5584 -0.7268  0.8677
 4190SOL    HW124032   0.221   1.598   4.947 -1.9329 -2.1706  0.1375
 4190SOL    HW224033   0.341   1.623   4.853  0.4616 -0.7665 -0.2376
 4191SOL     OW24034   4.053   0.414   5.004 -0.2727 -0.3050  0.2871
 4191SOL    HW124035   4.133   0.388   5.050 -0.5410 -3.2020 -0.9293
 4191SOL    HW224036   3.985   0.411   5.072  0.5055 -1.6457  1.0152
 4192SOL     OW24037   2.435   3.767   4.778  0.9300 -0.0375 -1.1944
 4192SOL    HW124038   2.511   3.738   4.728  0.4309  0.7002 -2.3687
 4192SOL    HW224039   2.398   3.684   4.810  0.9966 -0.7146 -2.8886
 4193SOL     OW24040   0.848   2.658  16.366  0.1043 -0.6298  0.1742
 4193SOL    HW124041   0.907   2.707  16.423  0.1802  0.4058 -0.7961
 4193SOL    HW224042   0.763   2.696  16.388  1.2264  0.9010  1.9269
 4194SOL     OW24043   4.624   4.600  14.105  0.0922  0.0370 -0.5188
 4194SOL    HW124044   4.547   4.625  14.156  0.5161 -0.4298  0.3405
 4194SOL    HW224045   4.687   4.654  14.152  2.2495 -1.1582 -2.0758
 4195SOL     OW24046   1.780   4.050   8.857 -0.2626  0.3770  0.2260
 4195SOL    HW124047   1.865   4.088   8.834  0.4745 -0.5109  1.4928
 4195SOL    HW224048   1.797   3.993   8.932 -0.0752  2.0889  1.4793
 4196SOL     OW24049   4.345   1.871  13.060 -0.0973  0.5684  0.3874
 4196SOL    HW124050   4.284   1.885  12.988 -1.1809 -3.4909  0.5350
 4196SOL    HW224051   4.297   1.920  13.126 -0.4792 -1.4881  1.6260
 4197SOL     OW24052   3.205   3.809   1.695  0.2255 -0.6999 -0.1413
 4197SOL    HW124053   3.147   3.817   1.771  0.3358 -1.0690 -0.0193
 4197SOL    HW224054   3.244   3.722   1.698 -1.4252 -1.3953  1.1738
 4198SOL     OW24055   1.341   0.716   2.598 -0.0383 -0.5316 -0.0408
 4198SOL    HW124056   1.300   0.695   2.683  0.8688 -0.7889  0.3379
 4198SOL    HW224057   1.290   0.656   2.543  0.6474 -2.0749  0.9801
 4199SOL     OW24058   0.424   3.632   8.716  0.0151  0.1671 -0.0308
 4199SOL    HW124059   0.487   3.651   8.646  0.6978 -0.0936  0.5150
 4199SOL    HW224060   0.441   3.540   8.732 -0.6893 -0.2176 -1.4377
 4200SOL     OW24061   2.258   4.686  15.678  0.4414 -0.1651  0.3279
 4200SOL    HW124062   2.245   4.645  15.763  1.8874 -2.2391 -0.4435
 4200SOL    HW224063   2.310   0.032  15.712 -0.4459  1.2181 -1.1777
 4201SOL     OW24064   0.365   2.048  12.318  0.9180  0.3588  0.7955
 4201SOL    HW124065   0.441   2.021  12.370  1.9565 -0.5648 -1.2077
 4201SOL    HW224066   0.294   1.986  12.335 -0.1541  0.8207 -1.9204
 4202SOL     OW24067   1.849   0.690   2.074 -0.3770 -0.0478  0.1906
 4202SOL    HW124068   1.859   0.683   1.979 -0.0095 -0.5275  0.2662
 4202SOL    HW224069   1.784   0.622   2.090  0.9908 -1.6973 -1.2370
 4203SOL     OW24070   3.314   1.601   5.444 -0.0694 -0.6648 -0.5315
 4203SOL    HW124071   3.363   1.588   5.363 -0.1470 -0.5603 -0.5963
 4203SOL    HW224072   3.388   1.586   5.502 -0.2474  1.6718  0.3093
 4204SOL     OW24073   4.502   2.865  10.244 -0.1797 -0.0559  0.6315
 4204SOL    HW124074   4.595   2.884  10.251  0.0300 -1.2274  1.0816
 4204SOL    HW224075   4.506   2.818  10.161 -0.4227  2.1072 -0.6103
 4205SOL     OW24076   4.117   2.736   1.112  0.6010  0.3874  0.4519
 4205SOL    HW124077   4.181   2.807   1.114  1.0483 -0.0815  2.9373
 4205SOL    HW224078   4.033   2.780   1.126  0.8786  0.7731  0.9088
 4206SOL     OW24079   2.987   4.652   0.708  0.3313 -0.4297 -0.2764
 4206SOL    HW124080   2.965   4.583   0.646 -1.6071 -0.8375  0.8324
 4206SOL    HW224081   3.082   4.659   0.708  0.1840  1.7078  3.3552
 4207SOL     OW24082   0.287   0.004  11.207 -0.3537 -0.3231 -0.0717
 4207SOL    HW124083   0.381   0.008  11.195 -0.4269 -0.6202 -0.6938
 4207SOL    HW224084   0.275   0.099  11.212 -1.8703 -0.5473  0.6933
 4208SOL     OW24085   1.602   0.186  15.530 -0.1730  0.1453  0.5837
 4208SOL    HW124086   1.535   0.244  15.567 -0.8029 -0.3047  0.1442
 4208SOL    HW224087   1.559   0.159  15.450  2.7589 -0.7667 -0.6893
 4209SOL     OW24088   2.068   1.968  10.064  0.1046 -0.3173  0.7444
 4209SOL    HW124089   2.156   1.938  10.043 -0.4439 -2.2674  1.2325
 4209SOL    HW224090   2.080   2.062  10.053 -1.7042  0.0110  1.4666
 4210SOL     OW24091   2.514   0.415  13.817  0.2465 -0.0030 -0.4889
 4210SOL    HW124092   2.559   0.334  13.839 -2.7844 -1.6884 -0.4682
 4210SOL    HW224093   2.552   0.465  13.889  0.9529 -2.0921  0.5834
 4211SOL     OW24094   1.528   0.819   5.473  0.4955 -0.4016  0.4485
 4211SOL    HW124095   1.483   0.903   5.462 -0.6393 -0.9817  0.7797
 4211SOL    HW224096   1.505   0.759   5.402 -1.1550 -1.4756  1.8976
 4212SOL     OW24097   2.381   0.401   8.687  0.2479 -0.7529 -0.0954
 4212SOL    HW124098   2.411   0.357   8.766  3.3283 -1.9996 -1.9728
 4212SOL    HW224099   2.464   0.421   8.644 -0.2366  0.1318 -0.6177
 4213SOL     OW24100   3.336   1.119  17.002  0.0020  0.3857 -0.4151
 4213SOL    HW124101   3.333   1.122  16.906  0.6552 -0.4364 -0.4674
 4213SOL    HW224102   3.245   1.109  17.027 -0.1793  0.6460 -0.9666
 4214SOL     OW24103   3.990   4.482   8.890 -0.5754  0.2361  0.0473
 4214SOL    HW124104   4.053   4.554   8.885 -0.1292 -0.1123  0.8407
 4214SOL    HW224105   4.033   4.415   8.838  0.9522  1.9658 -0.9401
 4215SOL     OW24106   1.261   2.849  17.485  1.1556 -0.2792 -0.2585
 4215SOL    HW124107   1.234   2.844  17.394 -0.8168  0.6493  0.2748
 4215SOL    HW224108   1.311   2.931  17.480 -0.2482  0.5780 -0.2443
 4216SOL     OW24109   2.831   0.667   8.002 -0.1136 -0.3728 -0.9708
 4216SOL    HW124110   2.830   0.597   7.937  0.0822 -0.1436 -1.2187
 4216SOL    HW224111   2.755   0.719   7.976  0.4274  0.7952 -0.2151
 4217SOL     OW24112   0.292   2.946   9.182 -0.4158  0.2307 -0.4723
 4217SOL    HW124113   0.244   2.994   9.115  2.0237 -0.1724 -2.5022
 4217SOL    HW224114   0.297   2.860   9.142  1.3936  1.0040 -1.8906
 4218SOL     OW24115   3.142   2.164  15.472  0.1024  0.2317  0.3065
 4218SOL    HW124116   3.206   2.100  15.440  0.0342 -0.1954  1.0244
 4218SOL    HW224117   3.136   2.231  15.405 -1.5447 -0.8622 -0.6277
 4219SOL     OW24118   1.567   2.898   0.149 -0.3520  0.0066  0.2050
 4219SOL    HW124119   1.477   2.866   0.144 -0.4866  0.4609 -0.2500
 4219SOL    HW224120   1.587   2.893   0.055 -0.0995  0.2763  0.2460
 4220SOL     OW24121   4.201   4.600   8.689  0.3198  0.1193 -0.2636
 4220SOL    HW124122   4.252   4.681   8.699  1.4303 -0.2751 -2.6068
 4220SOL    HW224123   4.267   4.543   8.648  0.7456 -1.4839  2.7075
 4221SOL     OW24124   4.327   2.234   4.768  0.0789  0.6733 -0.3732
 4221SOL    HW124125   4.250   2.214   4.714  0.2431  2.4861 -1.2658
 4221SOL    HW224126   4.364   2.307   4.719  1.2400  0.5837  0.3636
 4222SOL     OW24127   0.661   1.545  12.100  0.4240  0.3138 -0.0780
 4222SOL    HW124128   0.716   1.466  12.106  0.4126  0.3233  0.1778
 4222SOL    HW224129   0.663   1.567  12.007 -1.3381  0.0163 -0.1827
 4223SOL     OW24130   3.971   4.143   9.847  0.3194  0.6036  0.6526
 4223SOL    HW124131   3.973   4.047   9.852 -1.1045  0.4373 -1.9177
 4223SOL    HW224132   3.880   4.169   9.839  0.1141  0.3956  2.3567
 4224SOL     OW24133   1.750   0.832  10.208  0.6398 -0.0751  0.3118
 4224SOL    HW124134   1.833   0.813  10.164  1.3887  1.3063  1.1353
 4224SOL    HW224135   1.780   0.891  10.277 -0.8724  0.9305  0.0926
 4225SOL     OW24136   3.495   3.834   7.110 -0.1401  0.0743 -0.3194
 4225SOL    HW124137   3.581   3.873   7.125  0.3310 -0.6947 -0.9730
 4225SOL    HW224138   3.456   3.848   7.196  1.7135 -0.0494  0.5211
 4226SOL     OW24139   3.918   3.332   8.704  0.0072 -0.1612  0.6112
 4226SOL    HW124140   3.876   3.285   8.632  0.7163  1.6495 -0.9959
 4226SOL    HW224141   3.855   3.300   8.768  0.4378 -0.7825  0.7238
 4227SOL     OW24142   1.816   0.144   2.172 -0.3214  0.3177  0.0610
 4227SOL    HW124143   1.887   0.111   2.117 -1.7925 -3.8514  0.6476
 4227SOL    HW224144   1.742   0.087   2.150 -0.7133  0.7867  0.1760
 4228SOL     OW24145   1.906   4.718   8.070  0.1828  0.1487 -0.2044
 4228SOL    HW124146   1.924   4.695   7.979 -0.0403 -1.4450  0.1440
 4228SOL    HW224147   1.954   4.654   8.124 -0.2100 -1.0907 -1.3401
 4229SOL     OW24148   3.930   3.552   5.854  0.2898 -0.0704  0.3544
 4229SOL    HW124149   3.917   3.531   5.762  0.1728  1.3471  0.0626
 4229SOL    HW224150   3.967   3.468   5.881 -0.3005 -0.0405  1.2616
 4230SOL     OW24151   2.878   0.054  15.579  0.0581  0.3118  0.1146
 4230SOL    HW124152   2.893   0.142  15.614 -3.0001  1.4998 -1.5976
 4230SOL    HW224153   2.920   0.065  15.494 -1.8719  0.9647 -0.7531
 4231SOL     OW24154   4.563   4.229   8.396 -0.0557  0.6519  0.5571
 4231SOL    HW124155   4.494   4.265   8.341 -1.1823  0.7773  2.0562
 4231SOL    HW224156   4.638   4.283   8.373 -0.3210  1.1837  0.9350
 4232SOL     OW24157   0.327   0.628   8.764 -0.2843 -0.0368 -0.3606
 4232SOL    HW124158   0.306   0.584   8.682 -0.9190 -1.7219  0.6956
 4232SOL    HW224159   0.412   0.587   8.780  0.1364  1.7381  1.9764
 4233SOL     OW24160   2.870   0.627  14.497 -0.0518  0.4614 -0.1785
 4233SOL    HW124161   2.850   0.646  14.589 -2.7407 -1.1031 -0.4428
 4233SOL    HW224162   2.953   0.674  14.490  0.9947 -1.4135 -0.2964
 4234SOL     OW24163   1.110   3.503  12.599 -0.2072 -0.2805  0.1734
 4234SOL    HW124164   1.196   3.483  12.561 -1.0056 -0.6509 -1.4269
 4234SOL    HW224165   1.121   3.486  12.692 -2.3351 -0.4708  0.3827
 4235SOL     OW24166   2.623   2.135   2.024 -0.7109  0.2179 -0.1487
 4235SOL    HW124167   2.651   2.136   1.933 -0.9326  0.6823 -0.2113
 4235SOL    HW224168   2.632   2.044   2.053 -1.6944  0.5999  1.3511
 4236SOL     OW24169   2.181   1.443   6.412  1.0101  0.1419 -0.6001
 4236SOL    HW124170   2.225   1.528   6.416  2.3048 -0.5822  0.5360
 4236SOL    HW224171   2.115   1.449   6.481  0.9022 -1.0999 -0.5956
 4237SOL     OW24172   4.496   3.719   8.200  0.0403 -0.2071 -0.3232
 4237SOL    HW124173   4.563   3.773   8.242 -0.9612  0.7486  0.0479
 4237SOL    HW224174   4.517   3.627   8.217 -1.0662 -0.5436 -0.8446
 4238SOL     OW24175   3.339   0.969  12.715  0.3076 -0.0333  0.0097
 4238SOL    HW124176   3.281   0.925  12.653 -0.2472 -0.1547  0.6099
 4238SOL    HW224177   3.369   0.887  12.755  0.0879  0.5400  1.3614
 4239SOL     OW24178   4.509   2.398   8.938 -0.4056 -0.1325 -0.2072
 4239SOL    HW124179   4.602   2.400   8.916 -0.8003  1.6772 -1.6986
 4239SOL    HW224180   4.479   2.463   8.874 -1.0681  1.5384  1.7678
 4240SOL     OW24181   3.311   0.188   9.278  0.2755 -0.1306 -0.0595
 4240SOL    HW124182   3.383   0.201   9.340  1.3998  0.9466 -1.5804
 4240SOL    HW224183   3.251   0.129   9.322 -0.3220 -1.3886 -2.5254
 4241SOL     OW24184   2.688   4.129   9.331 -0.0748 -0.5653  0.2278
 4241SOL    HW124185   2.626   4.057   9.340 -0.7836  0.0167 -0.0034
 4241SOL    HW224186   2.740   4.121   9.411 -1.9495  0.0389  1.5065
 4242SOL     OW24187   0.929   2.918  10.867 -0.1663  0.5357 -0.2537
 4242SOL    HW124188   0.933   3.013  10.868 -1.6959  0.6072 -0.3295
 4242SOL    HW224189   0.915   2.899  10.960  2.8531  2.3815  0.5471
 4243SOL     OW24190   4.363   4.668  17.591 -0.9819 -0.3262  0.0823
 4243SOL    HW124191   4.376   4.630  17.678  2.1234  0.5982  0.0519
 4243SOL    HW224192   4.373   4.583  17.548  0.2643 -0.2496  0.1963
 4244SOL     OW24193   1.045   4.030   6.372 -0.5489  0.2441 -0.5179
 4244SOL    HW124194   1.139   4.043   6.385 -0.8431  1.1169  0.7587
 4244SOL    HW224195   1.020   3.964   6.437  2.4322 -1.0826 -0.6832
 4245SOL     OW24196   1.373   4.456   7.886  0.0245 -0.2066  0.3726
 4245SOL    HW124197   1.463   4.446   7.855  0.4248 -0.4047  1.6191
 4245SOL    HW224198   1.361   4.547   7.912 -0.3089 -0.1151 -0.0892
 4246SOL     OW24199   1.468   1.000   2.164  0.3239  0.1039 -0.4551
 4246SOL    HW124200   1.407   0.952   2.220 -0.2907  1.5269  0.0923
 4246SOL    HW224201   1.432   0.973   2.080 -1.7991  1.6275 -0.0363
 4247SOL     OW24202   0.054   0.281   6.998 -0.3436 -0.4842 -0.4343
 4247SOL    HW124203   0.132   0.333   7.018  0.1189 -1.7196  0.9189
 4247SOL    HW224204   0.097   0.209   6.952 -0.1007 -1.1120  0.7739
 4248SOL     OW24205   1.608   0.769  16.483  0.1306  0.5019 -0.1691
 4248SOL    HW124206   1.553   0.771  16.561  0.7924 -2.0934  0.3536
 4248SOL    HW224207   1.645   0.681  16.479 -0.7782 -0.0529  3.7672
 4249SOL     OW24208   3.665   0.196   4.442  0.0812 -0.7057 -0.0848
 4249SOL    HW124209   3.586   0.218   4.392  2.5371 -0.1475 -3.7496
 4249SOL    HW224210   3.640   0.218   4.532  2.7699 -0.8031  0.6773
 4250SOL     OW24211   4.357   4.058   6.694 -0.2385  0.1335  0.0801
 4250SOL    HW124212   4.282   4.116   6.678 -1.6980 -1.6034  0.6323
 4250SOL    HW224213   4.386   4.029   6.608  1.6808 -0.0266  0.7985
 4251SOL     OW24214   4.327   1.517   6.634  0.2864  0.0915 -0.2130
 4251SOL    HW124215   4.372   1.535   6.552 -1.0264 -0.1462 -0.9908
 4251SOL    HW224216   4.400   1.508   6.695  0.4563  2.7284 -0.0322
 4252SOL     OW24217   1.717   0.170  10.741 -0.3178 -0.4127  0.6536
 4252SOL    HW124218   1.715   0.226  10.819  0.6649  0.7883 -0.1900
 4252SOL    HW224219   1.805   0.195  10.712 -1.4452  1.0276 -1.4502
 4253SOL     OW24220   3.533   1.258  17.421 -0.1025  0.3511 -0.5842
 4253SOL    HW124221   3.580   1.332  17.459 -1.2275  0.7694 -0.0061
 4253SOL    HW224222   3.599   1.189  17.420  0.1166  0.5599 -0.4723
 4254SOL     OW24223   2.932   1.017   2.302  0.2445  0.5256  0.4025
 4254SOL    HW124224   2.874   1.084   2.337 -0.2023  0.7519 -0.7896
 4254SOL    HW224225   2.876   0.939   2.309  0.3415  0.2461 -1.8763
 4255SOL     OW24226   3.996   0.122  10.672 -0.1480 -0.3431 -0.0026
 4255SOL    HW124227   3.987   0.065  10.748 -2.0192 -0.1224 -0.0533
 4255SOL    HW224228   3.996   0.202  10.724  2.1298  0.3016 -0.9691
 4256SOL     OW24229   0.480   2.629   8.174  0.6158  0.4567  0.4778
 4256SOL    HW124230   0.503   2.536   8.173 -2.5341 -0.3665  1.5782
 4256SOL    HW224231   0.564   2.665   8.146 -0.7137  1.7192 -1.9104
 4257SOL     OW24232   4.684   2.991   6.499 -0.1935  0.3100  0.2435
 4257SOL    HW124233   0.029   3.015   6.559 -0.8475 -0.6490  1.3920
 4257SOL    HW224234   4.610   3.001   6.559 -0.9023  0.3113 -0.6218
 4258SOL     OW24235   1.214   2.742   8.739 -0.1820 -0.0048  0.2366
 4258SOL    HW124236   1.309   2.753   8.745 -0.2548  0.7176  0.1063
 4258SOL    HW224237   1.214   2.652   8.709  0.3730 -0.2359  0.9407
 4259SOL     OW24238   0.476   4.226   7.382 -0.5044 -0.2020  0.1392
 4259SOL    HW124239   0.540   4.167   7.342 -0.1326  0.8652 -0.8405
 4259SOL    HW224240   0.419   4.250   7.309 -0.0898 -0.6352 -0.3297
 4260SOL     OW24241   1.733   3.066   0.261  0.1013 -0.6309  0.1782
 4260SOL    HW124242   1.744   3.021   0.344 -0.1466  1.4535  1.3483
 4260SOL    HW224243   1.673   3.007   0.216 -0.6150  1.4778 -1.6479
 4261SOL     OW24244   4.704   3.471   6.402  0.5268  0.1558  0.3873
 4261SOL    HW124245   0.052   3.417   6.371  1.1212  0.9345  0.4321
 4261SOL    HW224246   4.660   3.412   6.462 -0.5763  0.2130 -0.3740
 4262SOL     OW24247   1.147   3.737   4.611 -0.2025 -0.0742 -0.3729
 4262SOL    HW124248   1.057   3.704   4.617  0.1098 -0.4987  1.8198
 4262SOL    HW224249   1.134   3.826   4.578  0.1145 -0.2092 -0.8737
 4263SOL     OW24250   2.974   4.323   9.679 -0.6739 -0.4573  0.1193
 4263SOL    HW124251   3.039   4.394   9.678 -1.0649 -0.0982 -0.0098
 4263SOL    HW224252   2.965   4.295   9.588 -2.8803  1.9939 -0.4129
 4264SOL     OW24253   3.115   0.278  11.869  0.0027 -0.1409  0.2163
 4264SOL    HW124254   3.090   0.370  11.863  0.4532 -0.1638 -1.9852
 4264SOL    HW224255   3.188   0.282  11.808 -1.2017  0.8599 -1.1454
 4265SOL     OW24256   2.373   2.467   2.282  0.1301  0.6478  0.1270
 4265SOL    HW124257   2.434   2.522   2.233  1.8891 -1.5625 -0.1520
 4265SOL    HW224258   2.425   2.386   2.282 -1.3767 -0.3153  0.5145
 4266SOL     OW24259   4.158   0.015   5.520  0.1884 -0.3174  0.0714
 4266SOL    HW124260   4.093   0.052   5.579  2.9077  3.7170  0.5853
 4266SOL    HW224261   4.233   0.039   5.576  0.1209  0.6267 -0.2458
 4267SOL     OW24262   2.310   1.662   5.132 -0.4185  0.4144 -0.2309
 4267SOL    HW124263   2.276   1.670   5.043 -1.3214  1.0651  0.1618
 4267SOL    HW224264   2.377   1.730   5.144 -0.6281  0.4037  1.0641
 4268SOL     OW24265   1.145   4.524   5.114 -0.0665  0.3826 -1.1204
 4268SOL    HW124266   1.093   4.583   5.060  0.3204  1.5260 -0.2411
 4268SOL    HW224267   1.098   4.442   5.103 -0.9184  0.5905  1.0197
 4269SOL     OW24268   2.759   3.486   4.312 -0.0983  0.1319 -0.3044
 4269SOL    HW124269   2.833   3.426   4.310  0.4933  0.7704  2.6471
 4269SOL    HW224270   2.770   3.544   4.236  0.1896 -1.2451 -1.3155
 4270SOL     OW24271   2.132   0.046   9.227  0.2917 -0.0498  0.0969
 4270SOL    HW124272   2.095   0.114   9.283 -0.5657  1.4164 -2.2868
 4270SOL    HW224273   2.064   4.704   9.235  0.7327 -0.6428 -1.1000
 4271SOL     OW24274   1.608   3.022   3.213  0.2409 -0.1265  0.5462
 4271SOL    HW124275   1.598   3.026   3.118  2.4862  1.5198  0.3549
 4271SOL    HW224276   1.548   3.091   3.240 -0.1532 -0.0446 -0.5524
 4272SOL     OW24277   0.958   2.343   3.128 -0.0551  0.1190  0.0600
 4272SOL    HW124278   0.969   2.404   3.201 -1.0711 -0.8178  0.9992
 4272SOL    HW224279   0.903   2.401   3.074 -0.1414  1.1575  1.2764
 4273SOL     OW24280   1.118   0.423   8.541 -0.0933 -0.0794 -0.2581
 4273SOL    HW124281   1.035   0.386   8.512 -0.0784 -0.7085  0.4873
 4273SOL    HW224282   1.099   0.447   8.632  0.9693  2.2733 -0.6597
 4274SOL     OW24283   3.549   0.380   0.292 -0.0264 -0.8259  0.4798
 4274SOL    HW124284   3.603   0.444   0.246 -0.3139 -0.8183  0.1485
 4274SOL    HW224285   3.608   0.320   0.337  1.6043  2.5001  2.7999
 4275SOL     OW24286   3.722   0.226  16.451 -0.5206  0.3617 -0.9183
 4275SOL    HW124287   3.720   0.137  16.415  0.1631  0.2374 -0.6604
 4275SOL    HW224288   3.814   0.251  16.440 -0.7110  1.8522  0.7929
 4276SOL     OW24289   1.707   2.299   4.749  0.1110  0.2097  0.2923
 4276SOL    HW124290   1.786   2.342   4.782  1.1531  0.5562 -2.5901
 4276SOL    HW224291   1.705   2.214   4.792  0.4746  0.5100  0.8953
 4277SOL     OW24292   2.584   2.541   7.777  0.2807  0.4683 -0.2039
 4277SOL    HW124293   2.489   2.545   7.780  0.3857  1.4042  1.4796
 4277SOL    HW224294   2.597   2.468   7.838 -1.4933 -0.1220 -0.5469
 4278SOL     OW24295   1.293   3.704   9.600 -0.0337 -0.4371 -0.5139
 4278SOL    HW124296   1.352   3.771   9.635 -0.5042  0.5247 -1.5609
 4278SOL    HW224297   1.337   3.624   9.630 -0.5474 -0.7968 -0.7272
 4279SOL     OW24298   3.070   0.306   2.773  0.1701 -0.0829 -0.5081
 4279SOL    HW124299   2.987   0.350   2.789  0.4332  0.0762  0.4092
 4279SOL    HW224300   3.130   0.363   2.821  0.6361 -0.7752 -0.2765
 4280SOL     OW24301   0.574   2.476   9.223  0.0030  0.5364  0.7450
 4280SOL    HW124302   0.655   2.440   9.261  0.2339  1.1429  0.8288
 4280SOL    HW224303   0.549   2.400   9.170 -1.4318  1.8518 -0.4407
 4281SOL     OW24304   0.201   3.273   9.076  0.0074  0.4027  0.2535
 4281SOL    HW124305   0.252   3.306   9.149  2.6736 -2.2060 -0.4361
 4281SOL    HW224306   0.157   3.353   9.046  2.0045  0.7115 -1.8554
 4282SOL     OW24307   4.485   2.169   5.015  0.1576  0.5112 -0.1245
 4282SOL    HW124308   4.397   2.140   5.041  0.2998  1.3690  1.3310
 4282SOL    HW224309   4.477   2.196   4.924 -0.3458  1.7895  0.3011
 4283SOL     OW24310   1.634   0.087   4.480  0.1962 -0.3126 -0.5207
 4283SOL    HW124311   1.579   0.018   4.517 -1.2689  0.9673 -0.2822
 4283SOL    HW224312   1.622   0.077   4.386  1.9025 -0.8122 -0.6856
 4284SOL     OW24313   2.738   1.538  10.891  0.2886  0.1669  0.0683
 4284SOL    HW124314   2.708   1.585  10.813  0.8045 -0.1914 -0.3450
 4284SOL    HW224315   2.678   1.559  10.963  1.1315 -0.7413  1.0389
 4285SOL     OW24316   4.269   2.039   1.270  0.2230  0.1532  0.4270
 4285SOL    HW124317   4.212   2.080   1.206 -0.2337  2.4560  2.3158
 4285SOL    HW224318   4.239   2.083   1.349 -0.5940 -0.7990  0.6573
 4286SOL     OW24319   1.767   0.572   6.724  0.1871 -0.5077  0.3048
 4286SOL    HW124320   1.798   0.614   6.644 -1.0836 -1.4283 -0.6674
 4286SOL    HW224321   1.674   0.556   6.708  0.5556  0.5172 -2.9343
 4287SOL     OW24322   2.455   0.913   5.524 -0.3029 -0.2166 -0.0864
 4287SOL    HW124323   2.480   0.850   5.456 -0.3298 -0.3770  0.0534
 4287SOL    HW224324   2.534   0.901   5.577 -1.3751  0.9347  1.7698
 4288SOL     OW24325   3.692   2.751   4.514 -0.4779  0.3747 -0.0427
 4288SOL    HW124326   3.739   2.706   4.585 -2.1749  0.7100  1.2841
 4288SOL    HW224327   3.669   2.834   4.555 -1.3207  0.2295 -0.2254
 4289SOL     OW24328   4.476   2.506  12.012 -0.2051 -0.0072 -0.2730
 4289SOL    HW124329   4.533   2.466  11.946 -0.7065 -0.9748 -0.1133
 4289SOL    HW224330   4.393   2.512  11.964 -0.4251  0.7422  0.2041
 4290SOL     OW24331   1.757   3.846  17.067 -0.4103 -0.3923  0.7727
 4290SOL    HW124332   1.675   3.810  17.099 -0.5786 -0.7795 -0.0929
 4290SOL    HW224333   1.761   3.916  17.133  1.7741  1.7112 -1.5799
 4291SOL     OW24334   3.526   1.437   4.944  0.7718  0.0697  0.0534
 4291SOL    HW124335   3.593   1.420   4.878  1.3926  1.1128  0.4161
 4291SOL    HW224336   3.504   1.347   4.967  1.9145  0.1149  1.3162
 4292SOL     OW24337   4.427   2.878   3.827  0.2173 -0.4149  0.2867
 4292SOL    HW124338   4.450   2.944   3.762  0.7663 -1.8512 -0.9719
 4292SOL    HW224339   4.332   2.871   3.821  0.3332  1.8592 -3.8854
 4293SOL     OW24340   1.796   3.383   4.333 -0.0669  0.0584 -0.2188
 4293SOL    HW124341   1.724   3.441   4.308  1.3448  0.2181 -3.9128
 4293SOL    HW224342   1.800   3.335   4.251 -3.1307 -1.8947  0.7552
 4294SOL     OW24343   2.497   3.076   7.327 -0.8018  0.3251 -0.4618
 4294SOL    HW124344   2.484   3.113   7.240 -1.9925  0.3355 -0.2768
 4294SOL    HW224345   2.418   3.022   7.331 -2.0053  2.0808 -0.1819
 4295SOL     OW24346   4.608   3.735   7.697 -0.3417  0.1964 -0.1521
 4295SOL    HW124347   4.662   3.767   7.625 -1.0337 -1.3217 -1.3631
 4295SOL    HW224348   4.629   3.642   7.710  0.3069  0.4689  0.7060
 4296SOL     OW24349   4.032   0.477  17.610  0.1356 -0.2182 -0.0294
 4296SOL    HW124350   3.974   0.530  17.665  0.1276 -0.8267  0.5492
 4296SOL    HW224351   4.019   0.510  17.522 -1.0250  0.8691  0.5500
 4297SOL     OW24352   0.815   3.763  14.872 -0.1748  0.4043  0.2962
 4297SOL    HW124353   0.739   3.793  14.922 -0.7934  1.2521 -1.1281
 4297SOL    HW224354   0.777   3.682  14.838 -0.5232 -0.5920  3.0393
 4298SOL     OW24355   1.591   3.418   9.373  0.8887 -0.4649 -0.5443
 4298SOL    HW124356   1.551   3.331   9.377 -0.3463  0.2575  2.2952
 4298SOL    HW224357   1.538   3.461   9.306 -0.3143 -0.3294  0.4972
 4299SOL     OW24358   0.237   3.649   6.375 -0.0513 -0.6354 -0.0040
 4299SOL    HW124359   0.149   3.623   6.400 -0.5363 -1.0917 -2.2416
 4299SOL    HW224360   0.213   3.741   6.366 -1.3941 -1.0564 -0.6366
 4300SOL     OW24361   4.635   3.857   6.572 -0.2546  0.2313 -0.0089
 4300SOL    HW124362   0.001   3.885   6.572  0.0924 -0.9358 -1.8645
 4300SOL    HW224363   4.640   3.766   6.599 -0.5072  0.0626 -0.5177
 4301SOL     OW24364   0.706   2.126   6.602 -0.1088 -0.5116 -0.3558
 4301SOL    HW124365   0.635   2.086   6.652  0.1699  0.5133  0.8672
 4301SOL    HW224366   0.762   2.160   6.672 -0.7771 -2.2183  1.0273
 4302SOL     OW24367   4.665   3.607  16.307  0.3858 -0.3871 -0.2580
 4302SOL    HW124368   0.016   3.658  16.334  0.5955 -1.6932  1.6195
 4302SOL    HW224369   4.690   3.517  16.329  1.0145 -0.3690 -0.8903
 4303SOL     OW24370   0.282   1.986   7.221 -0.2640 -1.0994 -0.0545
 4303SOL    HW124371   0.211   2.025   7.169  0.1761  0.6712  0.6725
 4303SOL    HW224372   0.260   2.015   7.310  0.1427  3.3955 -1.4177
 4304SOL     OW24373   0.175   2.983   3.652  0.7937 -0.4172  0.1333
 4304SOL    HW124374   0.186   2.922   3.579  1.6062 -2.3629  1.8753
 4304SOL    HW224375   0.091   3.026   3.633  0.0955 -0.7123  2.5560
 4305SOL     OW24376   0.967   1.694  14.314  0.1867  0.2978  0.2441
 4305SOL    HW124377   0.883   1.647  14.317  0.5975 -0.2828  2.4689
 4305SOL    HW224378   0.953   1.748  14.391  0.4970  2.5787 -1.3087
 4306SOL     OW24379   2.381   3.503   7.880 -0.2963  0.7448 -1.0798
 4306SOL    HW124380   2.450   3.492   7.945  1.0772  1.0650 -2.4968
 4306SOL    HW224381   2.306   3.453   7.913  1.3084 -2.5246 -2.2987
 4307SOL     OW24382   2.310   0.565   3.177  0.1998  0.7536 -0.0518
 4307SOL    HW124383   2.301   0.658   3.153  0.6906  0.3440 -1.8280
 4307SOL    HW224384   2.256   0.524   3.109 -0.0715 -0.7834  1.1048
 4308SOL     OW24385   3.147   3.674  13.034  0.2917  0.3616  0.1903
 4308SOL    HW124386   3.216   3.626  13.079  1.9712  1.1395 -1.5362
 4308SOL    HW224387   3.172   3.675  12.941 -2.2812 -0.2318 -0.5050
 4309SOL     OW24388   3.289   3.848  16.616 -0.3735  0.0084  0.4956
 4309SOL    HW124389   3.199   3.816  16.614 -0.3255 -0.2652  2.8642
 4309SOL    HW224390   3.318   3.786  16.683 -0.9770 -1.0701 -0.2432
 4310SOL     OW24391   1.716   0.696   6.187 -0.0685 -0.2582  0.2703
 4310SOL    HW124392   1.800   0.707   6.141  0.3522 -2.4963  0.5069
 4310SOL    HW224393   1.735   0.759   6.257 -0.0517 -0.5715  0.5486
 4311SOL     OW24394   4.503   2.000   7.258 -0.2941 -0.4058 -0.1623
 4311SOL    HW124395   4.564   1.996   7.331  0.6521 -2.7972 -1.0954
 4311SOL    HW224396   4.560   2.045   7.196 -2.3029  0.4478 -1.3829
 4312SOL     OW24397   1.570   1.313   4.881  0.0487 -0.0786 -0.4948
 4312SOL    HW124398   1.661   1.343   4.876  0.8674 -2.3621  0.5309
 4312SOL    HW224399   1.522   1.393   4.858  1.5828  0.7282 -0.8985
 4313SOL     OW24400   1.955   2.766   0.248 -0.2671 -0.2794 -0.4182
 4313SOL    HW124401   1.936   2.677   0.220 -0.4481 -0.3173 -0.1653
 4313SOL    HW224402   2.037   2.756   0.298  0.4521  0.0350 -1.5263
 4314SOL     OW24403   0.976   0.983   5.928  0.0931 -0.4116 -0.0424
 4314SOL    HW124404   0.960   0.890   5.915 -0.3393 -0.4578  0.8162
 4314SOL    HW224405   0.996   0.990   6.022 -0.3336  1.0599 -0.0636
 4315SOL     OW24406   4.055   0.059   3.765  0.9817  0.4461  0.6461
 4315SOL    HW124407   3.967   0.063   3.803  0.7732 -0.7087  0.2783
 4315SOL    HW224408   4.033   0.014   3.684 -0.7356  0.4302  1.1156
 4316SOL     OW24409   1.404   2.804  12.336 -0.1722  0.3112  0.1929
 4316SOL    HW124410   1.435   2.883  12.291 -0.4560 -0.3859 -1.2437
 4316SOL    HW224411   1.480   2.784  12.390 -0.4259  0.7775  0.7177
 4317SOL     OW24412   0.622   0.869   3.251  0.7636  0.1842 -0.0838
 4317SOL    HW124413   0.626   0.933   3.322  0.5986 -0.3050  0.3713
 4317SOL    HW224414   0.557   0.907   3.191  1.9628 -0.2444 -1.6379
 4318SOL     OW24415   3.891   4.609   8.280  0.2284 -0.0607  0.2265
 4318SOL    HW124416   3.959   4.542   8.273  0.6487  0.4112 -0.1519
 4318SOL    HW224417   3.877   4.668   8.206  1.1265 -0.5212 -0.3081
 4319SOL     OW24418   2.600   3.155   4.143 -0.3999 -0.0917  0.2333
 4319SOL    HW124419   2.545   3.223   4.182  2.0693  2.1631 -0.1596
 4319SOL    HW224420   2.625   3.204   4.065  0.0311 -1.1515 -0.2947
 4320SOL     OW24421   4.721   4.517  15.259  0.6784 -0.4715 -0.4560
 4320SOL    HW124422   0.089   4.496  15.253  0.9765  1.3465 -2.4058
 4320SOL    HW224423   4.708   4.557  15.173  1.2229  1.0170  0.1489
 4321SOL     OW24424   0.450   1.763  13.889  0.2666  0.3525  0.0312
 4321SOL    HW124425   0.498   1.713  13.822 -1.7609 -0.3749 -0.8818
 4321SOL    HW224426   0.358   1.739  13.879 -0.9042  4.1488  1.7235
 4322SOL     OW24427   1.045   4.605   7.735  0.5206 -0.1911 -0.5395
 4322SOL    HW124428   1.073   4.636   7.821 -1.4787  0.7119 -0.2092
 4322SOL    HW224429   1.102   4.530   7.717  2.3209  0.8581  0.8119
 4323SOL     OW24430   4.312   3.577   4.976 -0.4964 -0.1490 -0.1427
 4323SOL    HW124431   4.365   3.635   5.030 -2.7947  0.2057  1.7130
 4323SOL    HW224432   4.261   3.525   5.038 -0.1380  0.8045  0.9488
 4324SOL     OW24433   1.178   3.262   0.950  0.1116 -0.2635  0.3283
 4324SOL    HW124434   1.114   3.199   0.918  2.0917 -2.1043 -0.0131
 4324SOL    HW224435   1.164   3.340   0.896 -1.3833 -0.7752 -0.0257
 4325SOL     OW24436   2.619   0.403  13.117 -0.0343 -0.0887 -0.5741
 4325SOL    HW124437   2.646   0.348  13.043 -0.4290 -0.3751 -0.5028
 4325SOL    HW224438   2.692   0.398  13.178 -1.1583 -0.2544  0.7410
 4326SOL     OW24439   2.765   0.814  11.710 -0.0784  0.4720 -0.2703
 4326SOL    HW124440   2.674   0.787  11.693  0.6274 -1.8696 -0.4220
 4326SOL    HW224441   2.787   0.834  11.620  1.4828 -1.1036 -0.2351
 4327SOL     OW24442   4.393   3.530   3.032  0.4718  0.1768  0.0843
 4327SOL    HW124443   4.451   3.529   2.956 -1.5843 -0.2627 -1.4830
 4327SOL    HW224444   4.322   3.477   2.995 -1.1284  2.3585 -0.0123
 4328SOL     OW24445   3.376   0.009   2.656 -0.2356 -0.2548 -0.1004
 4328SOL    HW124446   3.363   0.079   2.591 -0.6601 -2.0760 -1.9842
 4328SOL    HW224447   3.317   0.031   2.728  0.2948  2.5676 -0.4963
 4329SOL     OW24448   1.569   2.958   4.689 -0.1871  0.6534  0.4403
 4329SOL    HW124449   1.582   2.991   4.600 -0.6842  2.3353  0.9932
 4329SOL    HW224450   1.575   2.864   4.676  1.3137  1.0998 -2.0558
 4330SOL     OW24451   4.058   1.088   4.918 -0.5091  0.6834  0.1798
 4330SOL    HW124452   4.141   1.060   4.880 -0.8099  0.2260 -0.1310
 4330SOL    HW224453   4.007   1.103   4.838  0.8824 -0.6400 -0.9425
 4331SOL     OW24454   3.543   1.357  11.161 -0.0165 -0.1337 -0.2785
 4331SOL    HW124455   3.508   1.377  11.074 -0.6651 -0.7157 -0.1520
 4331SOL    HW224456   3.517   1.440  11.201  2.2346  2.3656 -3.9892
 4332SOL     OW24457   4.679   3.428   5.707 -0.2507 -0.0849 -0.7716
 4332SOL    HW124458   4.608   3.380   5.664 -0.3425 -2.2123  1.7616
 4332SOL    HW224459   4.630   3.456   5.785 -0.2828 -0.5527 -0.6270
 4333SOL     OW24460   2.632   1.933   3.181 -0.4926  0.0436  0.0202
 4333SOL    HW124461   2.658   1.844   3.206  1.2150  0.1440 -1.4445
 4333SOL    HW224462   2.715   1.978   3.171 -0.4879 -0.2784 -1.3897
 4334SOL     OW24463   4.211   3.965  14.531 -0.1553 -0.5382 -0.4919
 4334SOL    HW124464   4.165   3.889  14.496 -0.0109 -0.1478 -1.5445
 4334SOL    HW224465   4.143   4.033  14.542 -0.7682 -1.1427 -0.5479
 4335SOL     OW24466   4.328   0.187   2.299  0.7646 -1.0477 -0.4049
 4335SOL    HW124467   4.420   0.178   2.321  1.1982 -1.8716 -2.5325
 4335SOL    HW224468   4.284   0.104   2.320 -0.3753 -0.3531 -0.0546
 4336SOL     OW24469   0.116   3.537   9.043  0.0744 -0.1137  0.4210
 4336SOL    HW124470   0.154   3.580   9.119  1.2212 -0.8985  0.2888
 4336SOL    HW224471   0.156   3.585   8.970  1.5547 -1.1475  0.5545
 4337SOL     OW24472   1.640   2.040  14.096 -0.0701 -0.6416 -0.0771
 4337SOL    HW124473   1.706   2.093  14.141 -0.9487 -0.0388  0.4977
 4337SOL    HW224474   1.564   2.025  14.152  0.0142  0.5657  0.3688
 4338SOL     OW24475   3.955   1.550   4.072  0.4001  0.1331 -0.0707
 4338SOL    HW124476   3.967   1.642   4.096  0.7266 -0.5790  2.5572
 4338SOL    HW224477   3.862   1.529   4.082 -0.2823  2.2746 -1.7906
 4339SOL     OW24478   3.716   3.427   4.613 -0.0412  0.1034  0.2705
 4339SOL    HW124479   3.645   3.401   4.554 -0.4060 -0.9491  1.1894
 4339SOL    HW224480   3.769   3.485   4.557 -0.5915  1.3369  1.0257
 4340SOL     OW24481   2.559   1.001   4.681 -0.3330 -0.4796 -0.3892
 4340SOL    HW124482   2.544   0.967   4.769  2.0995 -1.7902 -0.4881
 4340SOL    HW224483   2.493   1.071   4.681 -1.9949 -2.0740  1.7705
 4341SOL     OW24484   0.629   0.757   5.648 -0.8799  0.1492  0.6576
 4341SOL    HW124485   0.706   0.757   5.590 -0.3757  1.0233  1.3164
 4341SOL    HW224486   0.656   0.696   5.717  0.1628 -0.3541 -0.1895
 4342SOL     OW24487   1.801   1.063   6.079 -0.2829  0.2440 -0.1493
 4342SOL    HW124488   1.757   1.134   6.031  1.1572 -0.4435 -2.4734
 4342SOL    HW224489   1.755   0.984   6.052 -2.5245  2.0900 -1.7284
 4343SOL     OW24490   0.550   0.945  13.783 -0.1736  0.5400 -0.0287
 4343SOL    HW124491   0.522   1.015  13.726 -0.1553  2.0612  1.8194
 4343SOL    HW224492   0.518   0.870  13.732  1.2285  0.6569 -1.0786
 4344SOL     OW24493   1.797   0.310   4.769 -0.2124 -0.1850  0.0063
 4344SOL    HW124494   1.761   0.289   4.683 -1.0201 -1.2095  0.5991
 4344SOL    HW224495   1.824   0.402   4.766 -2.4773  0.3851 -3.2503
 4345SOL     OW24496   1.378   2.971   0.966  0.5750  0.6589  0.2938
 4345SOL    HW124497   1.344   3.028   0.897 -0.1358  1.1148  1.0206
 4345SOL    HW224498   1.301   2.964   1.021 -0.5063 -1.5841 -1.5031
 4346SOL     OW24499   2.955   1.571   1.780 -0.8249 -0.4244  0.5399
 4346SOL    HW124500   2.968   1.477   1.769  2.8388  0.2716 -1.2728
 4346SOL    HW224501   3.021   1.589   1.848  0.8408  1.9192 -1.6878
 4347SOL     OW24502   1.167   3.926   0.683  0.1710 -0.1261  0.1845
 4347SOL    HW124503   1.130   3.908   0.769  0.9450 -0.2614  0.4936
 4347SOL    HW224504   1.206   4.010   0.709 -1.6912  0.2986  1.5949
 4348SOL     OW24505   0.446   1.172   7.429  0.2059 -0.5203 -0.1554
 4348SOL    HW124506   0.487   1.087   7.414 -1.5354 -1.3496 -0.2439
 4348SOL    HW224507   0.521   1.227   7.455  0.2528  0.2931 -2.0228
 4349SOL     OW24508   2.123   0.663  15.074 -0.0433  0.6778 -0.4400
 4349SOL    HW124509   2.097   0.601  15.006  1.0863 -1.6520  1.2259
 4349SOL    HW224510   2.037   0.699  15.094 -0.6105 -0.3939 -0.9768
 4350SOL     OW24511   2.399   3.192  15.760  0.3639 -0.3256  0.4344
 4350SOL    HW124512   2.373   3.117  15.707 -1.0721  0.8179 -0.4798
 4350SOL    HW224513   2.402   3.153  15.847  2.1061 -2.7322 -0.7165
 4351SOL     OW24514   3.165   0.601   5.825  0.0904 -0.3329  0.2598
 4351SOL    HW124515   3.182   0.561   5.740 -0.8345 -0.5883  0.1912
 4351SOL    HW224516   3.074   0.575   5.840 -0.2533 -0.2942 -1.8282
 4352SOL     OW24517   0.660   2.222   2.756 -0.1013  0.1115 -0.0903
 4352SOL    HW124518   0.625   2.144   2.714  1.7264 -1.6128  1.5960
 4352SOL    HW224519   0.751   2.216   2.727  0.7283  0.7295  2.3247
 4353SOL     OW24520   1.044   3.032   6.602 -0.0789  0.2903 -0.0337
 4353SOL    HW124521   0.968   2.991   6.559  1.0612 -1.9346  0.1023
 4353SOL    HW224522   1.051   2.964   6.669 -0.0457 -0.4964 -0.8255
 4354SOL     OW24523   1.206   1.541  16.373 -0.2610  0.8902  0.0174
 4354SOL    HW124524   1.289   1.495  16.358  0.6934  2.6603 -0.2197
 4354SOL    HW224525   1.188   1.542  16.467  1.4543 -1.1853  0.3654
 4355SOL     OW24526   3.896   3.842  17.009  0.1517 -0.6153  0.2851
 4355SOL    HW124527   3.971   3.785  17.026 -1.4317 -2.5635  0.7698
 4355SOL    HW224528   3.828   3.774  17.012 -1.0766  0.6095  0.5079
 4356SOL     OW24529   1.370   2.096   4.461 -0.0832 -0.2856 -0.2464
 4356SOL    HW124530   1.315   2.150   4.405 -0.1852  0.5793  0.6836
 4356SOL    HW224531   1.422   2.162   4.508  1.1097 -1.6664  0.3797
 4357SOL     OW24532   3.192   0.110  16.600 -0.4722  0.2042 -0.4487
 4357SOL    HW124533   3.118   0.063  16.638  0.6488 -1.9935 -0.9744
 4357SOL    HW224534   3.221   0.051  16.530  2.8597  0.6880  0.5105
 4358SOL     OW24535   1.272   2.151   7.769 -0.2987  0.4220 -0.3835
 4358SOL    HW124536   1.272   2.192   7.683 -0.0199 -0.3008 -0.7239
 4358SOL    HW224537   1.300   2.223   7.826 -1.0641  2.0950 -2.1237
 4359SOL     OW24538   3.541   1.191   5.043 -0.3589  0.1379 -0.1427
 4359SOL    HW124539   3.583   1.240   5.113 -1.2301 -1.5332  1.5546
 4359SOL    HW224540   3.617   1.142   5.013 -1.1644  0.4233 -2.6499
 4360SOL     OW24541   1.218   0.972   4.758 -0.2042 -0.5666  0.1649
 4360SOL    HW124542   1.294   0.978   4.816 -0.8151  0.2875  0.8694
 4360SOL    HW224543   1.254   0.899   4.708 -1.2117 -0.4788 -0.7076
 4361SOL     OW24544   4.188   1.572  13.822  0.2847  0.3471 -0.1743
 4361SOL    HW124545   4.109   1.610  13.785 -0.2126 -0.3620  0.1712
 4361SOL    HW224546   4.257   1.610  13.768  2.1682 -0.6319  1.5257
 4362SOL     OW24547   1.079   3.461   6.481  0.1242  0.3025 -0.7629
 4362SOL    HW124548   1.089   3.395   6.550 -2.4924  0.7826  0.0444
 4362SOL    HW224549   1.052   3.532   6.539  0.4566 -1.0350  1.0367
 4363SOL     OW24550   1.181   1.153   5.160 -0.4536  0.2557  0.0373
 4363SOL    HW124551   1.253   1.090   5.168 -1.1790 -0.3110  2.1012
 4363SOL    HW224552   1.145   1.147   5.248 -0.9221 -0.2120 -0.1915
 4364SOL     OW24553   1.564   3.088   7.185  0.1735 -0.2150 -0.1729
 4364SOL    HW124554   1.609   3.098   7.268  0.9614  1.4630 -0.8056
 4364SOL    HW224555   1.628   3.138   7.134  3.4151 -1.1220  3.0556
 4365SOL     OW24556   0.706   2.408  16.426  0.6126 -0.7259 -0.2411
 4365SOL    HW124557   0.761   2.474  16.383  0.9885  0.9785  2.8473
 4365SOL    HW224558   0.775   2.356  16.467  2.5137  0.5775 -1.7963
 4366SOL     OW24559   4.413   1.186   3.553  0.5096  0.1361  0.3878
 4366SOL    HW124560   4.504   1.216   3.554 -0.5795  3.4108 -0.0466
 4366SOL    HW224561   4.372   1.254   3.501  0.0160 -0.6543 -0.2484
 4367SOL     OW24562   3.191   2.184   2.677 -0.0104  0.6411  0.0466
 4367SOL    HW124563   3.132   2.181   2.602 -0.3529 -1.1523  0.3855
 4367SOL    HW224564   3.269   2.209   2.626 -0.0974 -0.7431 -0.7616
 4368SOL     OW24565   2.385   3.979   7.101 -0.9067 -0.1036 -0.2138
 4368SOL    HW124566   2.452   3.981   7.032 -0.8355 -1.1815 -0.1727
 4368SOL    HW224567   2.438   3.943   7.172  0.8213  2.6606 -0.0910
 4369SOL     OW24568   4.039   2.373   3.162 -0.8197  0.1096  0.2704
 4369SOL    HW124569   4.125   2.414   3.156 -1.0644  0.3742 -1.5671
 4369SOL    HW224570   4.035   2.330   3.247 -3.2840  0.6234  0.4089
 4370SOL     OW24571   1.717   3.776   6.343 -0.3638  0.1804 -0.2119
 4370SOL    HW124572   1.750   3.862   6.371  2.4720  0.3942 -4.2543
 4370SOL    HW224573   1.786   3.742   6.287 -1.0691 -2.4337  0.5215
 4371SOL     OW24574   0.126   0.911   8.493 -0.3053 -0.6852  0.4614
 4371SOL    HW124575   0.184   0.975   8.451 -1.6766  1.6596  2.1383
 4371SOL    HW224576   0.038   0.947   8.488 -0.0647 -0.4775 -2.1540
 4372SOL     OW24577   4.659   0.331   4.472  0.3866  0.2877  0.2491
 4372SOL    HW124578   4.643   0.397   4.405  1.3225 -0.1130 -0.3597
 4372SOL    HW224579   0.007   0.276   4.444 -1.0973 -1.5010 -0.0598
 4373SOL     OW24580   1.096   2.230  10.072 -0.1539 -0.5471 -0.4730
 4373SOL    HW124581   1.029   2.293  10.101  1.3073 -1.6210  5.0685
 4373SOL    HW224582   1.080   2.231   9.977 -1.6828 -2.5466 -0.2527
 4374SOL     OW24583   1.472   0.869   3.381 -0.4416  0.1213 -0.1459
 4374SOL    HW124584   1.508   0.926   3.313  2.2625 -0.4236  0.8265
 4374SOL    HW224585   1.382   0.901   3.387  0.0861  1.2895  1.3246
 4375SOL     OW24586   2.606   1.670   7.692  0.2211  1.0508 -0.4641
 4375SOL    HW124587   2.591   1.758   7.658 -0.6029  1.2157  0.3279
 4375SOL    HW224588   2.545   1.679   7.765 -1.1351 -0.8528 -1.3786
 4376SOL     OW24589   3.169   0.554   4.680  0.2651 -0.1094 -0.5600
 4376SOL    HW124590   3.140   0.605   4.605 -1.6625 -0.0326  0.2266
 4376SOL    HW224591   3.112   0.603   4.741  2.6281 -0.7035  2.1356
 4377SOL     OW24592   2.121   0.211   6.195 -0.1588 -0.0162  0.0765
 4377SOL    HW124593   2.132   0.252   6.281  0.1799  0.3413 -0.1381
 4377SOL    HW224594   2.207   0.171   6.183  1.1840  3.2932 -1.2594
 4378SOL     OW24595   3.248   2.706   8.038 -0.2108 -0.9265 -0.6036
 4378SOL    HW124596   3.162   2.665   8.036 -1.5358  1.8203  1.1812
 4378SOL    HW224597   3.264   2.700   7.944  0.8783  0.5838 -0.5114
 4379SOL     OW24598   4.399   2.366  11.670  0.4575 -0.4679 -0.0634
 4379SOL    HW124599   4.407   2.344  11.762 -0.0133  1.7942  0.5125
 4379SOL    HW224600   4.484   2.339  11.635  0.8968  0.8803 -0.0486
 4380SOL     OW24601   1.587   2.904   1.459 -0.2004 -0.7011  0.4544
 4380SOL    HW124602   1.575   2.920   1.366 -1.3439 -0.0798  0.7097
 4380SOL    HW224603   1.622   2.986   1.493  2.0008 -1.3506 -0.1971
 4381SOL     OW24604   4.335   0.441   3.832  0.3446  0.2306 -0.2883
 4381SOL    HW124605   4.252   0.425   3.876  1.3912 -1.2443  1.1768
 4381SOL    HW224606   4.342   0.536   3.842 -0.3314  0.2370  0.0743
 4382SOL     OW24607   0.562   1.032   3.452 -0.0747 -0.3076  0.2225
 4382SOL    HW124608   0.480   0.982   3.459 -0.0866 -0.2245  0.7375
 4382SOL    HW224609   0.590   1.040   3.544  1.9956  0.5385 -0.4842
 4383SOL     OW24610   1.795   1.788   1.791 -0.5023  0.0177  0.4181
 4383SOL    HW124611   1.835   1.747   1.715 -1.1795  0.8334 -0.3801
 4383SOL    HW224612   1.844   1.757   1.867 -1.2377 -0.0445  0.8661
 4384SOL     OW24613   0.065   4.130   3.919 -0.3605 -0.0223 -0.3333
 4384SOL    HW124614   4.701   4.142   3.885  0.2488 -2.8325 -2.8874
 4384SOL    HW224615   0.117   4.140   3.839  1.8459  1.3999  1.2723
 4385SOL     OW24616   1.383   2.960  10.920  1.0894  0.1554  0.1024
 4385SOL    HW124617   1.419   2.872  10.907 -0.1513 -0.2531 -0.6349
 4385SOL    HW224618   1.418   3.007  10.844 -0.9406 -0.2851 -1.1330
 4386SOL     OW24619   2.516   0.037   8.666 -0.1773  0.2864  0.2425
 4386SOL    HW124620   2.609   0.020   8.681 -0.1086 -0.1012 -0.6398
 4386SOL    HW224621   2.526   0.094   8.590  2.3776  0.8125  0.9683
 4387SOL     OW24622   2.449   1.167   5.378  0.1656 -0.3956  0.0621
 4387SOL    HW124623   2.432   1.093   5.437 -0.2108 -2.4271 -2.5765
 4387SOL    HW224624   2.403   1.242   5.415  2.0203  0.9153 -0.2920
 4388SOL     OW24625   1.274   0.624  17.676 -0.1780  0.2571 -0.0536
 4388SOL    HW124626   1.282   0.569  17.598 -2.2866  1.4593 -1.1393
 4388SOL    HW224627   1.179   0.631  17.691 -0.3229  0.3043 -1.0061
 4389SOL     OW24628   0.431   2.278   7.533 -0.6005  0.5480 -0.0269
 4389SOL    HW124629   0.454   2.187   7.519 -0.5663  0.6780 -0.8034
 4389SOL    HW224630   0.408   2.276   7.626  0.2968 -1.0255  0.1586
 4390SOL     OW24631   2.069   2.523  15.535 -0.8199  0.0846  0.6021
 4390SOL    HW124632   2.132   2.586  15.499  2.4541 -2.6301  1.6097
 4390SOL    HW224633   1.996   2.582  15.550 -2.9120 -1.9401 -1.7125
 4391SOL     OW24634   2.986   0.128  12.254 -0.3704  0.4234  0.0535
 4391SOL    HW124635   3.003   0.067  12.326 -2.3335 -0.5006 -0.2570
 4391SOL    HW224636   2.948   0.201  12.303 -1.9724  0.6864 -1.5975
 4392SOL     OW24637   2.622   4.213   7.700 -0.4054 -0.0505 -0.6196
 4392SOL    HW124638   2.530   4.217   7.672 -0.4394  0.2252 -0.4668
 4392SOL    HW224639   2.632   4.302   7.733 -0.1849  0.2630 -1.5397
 4393SOL     OW24640   1.180   0.729  16.287 -0.1263  0.6844 -0.6220
 4393SOL    HW124641   1.112   0.677  16.330  1.0016 -0.1148  0.1926
 4393SOL    HW224642   1.133   0.787  16.227 -0.8069  0.1381 -0.6164
 4394SOL     OW24643   4.707   0.192   1.976 -0.3017  0.4399 -0.2898
 4394SOL    HW124644   4.620   0.201   1.936 -0.7671 -0.1366  0.5825
 4394SOL    HW224645   4.679   0.139   2.051 -1.2760  0.2911 -0.7516
 4395SOL     OW24646   0.754   1.170   1.709 -0.1871  0.0512 -0.7101
 4395SOL    HW124647   0.728   1.085   1.675 -2.7561  0.6706 -0.2701
 4395SOL    HW224648   0.824   1.142   1.769  0.6304  0.7992 -1.3151
 4396SOL     OW24649   1.991   1.297   3.717 -0.4597  0.1686  0.2854
 4396SOL    HW124650   1.993   1.263   3.806  2.4821  1.9900  0.9224
 4396SOL    HW224651   1.898   1.305   3.698 -0.3677 -2.1274 -1.1006
 4397SOL     OW24652   1.257   3.041   4.596  0.2861 -0.2256  0.1649
 4397SOL    HW124653   1.246   3.105   4.666  0.1871 -1.6517  1.4637
 4397SOL    HW224654   1.350   3.052   4.577 -0.2552  1.9449 -1.2604
 4398SOL     OW24655   1.988   1.159   0.814  0.2344  0.0234 -0.2712
 4398SOL    HW124656   1.911   1.105   0.832  0.3383 -0.5052 -1.3775
 4398SOL    HW224657   1.974   1.191   0.724  0.7524 -0.3435 -0.4791
 4399SOL     OW24658   1.773   2.411   3.883 -0.3420 -0.4524 -0.3013
 4399SOL    HW124659   1.694   2.411   3.937 -1.0514 -1.9611 -1.3472
 4399SOL    HW224660   1.762   2.481   3.819  0.4760  0.4027  0.4899
 4400SOL     OW24661   4.489   4.231   9.289  0.0258  0.3450 -0.2062
 4400SOL    HW124662   4.440   4.246   9.208  0.2457  0.3598 -0.3358
 4400SOL    HW224663   4.425   4.193   9.348 -0.0049  0.4919 -0.1456
 4401SOL     OW24664   0.380   3.866   4.572 -0.0215  0.7546 -0.1490
 4401SOL    HW124665   0.337   3.867   4.487  0.1029  0.4860 -0.2141
 4401SOL    HW224666   0.459   3.913   4.546  1.8658 -1.4589  1.5455
 4402SOL     OW24667   0.423   0.308   4.298  0.2849 -0.2266 -0.0707
 4402SOL    HW124668   0.435   0.249   4.224 -0.0709 -2.1947  1.4254
 4402SOL    HW224669   0.329   0.325   4.291  0.5243  0.3668 -1.6552
 4403SOL     OW24670   0.529   4.409   5.952 -0.5121  0.0803 -0.3679
 4403SOL    HW124671   0.555   4.354   5.878  0.2799 -2.0720  1.5102
 4403SOL    HW224672   0.574   4.370   6.027 -0.7355 -0.2538 -0.4088
 4404SOL     OW24673   1.617   2.357   8.582 -0.2527 -0.3658 -0.1116
 4404SOL    HW124674   1.605   2.392   8.670 -1.5320 -2.4665  0.5320
 4404SOL    HW224675   1.569   2.419   8.526 -1.0237 -1.2059 -0.3891
 4405SOL     OW24676   0.799   3.407   4.677  0.8393 -0.1841 -0.0176
 4405SOL    HW124677   0.846   3.360   4.746 -0.5812 -1.2405  0.2392
 4405SOL    HW224678   0.720   3.354   4.665  1.1171 -0.3926 -0.8888
 4406SOL     OW24679   4.206   2.369   8.413  0.0860 -0.0056 -0.0653
 4406SOL    HW124680   4.170   2.390   8.327  0.9768  0.9773 -0.2032
 4406SOL    HW224681   4.258   2.292   8.393 -3.4175 -2.3990  0.0516
 4407SOL     OW24682   2.596   3.475   4.956 -0.1201  0.4834  0.3775
 4407SOL    HW124683   2.637   3.562   4.953  3.3920 -1.2252 -0.3817
 4407SOL    HW224684   2.665   3.427   4.999  0.0628 -1.1544 -1.7386
 4408SOL     OW24685   4.613   4.083   7.121 -0.3574 -0.6789  0.6970
 4408SOL    HW124686   4.646   4.002   7.083  0.1437 -0.8805  1.5755
 4408SOL    HW224687   4.557   4.126   7.056  0.7792  1.7824  1.3409
 4409SOL     OW24688   3.883   4.154   1.358 -0.5228  0.2848  0.6478
 4409SOL    HW124689   3.886   4.096   1.434  1.6171  1.1476  1.2079
 4409SOL    HW224690   3.793   4.131   1.333 -0.8172  0.3881  1.6202
 4410SOL     OW24691   3.321   0.063   6.674 -0.1732 -0.0479  0.0281
 4410SOL    HW124692   3.313   0.038   6.766 -1.7415  1.3161  0.2688
 4410SOL    HW224693   3.292   4.708   6.631 -0.7713 -0.5884  1.4176
 4411SOL     OW24694   4.173   4.031   4.010 -0.1906 -0.7657  0.2284
 4411SOL    HW124695   4.242   3.967   4.025  0.0439 -0.5691 -0.0119
 4411SOL    HW224696   4.113   3.997   3.944 -2.6971  2.2420  0.9424
 4412SOL     OW24697   0.312   0.278   5.526 -0.2829 -0.2418  0.0669
 4412SOL    HW124698   0.306   0.345   5.457 -4.0738 -0.8063 -0.1606
 4412SOL    HW224699   0.394   0.239   5.495  0.1871  1.6162 -1.0587
 4413SOL     OW24700   2.158   3.094   9.919 -0.1739 -0.1215 -0.3953
 4413SOL    HW124701   2.234   3.104   9.862  1.1355  2.0556  1.7167
 4413SOL    HW224702   2.090   3.148   9.878 -0.6439 -0.7112 -0.3852
 4414SOL     OW24703   0.797   3.973   6.060 -0.1190  0.3681 -0.2317
 4414SOL    HW124704   0.860   4.019   6.005  1.0403 -1.3709 -0.3456
 4414SOL    HW224705   0.803   3.882   6.030  0.4003 -0.4315  2.2869
 4415SOL     OW24706   4.682   0.777   5.967  0.6303  0.7939  0.2356
 4415SOL    HW124707   4.600   0.761   5.921  0.9571  0.6497 -0.3076
 4415SOL    HW224708   4.687   0.872   5.957 -0.0344  0.6644 -1.3626
 4416SOL     OW24709   0.004   0.202   5.723  0.6951  0.6079  0.0121
 4416SOL    HW124710   0.091   0.215   5.760  0.9654 -0.1752 -0.3468
 4416SOL    HW224711   0.014   0.256   5.645 -0.2358  0.6409 -0.0793
 4417SOL     OW24712   3.990   3.072  14.856 -0.1176 -0.0992  0.0590
 4417SOL    HW124713   3.920   3.008  14.844 -0.7160  0.3706  1.0834
 4417SOL    HW224714   4.016   3.094  14.767  1.6774 -0.0222  0.5997
 4418SOL     OW24715   1.381   1.751   4.631  0.2896  0.1059  0.1544
 4418SOL    HW124716   1.374   1.762   4.536 -3.9002 -0.0601  0.4311
 4418SOL    HW224717   1.292   1.732   4.663 -0.2248 -0.0179 -1.3699
 4419SOL     OW24718   2.089   2.722  10.292 -0.1984 -0.4581 -0.0101
 4419SOL    HW124719   2.135   2.768  10.363 -2.3383  1.7157 -0.0440
 4419SOL    HW224720   2.134   2.759  10.216 -0.3041 -2.6746 -1.1325
 4420SOL     OW24721   0.028   4.104   2.179  0.0511  0.0023  0.4593
 4420SOL    HW124722   4.676   4.052   2.201 -0.6177  0.5763 -0.5618
 4420SOL    HW224723   0.091   4.090   2.250  0.7775 -0.2194 -0.2172
 4421SOL     OW24724   4.100   3.895   0.730  0.4963  0.2880 -0.5371
 4421SOL    HW124725   4.089   3.922   0.821  0.7551  0.5069 -0.5696
 4421SOL    HW224726   4.046   3.957   0.681  0.3291  0.3748 -0.2427
 4422SOL     OW24727   0.266   0.079  12.416  0.0278  0.1356 -0.1108
 4422SOL    HW124728   0.323   0.017  12.461 -2.6737 -2.0194  0.4008
 4422SOL    HW224729   0.324   0.100  12.343  0.2524 -1.0181 -0.2722
 4423SOL     OW24730   3.291   3.627  16.797  0.0838 -0.4661 -0.0744
 4423SOL    HW124731   3.338   3.546  16.776 -0.8515 -1.2086  0.6870
 4423SOL    HW224732   3.230   3.601  16.866  1.7084  1.8230  2.2277
 4424SOL     OW24733   0.500   3.979   8.538  0.2149 -0.3375 -0.0706
 4424SOL    HW124734   0.496   3.952   8.630 -1.4301  2.0535  0.5643
 4424SOL    HW224735   0.420   4.031   8.529  1.2553  1.3348  0.4962
 4425SOL     OW24736   3.217   4.550   5.096 -0.4569 -0.0433 -0.5967
 4425SOL    HW124737   3.283   4.540   5.164 -0.3463 -0.9928 -0.8298
 4425SOL    HW224738   3.247   4.631   5.054 -0.9430 -0.8818 -2.5894
 4426SOL     OW24739   2.983   4.653   7.456 -0.3785  0.2990 -0.3755
 4426SOL    HW124740   3.028   4.707   7.391 -0.5824  0.3440 -0.4788
 4426SOL    HW224741   2.896   4.660   7.418 -0.1649 -2.0613 -1.2937
 4427SOL     OW24742   3.123   1.049   8.724  0.6182  0.0358 -1.0498
 4427SOL    HW124743   3.120   1.139   8.756 -1.2046 -0.5485  0.4214
 4427SOL    HW224744   3.069   1.058   8.645 -1.6115 -4.6691 -0.0764
 4428SOL     OW24745   3.649   1.959   8.422 -0.0851 -0.2268  0.8934
 4428SOL    HW124746   3.600   1.877   8.413 -0.4713 -0.1895  2.7199
 4428SOL    HW224747   3.575   2.017   8.399 -1.1994 -1.6012  1.0024
 4429SOL     OW24748   1.452   4.051  11.962 -0.2238 -0.5108 -0.5702
 4429SOL    HW124749   1.455   4.082  11.871 -1.7142  2.2149  0.3206
 4429SOL    HW224750   1.383   4.111  11.990  0.8672  0.3832  0.1763
 4430SOL     OW24751   1.478   1.782   2.855 -0.4969 -0.4719  0.0487
 4430SOL    HW124752   1.531   1.861   2.858 -0.1120 -0.7213 -0.2377
 4430SOL    HW224753   1.404   1.803   2.913 -1.6736 -0.1029 -1.5791
 4431SOL     OW24754   2.115   4.267  13.775  0.0235  0.2360 -0.2624
 4431SOL    HW124755   2.109   4.312  13.691  1.8688 -0.3894 -0.7260
 4431SOL    HW224756   2.037   4.315  13.805 -0.7442 -1.3468  0.2528
 4432SOL     OW24757   1.002   1.915   9.001  0.4284 -0.5990 -0.1145
 4432SOL    HW124758   0.930   1.977   9.013  1.6091  0.5569  1.0687
 4432SOL    HW224759   1.058   1.951   9.070  1.1573  0.2818 -1.1571
 4433SOL     OW24760   0.591   0.654  15.276  1.0364 -0.0524  0.0202
 4433SOL    HW124761   0.562   0.634  15.187  1.3787  0.3463 -0.1846
 4433SOL    HW224762   0.529   0.608  15.332  1.4914  0.7357  1.1952
 4434SOL     OW24763   1.064   1.502   0.254 -0.6752  0.2131 -0.3819
 4434SOL    HW124764   0.986   1.447   0.263 -0.5884  0.6695  3.3129
 4434SOL    HW224765   1.045   1.565   0.185 -1.0148  0.6962  0.1571
 4435SOL     OW24766   0.674   2.904   5.266 -0.1583 -0.4658  0.2296
 4435SOL    HW124767   0.608   2.952   5.217 -0.4846  0.4697  1.5693
 4435SOL    HW224768   0.622   2.839   5.313 -0.6868 -0.6366 -0.6010
 4436SOL     OW24769   0.957   2.268   7.207  0.4207  0.3326 -0.3839
 4436SOL    HW124770   0.976   2.345   7.153  0.4502  0.9526  0.4981
 4436SOL    HW224771   0.904   2.211   7.152  0.7205  1.0492 -1.4150
 4437SOL     OW24772   2.722   2.200   5.891 -0.3184  0.6853 -0.2237
 4437SOL    HW124773   2.770   2.134   5.941 -1.3645  0.7478  0.8576
 4437SOL    HW224774   2.650   2.152   5.851 -0.4858  1.3995 -0.7793
 4438SOL     OW24775   3.799   0.967   2.707 -0.5789 -0.2150  0.3088
 4438SOL    HW124776   3.871   1.013   2.664 -0.6694 -1.5915 -1.2927
 4438SOL    HW224777   3.833   0.942   2.794  1.7576 -2.2780 -1.2014
 4439SOL     OW24778   1.249   1.380   4.766  0.0665  0.1248 -0.0954
 4439SOL    HW124779   1.212   1.466   4.744  1.1461 -0.0036 -2.3999
 4439SOL    HW224780   1.272   1.392   4.858 -2.3393 -1.8439  0.7699
 4440SOL     OW24781   2.512   3.185  16.318  0.2152  0.3270  0.1831
 4440SOL    HW124782   2.522   3.097  16.282  0.2496  0.2129  0.4732
 4440SOL    HW224783   2.580   3.233  16.271  0.1655  2.0711  1.8757
 4441SOL     OW24784   3.830   2.026   5.593  0.2012  0.1325  0.2122
 4441SOL    HW124785   3.785   2.064   5.517  0.2420  0.8233  0.5346
 4441SOL    HW224786   3.761   1.968   5.624 -1.2581  1.3960 -0.6981
 4442SOL     OW24787   1.445   3.907   8.861  0.0593 -0.2327 -0.2062
 4442SOL    HW124788   1.405   3.912   8.774  0.4747  0.9093 -0.3347
 4442SOL    HW224789   1.372   3.871   8.911 -0.9141  0.9159 -0.7884
 4443SOL     OW24790   3.067   3.373   4.862  0.6506 -0.7129  0.1772
 4443SOL    HW124791   3.082   3.362   4.955 -0.6057  2.0696  0.7149
 4443SOL    HW224792   3.017   3.292   4.854  2.7882 -2.1841  1.5640
 4444SOL     OW24793   3.078   2.215   0.564 -0.0667 -0.4776 -0.4406
 4444SOL    HW124794   3.141   2.286   0.553 -2.6037  1.9902  0.9062
 4444SOL    HW224795   3.009   2.250   0.621  0.6252 -1.1860  0.8357
 4445SOL     OW24796   1.970   2.998  11.925  0.2722  0.5243 -0.0381
 4445SOL    HW124797   1.952   3.067  11.861  0.5062  1.2978  0.7352
 4445SOL    HW224798   1.990   3.054  11.999 -0.1199  0.1651  0.3432
 4446SOL     OW24799   4.286   1.048  15.872 -0.4203  0.2195 -0.6567
 4446SOL    HW124800   4.368   1.084  15.840  0.1726  0.2803  0.9197
 4446SOL    HW224801   4.291   0.953  15.884  3.8835  0.4256 -1.0966
 4447SOL     OW24802   4.127   3.136   7.696  0.0190  0.6636  0.0707
 4447SOL    HW124803   4.068   3.209   7.677  0.2744  0.7015 -0.5629
 4447SOL    HW224804   4.214   3.171   7.678 -0.6731  3.0039  1.1288
 4448SOL     OW24805   0.618   4.061   2.572  0.4705 -0.5288 -0.2324
 4448SOL    HW124806   0.689   4.124   2.583  2.5517 -3.0071  0.2942
 4448SOL    HW224807   0.577   4.096   2.493  0.1781 -0.4909 -0.0631
 4449SOL     OW24808   0.160   2.015   3.752  0.1699 -0.0557  0.2688
 4449SOL    HW124809   0.153   2.110   3.752  0.1161 -0.0582 -1.4231
 4449SOL    HW224810   0.104   1.990   3.678  0.4645 -1.1120  0.3964
 4450SOL     OW24811   3.257   1.675   6.641 -0.7083  0.0104  0.0151
 4450SOL    HW124812   3.185   1.698   6.699  0.2676  1.6197  0.5657
 4450SOL    HW224813   3.232   1.718   6.559 -2.0885  0.3143  0.5858
 4451SOL     OW24814   0.119   0.396  17.353  0.7642 -0.3893  0.3177
 4451SOL    HW124815   0.097   0.361  17.267 -0.3795  0.0510  0.4177
 4451SOL    HW224816   0.041   0.371  17.403  0.1312  0.4573 -0.2436
 4452SOL     OW24817   3.043   4.551   7.100 -0.4217 -0.4673  0.3438
 4452SOL    HW124818   3.080   4.635   7.071  3.4072 -2.7362 -1.3747
 4452SOL    HW224819   2.954   4.556   7.067  0.3098  1.8095 -1.3323
 4453SOL     OW24820   1.160   1.321   4.382 -0.6627 -0.1016 -0.5141
 4453SOL    HW124821   1.121   1.264   4.448  1.8376 -1.7698 -0.4880
 4453SOL    HW224822   1.247   1.341   4.418  0.0109  0.2632 -2.3354
 4454SOL     OW24823   1.839   4.460   6.220 -0.0646 -0.2895 -0.3354
 4454SOL    HW124824   1.879   4.434   6.303 -1.6528 -0.7791  0.2793
 4454SOL    HW224825   1.811   4.380   6.174  0.0787  0.1512 -1.1858
 4455SOL     OW24826   1.676   3.423   7.232  0.0799  0.9965 -0.3998
 4455SOL    HW124827   1.659   3.493   7.294  0.4309  0.2196  0.5829
 4455SOL    HW224828   1.615   3.429   7.159  1.2544  2.1420 -1.2810
 4456SOL     OW24829   0.504   1.720   4.978 -0.0861  0.3548  0.4333
 4456SOL    HW124830   0.509   1.815   4.987 -0.2678  0.4476 -0.4005
 4456SOL    HW224831   0.508   1.701   5.071  2.0188 -1.1534  0.0381
 4457SOL     OW24832   0.708   1.988   7.641 -0.0887  0.0995  0.3124
 4457SOL    HW124833   0.798   2.015   7.625  0.6366 -2.3843  0.1059
 4457SOL    HW224834   0.679   2.055   7.703 -0.7390 -1.9763  2.2535
 4458SOL     OW24835   3.631   0.199   2.386 -0.2616  0.0357 -0.3690
 4458SOL    HW124836   3.552   0.146   2.375  0.2992 -0.9276  0.2384
 4458SOL    HW224837   3.660   0.218   2.297  3.3377 -0.2959  0.7352
 4459SOL     OW24838   3.390   3.366   7.838 -0.0122  0.4556 -0.2903
 4459SOL    HW124839   3.445   3.292   7.810 -0.9422 -0.7042  0.9778
 4459SOL    HW224840   3.436   3.414   7.907  1.3704  1.5589 -1.9627
 4460SOL     OW24841   1.349   1.228  10.813 -0.0976 -0.0635 -0.9029
 4460SOL    HW124842   1.353   1.146  10.862 -1.3817  0.2757 -0.2379
 4460SOL    HW224843   1.411   1.207  10.742  0.0188 -3.8381  0.3114
 4461SOL     OW24844   0.963   1.751  11.976 -0.0216 -0.3405  0.0312
 4461SOL    HW124845   1.038   1.711  12.020  1.3936  1.6236 -0.6140
 4461SOL    HW224846   0.916   1.794  12.048  2.0172  1.6656  0.1641
 4462SOL     OW24847   3.655   1.041   3.846  0.1557  0.2872  0.1250
 4462SOL    HW124848   3.599   0.991   3.906 -1.3013  1.1178 -0.5365
 4462SOL    HW224849   3.613   1.127   3.849 -1.1159 -0.3063 -0.6581
 4463SOL     OW24850   1.081   0.956  13.168 -0.5118  0.0690  0.0267
 4463SOL    HW124851   1.150   0.971  13.102 -0.8044 -0.6757 -0.4500
 4463SOL    HW224852   1.003   0.994  13.127 -1.5914  0.4817  2.5084
 4464SOL     OW24853   3.972   3.905   5.757 -0.2690 -0.0952  0.0655
 4464SOL    HW124854   4.033   3.960   5.807  1.4853 -2.9518  1.0911
 4464SOL    HW224855   4.024   3.905   5.676  0.8893  1.2645  0.8015
 4465SOL     OW24856   4.206   3.701  11.798 -1.0022  0.0159 -0.0969
 4465SOL    HW124857   4.189   3.788  11.763 -0.9629  0.2497  0.4617
 4465SOL    HW224858   4.298   3.707  11.821 -1.3749 -1.8478  1.9096
 4466SOL     OW24859   2.660   1.842   2.815  0.2158  0.2462 -0.1091
 4466SOL    HW124860   2.725   1.854   2.745 -0.9152  0.2625 -1.1415
 4466SOL    HW224861   2.718   1.781   2.861  0.0161 -0.1857 -0.4350
 4467SOL     OW24862   1.534   4.381  16.676 -0.3060  0.1649  0.5170
 4467SOL    HW124863   1.627   4.359  16.667  0.2036  2.2994  0.5199
 4467SOL    HW224864   1.510   4.310  16.736  0.7494  1.2484  2.2333
 4468SOL     OW24865   0.906   4.229   5.322  0.1500  0.2326 -0.2085
 4468SOL    HW124866   0.926   4.236   5.229 -1.6451  0.2000 -0.5994
 4468SOL    HW224867   0.921   4.320   5.345 -0.9108 -0.0990  1.8569
 4469SOL     OW24868   3.220   2.417   8.659  0.2969  0.0234  0.2892
 4469SOL    HW124869   3.189   2.465   8.735  3.3480  0.2591  1.4046
 4469SOL    HW224870   3.281   2.474   8.612  1.0532 -1.7597 -0.9255
 4470SOL     OW24871   1.026   1.018   7.514  0.1208  0.1390  0.4452
 4470SOL    HW124872   1.030   0.923   7.520  0.9546  0.1947  0.6767
 4470SOL    HW224873   1.070   1.052   7.592  0.8323 -1.6456  0.8202
 4471SOL     OW24874   3.715   3.799   2.166  0.2719 -0.1713 -0.7156
 4471SOL    HW124875   3.772   3.871   2.137  1.9021 -1.7258 -1.4046
 4471SOL    HW224876   3.631   3.843   2.173  0.5342  0.1132  0.5331
 4472SOL     OW24877   3.880   1.059  15.609 -0.1721  0.8740 -0.5528
 4472SOL    HW124878   3.790   1.072  15.579 -1.2080 -1.0679  1.7450
 4472SOL    HW224879   3.899   0.968  15.584 -1.4421  0.5576 -0.3537
 4473SOL     OW24880   2.574   3.759  10.794 -0.4610  0.2478  0.1762
 4473SOL    HW124881   2.574   3.734  10.702 -1.9998  0.8755  0.0163
 4473SOL    HW224882   2.556   3.671  10.829  1.9948 -0.1157  0.5285
 4474SOL     OW24883   1.470   4.102  13.859  0.1177  0.0587 -0.2333
 4474SOL    HW124884   1.523   4.115  13.780  0.6566 -0.4013  0.0530
 4474SOL    HW224885   1.531   4.051  13.912  1.2168 -1.1331 -2.6346
 4475SOL     OW24886   4.205   0.452  14.273 -0.0562  0.1900 -0.3001
 4475SOL    HW124887   4.266   0.506  14.325 -1.2919  1.1107  0.1818
 4475SOL    HW224888   4.144   0.426  14.342  0.5612 -1.6623 -0.4530
 4476SOL     OW24889   1.099   2.883   0.815 -0.6902 -0.2776  0.2249
 4476SOL    HW124890   1.138   2.880   0.727 -1.5756  2.6416 -0.2885
 4476SOL    HW224891   1.047   2.963   0.804 -0.9818 -0.4457  0.3840
 4477SOL     OW24892   3.647   4.626   3.309  1.0864 -0.1405 -0.0443
 4477SOL    HW124893   3.655   4.615   3.404 -1.2987  0.8086  0.2632
 4477SOL    HW224894   3.651   4.721   3.298 -0.0157 -0.0913  0.0193
 4478SOL     OW24895   3.532   4.291   1.921  0.3304 -0.0097  0.5813
 4478SOL    HW124896   3.488   4.293   1.836  1.7343  2.1102 -0.0618
 4478SOL    HW224897   3.612   4.251   1.888  1.0934 -0.5141  3.0881
 4479SOL     OW24898   1.515   1.698   5.824 -0.0798  0.5611 -0.7072
 4479SOL    HW124899   1.472   1.640   5.761 -0.9463 -0.9229  1.2292
 4479SOL    HW224900   1.593   1.729   5.779 -0.8007  1.1644 -1.5308
 4480SOL     OW24901   3.739   3.441   2.268  0.0100  0.5600  0.2535
 4480SOL    HW124902   3.816   3.384   2.267 -1.6679 -1.6927 -1.5276
 4480SOL    HW224903   3.673   3.373   2.286 -0.3222  0.2614 -2.0715
 4481SOL     OW24904   0.554   0.495   1.888  0.2853 -0.0900 -0.1457
 4481SOL    HW124905   0.579   0.426   1.949 -0.2581 -2.2211 -2.3513
 4481SOL    HW224906   0.635   0.543   1.871  0.5503 -0.4994 -0.0286
 4482SOL     OW24907   1.619   2.363   8.998 -0.3829  0.2883  0.0308
 4482SOL    HW124908   1.695   2.407   9.033 -0.2648  0.5598 -0.5690
 4482SOL    HW224909   1.627   2.278   9.042  1.4602 -0.4360 -1.6948
 4483SOL     OW24910   0.198   2.282   3.413  0.3280  0.7817 -0.1475
 4483SOL    HW124911   0.262   2.280   3.484 -1.6249  0.4156  1.6046
 4483SOL    HW224912   0.231   2.199   3.378  0.2171 -0.0696  1.7317
 4484SOL     OW24913   0.636   2.402   7.245  0.1507  0.1164  0.4954
 4484SOL    HW124914   0.578   2.438   7.313  2.6917  0.8873  2.2785
 4484SOL    HW224915   0.604   2.312   7.247  0.0988  0.1243 -0.1449
 4485SOL     OW24916   2.056   3.174   0.474 -0.0314 -0.3187  0.6929
 4485SOL    HW124917   2.098   3.088   0.468 -1.0343 -0.8141  0.9471
 4485SOL    HW224918   2.053   3.186   0.569 -0.3914  0.3315  0.6008
 4486SOL     OW24919   0.865   4.701   8.132 -0.3023 -0.1507 -0.1914
 4486SOL    HW124920   0.786   4.650   8.116 -0.6484  0.4057 -0.2540
 4486SOL    HW224921   0.874   4.683   8.225  0.1727  1.1789  0.0232
 4487SOL     OW24922   0.976   2.164   5.214  0.1984 -0.0044  0.2423
 4487SOL    HW124923   1.070   2.152   5.201 -0.4992 -0.1183 -4.5454
 4487SOL    HW224924   0.950   2.173   5.123  1.8949  0.5294 -0.1932
 4488SOL     OW24925   3.744   3.290   7.458 -0.0104 -0.3039 -0.1539
 4488SOL    HW124926   3.719   3.351   7.528 -0.4734 -1.3904  0.6310
 4488SOL    HW224927   3.747   3.348   7.383 -2.5858 -0.1067 -0.1313
 4489SOL     OW24928   1.314   2.780   3.618  0.0864 -0.5319 -0.1216
 4489SOL    HW124929   1.298   2.839   3.545 -2.6555 -1.6420 -0.4126
 4489SOL    HW224930   1.364   2.707   3.582 -0.8641 -0.3013 -1.8888
 4490SOL     OW24931   1.228   3.414   9.262 -0.6833  0.3277  0.1938
 4490SOL    HW124932   1.198   3.430   9.173  0.3538  1.2382  0.0064
 4490SOL    HW224933   1.318   3.440   9.246 -0.3096 -1.4659 -0.5714
 4491SOL     OW24934   3.184   0.912  13.374 -0.1667  0.1881  0.2885
 4491SOL    HW124935   3.222   0.990  13.334 -1.3006  0.2114 -0.7197
 4491SOL    HW224936   3.238   0.900  13.452 -0.3225  0.7868  0.4894
 4492SOL     OW24937   2.990   3.351   2.150  0.2478  0.2250  0.0794
 4492SOL    HW124938   3.075   3.348   2.192  0.7878 -1.3193 -1.1245
 4492SOL    HW224939   2.964   3.442   2.164 -0.9549 -0.4021  1.9686
 4493SOL     OW24940   0.600   1.806  10.606  0.0143  0.1305  0.1786
 4493SOL    HW124941   0.561   1.741  10.665 -0.2441 -0.0169 -0.1526
 4493SOL    HW224942   0.573   1.888  10.648  3.6615  1.5803 -0.3034
 4494SOL     OW24943   0.696   1.906   2.162  0.2063 -0.2137 -0.2148
 4494SOL    HW124944   0.721   1.832   2.107  1.7444 -0.7387  1.1778
 4494SOL    HW224945   0.619   1.945   2.120 -0.2154 -0.3366  0.4470
 4495SOL     OW24946   0.553   1.649  13.673 -0.1309 -0.5538  0.3236
 4495SOL    HW124947   0.635   1.680  13.636 -0.6889  1.1672  0.5163
 4495SOL    HW224948   0.540   1.574  13.615 -0.1257 -2.7292  3.1009
 4496SOL     OW24949   1.974   1.477   8.241  0.0393  0.5858  0.0495
 4496SOL    HW124950   1.893   1.503   8.284  0.5578  1.0690  0.7405
 4496SOL    HW224951   1.938   1.408   8.185  0.2315  0.9290 -0.4982
 4497SOL     OW24952   2.742   4.136   0.397 -0.5734  0.6347 -0.3652
 4497SOL    HW124953   2.718   4.080   0.324  0.0515 -2.2848  1.6593
 4497SOL    HW224954   2.710   4.100   0.480  1.7398  0.7422  0.5859
 4498SOL     OW24955   2.885   4.017  13.677 -0.5802  0.3241 -0.1995
 4498SOL    HW124956   2.945   3.953  13.638  0.5876  1.4052 -0.1731
 4498SOL    HW224957   2.890   3.997  13.771  0.1036 -1.6388 -0.6394
 4499SOL     OW24958   3.204   4.480   7.522 -0.3705  0.3773 -0.3542
 4499SOL    HW124959   3.114   4.485   7.491 -0.6100 -0.6623  0.1816
 4499SOL    HW224960   3.216   4.388   7.500 -0.9723  1.1112 -3.7654
 4500SOL     OW24961   1.541   1.654  10.293 -0.2902 -0.4270 -0.3026
 4500SOL    HW124962   1.499   1.702  10.222 -0.4606  0.0878  0.1439
 4500SOL    HW224963   1.468   1.640  10.354 -0.7815  1.9967 -0.3588
 4501SOL     OW24964   4.068   1.941   8.166 -0.0279  0.2299  0.1731
 4501SOL    HW124965   4.129   1.945   8.092  0.2874 -0.3450  0.4051
 4501SOL    HW224966   4.017   2.021   8.155  1.6016  0.8653 -2.9059
 4502SOL     OW24967   2.898   1.827   7.370  0.1268  0.5368 -0.3621
 4502SOL    HW124968   2.916   1.735   7.392 -0.0742  0.3686 -0.9059
 4502SOL    HW224969   2.890   1.806   7.277 -3.2702 -1.3382  0.3373
 4503SOL     OW24970   1.556   2.604   2.698  0.2208 -0.5908 -0.4643
 4503SOL    HW124971   1.468   2.578   2.726  0.0673  0.8398  0.4268
 4503SOL    HW224972   1.569   2.551   2.620  0.8202 -0.3879 -0.5035
 4504SOL     OW24973   2.602   2.246   6.183  0.4005  0.7812 -0.0678
 4504SOL    HW124974   2.567   2.321   6.135  0.0710 -0.0855 -1.1836
 4504SOL    HW224975   2.568   2.256   6.272  0.3228  0.7831 -0.0987
 4505SOL     OW24976   4.165   2.954   6.870 -0.2699 -0.6193  0.0052
 4505SOL    HW124977   4.159   2.974   6.963 -1.1996  0.5762 -0.3070
 4505SOL    HW224978   4.075   2.970   6.841  0.2688 -1.3351 -2.0988
 4506SOL     OW24979   0.986   4.450  10.729  0.4602  0.0604 -0.0675
 4506SOL    HW124980   0.967   4.480  10.640 -0.4553 -0.8993 -0.1914
 4506SOL    HW224981   1.057   4.512  10.746  2.5070 -1.8226 -1.7844
 4507SOL     OW24982   0.581   4.292   1.680 -0.1686  0.0403  0.1084
 4507SOL    HW124983   0.530   4.234   1.623  2.0347 -1.3032 -0.5216
 4507SOL    HW224984   0.667   4.283   1.639  0.0651 -1.3597  0.8989
 4508SOL     OW24985   1.613   2.044   2.898 -0.4022 -0.1186  0.0676
 4508SOL    HW124986   1.585   2.103   2.828  1.2351 -0.6190 -1.0152
 4508SOL    HW224987   1.596   2.086   2.982 -0.3496 -0.8450  0.4416
 4509SOL     OW24988   1.786   1.683   2.710 -0.3285  0.0738 -0.6953
 4509SOL    HW124989   1.736   1.607   2.678 -1.9944  0.3337  1.2786
 4509SOL    HW224990   1.763   1.758   2.655  1.6573  0.1787 -1.3650
 4510SOL     OW24991   2.014   4.074   8.057  0.1305 -0.4839  0.3859
 4510SOL    HW124992   2.008   4.143   7.990  0.8355  0.0750  0.9025
 4510SOL    HW224993   2.028   3.994   8.006  3.0857 -0.1081  0.6575
 4511SOL     OW24994   1.376   3.465   6.011  0.3244 -0.2158 -0.2072
 4511SOL    HW124995   1.298   3.516   5.992 -0.1060 -0.6612  0.3558
 4511SOL    HW224996   1.366   3.463   6.106 -1.6631  3.2693 -0.3452
 4512SOL     OW24997   2.824   3.159  13.906  0.6434 -0.0341 -0.6521
 4512SOL    HW124998   2.913   3.137  13.878  1.2901  0.3691  1.1341
 4512SOL    HW224999   2.814   3.104  13.984 -1.6264  1.6181  0.2050
 4513SOL     OW25000   1.568   4.657   8.727 -0.3251 -0.3915 -0.0025
 4513SOL    HW125001   1.473   4.648   8.732 -0.3181 -0.5178 -0.1028
 4513SOL    HW225002   1.585   0.025   8.741  0.7673 -0.8603  1.7508
 4514SOL     OW25003   0.245   2.349   6.712  0.7992  0.3874 -0.3940
 4514SOL    HW125004   0.299   2.300   6.650  0.5280  0.4350 -0.6696
 4514SOL    HW225005   0.298   2.335   6.791  2.6495 -1.6734 -2.0027
 4515SOL     OW25006   3.548   1.369   9.966 -0.1949 -0.1384 -0.7495
 4515SOL    HW125007   3.639   1.371   9.937  0.3682 -0.3458  1.0299
 4515SOL    HW225008   3.535   1.292  10.021  1.4813 -1.2171 -1.8932
 4516SOL     OW25009   0.823   3.006   7.292  0.0529 -0.0045 -0.5991
 4516SOL    HW125010   0.773   3.021   7.373  1.2436  1.2703 -0.1111
 4516SOL    HW225011   0.761   3.044   7.228 -0.4643 -0.3224 -0.2833
 4517SOL     OW25012   4.198   2.579   9.654 -0.3227  0.1224 -0.7261
 4517SOL    HW125013   4.200   2.657   9.600  2.1659  2.1793  2.3310
 4517SOL    HW225014   4.209   2.519   9.580  0.2277  2.4790 -2.5286
 4518SOL     OW25015   4.539   1.611   8.771  0.1943  0.2344 -0.5529
 4518SOL    HW125016   4.609   1.667   8.804 -0.2971  0.9313 -0.6825
 4518SOL    HW225017   4.534   1.546   8.840  1.2037 -0.4171 -1.0843
 4519SOL     OW25018   3.450   1.087   4.216 -0.5168  0.1215 -0.0068
 4519SOL    HW125019   3.508   1.020   4.251  2.9467  2.0893 -1.9282
 4519SOL    HW225020   3.423   1.047   4.133 -1.8170 -0.8159  0.8733
 4520SOL     OW25021   2.244   4.644  13.431 -0.4499 -0.3737 -0.5327
 4520SOL    HW125022   2.274   4.664  13.342  1.2036 -0.2641  0.0398
 4520SOL    HW225023   2.312   4.683  13.486  0.3725  0.2541 -1.9850
 4521SOL     OW25024   4.055   0.354   0.496 -0.6477 -0.5108  1.2573
 4521SOL    HW125025   3.996   0.394   0.560 -0.8127  0.9258  0.1903
 4521SOL    HW225026   4.068   0.268   0.538  1.6110  0.1127  1.8302
 4522SOL     OW25027   1.624   2.859  17.564 -0.5218 -0.5580 -0.0467
 4522SOL    HW125028   1.538   2.897  17.546  0.4329  2.9803  2.8752
 4522SOL    HW225029   1.690   2.898  17.507  0.0814  1.5103  2.0656
 4523SOL     OW25030   4.610   2.186  11.201  0.4428  0.0697  0.5731
 4523SOL    HW125031   4.680   2.131  11.236  0.3619 -0.4544 -0.0791
 4523SOL    HW225032   4.643   2.273  11.222  2.4862 -0.9382  1.5044
 4524SOL     OW25033   0.876   2.983   4.160 -0.5127  0.3286  0.6311
 4524SOL    HW125034   0.904   2.892   4.170  1.2791  0.8081 -0.0553
 4524SOL    HW225035   0.890   3.012   4.250 -0.1743 -1.5325  1.1885
 4525SOL     OW25036   3.470   4.413  16.736  0.4421 -0.4293 -0.2472
 4525SOL    HW125037   3.564   4.413  16.751  0.0792  1.6263  2.0175
 4525SOL    HW225038   3.463   4.447  16.647  2.6410  0.9368  0.1042
 4526SOL     OW25039   0.309   4.401   1.546 -0.1600  0.7482 -0.2386
 4526SOL    HW125040   0.296   4.379   1.638  2.1462 -0.5994 -0.2322
 4526SOL    HW225041   0.254   4.477   1.529 -1.0974 -0.1962 -1.4616
 4527SOL     OW25042   4.134   4.465   1.182  0.2833  0.1876  0.2947
 4527SOL    HW125043   4.206   4.426   1.231  1.1810  2.5137  0.8112
 4527SOL    HW225044   4.180   4.523   1.121 -0.4189  0.0492 -0.3698
 4528SOL     OW25045   3.363   0.370   4.590 -0.4044 -0.4638 -0.5180
 4528SOL    HW125046   3.280   0.409   4.618 -0.1336  1.2760 -2.1100
 4528SOL    HW225047   3.417   0.449   4.580 -0.5666 -0.3113 -0.1925
 4529SOL     OW25048   0.256   4.256   5.906  0.3455  0.7207 -0.1651
 4529SOL    HW125049   0.328   4.225   5.850 -0.7420  0.9678 -1.6967
 4529SOL    HW225050   0.249   4.347   5.875 -2.4029  0.2208 -0.9823
 4530SOL     OW25051   0.268   1.282   4.304 -0.3739 -0.2955  0.0592
 4530SOL    HW125052   0.221   1.219   4.359 -0.4245  0.8319  1.3140
 4530SOL    HW225053   0.290   1.349   4.369  2.5041 -2.7641  1.6532
 4531SOL     OW25054   1.014   3.757   8.245  0.3224  0.3585 -0.3739
 4531SOL    HW125055   1.095   3.730   8.203 -0.5745 -0.7065 -1.4424
 4531SOL    HW225056   0.952   3.693   8.210  0.0905  0.2590  0.2268
 4532SOL     OW25057   1.211   0.750  13.306 -0.3019 -0.0102 -0.1045
 4532SOL    HW125058   1.166   0.826  13.268 -0.6911  0.5907  1.5759
 4532SOL    HW225059   1.159   0.675  13.277 -1.6186  1.3941 -1.4404
 4533SOL     OW25060   1.357   2.383   7.533  0.6137 -0.0242 -0.5013
 4533SOL    HW125061   1.274   2.341   7.510  1.9093 -2.7003 -0.2859
 4533SOL    HW225062   1.376   2.417   7.446  1.3260 -4.7540 -2.2082
 4534SOL     OW25063   4.410   1.477   6.058 -0.0958 -0.4142  0.3367
 4534SOL    HW125064   4.435   1.457   6.149  1.2793 -2.1604 -0.4135
 4534SOL    HW225065   4.395   1.386   6.032  0.0673 -0.4895  0.4981
 4535SOL     OW25066   1.776   0.077  17.692  0.4430  0.3292 -0.1070
 4535SOL    HW125067   1.697   0.025   0.009 -0.7911  2.2119 -0.1078
 4535SOL    HW225068   1.731   0.157  17.664 -0.1000  1.1598  3.1055
 4536SOL     OW25069   3.144   0.462   2.179 -0.2708  0.3016  0.1474
 4536SOL    HW125070   3.117   0.551   2.157  0.5749  0.6911  0.7121
 4536SOL    HW225071   3.062   0.418   2.155  0.1834  0.5809 -1.9285
 4537SOL     OW25072   0.665   3.368  14.969 -0.1587  0.1919  0.1846
 4537SOL    HW125073   0.744   3.357  14.917 -0.4627 -1.2507  0.0107
 4537SOL    HW225074   0.629   3.279  14.961  1.4789 -0.7948  3.8261
 4538SOL     OW25075   3.424   3.731   3.876  0.6633 -0.1003 -0.0564
 4538SOL    HW125076   3.515   3.760   3.885  0.2461  0.7764  1.4386
 4538SOL    HW225077   3.395   3.753   3.788 -3.4423  0.4791  1.4446
 4539SOL     OW25078   0.119   0.652   3.686 -0.4691 -0.3226 -0.2273
 4539SOL    HW125079   0.167   0.582   3.731 -3.2352 -2.2314 -0.2214
 4539SOL    HW225080   0.042   0.601   3.662 -0.6348  0.9318 -2.3296
 4540SOL     OW25081   1.864   2.873  12.971 -0.0755 -0.1023 -0.3536
 4540SOL    HW125082   1.778   2.863  13.011 -0.4349 -0.4197 -1.2175
 4540SOL    HW225083   1.908   2.918  13.044 -0.7028  0.4113 -0.2904
 4541SOL     OW25084   1.789   1.257   8.161  0.0506 -0.3461 -0.5158
 4541SOL    HW125085   1.868   1.241   8.108 -0.4708 -0.3919 -1.2826
 4541SOL    HW225086   1.737   1.190   8.116 -1.1625 -0.8272  1.6079
 4542SOL     OW25087   0.454   3.674   9.082 -0.2435 -0.0495 -0.1650
 4542SOL    HW125088   0.460   3.722   9.165  2.4991  0.1201 -0.4646
 4542SOL    HW225089   0.517   3.711   9.021  1.5494 -2.3162  0.3001
 4543SOL     OW25090   2.137   0.890   2.051  0.5372 -0.1592  0.1243
 4543SOL    HW125091   2.197   0.962   2.031  0.0332  0.9247  2.5339
 4543SOL    HW225092   2.121   0.921   2.141 -2.4711  0.7117 -0.7143
 4544SOL     OW25093   3.896   2.657   4.283  0.7882 -0.0361  0.0163
 4544SOL    HW125094   3.897   2.691   4.194  0.0570 -1.1416 -0.4100
 4544SOL    HW225095   3.907   2.735   4.339 -2.4583  0.8975 -0.6491
 4545SOL     OW25096   3.650   1.111  11.178  0.3933 -0.0143 -0.1983
 4545SOL    HW125097   3.706   1.107  11.256 -2.3187 -0.7155  1.7221
 4545SOL    HW225098   3.624   1.203  11.178  0.2578 -0.0519 -0.4457
 4546SOL     OW25099   4.558   4.142   9.661  0.4325  0.3738  0.1896
 4546SOL    HW125100   4.483   4.134   9.602  0.2028  2.8295  0.1271
 4546SOL    HW225101   4.633   4.106   9.613  0.2689  0.2018  0.0622
 4547SOL     OW25102   0.764   2.934   9.858  0.2938  0.3579  0.4587
 4547SOL    HW125103   0.824   2.863   9.835 -0.0711  0.0709  0.3864
 4547SOL    HW225104   0.694   2.877   9.890 -0.5618 -0.3862 -2.7951
 4548SOL     OW25105   3.223   0.084   2.858  0.4374 -0.0098  0.5041
 4548SOL    HW125106   3.271   0.123   2.932 -0.3338 -0.0783  1.0368
 4548SOL    HW225107   3.178   0.164   2.830 -0.3277 -0.6022  0.0547
 4549SOL     OW25108   4.306   1.937   8.017  0.6014 -0.2450 -0.3023
 4549SOL    HW125109   4.385   1.952   7.965  0.0216 -0.2829 -1.1957
 4549SOL    HW225110   4.245   1.941   7.944 -1.1909  0.0954  1.2226
 4550SOL     OW25111   1.285   3.395   3.634  0.0001 -0.5449  0.0381
 4550SOL    HW125112   1.230   3.359   3.704 -0.0799 -0.3278  0.0878
 4550SOL    HW225113   1.364   3.362   3.675  1.1498  1.5901 -0.4564
 4551SOL     OW25114   3.935   2.214   3.392  0.2105  0.1879  0.2253
 4551SOL    HW125115   3.926   2.211   3.487 -0.9634 -0.8915  0.0817
 4551SOL    HW225116   3.964   2.124   3.381  2.6164  1.2866 -2.6142
 4552SOL     OW25117   3.543   4.238   6.605  0.0624  0.0513  0.0764
 4552SOL    HW125118   3.459   4.192   6.606  1.1353 -1.9154 -0.3463
 4552SOL    HW225119   3.524   4.315   6.552  2.6260 -1.0357 -2.3795
 4553SOL     OW25120   3.603   0.421   3.007  0.0670 -0.8398 -0.4090
 4553SOL    HW125121   3.602   0.478   2.931  2.1342 -0.0575  0.1360
 4553SOL    HW225122   3.699   0.419   3.017 -0.0327  1.1986  1.0036
 4554SOL     OW25123   0.190   2.235   4.952 -0.3123  0.7299 -0.2109
 4554SOL    HW125124   0.103   2.246   4.989 -0.6778  1.7400 -1.3737
 4554SOL    HW225125   0.235   2.294   5.012  0.2446 -1.0011  1.0417
 4555SOL     OW25126   0.652   2.767   0.522  0.2403 -0.2139 -0.1339
 4555SOL    HW125127   0.598   2.694   0.552  0.1468 -0.3428 -0.6107
 4555SOL    HW225128   0.738   2.757   0.564 -0.7066 -1.6165  1.4359
 4556SOL     OW25129   0.384   3.025   4.180 -0.1318  0.3369 -0.3717
 4556SOL    HW125130   0.446   3.097   4.170  0.3121 -0.1431 -1.1197
 4556SOL    HW225131   0.367   3.018   4.086 -0.0787 -0.1159 -0.3479
 4557SOL     OW25132   0.866   3.034   2.046 -0.1319  0.6063  0.1916
 4557SOL    HW125133   0.874   2.939   2.033  1.3885  0.3713  2.7086
 4557SOL    HW225134   0.901   3.046   2.135  1.0854  1.9129 -0.4703
 4558SOL     OW25135   0.472   3.380   8.780 -0.4303 -0.6060  0.4153
 4558SOL    HW125136   0.531   3.314   8.745 -1.8941 -0.6340 -1.9586
 4558SOL    HW225137   0.466   3.369   8.875 -1.5913 -0.9799  0.2995
 4559SOL     OW25138   3.398   2.642   4.870  0.4478  0.1688 -0.1788
 4559SOL    HW125139   3.429   2.719   4.917  1.2764 -0.0654 -0.3516
 4559SOL    HW225140   3.391   2.676   4.780 -2.2602  1.2202  0.4196
 4560SOL     OW25141   2.598   0.760   5.354 -0.3509 -0.5965 -0.3504
 4560SOL    HW125142   2.624   0.775   5.263 -1.0255  0.1871 -0.4132
 4560SOL    HW225143   2.597   0.665   5.359  0.3218 -0.5680  0.2660
 4561SOL     OW25144   0.601   4.084  11.766  0.4094  0.0704  0.2213
 4561SOL    HW125145   0.636   4.129  11.689 -0.4535  0.6202  0.1553
 4561SOL    HW225146   0.538   4.026  11.722  1.5521 -1.5130  0.6639
 4562SOL     OW25147   3.056   1.736  14.144 -0.2661 -0.2187  0.2056
 4562SOL    HW125148   2.967   1.765  14.120 -0.6510 -1.0128  0.6736
 4562SOL    HW225149   3.049   1.759  14.237 -1.3367 -1.0244  0.3317
 4563SOL     OW25150   4.498   2.142   3.161 -0.0138  0.0501 -0.2889
 4563SOL    HW125151   4.582   2.168   3.198 -0.3579 -0.0057  0.5260
 4563SOL    HW225152   4.438   2.203   3.205  0.7324  0.3845  0.2568
 4564SOL     OW25153   0.624   0.939  12.196 -0.1893  0.4265 -0.0908
 4564SOL    HW125154   0.670   0.865  12.156 -0.6644 -0.7569  1.5086
 4564SOL    HW225155   0.692   1.004  12.214  0.3907 -0.2601  0.1906
 4565SOL     OW25156   3.094   2.179   8.262  0.4318 -0.2719  0.3679
 4565SOL    HW125157   2.999   2.168   8.255  0.2667  2.3689 -1.6691
 4565SOL    HW225158   3.095   2.248   8.328  0.6289 -1.0364  1.1643
 4566SOL     OW25159   2.420   0.985  13.415 -0.1006  0.3441 -1.4269
 4566SOL    HW125160   2.504   0.939  13.413  1.1701  2.6913 -0.9060
 4566SOL    HW225161   2.418   1.003  13.321  0.1426 -2.2612 -1.9478
 4567SOL     OW25162   4.441   4.580  15.244  0.2748  0.4797 -0.3361
 4567SOL    HW125163   4.531   4.568  15.275 -0.5757 -1.6247  1.2812
 4567SOL    HW225164   4.391   4.562  15.324  0.5031 -0.6897 -0.4614
 4568SOL     OW25165   4.619   3.047   4.732  0.4584 -0.5592  0.7912
 4568SOL    HW125166   4.676   3.111   4.689 -1.4190 -1.3476 -2.8987
 4568SOL    HW225167   4.604   2.989   4.657  0.2824  0.0373  0.3638
 4569SOL     OW25168   2.389   1.778   2.423 -0.3203  0.3843 -0.6113
 4569SOL    HW125169   2.358   1.760   2.511  1.3493  0.5874  0.0081
 4569SOL    HW225170   2.433   1.693   2.422 -0.1653  0.4494  0.6622
 4570SOL     OW25171   1.776   1.266   2.404  0.2869 -0.1467 -0.3022
 4570SOL    HW125172   1.835   1.208   2.453  0.9580  0.1666 -0.7386
 4570SOL    HW225173   1.720   1.202   2.361  0.6993 -0.3362 -0.5657
 4571SOL     OW25174   4.005   0.405   0.225 -0.1398 -0.0314  0.0405
 4571SOL    HW125175   4.034   0.491   0.196 -1.9325  0.5039 -0.1604
 4571SOL    HW225176   4.039   0.405   0.315 -0.9629  0.2990  0.3448
 4572SOL     OW25177   4.481   3.467   2.351 -0.0990  0.2728 -0.0625
 4572SOL    HW125178   4.492   3.390   2.295  1.2758  0.4858 -0.0833
 4572SOL    HW225179   4.572   3.491   2.371  0.1944  0.6197 -1.8424
 4573SOL     OW25180   4.316   2.653  14.325 -0.1297 -0.3815  0.1262
 4573SOL    HW125181   4.330   2.708  14.402 -0.3321 -0.5793  0.3028
 4573SOL    HW225182   4.381   2.582  14.332  0.5517  0.1526 -0.8237
 4574SOL     OW25183   1.143   3.626   5.935  0.2557 -0.0789 -0.4393
 4574SOL    HW125184   1.101   3.693   5.880 -1.5217  0.7730  1.9343
 4574SOL    HW225185   1.179   3.686   6.001  0.1401 -0.0717 -0.3829
 4575SOL     OW25186   3.972   3.028  10.565 -0.0753 -0.0955 -0.2259
 4575SOL    HW125187   4.039   3.073  10.617 -0.9244  1.8264 -0.8062
 4575SOL    HW225188   4.019   2.948  10.541  1.1168 -0.2893  2.6856
 4576SOL     OW25189   4.232   0.139   0.576  0.8286 -0.0873 -0.4650
 4576SOL    HW125190   4.225   0.109   0.666  2.7203 -0.6455 -0.5224
 4576SOL    HW225191   4.326   0.147   0.564  0.5589  2.2770 -1.1010
 4577SOL     OW25192   4.271   4.410   7.483 -0.4185  0.0145 -1.1593
 4577SOL    HW125193   4.295   4.421   7.391  0.2347  2.9801 -0.6307
 4577SOL    HW225194   4.176   4.407   7.475 -0.4016 -0.0282 -1.3412
 4578SOL     OW25195   4.271   3.262  10.980  0.0723  0.4590  0.6668
 4578SOL    HW125196   4.320   3.204  11.038  3.1040 -2.6543 -4.9155
 4578SOL    HW225197   4.183   3.234  11.004  0.3583 -1.5039 -0.5363
 4579SOL     OW25198   0.693   1.208   4.621  0.2522 -0.1032 -0.2303
 4579SOL    HW125199   0.644   1.289   4.604 -0.5033 -0.6191 -0.5358
 4579SOL    HW225200   0.730   1.225   4.708  1.8858 -0.4012 -0.8646
 4580SOL     OW25201   1.545   3.043  15.507 -0.2190  0.0550  0.4992
 4580SOL    HW125202   1.502   3.028  15.422 -0.6427  0.6848  0.5972
 4580SOL    HW225203   1.530   2.966  15.561  0.6216  0.0751  0.7515
 4581SOL     OW25204   4.336   2.855   2.308  0.0771  0.2011  0.4216
 4581SOL    HW125205   4.386   2.839   2.228  0.8459  0.2268  0.8946
 4581SOL    HW225206   4.399   2.841   2.379 -0.3242 -0.8796  0.5645
 4582SOL     OW25207   0.391   2.052  16.163 -0.4698  0.3161 -0.4061
 4582SOL    HW125208   0.451   2.106  16.111 -3.4396  0.5538 -3.5960
 4582SOL    HW225209   0.348   2.120  16.213  0.3290  0.4627  0.0706
 4583SOL     OW25210   1.990   1.946   7.270  0.6644  0.1503 -0.1587
 4583SOL    HW125211   1.965   1.867   7.318  0.0679  0.3091 -0.2098
 4583SOL    HW225212   2.067   1.967   7.324  0.3138 -0.4329  0.5657
 4584SOL     OW25213   1.048   1.621  14.779 -0.0026 -0.3462 -0.4059
 4584SOL    HW125214   0.984   1.667  14.724  0.4677  0.0617 -0.6136
 4584SOL    HW225215   0.989   1.588  14.847 -0.1596 -0.2443 -0.4921
 4585SOL     OW25216   0.371   1.780   4.423 -0.4375 -0.2376  0.4635
 4585SOL    HW125217   0.369   1.852   4.361 -0.0693 -1.2721 -0.7321
 4585SOL    HW225218   0.400   1.830   4.500  0.3979  0.2532 -0.1838
 4586SOL     OW25219   2.010   0.477  16.938  0.2172  0.5090  0.2309
 4586SOL    HW125220   2.085   0.504  16.885  0.6336  0.2123  0.6672
 4586SOL    HW225221   1.948   0.444  16.874 -0.5193  0.8376  0.7756
 4587SOL     OW25222   4.308   1.339   1.086 -0.1874  0.6171 -0.1196
 4587SOL    HW125223   4.230   1.305   1.041  0.1199 -0.9521  0.5125
 4587SOL    HW225224   4.277   1.405   1.148  1.1403  2.5007 -1.4753
 4588SOL     OW25225   0.962   0.203   1.640 -0.4215 -0.2890 -0.1540
 4588SOL    HW125226   1.004   0.267   1.697  0.5487 -3.2777  2.4903
 4588SOL    HW225227   0.977   0.121   1.686 -4.2594 -0.0629  1.5396
 4589SOL     OW25228   0.457   3.858  14.136  0.5018 -0.0492  1.0002
 4589SOL    HW125229   0.415   3.938  14.169 -1.8342 -1.5507  1.6788
 4589SOL    HW225230   0.524   3.848  14.203  1.9030  0.2710 -0.3680
 4590SOL     OW25231   3.668   3.550   6.638  0.2988 -0.0279 -0.0494
 4590SOL    HW125232   3.744   3.582   6.589  1.1801 -1.3607  0.4390
 4590SOL    HW225233   3.610   3.625   6.645  0.8647  0.3784  0.2478
 4591SOL     OW25234   3.048   0.455   4.115  0.5322 -0.0644  0.1622
 4591SOL    HW125235   3.027   0.400   4.039  1.6903 -2.1390  1.3453
 4591SOL    HW225236   3.020   0.542   4.088 -0.3193 -1.4215 -3.3992
 4592SOL     OW25237   2.351   4.017   0.753  0.0110 -0.3197 -0.1192
 4592SOL    HW125238   2.265   4.054   0.732 -0.1051 -1.8053 -2.2158
 4592SOL    HW225239   2.334   4.023   0.847 -1.2572  1.4467 -0.4783
 4593SOL     OW25240   1.932   4.068   6.981  0.4078  0.3390  0.4581
 4593SOL    HW125241   1.922   4.162   6.997 -1.0317  0.6007 -2.0899
 4593SOL    HW225242   1.917   4.035   7.070  1.5344  2.1231  1.3270
 4594SOL     OW25243   1.788   3.596   9.397 -0.2455  0.4735 -0.0417
 4594SOL    HW125244   1.717   3.533   9.408  0.1949  0.2703  1.6145
 4594SOL    HW225245   1.741   3.673   9.366 -2.1625 -0.2058  1.1792
 4595SOL     OW25246   2.268   0.350   9.134  0.0152  0.2427  0.1133
 4595SOL    HW125247   2.215   0.425   9.108 -0.6226 -0.1860  0.1856
 4595SOL    HW225248   2.347   0.358   9.080 -0.4318  1.1412 -0.4021
 4596SOL     OW25249   1.800   0.357   1.878  0.6455 -0.5130  0.6265
 4596SOL    HW125250   1.769   0.269   1.857  0.7177 -0.4055  0.0735
 4596SOL    HW225251   1.891   0.361   1.847 -0.5193 -0.9715 -2.7865
 4597SOL     OW25252   3.362   4.433   2.943 -0.2491 -0.4174  0.3554
 4597SOL    HW125253   3.320   4.507   2.899  3.8714  1.0980 -1.0351
 4597SOL    HW225254   3.411   4.394   2.870 -0.7828 -0.4816  0.0336
 4598SOL     OW25255   2.919   0.852   4.811 -0.2020  0.2626 -0.3171
 4598SOL    HW125256   2.967   0.783   4.857 -0.3688 -1.9064 -3.3863
 4598SOL    HW225257   2.880   0.906   4.879 -1.5504 -0.6832 -0.3252
 4599SOL     OW25258   0.538   0.237   5.389 -0.0469  0.4113 -0.6604
 4599SOL    HW125259   0.554   0.197   5.303 -0.5597 -1.1053 -0.0417
 4599SOL    HW225260   0.561   0.326   5.364  2.1855  0.3082  1.1113
 4600SOL     OW25261   3.184   3.958  14.794 -0.1721  0.0831  0.2131
 4600SOL    HW125262   3.265   3.954  14.744  1.0317  0.9146  2.0758
 4600SOL    HW225263   3.161   3.865  14.795  0.9696 -0.2111 -0.8920
 4601SOL     OW25264   1.985   1.111   3.421 -0.1919 -0.6238  0.1959
 4601SOL    HW125265   1.985   1.051   3.347  0.4148  2.0617 -1.9998
 4601SOL    HW225266   1.899   1.150   3.404  0.3775  1.2390  1.5724
 4602SOL     OW25267   3.551   0.938   5.287  0.1442 -0.5040  0.5702
 4602SOL    HW125268   3.488   1.009   5.272  1.3443  0.3947 -0.1694
 4602SOL    HW225269   3.539   0.925   5.381 -3.6218  0.5788  0.2588
 4603SOL     OW25270   4.099   0.179   3.075 -0.1594  0.0467  0.0896
 4603SOL    HW125271   4.017   0.130   3.073  1.5862 -2.8768 -0.3884
 4603SOL    HW225272   4.113   0.174   2.981  1.2318 -0.0396  0.2862
 4604SOL     OW25273   1.467   4.084   8.483  0.3315 -0.2495 -0.0370
 4604SOL    HW125274   1.391   4.035   8.514  0.4151 -0.3268  0.0492
 4604SOL    HW225275   1.493   4.129   8.564  0.7988 -1.2127  0.3603
 4605SOL     OW25276   1.546   4.249   2.139  0.2966  0.0423 -0.2953
 4605SOL    HW125277   1.506   4.258   2.053  2.8476 -2.8638 -1.7621
 4605SOL    HW225278   1.547   4.337   2.178 -1.9829  0.5954 -1.4928
 4606SOL     OW25279   0.315   0.567  12.823 -0.0561 -0.1307 -0.4630
 4606SOL    HW125280   0.297   0.654  12.858  1.8939  1.0431 -2.3052
 4606SOL    HW225281   0.296   0.562  12.729  0.5940  0.7884 -0.6511
 4607SOL     OW25282   4.157   4.692   8.405 -0.1779  0.4381 -0.2994
 4607SOL    HW125283   4.076   4.716   8.360 -1.2577 -1.0201  0.8462
 4607SOL    HW225284   4.135   4.611   8.451  0.6011 -0.3277 -1.2599
 4608SOL     OW25285   0.365   0.336  12.707 -0.1070 -0.6825 -0.3989
 4608SOL    HW125286   0.345   0.260  12.761 -1.2153 -0.1920 -0.1269
 4608SOL    HW225287   0.359   0.411  12.767 -2.1517 -1.8459  0.8313
 4609SOL     OW25288   0.940   3.476   6.892  0.2805 -0.6456  0.1521
 4609SOL    HW125289   1.034   3.481   6.874  0.1757  0.6217 -0.1080
 4609SOL    HW225290   0.922   3.383   6.889 -1.6189 -0.2898  0.7540
 4610SOL     OW25291   0.565   3.352   5.622  0.4452  0.2362 -0.1193
 4610SOL    HW125292   0.512   3.335   5.700 -0.0493  0.4808 -0.4079
 4610SOL    HW225293   0.651   3.329   5.659 -0.4475 -1.6813  0.7797
 4611SOL     OW25294   3.273   2.008  14.153  0.2838 -0.0413  0.2721
 4611SOL    HW125295   3.213   2.001  14.228  1.6924  0.6098  1.4609
 4611SOL    HW225296   3.328   1.931  14.170  1.0146  0.7908  1.6843
 4612SOL     OW25297   1.440   1.651   5.071 -0.4574 -0.3656  0.0448
 4612SOL    HW125298   1.459   1.608   4.987  1.0983 -2.8078  1.6489
 4612SOL    HW225299   1.447   1.578   5.133  2.9618  1.7156  2.1078
 4613SOL     OW25300   3.800   1.020   5.990 -0.6024  0.4423  0.0692
 4613SOL    HW125301   3.800   0.926   6.006  0.1164  0.4238 -0.0288
 4613SOL    HW225302   3.754   1.025   5.906 -2.5081  1.1109  1.1724
 4614SOL     OW25303   0.770   2.626   6.252  0.0396  0.2799 -0.4678
 4614SOL    HW125304   0.706   2.675   6.201 -1.7482 -3.1851 -1.5678
 4614SOL    HW225305   0.769   2.550   6.194 -0.0492  0.9667 -1.3614
 4615SOL     OW25306   3.057   4.526  12.134 -0.8018 -0.0483  0.2052
 4615SOL    HW125307   3.045   4.437  12.102  0.0114 -0.4282  0.9650
 4615SOL    HW225308   3.010   4.580  12.069 -2.3363 -2.2673 -0.5203
 4616SOL     OW25309   0.374   0.565   0.469  0.7402  0.3923  0.0705
 4616SOL    HW125310   0.369   0.632   0.400 -0.2650  0.3426  0.0958
 4616SOL    HW225311   0.469   0.557   0.482  0.5066 -0.6860  1.0776
 4617SOL     OW25312   3.704   3.824   8.673  0.1089 -0.3603  0.2990
 4617SOL    HW125313   3.678   3.810   8.764  1.2641 -0.2160  0.6515
 4617SOL    HW225314   3.689   3.916   8.650 -0.2687 -0.3824  0.4704
 4618SOL     OW25315   3.375   4.442  11.178  0.1218  0.4220 -0.4215
 4618SOL    HW125316   3.360   4.351  11.204  0.0287  0.0330 -1.8405
 4618SOL    HW225317   3.441   4.481  11.234  1.1362  0.5363 -1.7060
 4619SOL     OW25318   0.232   0.946  17.319 -0.1336  0.0939  0.5098
 4619SOL    HW125319   0.215   0.854  17.303 -0.4640  0.2904 -0.2762
 4619SOL    HW225320   0.241   0.947  17.415 -2.8591  0.4230  0.7560
 4620SOL     OW25321   4.336   0.121  15.089  0.6904  0.0874 -0.5993
 4620SOL    HW125322   4.380   0.044  15.054  0.2635  0.2425 -1.4959
 4620SOL    HW225323   4.293   0.081  15.164  0.0140  0.8242 -0.5974
 4621SOL     OW25324   1.000   2.506   6.692  0.4167  0.0024  0.1170
 4621SOL    HW125325   1.030   2.498   6.602  0.6999  0.1906  0.1955
 4621SOL    HW225326   1.005   2.601   6.700  1.8859 -0.0784  0.1365
 4622SOL     OW25327   2.108   0.921  14.651  0.4653  0.0080  0.2072
 4622SOL    HW125328   2.013   0.909  14.648  0.6524 -1.6011  0.8710
 4622SOL    HW225329   2.137   0.878  14.571 -1.2808  0.1327 -0.4984
 4623SOL     OW25330   1.892   2.708  15.611 -0.1035  0.4386 -0.3068
 4623SOL    HW125331   1.810   2.700  15.660  1.8359 -0.0436  2.8229
 4623SOL    HW225332   1.877   2.791  15.566 -2.5578 -0.4815 -1.2355
 4624SOL     OW25333   3.383   3.997   5.348 -0.3486 -0.2157  0.5264
 4624SOL    HW125334   3.426   3.925   5.394 -2.0831 -1.2491  0.5282
 4624SOL    HW225335   3.402   3.973   5.257  0.1789  0.4685  0.4631
 4625SOL     OW25336   1.981   0.836   4.085 -0.0665  0.1591  0.1870
 4625SOL    HW125337   1.891   0.807   4.067  0.0117 -0.8704  1.4896
 4625SOL    HW225338   1.960   0.929   4.098 -1.1288  0.1420 -1.3448
 4626SOL     OW25339   3.043   0.579   1.917  0.0811 -0.0804  0.0807
 4626SOL    HW125340   2.996   0.594   2.000 -1.7530 -2.1279 -0.5863
 4626SOL    HW225341   3.086   0.663   1.901  1.3942 -1.1442 -1.9877
 4627SOL     OW25342   1.509   1.775   3.979 -0.1720 -0.0369  0.1707
 4627SOL    HW125343   1.417   1.752   3.989  0.1171 -1.5894 -0.8304
 4627SOL    HW225344   1.544   1.698   3.935  2.4651  1.7120 -0.7852
 4628SOL     OW25345   1.706   2.179   3.452 -0.3896  0.1320 -0.7460
 4628SOL    HW125346   1.764   2.139   3.387 -0.6190  0.3575 -1.0931
 4628SOL    HW225347   1.697   2.122   3.528 -1.4248  1.5020  0.1585
 4629SOL     OW25348   2.860   3.552  16.504  0.7479  0.0189 -0.2151
 4629SOL    HW125349   2.785   3.500  16.534  1.0617 -0.5271 -0.3672
 4629SOL    HW225350   2.941   3.507  16.527  0.6569 -0.9284 -1.7092
 4630SOL     OW25351   0.870   2.144   2.124 -0.1436  0.2166 -0.2657
 4630SOL    HW125352   0.902   2.202   2.054 -2.4856  2.6222  0.6749
 4630SOL    HW225353   0.790   2.118   2.079  0.8480 -1.1924 -1.2500
 4631SOL     OW25354   2.538   4.523   1.065 -0.3704 -0.4690 -0.4405
 4631SOL    HW125355   2.568   4.486   1.148 -1.1307 -2.3626 -1.0031
 4631SOL    HW225356   2.538   4.619   1.070  1.5239 -0.4262 -1.0181
 4632SOL     OW25357   1.971   2.412   4.463 -0.3400 -0.0514  0.1508
 4632SOL    HW125358   2.059   2.433   4.433 -0.6355  3.2516  1.6227
 4632SOL    HW225359   1.930   2.396   4.379 -0.8833  0.2390  0.3587
 4633SOL     OW25360   1.998   2.096   4.508  0.4331  0.3343 -0.1332
 4633SOL    HW125361   2.094   2.094   4.509  0.4007 -0.2061  1.3168
 4633SOL    HW225362   1.974   2.182   4.543 -0.8296  0.3010 -0.9236
 4634SOL     OW25363   0.435   3.281  15.598  0.4239 -0.4879 -1.0684
 4634SOL    HW125364   0.348   3.245  15.578  0.7932 -1.9807  0.0353
 4634SOL    HW225365   0.467   3.223  15.667 -0.9675 -1.2463 -1.0556
 4635SOL     OW25366   4.475   2.649  16.582 -0.4001  0.0771  0.5215
 4635SOL    HW125367   4.546   2.654  16.647  1.9225  1.6780 -2.1177
 4635SOL    HW225368   4.467   2.744  16.571  1.0592 -0.1797 -2.6269
 4636SOL     OW25369   2.238   1.802   8.833 -0.1979 -0.0308 -0.4469
 4636SOL    HW125370   2.169   1.866   8.815  1.3944  1.8317  0.1233
 4636SOL    HW225371   2.264   1.826   8.922 -1.3270  1.5231 -0.5364
 4637SOL     OW25372   3.258   2.411  14.832 -0.2374 -0.9574 -0.5152
 4637SOL    HW125373   3.185   2.403  14.893 -1.9630  1.4454 -2.2422
 4637SOL    HW225374   3.327   2.446  14.888 -1.5352  1.0917 -0.2267
 4638SOL     OW25375   2.698   0.446  15.795  0.6790  0.1165  0.5358
 4638SOL    HW125376   2.648   0.479  15.871  1.0980  0.8177  0.4996
 4638SOL    HW225377   2.665   0.507  15.729  1.9117 -2.1354 -2.1371
 4639SOL     OW25378   0.317   0.091   3.131 -0.5209 -0.3101  0.0714
 4639SOL    HW125379   0.284   0.169   3.085  1.5898 -0.1441 -1.1400
 4639SOL    HW225380   0.397   0.129   3.167 -0.7847 -1.4705  1.9095
 4640SOL     OW25381   4.636   4.404   0.887 -0.6602 -0.1790  0.4494
 4640SOL    HW125382   4.676   4.418   0.973 -1.8667  2.8358  0.5418
 4640SOL    HW225383   4.681   4.470   0.834 -0.3349 -3.0478 -2.8508
 4641SOL     OW25384   3.074   4.174   6.468 -0.2608 -0.1060  0.3586
 4641SOL    HW125385   3.005   4.115   6.498  0.5085 -0.4201  1.5051
 4641SOL    HW225386   3.142   4.143   6.528  0.2028 -1.2033 -0.7256
 4642SOL     OW25387   3.718   0.613   8.599 -0.1608 -0.0285 -0.1071
 4642SOL    HW125388   3.729   0.639   8.690 -0.0850  2.0192 -0.6866
 4642SOL    HW225389   3.656   0.681   8.572  0.0407  0.0313 -0.4231
 4643SOL     OW25390   4.702   4.398   9.220  0.1770  0.4759  0.1669
 4643SOL    HW125391   0.018   4.369   9.301 -1.2848  0.8266  1.0315
 4643SOL    HW225392   4.639   4.328   9.202 -1.8364  2.1997  0.4752
 4644SOL     OW25393   1.807   2.757   9.709 -0.2270  0.1935  0.0220
 4644SOL    HW125394   1.896   2.784   9.733  0.1752  0.6086 -1.9229
 4644SOL    HW225395   1.752   2.792   9.780 -1.1904  0.2126 -0.7436
 4645SOL     OW25396   0.071   3.052   1.728  0.0881 -0.0477  0.6970
 4645SOL    HW125397   0.005   3.091   1.671  0.5914  0.3360  0.3872
 4645SOL    HW225398   0.121   3.002   1.664 -2.0412  0.0675 -1.0395
 4646SOL     OW25399   0.258   2.237   6.097  0.7131  0.3413 -0.4881
 4646SOL    HW125400   0.266   2.315   6.151  1.3866  0.7702 -1.2126
 4646SOL    HW225401   0.293   2.271   6.015  0.2293  0.4607 -0.6468
 4647SOL     OW25402   1.131   3.853   6.796  0.7108  0.0035  0.4581
 4647SOL    HW125403   1.141   3.790   6.724 -1.1567  0.4795 -0.2262
 4647SOL    HW225404   1.056   3.901   6.760  0.5140 -3.3333 -3.6173
 4648SOL     OW25405   3.228   3.525   6.501  0.7547 -0.2415  0.4853
 4648SOL    HW125406   3.249   3.448   6.554 -1.3817  0.4480  2.2929
 4648SOL    HW225407   3.311   3.535   6.454  0.4186 -0.2601 -0.1154
 4649SOL     OW25408   4.186   0.037   8.992 -0.2000  0.0021  0.6336
 4649SOL    HW125409   4.143   0.070   8.913 -1.5528  0.3189  1.4974
 4649SOL    HW225410   4.268   0.003   8.955  0.7862  1.5880  1.3277
 4650SOL     OW25411   2.896   3.790   8.815  0.0793 -0.2201  0.6603
 4650SOL    HW125412   2.813   3.741   8.817 -2.2482  3.7206  1.3843
 4650SOL    HW225413   2.919   3.789   8.723  0.6414 -0.0203  0.8010
 4651SOL     OW25414   0.678   4.406   2.518 -0.1476  0.3645 -0.5122
 4651SOL    HW125415   0.722   4.481   2.479 -1.2314  1.7123  0.8340
 4651SOL    HW225416   0.587   4.431   2.501 -0.4047 -0.8096 -0.8847
 4652SOL     OW25417   2.980   4.555  15.650 -0.5655 -0.2231 -0.2784
 4652SOL    HW125418   2.948   4.640  15.620  0.5300  0.5988  0.8304
 4652SOL    HW225419   3.024   4.531  15.569  4.0103 -0.3538  2.1804
 4653SOL     OW25420   3.960   1.753   8.677  0.2964 -0.0081 -0.7154
 4653SOL    HW125421   3.906   1.815   8.725  1.1833  1.4195 -1.5496
 4653SOL    HW225422   3.900   1.734   8.605  0.8744  2.1013 -1.7463
 4654SOL     OW25423   1.401   3.278   5.697  0.2688  0.1225 -0.2730
 4654SOL    HW125424   1.402   3.306   5.789  2.5760  1.8077 -0.8080
 4654SOL    HW225425   1.433   3.353   5.647  0.4595  0.8382  0.9118
 4655SOL     OW25426   2.030   0.699  10.434 -0.5418  0.5987  0.1991
 4655SOL    HW125427   2.050   0.724  10.344 -0.3582 -0.2612  0.0044
 4655SOL    HW225428   1.957   0.758  10.453 -1.8480 -0.8764 -0.2952
 4656SOL     OW25429   2.590   3.052  10.892 -0.2197  0.7476  0.3743
 4656SOL    HW125430   2.598   3.147  10.896  0.0546  0.6876  1.1684
 4656SOL    HW225431   2.609   3.027  10.982  0.1643 -0.0567  0.0718
 4657SOL     OW25432   4.574   1.213  10.412  0.0552  0.2621  0.0797
 4657SOL    HW125433   4.520   1.266  10.354 -1.2686 -0.1958  0.9175
 4657SOL    HW225434   4.528   1.129  10.405  1.9643 -0.8503  0.5264
 4658SOL     OW25435   3.093   0.674  14.262  0.6370  0.2537 -0.0150
 4658SOL    HW125436   3.009   0.632  14.243  0.4157  0.1282  1.2828
 4658SOL    HW225437   3.150   0.598  14.254  1.2464  0.6128  0.9563
 4659SOL     OW25438   4.686   0.618   8.995 -0.1253  0.0433  0.9043
 4659SOL    HW125439   0.055   0.610   9.006 -0.0313  0.8028  0.6727
 4659SOL    HW225440   4.664   0.525   8.986  0.6325 -0.1218  0.7732
 4660SOL     OW25441   3.963   0.613  14.345 -0.7190 -0.7724  0.1197
 4660SOL    HW125442   3.892   0.616  14.409 -1.9511  0.1892 -1.2691
 4660SOL    HW225443   3.998   0.525  14.355  2.6897  0.3417 -1.9732
 4661SOL     OW25444   2.388   3.107   3.026  0.3083 -0.1038  0.2833
 4661SOL    HW125445   2.462   3.108   2.965  1.6630 -1.1508  1.8787
 4661SOL    HW225446   2.381   3.011   3.030  0.0415 -0.0873  0.2005
 4662SOL     OW25447   1.771   0.513  16.507 -0.2441  0.3419 -0.2881
 4662SOL    HW125448   1.807   0.484  16.591 -1.4527  3.0751  1.2095
 4662SOL    HW225449   1.680   0.499  16.534  0.1556 -3.1170 -0.8671
 4663SOL     OW25450   3.681   2.514   4.389 -0.3173  0.1257  0.1862
 4663SOL    HW125451   3.652   2.591   4.438 -0.8454 -0.5244  0.8949
 4663SOL    HW225452   3.732   2.557   4.320 -1.7024  0.0368 -0.8728
 4664SOL     OW25453   0.927   2.925   3.134 -0.0560  0.0342  0.1195
 4664SOL    HW125454   0.919   3.021   3.132 -1.4661 -0.1170 -1.2219
 4664SOL    HW225455   0.854   2.896   3.079  2.3511 -1.1636 -2.4491
 4665SOL     OW25456   0.383   1.494  12.145  0.1817 -0.1566 -0.2604
 4665SOL    HW125457   0.471   1.528  12.130  0.3439 -0.5961 -0.3097
 4665SOL    HW225458   0.346   1.507  12.058  0.5398  1.9898 -0.0775
 4666SOL     OW25459   4.644   3.889  11.014  0.4991 -0.1673  0.1451
 4666SOL    HW125460   4.578   3.832  10.974  1.1615  0.1550 -1.4076
 4666SOL    HW225461   4.640   3.963  10.953  0.3474 -0.8519 -0.6862
 4667SOL     OW25462   1.633   2.651   9.239  0.1147 -0.2407  0.5594
 4667SOL    HW125463   1.686   2.704   9.299  0.8499 -0.5039  0.1540
 4667SOL    HW225464   1.549   2.637   9.282  0.4474  0.3404  1.3991
 4668SOL     OW25465   3.168   0.706  11.144 -0.1800 -0.3128 -0.2813
 4668SOL    HW125466   3.114   0.660  11.080 -1.9020 -0.1946  1.0939
 4668SOL    HW225467   3.101   0.713  11.212 -0.2287  3.0731 -0.6805
 4669SOL     OW25468   3.643   4.714   8.902 -0.4795 -0.3953 -0.8016
 4669SOL    HW125469   3.729   0.030   8.899 -1.2321  1.2339 -0.6010
 4669SOL    HW225470   3.675   4.638   8.949  1.1766  1.1090  0.4994
 4670SOL     OW25471   2.511   1.934   8.072  0.2399 -0.2821 -0.4038
 4670SOL    HW125472   2.489   2.018   8.112 -1.9187 -0.8260 -0.4226
 4670SOL    HW225473   2.523   1.881   8.151  0.5915  1.4549  0.7070
 4671SOL     OW25474   1.936   3.990  15.728 -0.1062  0.2203  0.4266
 4671SOL    HW125475   1.874   3.918  15.739 -0.1119  0.2828  0.8198
 4671SOL    HW225476   1.899   4.060  15.781  2.4677  0.3826  2.0408
 4672SOL     OW25477   0.483   3.920   8.811 -0.1704  0.0706 -0.1235
 4672SOL    HW125478   0.408   3.905   8.869  1.1719  0.6264  1.7546
 4672SOL    HW225479   0.555   3.874   8.854 -0.1298  0.2189 -0.0328
 4673SOL     OW25480   4.480   1.184   5.644 -0.2531  0.2176 -0.4762
 4673SOL    HW125481   4.394   1.176   5.685  0.7738 -1.3620  1.4140
 4673SOL    HW225482   4.543   1.149   5.708  0.3718 -1.4692 -2.0216
 4674SOL     OW25483   2.360   0.298   7.339 -0.3548  0.0310  0.2908
 4674SOL    HW125484   2.341   0.228   7.401  3.9155 -0.8309  0.6032
 4674SOL    HW225485   2.299   0.275   7.269  0.4690 -3.5151  0.7546
 4675SOL     OW25486   3.924   0.663   0.110 -0.4768  0.6969 -0.4637
 4675SOL    HW125487   3.854   0.675   0.175  1.3082  0.1840  1.5527
 4675SOL    HW225488   3.918   0.738   0.052  0.6371  1.5847  0.5667
 4676SOL     OW25489   0.273   2.896   4.692 -0.3862 -0.1814 -0.5502
 4676SOL    HW125490   0.213   2.956   4.647 -0.3404  0.1945 -0.1125
 4676SOL    HW225491   0.244   2.900   4.783  1.4937  0.7499  0.0103
 4677SOL     OW25492   3.987   2.293   0.366  0.4699  0.0135 -0.4250
 4677SOL    HW125493   4.023   2.293   0.455 -1.4550 -0.6005  0.3404
 4677SOL    HW225494   3.915   2.356   0.367  0.9674  0.5392  1.5560
 4678SOL     OW25495   2.854   1.919   0.184  0.4381 -0.5614 -0.2456
 4678SOL    HW125496   2.888   1.922   0.273 -2.7696  3.2754  0.8783
 4678SOL    HW225497   2.897   1.837   0.159  1.9632  0.5257 -1.1791
 4679SOL     OW25498   1.473   3.846   5.550 -0.1424  0.5090 -0.2941
 4679SOL    HW125499   1.395   3.897   5.574  0.1724  0.1369  1.5227
 4679SOL    HW225500   1.456   3.758   5.585 -0.0520  0.3876 -0.5580
 4680SOL     OW25501   0.982   4.439   2.235 -0.3143 -0.1236 -0.9381
 4680SOL    HW125502   0.935   4.369   2.189  2.9548 -1.5363 -2.1272
 4680SOL    HW225503   0.959   4.523   2.196 -0.7401  0.0733 -0.2773
 4681SOL     OW25504   4.554   1.767   2.760 -0.0141  0.7217 -0.0061
 4681SOL    HW125505   4.500   1.846   2.760 -0.0358  0.6955 -2.0728
 4681SOL    HW225506   4.640   1.801   2.786  0.5470 -0.5321 -0.1806
 4682SOL     OW25507   1.768   1.767  13.407 -0.4415 -0.0826 -0.3918
 4682SOL    HW125508   1.815   1.704  13.462  0.9375  1.9872  0.8004
 4682SOL    HW225509   1.834   1.829  13.375 -1.8713  1.8447  0.3989
 4683SOL     OW25510   2.578   3.133  15.505 -0.2198  0.5717  0.2066
 4683SOL    HW125511   2.632   3.132  15.584 -0.7258  2.5987  0.5766
 4683SOL    HW225512   2.619   3.199  15.449 -0.4601  0.0667 -0.5778
 4684SOL     OW25513   4.412   0.979   3.710 -0.9364  0.3204 -0.5060
 4684SOL    HW125514   4.486   0.936   3.665 -0.0211  1.8037 -0.4037
 4684SOL    HW225515   4.412   1.058   3.656  0.1779  0.3185 -0.5223
 4685SOL     OW25516   3.335   1.135  14.585 -0.4646  0.0990  0.0899
 4685SOL    HW125517   3.381   1.095  14.659 -0.5667  2.3334  1.3430
 4685SOL    HW225518   3.335   1.227  14.612  3.2407  0.5361 -1.3999
 4686SOL     OW25519   0.906   2.551   1.840 -0.0704 -0.1227  0.1937
 4686SOL    HW125520   0.905   2.460   1.867  0.3260 -0.4315 -0.8475
 4686SOL    HW225521   0.955   2.543   1.758  0.3212  0.6617  0.3505
 4687SOL     OW25522   0.260   0.275   5.800  0.2859  0.2419 -0.6198
 4687SOL    HW125523   0.292   0.269   5.710 -1.6609  0.3621 -1.3370
 4687SOL    HW225524   0.264   0.368   5.821  1.3587  0.2565 -0.9127
 4688SOL     OW25525   4.125   2.734   7.805  0.3193  0.5989 -0.4535
 4688SOL    HW125526   4.067   2.775   7.741 -1.3300 -0.3581  0.4393
 4688SOL    HW225527   4.141   2.643   7.781  1.2095  0.3903  0.9447
 4689SOL     OW25528   3.043   1.820  17.466  0.7087 -0.1373 -0.0300
 4689SOL    HW125529   2.996   1.838  17.384  2.0794 -2.9488 -1.4508
 4689SOL    HW225530   2.998   1.888  17.515  0.1876 -2.1155  2.2612
 4690SOL     OW25531   1.623   1.032  15.878  0.5647 -0.2066 -0.5473
 4690SOL    HW125532   1.597   1.124  15.882 -0.0269 -0.1998 -3.7697
 4690SOL    HW225533   1.539   0.990  15.898  0.0693  0.9851 -0.1069
 4691SOL     OW25534   4.629   3.998   5.870  0.0415  0.0464 -0.3059
 4691SOL    HW125535   4.545   3.953   5.858  0.7379 -0.9476 -1.5110
 4691SOL    HW225536   4.666   3.948   5.942  0.3055 -0.3780 -0.7323
 4692SOL     OW25537   1.857   2.350   4.228 -0.6544 -0.5575 -0.2194
 4692SOL    HW125538   1.900   2.393   4.154 -0.5848 -0.8972 -0.3774
 4692SOL    HW225539   1.905   2.268   4.233 -0.6713 -0.5637 -0.1656
 4693SOL     OW25540   4.371   3.025   6.433 -0.4346  0.3613 -0.0465
 4693SOL    HW125541   4.402   3.025   6.524 -0.9902 -2.3566  0.1431
 4693SOL    HW225542   4.335   2.937   6.418 -1.6016  0.5319  1.6362
 4694SOL     OW25543   2.761   3.779   6.288  0.2006 -0.2904 -0.5046
 4694SOL    HW125544   2.815   3.739   6.356 -2.1184 -0.5943  1.1776
 4694SOL    HW225545   2.696   3.827   6.340  0.7254  0.2202 -0.3091
 4695SOL     OW25546   3.417   2.496   7.144  0.6790  0.9005 -0.2021
 4695SOL    HW125547   3.332   2.509   7.102  2.3565  1.7457 -3.3056
 4695SOL    HW225548   3.441   2.410   7.108  0.1197  0.2399  0.9887
 4696SOL     OW25549   4.221   2.374   5.727 -0.2344 -0.3898  1.0131
 4696SOL    HW125550   4.148   2.334   5.680 -0.3340  1.9072 -0.7986
 4696SOL    HW225551   4.206   2.355   5.820  0.0032  0.1717  1.1694
 4697SOL     OW25552   2.970   2.000   8.032 -0.2214 -0.2063 -0.0547
 4697SOL    HW125553   2.900   2.051   8.073  1.2951  1.8677 -0.0565
 4697SOL    HW225554   3.042   2.031   8.088 -1.4512  1.0765  0.8032
 4698SOL     OW25555   1.833   3.858   4.004  0.3444  0.0619  0.3615
 4698SOL    HW125556   1.829   3.934   4.063 -0.3569  1.1782 -1.1458
 4698SOL    HW225557   1.791   3.903   3.931  0.7399 -2.8514 -1.6147
 4699SOL     OW25558   4.672   3.605   6.802  0.2190  0.1080 -0.5159
 4699SOL    HW125559   4.580   3.631   6.813 -0.3525 -2.8300  2.0152
 4699SOL    HW225560   4.676   3.594   6.897 -4.0241 -3.0213 -0.6426
 4700SOL     OW25561   0.597   3.174   8.635 -0.1580 -0.0536 -0.2133
 4700SOL    HW125562   0.557   3.225   8.565 -0.7455 -0.0294  0.1394
 4700SOL    HW225563   0.687   3.167   8.606  0.3423  1.9064  0.8183
 4701SOL     OW25564   2.140   0.295  15.681 -0.0726  0.8609 -0.2752
 4701SOL    HW125565   2.177   0.370  15.636 -1.3684  0.7011 -1.5954
 4701SOL    HW225566   2.081   0.257  15.616  0.1947 -0.1386  0.0603
 4702SOL     OW25567   4.105   1.215  11.910  0.0208 -0.3349  0.5798
 4702SOL    HW125568   4.191   1.230  11.951  1.7254 -0.7986 -2.8647
 4702SOL    HW225569   4.064   1.300  11.924 -0.6318 -0.8600  1.8545
 4703SOL     OW25570   0.494   1.291   4.929  0.0057  0.1572 -0.0818
 4703SOL    HW125571   0.447   1.305   4.846 -1.2281 -0.9440  0.4324
 4703SOL    HW225572   0.558   1.227   4.899 -0.1283 -0.4699  0.9684
 4704SOL     OW25573   2.149   2.014   0.175  0.2283 -0.0751 -0.9169
 4704SOL    HW125574   2.234   1.970   0.168  0.5202  0.2920  0.2192
 4704SOL    HW225575   2.091   1.939   0.183 -0.3499  0.3313 -1.3070
 4705SOL     OW25576   2.931   0.387   4.537 -0.0118 -0.0105 -0.2827
 4705SOL    HW125577   2.998   0.348   4.480  0.6171  1.6251 -0.6762
 4705SOL    HW225578   2.969   0.469   4.570 -1.2493  1.5913 -2.7987
 4706SOL     OW25579   1.044   0.235   4.243 -0.1234  0.5923  0.5678
 4706SOL    HW125580   1.126   0.280   4.265  0.1248  0.9235 -1.0450
 4706SOL    HW225581   1.046   0.219   4.149 -0.7439 -0.1169  0.6773
 4707SOL     OW25582   1.358   1.234   7.222 -0.1172  0.2617 -1.1160
 4707SOL    HW125583   1.351   1.146   7.259  0.4675 -0.2266 -2.1382
 4707SOL    HW225584   1.447   1.221   7.189  0.0481 -0.1247 -0.5201
 4708SOL     OW25585   1.555   2.393   6.790 -0.1746  0.0170  0.0575
 4708SOL    HW125586   1.521   2.311   6.752  1.7579 -1.0372  0.6093
 4708SOL    HW225587   1.594   2.436   6.714  1.8549  1.6155  2.0142
 4709SOL     OW25588   0.447   1.549   7.677 -0.2990 -0.7382 -0.0198
 4709SOL    HW125589   0.498   1.468   7.671  0.2892 -0.2535 -1.5324
 4709SOL    HW225590   0.515   1.612   7.702 -0.3827 -1.5881  2.3626
 4710SOL     OW25591   4.141   4.636  12.967  0.7384  0.3458  0.5957
 4710SOL    HW125592   4.176   4.651  12.879 -1.6198  2.2383 -0.0337
 4710SOL    HW225593   4.048   4.650  12.949  0.4692  0.7865  2.3049
 4711SOL     OW25594   4.463   2.281  12.794 -0.1566  0.7440  0.0330
 4711SOL    HW125595   4.540   2.260  12.847  0.4218  1.2734 -0.5945
 4711SOL    HW225596   4.482   2.373  12.774  0.2069  1.0084  1.6269
 4712SOL     OW25597   1.604   1.697   1.068 -0.2814  0.3117  0.2748
 4712SOL    HW125598   1.538   1.755   1.028 -2.2127 -1.6720  0.6083
 4712SOL    HW225599   1.562   1.664   1.147  1.1650 -1.4219  0.3168
 4713SOL     OW25600   1.482   4.687   5.721  0.2025  0.0506 -0.8114
 4713SOL    HW125601   1.443   4.621   5.778  3.1000  1.3845  2.7597
 4713SOL    HW225602   1.406   4.707   5.667 -0.1923 -1.5950 -0.8648
 4714SOL     OW25603   0.975   1.459   4.004  0.5473  0.9476 -0.2435
 4714SOL    HW125604   0.929   1.542   4.013 -0.1189  0.9137 -3.3587
 4714SOL    HW225605   1.010   1.484   3.918  0.7053  1.1364 -0.1266
 4715SOL     OW25606   3.884   2.284   6.644 -0.2544 -0.6299 -0.2036
 4715SOL    HW125607   3.854   2.372   6.621  0.5922 -0.8513 -2.1617
 4715SOL    HW225608   3.812   2.228   6.618 -0.4762  0.1375 -1.2482
 4716SOL     OW25609   4.642   0.846   3.589 -0.1638  0.1586 -0.3976
 4716SOL    HW125610   4.594   0.790   3.528  2.5185  0.6155 -2.9077
 4716SOL    HW225611   0.002   0.805   3.605 -0.5351 -0.9121 -1.2463
 4717SOL     OW25612   1.708   4.135   0.595  0.2659  0.5898 -0.1569
 4717SOL    HW125613   1.691   4.128   0.501 -2.9392 -0.2909  0.4702
 4717SOL    HW225614   1.617   4.129   0.624 -0.0598 -0.4988 -1.4245
 4718SOL     OW25615   1.872   4.684   5.809  0.0836 -0.2883 -0.1444
 4718SOL    HW125616   1.821   4.624   5.864 -0.3446  0.2647  0.0653
 4718SOL    HW225617   1.853   4.647   5.724  0.5635 -0.9307  0.0315
 4719SOL     OW25618   3.004   2.515   4.972 -0.4966  0.3497 -0.0799
 4719SOL    HW125619   3.013   2.589   4.912  3.3012  1.8802  2.3703
 4719SOL    HW225620   3.078   2.528   5.030  1.6795 -0.9292 -2.5899
 4720SOL     OW25621   3.898   2.085   4.481  0.0582  0.1231  0.2308
 4720SOL    HW125622   3.838   2.084   4.555  0.1248 -0.5835  0.2758
 4720SOL    HW225623   3.874   2.014   4.422  4.8866 -1.4544  0.1235
 4721SOL     OW25624   0.170   4.180   3.668 -0.2735  0.2340  0.2155
 4721SOL    HW125625   0.232   4.247   3.640  0.1096 -0.9636 -1.7797
 4721SOL    HW225626   0.098   4.203   3.609  0.7163  0.9181 -0.7340
 4722SOL     OW25627   4.213   2.805  12.591  0.0197  0.7403  0.4726
 4722SOL    HW125628   4.157   2.843  12.524  1.7643  1.3232 -0.6465
 4722SOL    HW225629   4.157   2.751  12.648 -1.8397  3.2310  1.0042
 4723SOL     OW25630   1.191   0.771  11.581 -0.1606 -0.0320 -0.5432
 4723SOL    HW125631   1.114   0.765  11.638  0.1252  2.0346  0.0238
 4723SOL    HW225632   1.228   0.689  11.615 -2.7757 -0.5127  1.1552
 4724SOL     OW25633   2.772   2.404   4.961  0.4225  0.0610 -0.0743
 4724SOL    HW125634   2.742   2.446   4.880 -1.2597 -1.4739 -0.2399
 4724SOL    HW225635   2.856   2.446   4.980 -0.3206  0.2904  2.6356
 4725SOL     OW25636   4.421   2.631   7.363 -0.0503 -0.7723 -0.2248
 4725SOL    HW125637   4.488   2.617   7.431 -1.0248 -1.0930  0.6627
 4725SOL    HW225638   4.340   2.631   7.414 -0.8818 -2.3453 -1.5197
 4726SOL     OW25639   0.925   1.457   1.124 -0.4185 -0.3645  0.4188
 4726SOL    HW125640   1.007   1.506   1.129  0.2537 -1.4055 -0.1122
 4726SOL    HW225641   0.910   1.479   1.216  0.4306 -0.3203  0.5509
 4727SOL     OW25642   0.867   3.891   6.564  0.3045 -0.2430  0.3558
 4727SOL    HW125643   0.835   3.975   6.597 -1.1998 -0.9489  0.6850
 4727SOL    HW225644   0.794   3.836   6.594  0.7179 -1.2699 -0.4946
 4728SOL     OW25645   0.836   0.918   0.142  0.1699 -0.2483 -0.5353
 4728SOL    HW125646   0.927   0.928   0.113 -0.6064 -0.3742 -3.0359
 4728SOL    HW225647   0.845   0.825   0.165 -2.4848 -0.7810 -1.6788
 4729SOL     OW25648   1.949   3.768   0.920  0.4965  0.2531  0.3067
 4729SOL    HW125649   1.963   3.687   0.872 -1.5164 -0.1545  0.3988
 4729SOL    HW225650   1.919   3.834   0.857  0.2704  0.0307  0.1838
 4730SOL     OW25651   2.529   4.596  16.077 -0.1160  0.0989 -0.5237
 4730SOL    HW125652   2.612   4.626  16.042  0.3771 -1.1395 -0.4141
 4730SOL    HW225653   2.486   4.537  16.014  1.1088 -0.4982 -0.7894
 4731SOL     OW25654   1.625   4.062  14.840  0.2932  0.1457  0.1716
 4731SOL    HW125655   1.609   4.110  14.759  0.3068 -1.0190 -0.5214
 4731SOL    HW225656   1.532   4.058  14.860  0.2921 -2.1230 -0.3505
 4732SOL     OW25657   3.494   3.939   2.200  0.3728 -0.1482 -0.3483
 4732SOL    HW125658   3.423   3.960   2.139  0.1093  2.8698  1.0181
 4732SOL    HW225659   3.480   4.008   2.265  0.0225 -0.8731  0.3517
 4733SOL     OW25660   3.031   3.953   7.727  0.5432 -0.0091  0.2564
 4733SOL    HW125661   3.031   3.986   7.816 -1.0711 -2.2612  1.1073
 4733SOL    HW225662   2.957   3.997   7.686 -0.2288  0.3089  1.9983
 4734SOL     OW25663   2.683   2.111   4.191 -0.0241 -0.0921  0.2355
 4734SOL    HW125664   2.690   2.017   4.174  1.7184 -0.4910  3.2485
 4734SOL    HW225665   2.648   2.138   4.106  2.2433  0.6887 -0.4415
 4735SOL     OW25666   4.543   4.530  16.316 -0.2417 -0.0195 -0.3210
 4735SOL    HW125667   4.492   4.489  16.385 -0.2866 -0.6354 -0.7248
 4735SOL    HW225668   4.569   4.613  16.356  1.5827  0.2306 -2.0034
 4736SOL     OW25669   1.800   2.927   7.389  0.4228  0.2051 -0.3167
 4736SOL    HW125670   1.819   2.916   7.296 -1.2688  0.2983 -0.6631
 4736SOL    HW225671   1.779   3.021   7.387 -1.3643 -0.1602  1.6340
 4737SOL     OW25672   0.772   3.372   7.459  0.3139  0.4799  0.5097
 4737SOL    HW125673   0.717   3.319   7.401  1.8565  1.5364 -1.9682
 4737SOL    HW225674   0.827   3.309   7.506 -0.5102 -1.6383 -1.3244
 4738SOL     OW25675   1.875   3.610  10.574  0.3105  0.4634  0.1309
 4738SOL    HW125676   1.822   3.668  10.629  2.2116 -0.8357  3.3295
 4738SOL    HW225677   1.965   3.620  10.607 -0.1984 -0.2844  1.7297
 4739SOL     OW25678   1.086   3.703   9.396  0.5070  0.6088 -0.5061
 4739SOL    HW125679   1.156   3.707   9.460  0.6227 -1.0189 -0.5362
 4739SOL    HW225680   1.049   3.791   9.395  0.1550  0.4948  1.7974
 4740SOL     OW25681   2.508   4.713   5.032 -0.2692  0.0907 -0.1798
 4740SOL    HW125682   2.434   4.653   5.041 -0.1560 -0.0406 -0.1210
 4740SOL    HW225683   2.544   4.681   4.950 -1.2826  1.4854 -1.1554
 4741SOL     OW25684   4.304   3.534  10.961 -0.7062 -0.2728 -0.5288
 4741SOL    HW125685   4.289   3.440  10.972 -2.0706 -0.2550 -2.2718
 4741SOL    HW225686   4.216   3.566  10.981 -1.4010 -1.8287 -1.1105
 4742SOL     OW25687   4.099   4.099   5.944  0.2319 -0.0102  0.3133
 4742SOL    HW125688   4.176   4.055   5.981 -0.8892 -2.5829 -0.4166
 4742SOL    HW225689   4.145   4.139   5.870 -0.5192 -0.0560 -0.1741
 4743SOL     OW25690   2.005   3.209   7.502  0.5147  0.2858  0.5213
 4743SOL    HW125691   1.923   3.201   7.453  0.8817  0.4016 -0.1156
 4743SOL    HW225692   2.001   3.133   7.560  0.8036  1.1399  1.6725
 4744SOL     OW25693   3.296   3.942   2.025  0.0285 -0.1540 -0.2803
 4744SOL    HW125694   3.267   3.867   2.077 -0.9040  0.7384  0.4945
 4744SOL    HW225695   3.225   4.005   2.042  0.6447  0.2997  0.6248
 4745SOL     OW25696   4.698   3.689   4.629  0.3469  0.1658 -0.2936
 4745SOL    HW125697   4.668   3.599   4.620  0.8535  0.0007 -0.3437
 4745SOL    HW225698   4.610   3.726   4.639 -0.2849 -0.9800 -1.6219
 4746SOL     OW25699   3.079   0.909  16.793 -0.0495  0.5912 -0.4386
 4746SOL    HW125700   3.059   0.939  16.704  0.0010 -2.1875 -1.3938
 4746SOL    HW225701   3.143   0.840  16.778 -0.8359 -0.1226 -0.5399
 4747SOL     OW25702   1.040   4.005   4.555 -0.2020  0.1030 -0.1669
 4747SOL    HW125703   1.107   4.025   4.489  0.3577 -1.9206 -0.2226
 4747SOL    HW225704   1.059   4.061   4.631 -1.1613  3.0487 -2.0813
 4748SOL     OW25705   0.063   0.481  13.613 -0.1169  0.2181  0.0651
 4748SOL    HW125706   0.102   0.454  13.697 -1.5757 -0.2688  0.5729
 4748SOL    HW225707   0.110   0.561  13.591 -0.3047  0.6504  1.2324
 4749SOL     OW25708   4.617   1.665   2.364 -0.0365 -0.2319  0.6022
 4749SOL    HW125709   4.636   1.661   2.458 -0.3662 -0.2141  0.6696
 4749SOL    HW225710   4.684   1.610   2.323  0.3850  1.2165 -0.6380
 4750SOL     OW25711   3.362   2.432  15.412  0.3914  0.3536  0.3851
 4750SOL    HW125712   3.354   2.523  15.382 -0.4304 -0.0143 -0.5066
 4750SOL    HW225713   3.287   2.391  15.369  0.9403 -0.9113  0.6402
 4751SOL     OW25714   4.651   0.453   1.193  0.4249  0.1903  0.1687
 4751SOL    HW125715   4.713   0.395   1.148  1.7167  0.9198  1.0331
 4751SOL    HW225716   4.567   0.426   1.156  0.6582  0.9568 -0.9473
 4752SOL     OW25717   0.351   1.775   7.077 -0.3688 -0.2284 -0.6305
 4752SOL    HW125718   0.274   1.727   7.105 -0.4912 -0.8489 -2.0272
 4752SOL    HW225719   0.333   1.852   7.131 -0.2261 -0.7058  0.0857
 4753SOL     OW25720   1.846   0.628  13.718  0.2119  0.1756  0.1950
 4753SOL    HW125721   1.785   0.605  13.648 -0.9646  1.7995  0.7072
 4753SOL    HW225722   1.846   0.722  13.700  2.5194  0.1800  0.1201
 4754SOL     OW25723   3.104   0.842   3.445  0.1000  0.0652 -0.6336
 4754SOL    HW125724   3.047   0.778   3.402  0.9853 -0.2153 -1.3903
 4754SOL    HW225725   3.122   0.911   3.381 -0.4716 -0.6464 -1.5744
 4755SOL     OW25726   0.991   2.483   4.413  0.6220 -0.1928 -0.6912
 4755SOL    HW125727   0.913   2.493   4.468  0.2984 -0.5725 -1.0811
 4755SOL    HW225728   0.981   2.541   4.338 -0.9492  0.7342  0.2155
 4756SOL     OW25729   1.814   3.227   4.939 -0.3307 -0.3705 -0.6005
 4756SOL    HW125730   1.839   3.319   4.949 -0.0104 -0.4382 -0.7677
 4756SOL    HW225731   1.841   3.207   4.849 -1.0760 -1.0605 -0.6628
 4757SOL     OW25732   2.664   3.336   4.715  0.0445 -0.7818  0.4165
 4757SOL    HW125733   2.646   3.351   4.807  0.6668 -0.1280  0.4383
 4757SOL    HW225734   2.716   3.412   4.688  0.1939 -0.6366  1.1367
 4758SOL     OW25735   2.174   3.452   3.972  0.0359 -0.2067 -0.0880
 4758SOL    HW125736   2.086   3.472   4.004 -0.3012 -3.7567  1.2388
 4758SOL    HW225737   2.233   3.516   4.012 -0.0404 -0.1795 -0.0192
 4759SOL     OW25738   1.809   3.939   7.520  0.6001  0.4064  0.8557
 4759SOL    HW125739   1.717   3.942   7.545  0.5307  0.7001  0.5577
 4759SOL    HW225740   1.849   4.016   7.560  2.2639 -0.6122  1.1490
 4760SOL     OW25741   4.040   3.616  11.026  0.5961  0.4369 -0.3323
 4760SOL    HW125742   3.948   3.606  11.048  0.6409  0.1095 -0.2926
 4760SOL    HW225743   4.076   3.633  11.113  1.7620 -0.8351 -0.5624
 4761SOL     OW25744   4.706   0.827   3.046 -0.0277 -0.2792  0.6449
 4761SOL    HW125745   0.036   0.866   3.114  0.9153 -2.2572  1.0200
 4761SOL    HW225746   4.631   0.887   3.049  0.5759  0.5028 -0.1606
 4762SOL     OW25747   1.358   2.518   4.323  0.1030 -0.7039  0.2498
 4762SOL    HW125748   1.410   2.571   4.262  2.0231 -0.8847  1.7657
 4762SOL    HW225749   1.371   2.573   4.400  0.4941  1.4777 -1.3552
 4763SOL     OW25750   0.964   2.091   7.582 -0.5134  0.2711 -0.1636
 4763SOL    HW125751   1.012   2.067   7.662  0.6597 -1.9152 -1.5263
 4763SOL    HW225752   1.026   2.142   7.531  1.1741  0.8000  2.3758
 4764SOL     OW25753   1.857   1.294  15.041 -0.2485  0.0634  0.2960
 4764SOL    HW125754   1.864   1.389  15.038 -1.2361  0.1765  1.6611
 4764SOL    HW225755   1.889   1.285  15.130  0.4781 -0.5851 -0.0367
 4765SOL     OW25756   1.200   1.516  11.810 -0.3286  0.0783  1.1389
 4765SOL    HW125757   1.178   1.451  11.877 -1.9243  1.4289  1.9052
 4765SOL    HW225758   1.278   1.472  11.776 -1.8789 -0.7635 -1.3381
 4766SOL     OW25759   4.271   1.302   5.243 -0.5133  0.2707 -0.2439
 4766SOL    HW125760   4.319   1.335   5.167 -1.4745 -0.8881 -1.3628
 4766SOL    HW225761   4.347   1.293   5.301 -0.4473  1.1437 -0.2017
 4767SOL     OW25762   4.325   0.654  10.034 -0.6998 -0.1037  0.0116
 4767SOL    HW125763   4.240   0.696  10.049 -0.9410 -0.2001 -1.0953
 4767SOL    HW225764   4.302   0.564  10.010  1.8883 -0.5992 -0.5506
 4768SOL     OW25765   1.727   3.309   0.360 -0.1539  0.5423 -0.4952
 4768SOL    HW125766   1.718   3.241   0.293  2.9931  1.5089 -1.9081
 4768SOL    HW225767   1.764   3.254   0.429  0.7639  0.4280 -1.0750
 4769SOL     OW25768   2.050   3.867   1.657 -0.3330 -0.3958  0.6073
 4769SOL    HW125769   2.135   3.907   1.671  0.0753 -1.4239  1.0760
 4769SOL    HW225770   1.989   3.937   1.634 -2.1416 -1.9373  0.6761
 4770SOL     OW25771   2.338   1.579   8.199  0.3611 -0.8055  0.2894
 4770SOL    HW125772   2.277   1.526   8.251  0.3785 -0.3811  0.7467
 4770SOL    HW225773   2.360   1.511   8.136  2.1978 -0.4624  0.5813
 4771SOL     OW25774   4.648   0.886  14.497  0.0602  0.2767 -0.1693
 4771SOL    HW125775   4.708   0.812  14.508 -1.1660 -0.9733 -1.8299
 4771SOL    HW225776   4.716   0.942  14.461 -0.2491  0.1332 -0.9627
 4772SOL     OW25777   0.100   0.364   6.410  0.2456  0.3207 -0.3785
 4772SOL    HW125778   0.019   0.335   6.451  1.1436 -0.2667  0.9740
 4772SOL    HW225779   0.097   0.302   6.336 -0.9399 -1.7789  1.4296
 4773SOL     OW25780   1.011   3.727   7.632  0.3574  0.0353 -0.1849
 4773SOL    HW125781   0.919   3.733   7.608 -0.2316 -0.4589  1.9968
 4773SOL    HW225782   1.013   3.802   7.691 -2.8539  0.0268 -0.1070
 4774SOL     OW25783   4.111   2.566   0.301  0.2960  0.0833 -0.5771
 4774SOL    HW125784   4.063   2.494   0.343  1.6990 -1.3191 -1.3535
 4774SOL    HW225785   4.097   2.556   0.207 -0.1156  2.4962 -0.7548
 4775SOL     OW25786   3.351   3.062   3.885 -0.0650  0.7719 -0.3610
 4775SOL    HW125787   3.290   3.054   3.812  1.1203 -2.1381 -1.0299
 4775SOL    HW225788   3.395   2.980   3.862 -4.0970 -1.3169 -0.5871
 4776SOL     OW25789   3.283   0.107   6.332  0.1721  0.7827 -0.1402
 4776SOL    HW125790   3.309   0.068   6.248 -0.4225  0.6620 -0.2680
 4776SOL    HW225791   3.217   0.166   6.297  0.2008  0.5324 -0.6208
 4777SOL     OW25792   4.087   3.872   7.107 -0.1006  0.2821  0.4166
 4777SOL    HW125793   4.095   3.805   7.175  3.0088 -1.0713 -1.2876
 4777SOL    HW225794   4.175   3.856   7.074 -0.5276 -0.6031 -0.3123
 4778SOL     OW25795   2.738   1.340   4.153 -0.3655  0.2966  0.5939
 4778SOL    HW125796   2.706   1.404   4.090 -2.0117  1.0157  2.1663
 4778SOL    HW225797   2.826   1.378   4.161 -1.6759  3.8409 -1.6929
 4779SOL     OW25798   0.632   1.732   7.858 -0.2621 -0.2022  0.1248
 4779SOL    HW125799   0.702   1.667   7.849  0.0348  0.3906 -1.8263
 4779SOL    HW225800   0.674   1.817   7.870  1.0567 -0.8347 -0.0176
 4780SOL     OW25801   4.649   1.558   7.999  0.0347  0.2149 -0.3311
 4780SOL    HW125802   4.695   1.537   8.081  0.3356 -0.8915 -0.7773
 4780SOL    HW225803   4.702   1.632   7.972  2.0590 -1.7295 -1.6223
 4781SOL     OW25804   4.692   4.335  14.086  0.3242  0.3143 -0.2710
 4781SOL    HW125805   4.666   4.300  14.171 -0.5134  0.8395 -0.3159
 4781SOL    HW225806   4.669   4.425  14.108  1.5220  0.3457  0.9047
 4782SOL     OW25807   0.865   1.309   6.931 -0.5107  0.2788  0.5715
 4782SOL    HW125808   0.920   1.366   6.878 -1.2588 -1.6635 -2.2487
 4782SOL    HW225809   0.939   1.263   6.971 -1.0130  0.2140  1.4235
 4783SOL     OW25810   1.370   0.786   8.971 -0.6927  0.0047 -0.0531
 4783SOL    HW125811   1.309   0.847   9.012  1.0758  0.8976  1.2309
 4783SOL    HW225812   1.317   0.772   8.893 -0.1301 -2.1624 -0.0530
 4784SOL     OW25813   1.431   4.702   1.361  0.1216 -0.2397  0.0012
 4784SOL    HW125814   1.420   0.015   1.274  0.5135 -1.3624 -0.5434
 4784SOL    HW225815   1.397   4.614   1.344 -1.8198  0.4819  0.1711
 4785SOL     OW25816   2.167   1.578  16.468  0.1813 -0.2622 -0.1236
 4785SOL    HW125817   2.100   1.545  16.528  1.0910 -0.6072  0.7014
 4785SOL    HW225818   2.155   1.672  16.477  1.1441 -0.3270  1.8750
 4786SOL     OW25819   4.619   2.340   5.903  0.0923  0.2413 -0.8944
 4786SOL    HW125820   4.661   2.255   5.891  3.0988  1.5455  0.4190
 4786SOL    HW225821   4.584   2.358   5.816 -0.0966 -1.7720 -1.2280
 4787SOL     OW25822   1.645   3.583   2.985 -0.4711  0.1476 -0.6956
 4787SOL    HW125823   1.623   3.490   2.988 -2.4638  0.6373  0.0762
 4787SOL    HW225824   1.669   3.590   3.077 -4.3178 -2.5040  0.5131
 4788SOL     OW25825   0.929   2.627   0.483  0.0133 -0.2932 -0.3682
 4788SOL    HW125826   0.896   2.624   0.393  1.2189 -1.4077 -0.7789
 4788SOL    HW225827   0.950   2.720   0.491 -2.0015  0.0046  1.3544
 4789SOL     OW25828   2.777   0.087   1.906 -0.7047  0.0350  0.2853
 4789SOL    HW125829   2.728   0.013   1.870 -0.5237  0.5642 -1.0666
 4789SOL    HW225830   2.717   0.118   1.973 -0.6239 -0.3004  0.5112
 4790SOL     OW25831   1.659   2.803   6.756  0.6359  0.0836  0.0627
 4790SOL    HW125832   1.613   2.818   6.839  0.9738  1.4224  0.0192
 4790SOL    HW225833   1.718   2.879   6.755  0.5468  0.1266 -2.7652
 4791SOL     OW25834   2.021   4.503   3.333 -0.1598 -0.4891  1.0182
 4791SOL    HW125835   1.987   4.496   3.244 -0.1623  2.9213  0.7449
 4791SOL    HW225836   2.079   4.427   3.338  0.3875 -0.1435 -0.0002
 4792SOL     OW25837   1.994   4.412   5.703 -0.0181 -0.0724 -0.6836
 4792SOL    HW125838   1.934   4.337   5.704 -0.1209  0.0330  1.1119
 4792SOL    HW225839   1.956   4.467   5.634 -1.1556  0.8774  0.6931
 4793SOL     OW25840   1.596   0.851   2.679 -0.4340 -0.0294  0.5181
 4793SOL    HW125841   1.612   0.925   2.621 -1.2288 -1.5560 -1.6069
 4793SOL    HW225842   1.509   0.818   2.657 -0.0112 -0.4720 -0.4516
 4794SOL     OW25843   0.181   0.867   0.422  0.1367 -0.1264 -0.4384
 4794SOL    HW125844   0.228   0.903   0.497  2.0336 -1.7249 -0.8652
 4794SOL    HW225845   0.107   0.824   0.466  1.9979 -0.1551  2.6955
 4795SOL     OW25846   1.693   2.707   7.098  0.8277 -0.7873  0.1895
 4795SOL    HW125847   1.626   2.757   7.051 -0.2200 -2.1697  0.1933
 4795SOL    HW225848   1.762   2.772   7.112  2.5770 -2.3805 -1.0369
 4796SOL     OW25849   2.111   3.839   4.746 -0.7821  0.5387  0.2747
 4796SOL    HW125850   2.071   3.841   4.834 -1.6017 -0.8564 -0.0615
 4796SOL    HW225851   2.201   3.862   4.768 -0.3060  1.3165 -2.5477
 4797SOL     OW25852   4.078   2.438   0.596 -0.1542  0.7416 -0.5064
 4797SOL    HW125853   4.170   2.461   0.607 -0.0554  0.6833 -1.2724
 4797SOL    HW225854   4.040   2.521   0.624 -0.4011  0.7428 -0.8602
 4798SOL     OW25855   0.489   4.057   2.931 -0.5119 -0.1671 -0.0162
 4798SOL    HW125856   0.426   4.106   2.878 -0.3222 -0.6926 -0.7220
 4798SOL    HW225857   0.514   3.983   2.876 -1.9853 -0.8972  0.3146
 4799SOL     OW25858   2.164   2.137   6.414 -0.5367  0.7291 -0.1805
 4799SOL    HW125859   2.123   2.217   6.379 -0.0525  0.9051 -0.3362
 4799SOL    HW225860   2.114   2.067   6.373 -0.1748  0.9678 -1.0273
 4800SOL     OW25861   2.206   0.924   4.319  0.1670  0.2867  0.0190
 4800SOL    HW125862   2.122   0.947   4.279  0.2528 -1.3773 -1.1155
 4800SOL    HW225863   2.194   0.945   4.411 -0.5050  0.0135 -0.0123
 4801SOL     OW25864   2.762   2.530   6.773 -0.1592 -0.1754 -0.0463
 4801SOL    HW125865   2.772   2.580   6.854 -1.1287 -1.2203  0.7140
 4801SOL    HW225866   2.715   2.602   6.730  0.2685  0.0754 -0.0941
 4802SOL     OW25867   2.669   2.364   7.984 -0.2304 -0.0471  0.0822
 4802SOL    HW125868   2.729   2.389   8.054  2.0552  0.2507 -1.9935
 4802SOL    HW225869   2.732   2.310   7.936 -1.7334 -0.6438 -1.2241
 4803SOL     OW25870   2.897   1.595   5.666 -0.2398  0.1826 -0.6709
 4803SOL    HW125871   2.964   1.527   5.668 -1.1931 -0.6723  2.5206
 4803SOL    HW225872   2.926   1.641   5.587 -1.2605  1.4160 -0.3285
 4804SOL     OW25873   1.861   1.432   0.463  0.0759 -0.2456 -0.3822
 4804SOL    HW125874   1.839   1.350   0.507 -0.1563  0.2757  0.4626
 4804SOL    HW225875   1.880   1.483   0.541 -2.2574 -0.0019  0.0434
 4805SOL     OW25876   2.301   1.840   9.971 -0.8263 -0.2553 -0.3879
 4805SOL    HW125877   2.223   1.794   9.940  0.8375 -2.0680 -1.8732
 4805SOL    HW225878   2.333   1.886   9.894  1.2253 -0.2013  0.4817
 4806SOL     OW25879   0.656   2.681   7.934  0.5095  0.4359 -0.0044
 4806SOL    HW125880   0.696   2.672   8.021 -1.6673 -0.2467  0.9286
 4806SOL    HW225881   0.624   2.591   7.927  0.2427  0.6367 -1.3811
 4807SOL     OW25882   3.346   1.547   7.922  0.3511 -0.3577 -0.2976
 4807SOL    HW125883   3.261   1.576   7.955  0.3255  0.8395 -1.3850
 4807SOL    HW225884   3.334   1.454   7.939 -0.7869 -0.6309 -2.5723
 4808SOL     OW25885   1.545   4.666  16.654  0.3360  0.4895 -0.5326
 4808SOL    HW125886   1.567   4.573  16.645 -0.9933 -0.0261  1.5096
 4808SOL    HW225887   1.455   4.652  16.685  0.2797 -1.2962 -1.5148
 4809SOL     OW25888   4.637   2.474   3.217 -0.7344 -0.0379  0.1238
 4809SOL    HW125889   4.570   2.406   3.227 -0.6596 -0.0324  0.6706
 4809SOL    HW225890   4.691   2.434   3.149 -1.0644  0.3735 -0.3766
 4810SOL     OW25891   0.527   1.118   3.726 -0.5456  0.4016  0.1905
 4810SOL    HW125892   0.547   1.205   3.692  1.8267  0.0344  0.6803
 4810SOL    HW225893   0.431   1.116   3.719 -0.7238  1.2327  2.4338
 4811SOL     OW25894   2.842   3.615  11.158  0.4739 -0.0599 -0.3336
 4811SOL    HW125895   2.764   3.574  11.196 -0.3366 -0.2179 -2.1768
 4811SOL    HW225896   2.843   3.696  11.209  3.3352  0.4653 -1.2169
 4812SOL     OW25897   1.681   4.156   9.396 -0.1842  0.0760  0.3693
 4812SOL    HW125898   1.670   4.248   9.421  0.6170  0.5391 -0.9695
 4812SOL    HW225899   1.748   4.115   9.450 -0.9554 -3.1800 -1.1489
 4813SOL     OW25900   2.617   0.334   8.929 -0.6512  0.0346  0.1030
 4813SOL    HW125901   2.646   0.419   8.895  0.5485 -0.9843 -1.4011
 4813SOL    HW225902   2.694   0.308   8.979 -0.3992  0.7823  0.1011
 4814SOL     OW25903   4.197   3.570   6.215 -0.3217  0.0765 -0.7979
 4814SOL    HW125904   4.275   3.519   6.193 -1.3274 -1.9957  0.4258
 4814SOL    HW225905   4.148   3.508   6.269  2.3816 -1.6409 -0.3095
 4815SOL     OW25906   3.090   1.560   7.666 -0.1112 -0.2112 -0.4743
 4815SOL    HW125907   3.012   1.560   7.722 -0.1290  0.9817 -0.4849
 4815SOL    HW225908   3.141   1.479   7.673  1.6013  1.0041  1.2588
 4816SOL     OW25909   3.595   4.259  10.426  0.0248 -0.3488  0.0397
 4816SOL    HW125910   3.529   4.282  10.490  1.3379  0.7775  0.9820
 4816SOL    HW225911   3.536   4.248  10.351 -0.5874  0.6690  0.3873
 4817SOL     OW25912   1.747   3.464   0.773 -0.7404 -0.7009  0.7695
 4817SOL    HW125913   1.752   3.408   0.696  1.0085  0.4055  0.0807
 4817SOL    HW225914   1.828   3.515   0.768 -0.5179 -1.2694 -1.3385
 4818SOL     OW25915   3.896   3.604   8.113 -0.2888  0.1856 -0.4829
 4818SOL    HW125916   3.945   3.668   8.165  0.5115  0.3218 -1.4153
 4818SOL    HW225917   3.892   3.530   8.175 -0.6495  2.3000  2.0288
 4819SOL     OW25918   3.658   3.134   9.175 -0.0529  0.2187  0.0210
 4819SOL    HW125919   3.741   3.099   9.143  0.3316 -0.6315  1.9416
 4819SOL    HW225920   3.687   3.225   9.180  1.6371 -0.4184  1.7318
 4820SOL     OW25921   1.057   4.227   3.530  0.1362  0.2881  0.0114
 4820SOL    HW125922   1.074   4.137   3.558  1.1524  0.4222 -0.1728
 4820SOL    HW225923   1.093   4.218   3.442 -2.1221 -0.4378 -0.8383
 4821SOL     OW25924   3.794   3.187   4.195 -0.0999  0.7310 -0.3079
 4821SOL    HW125925   3.831   3.103   4.167 -1.6635  0.3469 -1.2047
 4821SOL    HW225926   3.720   3.193   4.134  0.1264  0.5522 -0.6008
 4822SOL     OW25927   2.095   1.845   2.482 -0.2111 -0.2424 -0.4271
 4822SOL    HW125928   2.094   1.777   2.549 -0.1646  0.1165 -0.0655
 4822SOL    HW225929   2.135   1.909   2.542 -3.1322  0.6604  0.5438
 4823SOL     OW25930   2.208   1.120  15.035  0.2498 -0.4436  0.0145
 4823SOL    HW125931   2.254   1.037  15.043 -1.0764 -1.2688 -1.1003
 4823SOL    HW225932   2.130   1.076  15.003  0.0462  0.6125 -0.9449
 4824SOL     OW25933   3.387   1.637   4.319 -0.2475 -0.2154 -0.4944
 4824SOL    HW125934   3.319   1.656   4.254 -1.4526 -0.5566  0.6722
 4824SOL    HW225935   3.360   1.556   4.362 -1.8494  1.5686  1.8830
 4825SOL     OW25936   2.190   1.911  10.783 -0.5680  0.1253 -0.3505
 4825SOL    HW125937   2.146   1.881  10.704 -0.6287 -0.0201 -0.2611
 4825SOL    HW225938   2.275   1.867  10.781 -0.5159  0.2483 -0.7096
 4826SOL     OW25939   3.153   4.560   6.648 -0.5202 -0.2805  0.4841
 4826SOL    HW125940   3.187   4.538   6.735  1.9796 -2.1222 -0.9718
 4826SOL    HW225941   3.106   4.483   6.616  1.4947 -1.3014  0.0031
 4827SOL     OW25942   0.552   0.021   3.386 -0.4456 -0.1687  0.5746
 4827SOL    HW125943   0.496   0.051   3.458 -1.0466  0.3384 -0.0998
 4827SOL    HW225944   0.550   4.652   3.403  1.1495 -0.3685 -0.4182
 4828SOL     OW25945   1.357   3.866  10.026 -0.1126 -1.0930 -0.2127
 4828SOL    HW125946   1.374   3.774  10.004 -2.1849 -1.1112 -1.6410
 4828SOL    HW225947   1.439   3.913  10.014 -0.1993 -0.6150  1.0399
 4829SOL     OW25948   3.008   3.677   7.768  0.6274 -0.3467 -0.1973
 4829SOL    HW125949   3.025   3.771   7.767 -1.3230 -0.0026 -0.8327
 4829SOL    HW225950   3.099   3.648   7.782  0.3598 -0.7197  0.7601
 4830SOL     OW25951   2.348   0.329   2.021  0.4752 -0.0493 -0.6131
 4830SOL    HW125952   2.305   0.406   2.059 -0.1002 -0.3414 -0.6720
 4830SOL    HW225953   2.437   0.331   2.058  0.4546  0.7103 -0.5949
 4831SOL     OW25954   0.612   3.589  14.815 -0.6329 -0.0747  0.3579
 4831SOL    HW125955   0.517   3.595  14.800 -0.2688 -1.4014 -2.5715
 4831SOL    HW225956   0.625   3.508  14.863  2.2521  1.3048  1.8699
 4832SOL     OW25957   2.977   0.708   3.750 -0.1256  0.6312 -0.4595
 4832SOL    HW125958   2.973   0.612   3.742  0.9077  0.6430 -1.1029
 4832SOL    HW225959   2.972   0.743   3.662 -0.8764  0.2127 -0.5888
 4833SOL     OW25960   0.729   0.362  15.396 -0.3329  0.0144 -0.1064
 4833SOL    HW125961   0.741   0.275  15.358 -1.7449 -0.6450  0.9377
 4833SOL    HW225962   0.724   0.411  15.314  1.1161  0.7437  0.2555
 4834SOL     OW25963   1.248   3.551   2.982 -0.4258 -0.5196  0.1011
 4834SOL    HW125964   1.302   3.623   2.950 -3.8486  0.7624 -2.8767
 4834SOL    HW225965   1.214   3.592   3.061 -0.8240 -1.4624  0.4137
 4835SOL     OW25966   4.485   0.008   9.240  0.2166 -0.6959 -0.2660
 4835SOL    HW125967   4.394   0.033   9.259 -0.1473 -2.7785  0.7135
 4835SOL    HW225968   4.518   4.709   9.327 -0.5979 -1.5081 -0.1783
 4836SOL     OW25969   3.458   3.699   8.540  0.2881 -0.2214  0.2076
 4836SOL    HW125970   3.377   3.686   8.590  0.0411 -0.9558 -0.3917
 4836SOL    HW225971   3.523   3.652   8.593  0.7073  1.6821  1.3602
 4837SOL     OW25972   3.479   4.607   0.885  0.3461  0.0310 -0.3825
 4837SOL    HW125973   3.471   4.517   0.855  0.1755 -0.0014 -0.2424
 4837SOL    HW225974   3.563   4.600   0.931  0.8816 -0.4190 -1.4391
 4838SOL     OW25975   1.299   4.286  15.139 -0.4214  0.0887 -0.3862
 4838SOL    HW125976   1.249   4.317  15.064 -2.2569 -0.8690  0.4457
 4838SOL    HW225977   1.368   4.245  15.086 -0.1573 -0.9800  0.7984
 4839SOL     OW25978   1.468   3.292   0.626 -0.4641  0.5400 -0.5501
 4839SOL    HW125979   1.377   3.269   0.640 -0.4467 -0.5060 -2.0591
 4839SOL    HW225980   1.452   3.387   0.626  0.3300  0.6759 -0.4828
 4840SOL     OW25981   1.931   3.184  11.752  0.1056 -0.7048 -0.2656
 4840SOL    HW125982   1.993   3.195  11.680  0.9037 -3.5139 -0.0265
 4840SOL    HW225983   1.875   3.261  11.744 -0.3810 -1.1745 -1.3355
 4841SOL     OW25984   0.057   2.518   4.946  0.0018  0.9843  0.0356
 4841SOL    HW125985   0.035   2.551   4.859  1.9575 -0.4333 -0.9865
 4841SOL    HW225986   0.150   2.537   4.936  0.5122 -1.3447  0.5018
 4842SOL     OW25987   2.693   3.440   5.328 -0.4848  0.4479 -0.5422
 4842SOL    HW125988   2.774   3.398   5.358 -1.1267 -1.5407 -1.6284
 4842SOL    HW225989   2.698   3.408   5.238 -3.4214 -0.9055 -0.2035
 4843SOL     OW25990   3.396   0.181  10.595  0.2279 -0.1127 -0.1739
 4843SOL    HW125991   3.446   0.106  10.563 -0.7643 -0.1271 -1.6882
 4843SOL    HW225992   3.422   0.198  10.686 -2.3364  1.2437  0.3178
 4844SOL     OW25993   1.620   2.662  17.302  0.6889 -0.3847 -0.4979
 4844SOL    HW125994   1.694   2.661  17.362  1.1150  0.6010 -1.0070
 4844SOL    HW225995   1.658   2.688  17.218  2.7834 -1.0959  0.2488
 4845SOL     OW25996   2.301   0.829  16.543 -0.8653  0.1874  0.2046
 4845SOL    HW125997   2.227   0.844  16.484 -0.4634 -0.2983 -0.4229
 4845SOL    HW225998   2.350   0.906  16.514  0.3014 -1.2279 -1.6254
 4846SOL     OW25999   3.120   2.696   9.719 -0.6662  0.3221  0.1084
 4846SOL    HW126000   3.041   2.698   9.665 -0.8526  0.9190  0.4037
 4846SOL    HW226001   3.131   2.602   9.708 -1.1559  0.4425 -1.3791
 4847SOL     OW26002   2.965   1.718   2.644 -0.4025  0.5847  0.1353
 4847SOL    HW126003   2.916   1.771   2.582 -3.3823 -0.1717  1.8136
 4847SOL    HW226004   3.010   1.656   2.587 -0.7467  1.9550 -1.6253
 4848SOL     OW26005   2.283   0.676   5.053 -0.0187 -0.4439 -0.3217
 4848SOL    HW126006   2.191   0.690   5.029 -0.4683 -1.9651  0.4714
 4848SOL    HW226007   2.282   0.607   5.119  0.1973 -0.4668 -0.3442
 4849SOL     OW26008   4.025   3.848   3.558 -0.3906  0.0468 -0.3603
 4849SOL    HW126009   4.009   3.780   3.623  2.5493 -1.9086 -1.6887
 4849SOL    HW226010   4.099   3.815   3.507  2.4910  3.0604  1.8316
 4850SOL     OW26011   1.836   2.800   5.810  0.7341 -0.0666 -0.7419
 4850SOL    HW126012   1.746   2.780   5.834  0.6399 -0.0887 -1.1031
 4850SOL    HW226013   1.873   2.713   5.795 -3.0735 -1.3807 -2.4799
 4851SOL     OW26014   0.631   2.949   6.229 -1.0286  0.1452 -0.4147
 4851SOL    HW126015   0.695   3.000   6.179 -0.7478 -0.8276 -1.0642
 4851SOL    HW226016   0.605   2.883   6.164  0.3400  0.0523 -0.8751
 4852SOL     OW26017   3.298   4.132  16.165 -0.3599 -0.5956 -0.0298
 4852SOL    HW126018   3.238   4.186  16.216  0.1366 -0.0189 -0.0506
 4852SOL    HW226019   3.259   4.144  16.079 -0.2691  1.2621  0.1877
 4853SOL     OW26020   1.593   0.194   4.970  1.1436  0.7356  0.6383
 4853SOL    HW126021   1.673   0.198   5.023  1.7959 -2.5398 -0.1271
 4853SOL    HW226022   1.622   0.223   4.884  0.3027  1.4960  0.6118
 4854SOL     OW26023   4.466   1.070   7.515 -0.0963 -0.2122  0.2114
 4854SOL    HW126024   4.399   1.010   7.481 -0.6062 -0.3198  1.4065
 4854SOL    HW226025   4.426   1.156   7.497  1.1290  0.5934  1.4037
 4855SOL     OW26026   2.207   0.158  10.878 -0.0626  0.5002  0.2826
 4855SOL    HW126027   2.132   0.105  10.908 -1.1621  1.4272 -0.8580
 4855SOL    HW226028   2.228   0.207  10.957  1.3792  0.5269 -0.1257
 4856SOL     OW26029   2.406   1.083  13.154  0.0939  0.4943 -0.3936
 4856SOL    HW126030   2.340   1.035  13.104  3.1077 -0.8760 -3.1040
 4856SOL    HW226031   2.481   1.102  13.097  1.1263  1.4418  1.2994
 4857SOL     OW26032   0.589   1.055   5.757  0.1432  0.1874  0.2421
 4857SOL    HW126033   0.617   0.978   5.708  1.4155  1.3244 -0.7894
 4857SOL    HW226034   0.500   1.037   5.786 -0.9928 -0.6631 -3.9052
 4858SOL     OW26035   2.493   0.639   0.307 -0.3814 -0.1610 -0.2320
 4858SOL    HW126036   2.572   0.653   0.359  0.6883  0.0056 -1.9026
 4858SOL    HW226037   2.496   0.720   0.256  0.3203  0.5931  1.0342
 4859SOL     OW26038   2.489   3.770   3.913 -0.5316 -0.0264  0.1876
 4859SOL    HW126039   2.579   3.739   3.906  0.4493  2.5558  1.2128
 4859SOL    HW226040   2.506   3.858   3.947  3.0980 -0.3986 -0.6652
 4860SOL     OW26041   3.854   2.952   2.948 -0.5290  0.2995 -0.1035
 4860SOL    HW126042   3.905   2.962   2.867  0.2178 -2.9236 -0.0145
 4860SOL    HW226043   3.801   2.875   2.929 -3.7302  2.4529  0.0552
 4861SOL     OW26044   0.181   4.237   4.678 -0.1809 -0.7734  0.3113
 4861SOL    HW126045   0.217   4.152   4.703  0.3623 -0.5300  0.3571
 4861SOL    HW226046   0.149   4.273   4.761 -0.0724  0.5585 -0.2281
 4862SOL     OW26047   2.082   4.528   6.123 -0.0016 -0.4527  0.4297
 4862SOL    HW126048   2.118   4.568   6.203 -0.6894  1.4045 -0.2027
 4862SOL    HW226049   1.989   4.527   6.145 -0.1295  0.8908 -0.0695
 4863SOL     OW26050   2.795   0.287  11.666  0.1132  0.0762 -0.5351
 4863SOL    HW126051   2.796   0.304  11.761 -1.3241  2.1323 -0.8818
 4863SOL    HW226052   2.868   0.340  11.636  1.3159 -1.2330  0.0726
 4864SOL     OW26053   1.403   3.725  10.413  0.4654  0.0797  0.3999
 4864SOL    HW126054   1.417   3.633  10.388  2.4435  0.5272 -0.1126
 4864SOL    HW226055   1.491   3.762  10.410  0.1350  0.8409  0.1550
 4865SOL     OW26056   4.356   4.237   8.615  0.0759 -0.6316  0.2203
 4865SOL    HW126057   4.417   4.196   8.677  1.1162 -0.3028 -0.5809
 4865SOL    HW226058   4.393   4.208   8.532  3.1972  2.0296  0.6445
 4866SOL     OW26059   4.639   0.318   0.694 -0.7093 -0.0732 -0.2727
 4866SOL    HW126060   4.601   0.406   0.686  0.8315  0.7010  0.8905
 4866SOL    HW226061   4.620   0.285   0.782 -1.4457  0.3885 -0.2578
 4867SOL     OW26062   4.592   0.179   2.367  0.1755 -0.3501 -0.3467
 4867SOL    HW126063   4.682   0.209   2.355  0.4029 -0.4984  1.0541
 4867SOL    HW226064   4.585   0.181   2.462 -2.3767 -0.5852 -0.5189
 4868SOL     OW26065   3.732   1.297   8.531  0.0836 -0.0176 -0.1875
 4868SOL    HW126066   3.718   1.227   8.467 -0.1569  0.1561 -0.3242
 4868SOL    HW226067   3.664   1.281   8.596 -0.4212 -0.5912 -0.8475
 4869SOL     OW26068   1.499   1.043   4.879  0.4526  0.2302  0.1207
 4869SOL    HW126069   1.513   1.137   4.888  0.4241  0.3865 -1.3717
 4869SOL    HW226070   1.552   1.031   4.800 -2.2634 -0.1032 -1.6460
 4870SOL     OW26071   2.082   1.773   7.697 -0.1058  0.6820 -0.0566
 4870SOL    HW126072   2.004   1.760   7.749  0.1661  0.2891  0.2555
 4870SOL    HW226073   2.049   1.814   7.617 -1.1007  0.5872  0.3114
 4871SOL     OW26074   4.623   0.892   4.085 -0.3654 -0.2778  0.5046
 4871SOL    HW126075   4.555   0.960   4.092 -0.2999 -0.1148 -0.5141
 4871SOL    HW226076   4.593   0.851   4.167  0.4525  1.6848  1.7874
 4872SOL     OW26077   0.654   3.482   7.051 -0.1486  0.7594 -0.0208
 4872SOL    HW126078   0.688   3.476   6.962 -0.8161  2.8893 -0.4114
 4872SOL    HW226079   0.726   3.530   7.091  1.4680 -1.1960 -0.5653
 4873SOL     OW26080   1.895   1.260   7.762  0.3778  0.4119  0.3694
 4873SOL    HW126081   1.833   1.310   7.815  0.6707  3.4023 -2.1110
 4873SOL    HW226082   1.977   1.267   7.811 -0.7517  0.0114  2.3155
 4874SOL     OW26083   1.385   0.930  15.957 -0.4162  0.0311  0.4681
 4874SOL    HW126084   1.366   0.925  16.051  0.7275 -1.6061  0.6037
 4874SOL    HW226085   1.299   0.908  15.924  0.9192  0.1847 -3.0838
 4875SOL     OW26086   4.525   4.370  16.108  0.3363 -0.1938  0.1467
 4875SOL    HW126087   4.516   4.425  16.030  1.0353  0.6404  0.6532
 4875SOL    HW226088   4.548   4.440  16.170 -0.2214 -2.5690  3.0072
 4876SOL     OW26089   0.828   2.464  10.885  0.2641  0.3659 -0.1722
 4876SOL    HW126090   0.741   2.454  10.846  0.0520  1.7504 -0.0296
 4876SOL    HW226091   0.860   2.375  10.867  0.7522  0.1865  1.5759
 4877SOL     OW26092   1.946   4.599   9.607  0.0856 -0.5314  0.3178
 4877SOL    HW126093   2.014   4.620   9.671  0.0412  0.4083  0.0640
 4877SOL    HW226094   1.900   4.681   9.589  0.4651 -0.4313 -0.1849
 4878SOL     OW26095   4.653   1.355  10.909 -0.3727  0.0838 -0.2746
 4878SOL    HW126096   4.623   1.333  10.821  0.5794 -1.0792 -0.3128
 4878SOL    HW226097   4.583   1.314  10.959 -0.6921 -0.6972 -1.3500
 4879SOL     OW26098   4.705   4.252   3.498  0.1352 -0.1527 -0.5835
 4879SOL    HW126099   4.631   4.199   3.469  0.1077  1.1403 -2.8543
 4879SOL    HW226100   4.687   4.335   3.454 -2.6738  0.9327  2.5248
 4880SOL     OW26101   0.091   4.384  13.262 -0.0116  0.0720  0.5800
 4880SOL    HW126102   0.132   4.344  13.186  0.8919  0.4164  0.8864
 4880SOL    HW226103   0.062   4.470  13.232  0.7966 -0.4300 -1.5921
 4881SOL     OW26104   3.119   4.265   6.171  0.2132  0.3067  0.1373
 4881SOL    HW126105   3.094   4.175   6.152 -0.2093  0.8616 -1.8982
 4881SOL    HW226106   3.117   4.257   6.267  1.2055  1.5746  0.2593
 4882SOL     OW26107   4.007   2.562   8.691  0.4177 -0.2619  0.6531
 4882SOL    HW126108   4.013   2.534   8.600 -0.1234  1.9455 -0.0763
 4882SOL    HW226109   4.098   2.541   8.713  0.1541  0.8114  2.7781
 4883SOL     OW26110   1.931   1.628   1.956  0.4796  0.4938  0.1915
 4883SOL    HW126111   1.889   1.558   2.006 -1.3839 -0.2434 -2.3945
 4883SOL    HW226112   2.014   1.630   2.003  1.5217 -1.0612 -1.6043
 4884SOL     OW26113   3.520   2.509   3.477 -0.1471 -0.0393 -0.0274
 4884SOL    HW126114   3.552   2.474   3.394  1.0632 -0.6355  0.6745
 4884SOL    HW226115   3.426   2.496   3.485 -0.3414  1.1224 -0.4584
 4885SOL     OW26116   0.406   2.540  11.217 -0.0267 -0.5716 -0.2446
 4885SOL    HW126117   0.433   2.619  11.169  1.9311  0.1963  2.0622
 4885SOL    HW226118   0.325   2.566  11.261 -0.3652 -0.3771 -0.9792
 4886SOL     OW26119   1.544   1.921   3.453 -0.4997 -0.1583 -0.2800
 4886SOL    HW126120   1.570   1.919   3.361  0.2635 -1.9374 -0.0293
 4886SOL    HW226121   1.460   1.964   3.439 -1.6190 -2.9712 -2.1733
 4887SOL     OW26122   0.279   4.496  15.678 -1.1178 -0.6073  0.5763
 4887SOL    HW126123   0.316   4.543  15.602 -1.1526  1.2216  1.7035
 4887SOL    HW226124   0.263   4.412  15.634 -0.3311 -0.4255 -0.0696
 4888SOL     OW26125   0.703   2.740   7.209 -0.1646  0.0657  0.3902
 4888SOL    HW126126   0.740   2.664   7.254 -0.2647 -0.6610 -0.7860
 4888SOL    HW226127   0.716   2.803   7.281  0.0755  0.4496  0.0148
 4889SOL     OW26128   0.622   4.507   4.671 -0.1378  0.3754  0.3470
 4889SOL    HW126129   0.560   4.460   4.615 -0.7151  3.3025 -1.4606
 4889SOL    HW226130   0.590   4.597   4.660 -0.9207  0.2660  1.8100
 4890SOL     OW26131   4.554   2.284   2.503  0.1072  0.4440 -0.8718
 4890SOL    HW126132   4.476   2.233   2.481  0.5125 -0.6447  0.1534
 4890SOL    HW226133   4.563   2.361   2.447 -1.2394  1.3252  0.1155
 4891SOL     OW26134   3.751   4.483   1.643 -0.8858 -0.1693  0.8616
 4891SOL    HW126135   3.687   4.412   1.644 -0.1879 -0.8110  0.0756
 4891SOL    HW226136   3.691   4.556   1.629 -1.8573 -1.3511 -1.1489
 4892SOL     OW26137   2.330   4.724   4.669  0.4439 -0.0133  0.4120
 4892SOL    HW126138   2.354   4.639   4.631  1.7200  1.1798 -1.4375
 4892SOL    HW226139   2.411   0.017   4.716  0.3282  1.5781  0.0001
 4893SOL     OW26140   1.600   2.269   8.139  0.2343  0.1218 -0.5751
 4893SOL    HW126141   1.562   2.196   8.090 -0.0055  0.4172 -0.8332
 4893SOL    HW226142   1.665   2.225   8.194  1.3855  0.6102 -1.5433
 4894SOL     OW26143   2.347   3.819   3.286 -0.7929  0.0885  0.4155
 4894SOL    HW126144   2.395   3.887   3.333 -0.8019 -0.4642  1.2245
 4894SOL    HW226145   2.264   3.813   3.333  0.8343 -0.5755  3.1968
 4895SOL     OW26146   0.348   0.279  17.400  0.6329 -0.1310 -0.4409
 4895SOL    HW126147   0.270   0.333  17.390  1.3187  1.3638  2.3743
 4895SOL    HW226148   0.342   0.264  17.494 -3.6397  1.2363 -0.5223
 4896SOL     OW26149   1.564   0.119   9.040 -0.5776 -0.0311  0.2007
 4896SOL    HW126150   1.512   0.140   9.117 -3.1727  2.5383 -2.2582
 4896SOL    HW226151   1.644   0.138   9.089 -0.3051 -0.0288 -0.2442
 4897SOL     OW26152   3.150   1.171  16.294  0.5042 -0.2337  0.0005
 4897SOL    HW126153   3.117   1.105  16.232  0.3358  0.9977 -1.2318
 4897SOL    HW226154   3.171   1.246  16.238 -1.5113 -0.1236 -0.5988
 4898SOL     OW26155   0.884   2.047   1.099 -0.0743  0.2719 -0.3041
 4898SOL    HW126156   0.802   2.013   1.063 -0.0709 -0.1892  0.1346
 4898SOL    HW226157   0.869   2.141   1.116 -0.6539  0.1319 -0.0185
 4899SOL     OW26158   1.922   3.537   2.905 -0.1171  0.2968 -0.1972
 4899SOL    HW126159   1.908   3.506   2.816 -0.2513  0.8338 -0.3668
 4899SOL    HW226160   1.832   3.541   2.938 -0.9809 -1.1353 -2.4164
 4900SOL     OW26161   1.990   3.925  16.674 -0.0112 -0.0842  0.9080
 4900SOL    HW126162   1.925   3.993  16.693  0.3739  0.6984 -0.6022
 4900SOL    HW226163   1.989   3.876  16.756  2.2348  0.7182  1.4095
 4901SOL     OW26164   4.399   1.031   4.137  0.0603 -0.2153  0.1806
 4901SOL    HW126165   4.434   1.099   4.080  1.2406 -0.5717  0.4736
 4901SOL    HW226166   4.314   1.014   4.098 -0.0121  0.1797  0.1689
 4902SOL     OW26167   3.091   0.482   7.311  0.1329 -0.3022 -0.2476
 4902SOL    HW126168   3.120   0.465   7.222  1.9529 -2.0253  0.6823
 4902SOL    HW226169   3.004   0.519   7.297  0.7802  1.5603  0.6674
 4903SOL     OW26170   2.622   0.460   5.253  0.0875  0.3418  0.9320
 4903SOL    HW126171   2.697   0.449   5.312  1.1546  1.9090 -0.1402
 4903SOL    HW226172   2.638   0.392   5.188 -0.4871  1.9543 -0.8827
 4904SOL     OW26173   3.062   1.121   8.113 -0.4264  0.5734 -0.6677
 4904SOL    HW126174   3.033   1.066   8.185  3.4485 -0.1365  0.3676
 4904SOL    HW226175   3.094   1.051   8.055 -0.9826  0.6194 -1.0324
 4905SOL     OW26176   0.821   0.968   5.182 -0.1311 -0.9170  0.8739
 4905SOL    HW126177   0.908   0.939   5.157  1.7793  3.7737  2.1717
 4905SOL    HW226178   0.843   1.048   5.229  1.5110 -1.0442  0.3101
 4906SOL     OW26179   0.093   4.676   6.412  0.1695  0.1356  0.1668
 4906SOL    HW126180   0.041   4.624   6.350  1.5632 -0.4719 -0.4980
 4906SOL    HW226181   0.076   0.043   6.393 -1.5066 -0.6610 -2.2259
 4907SOL     OW26182   4.239   2.769   8.341 -0.5161 -0.1288 -0.0733
 4907SOL    HW126183   4.217   2.770   8.247 -2.6033  0.8553  0.4214
 4907SOL    HW226184   4.163   2.805   8.386 -1.5149 -2.6341  0.2244
 4908SOL     OW26185   0.286   0.108  10.411 -0.7881  0.1711 -0.6497
 4908SOL    HW126186   0.227   0.049  10.365 -1.5312 -1.3230  2.2758
 4908SOL    HW226187   0.273   0.188  10.358 -2.3184 -1.4460 -2.7219
 4909SOL     OW26188   1.257   3.780  11.122  0.2630  0.2028 -0.7516
 4909SOL    HW126189   1.281   3.699  11.167 -0.1899  1.8187  2.4013
 4909SOL    HW226190   1.217   3.751  11.040  0.4717  0.1852 -0.8473
 4910SOL     OW26191   4.489   1.641   6.411 -0.2948 -0.5278 -0.0333
 4910SOL    HW126192   4.556   1.587   6.368 -0.9914 -2.1014  0.8265
 4910SOL    HW226193   4.439   1.667   6.334  0.0281  0.8704  0.2430
 4911SOL     OW26194   0.001   1.144   7.456 -0.0672 -1.0033 -0.3870
 4911SOL    HW126195   4.724   1.091   7.377 -2.2758 -0.1293 -0.9268
 4911SOL    HW226196   4.658   1.106   7.511  0.9075  1.9721  2.8825
 4912SOL     OW26197   1.555   4.266  12.751  0.3912 -0.2713 -0.4111
 4912SOL    HW126198   1.505   4.293  12.674 -1.3653 -0.5895  0.6214
 4912SOL    HW226199   1.647   4.289  12.741  0.2441  1.8688  3.1902
 4913SOL     OW26200   1.930   3.702  16.854 -0.0980 -0.0658  0.2528
 4913SOL    HW126201   1.879   3.705  16.935 -2.7926 -3.7220 -1.3494
 4913SOL    HW226202   1.881   3.644  16.795  2.5453  0.2649 -2.2706
 4914SOL     OW26203   2.966   0.034   5.890  0.8042 -0.1574  0.1782
 4914SOL    HW126204   2.988   0.099   5.956  0.4488  2.4513 -2.2616
 4914SOL    HW226205   3.045   0.018   5.838  1.7210  0.9803  1.2206
 4915SOL     OW26206   2.656   1.688   8.712 -0.1634 -0.4873  0.3294
 4915SOL    HW126207   2.728   1.685   8.775 -0.6135  1.4494  0.9375
 4915SOL    HW226208   2.604   1.747   8.767 -2.7945 -1.4045 -1.1526
 4916SOL     OW26209   0.146   0.341   1.757  0.1511 -0.5035  0.6104
 4916SOL    HW126210   0.141   0.435   1.770  0.8251 -0.4564  0.5428
 4916SOL    HW226211   0.085   0.312   1.825 -1.9997  0.4987 -0.9082
 4917SOL     OW26212   3.237   0.672   7.562 -0.1929 -0.2276 -0.4206
 4917SOL    HW126213   3.198   0.599   7.609 -0.0194  1.0635  1.7563
 4917SOL    HW226214   3.167   0.706   7.507 -1.1877 -2.0367 -0.2725
 4918SOL     OW26215   3.081   2.171  15.758 -0.1733 -0.5788  0.0179
 4918SOL    HW126216   3.100   2.196  15.667  0.0873  1.8922  0.7436
 4918SOL    HW226217   3.082   2.077  15.739  2.0557 -0.9322  1.9012
 4919SOL     OW26218   4.705   4.389   5.223  0.3086  0.1360  0.5795
 4919SOL    HW126219   4.701   4.398   5.128 -0.6980  1.6213  0.7818
 4919SOL    HW226220   4.687   4.478   5.253 -2.9046 -0.8738  1.6142
 4920SOL     OW26221   1.217   4.038   7.722  0.1575 -0.0541  0.3938
 4920SOL    HW126222   1.137   4.013   7.769  0.2442 -0.3541  0.3835
 4920SOL    HW226223   1.289   4.012   7.780  1.8155  3.6056 -0.0194
 4921SOL     OW26224   1.092   1.304   2.118 -0.1771 -0.6771 -0.2189
 4921SOL    HW126225   1.169   1.296   2.174 -0.1073 -1.4645 -0.4255
 4921SOL    HW226226   1.120   1.366   2.051 -1.9788 -0.7044 -0.9920
 4922SOL     OW26227   3.510   4.163  10.874  0.0454 -0.1281 -0.3881
 4922SOL    HW126228   3.430   4.180  10.924 -1.1931  0.0256 -2.4065
 4922SOL    HW226229   3.558   4.117  10.942 -1.6255  0.4544  1.1837
 4923SOL     OW26230   2.860   0.406  17.175 -0.2958  0.0470 -0.1200
 4923SOL    HW126231   2.954   0.392  17.189 -0.1174  0.9414 -0.3806
 4923SOL    HW226232   2.852   0.445  17.088 -0.3818 -0.2290 -0.2362
 4924SOL     OW26233   0.822   2.643   6.963 -0.5116  0.1109  0.1736
 4924SOL    HW126234   0.746   2.588   6.944  0.0581 -0.3840 -0.5993
 4924SOL    HW226235   0.799   2.680   7.049 -1.8390  0.4220 -0.3134
 4925SOL     OW26236   0.550   3.952  17.497  0.4312  0.0145 -0.1472
 4925SOL    HW126237   0.516   3.943  17.586 -0.5564  0.8382 -0.4491
 4925SOL    HW226238   0.473   3.964  17.442  0.7261  0.3059 -0.4960
 4926SOL     OW26239   2.494   0.896   1.979  0.0439  0.6294 -0.1753
 4926SOL    HW126240   2.482   0.869   1.888  0.5304 -0.5299  0.1061
 4926SOL    HW226241   2.506   0.814   2.027 -0.2805  0.7180  0.0591
 4927SOL     OW26242   2.966   3.186   5.753  0.3055 -0.4367 -0.7374
 4927SOL    HW126243   2.889   3.168   5.806  1.1292 -2.4032 -0.2221
 4927SOL    HW226244   3.041   3.183   5.813 -1.3876 -0.4232  1.3784
 4928SOL     OW26245   3.272   1.752   0.181  0.1164 -0.5874 -0.4069
 4928SOL    HW126246   3.205   1.719   0.241  0.6924  1.0645  1.1348
 4928SOL    HW226247   3.336   1.774   0.248 -2.1455  1.1209  1.1727
 4929SOL     OW26248   1.597   2.395  10.839  0.7402 -0.0138  0.4816
 4929SOL    HW126249   1.624   2.323  10.782  3.3657  0.9321  0.5529
 4929SOL    HW226250   1.517   2.364  10.882 -1.7013  0.1595 -3.9905
 4930SOL     OW26251   3.461   1.721   6.352  0.1677  0.1172  0.0779
 4930SOL    HW126252   3.490   1.648   6.406 -0.0519  0.7743  1.0791
 4930SOL    HW226253   3.539   1.734   6.297 -0.4407  2.2451 -0.2977
 4931SOL     OW26254   3.323   3.919   1.042  0.4095  0.2010  0.2267
 4931SOL    HW126255   3.386   3.990   1.055  0.9819 -0.7651  2.6848
 4931SOL    HW226256   3.303   3.931   0.949 -2.9689 -0.4590  0.8843
 4932SOL     OW26257   1.310   3.805  13.315  0.3758 -0.0842 -0.2773
 4932SOL    HW126258   1.311   3.849  13.400  2.0646  0.1729 -0.4156
 4932SOL    HW226259   1.225   3.827  13.279  0.6876 -0.7571 -1.4146
 4933SOL     OW26260   0.575   2.806   7.703 -0.4423 -0.2441 -0.3594
 4933SOL    HW126261   0.484   2.777   7.709 -0.9353  1.5380  1.0398
 4933SOL    HW226262   0.614   2.768   7.782 -0.4473 -0.0439 -0.2616
 4934SOL     OW26263   2.390   0.631   9.872 -0.5550 -0.1151  0.6793
 4934SOL    HW126264   2.336   0.687   9.928  0.5042  0.1241  1.4520
 4934SOL    HW226265   2.468   0.681   9.849 -1.0000  0.9933  1.6109
 4935SOL     OW26266   1.291   2.532   2.663 -0.0626 -0.0018  0.0980
 4935SOL    HW126267   1.243   2.453   2.688  0.0836  0.1687  0.9274
 4935SOL    HW226268   1.281   2.522   2.568 -0.0814 -1.1128  0.2214
 4936SOL     OW26269   1.582   4.171   4.071  0.2945 -0.4886  0.2477
 4936SOL    HW126270   1.609   4.164   3.979 -1.3961  1.7615 -0.4370
 4936SOL    HW226271   1.660   4.208   4.112  0.6354  0.4825 -1.2807
 4937SOL     OW26272   4.281   2.773   6.679 -0.2984 -0.7567  0.4910
 4937SOL    HW126273   4.333   2.715   6.734  1.6177  0.7869  0.3318
 4937SOL    HW226274   4.229   2.828   6.738 -0.9773 -0.6567 -0.2125
 4938SOL     OW26275   2.659   2.401   0.756 -0.1422  0.3202  0.0311
 4938SOL    HW126276   2.616   2.336   0.812  1.4621  1.0719  2.1203
 4938SOL    HW226277   2.596   2.473   0.751  0.6325  0.8836 -1.4156
 4939SOL     OW26278   2.732   2.654   3.373 -0.3963 -0.8414  0.1655
 4939SOL    HW126279   2.785   2.656   3.294 -1.2288 -0.7044 -0.3973
 4939SOL    HW226280   2.796   2.644   3.443  0.1109 -1.2206 -0.3587
 4940SOL     OW26281   1.323   2.273   4.832 -0.2081 -0.1866 -0.4264
 4940SOL    HW126282   1.263   2.296   4.761 -2.5457 -0.2866  1.4825
 4940SOL    HW226283   1.356   2.184   4.823  1.3461  0.2832  0.6644
 4941SOL     OW26284   0.431   4.132   4.336 -0.0383  0.7116  0.0394
 4941SOL    HW126285   0.351   4.175   4.366  0.6021  1.0602  1.2492
 4941SOL    HW226286   0.437   4.178   4.252 -0.8866  0.7253 -0.0119
 4942SOL     OW26287   1.726   0.485   5.843  0.1172 -0.2185  0.2434
 4942SOL    HW126288   1.667   0.546   5.798  0.1546  0.3620  0.9930
 4942SOL    HW226289   1.671   0.407   5.843 -0.3028  0.0692 -1.8012
 4943SOL     OW26290   3.575   3.228   9.977 -0.4508 -0.0506 -0.0058
 4943SOL    HW126291   3.534   3.159  10.029 -0.7294  1.5424  1.9054
 4943SOL    HW226292   3.490   3.270   9.964 -1.2794 -1.3639  1.0890
 4944SOL     OW26293   2.239   1.031   1.082 -0.2923  0.5142  0.0581
 4944SOL    HW126294   2.231   0.949   1.132  0.4071 -0.5394 -1.5525
 4944SOL    HW226295   2.265   1.008   0.993  0.1690  1.4932 -0.0570
 4945SOL     OW26296   2.176   1.149   8.501 -0.4253  0.5959  0.3444
 4945SOL    HW126297   2.155   1.241   8.514 -1.3605  0.5209 -0.5874
 4945SOL    HW226298   2.109   1.104   8.553 -0.5520 -0.4262 -0.7049
 4946SOL     OW26299   3.099   2.206  17.035  0.1359 -0.0398 -0.3410
 4946SOL    HW126300   3.166   2.146  17.002 -0.9021 -1.2587 -0.2257
 4946SOL    HW226301   3.025   2.154  17.066  0.2104  0.6294  0.9901
 4947SOL     OW26302   0.029   2.916   3.284 -0.3742 -0.1218 -0.2976
 4947SOL    HW126303   0.074   2.969   3.219  0.6062  0.4802  0.8663
 4947SOL    HW226304   4.661   2.922   3.261 -1.3086 -1.6955  3.0739
 4948SOL     OW26305   1.365   1.357   8.775 -0.0181  0.1588  0.3544
 4948SOL    HW126306   1.338   1.269   8.801  0.9757 -0.2218  0.1401
 4948SOL    HW226307   1.345   1.420   8.843  0.0624  0.1345  0.4005
 4949SOL     OW26308   3.576   1.871   4.850 -0.1034  0.3231 -0.2672
 4949SOL    HW126309   3.516   1.836   4.784  0.1683 -1.4876  0.4530
 4949SOL    HW226310   3.659   1.856   4.806 -0.0154 -1.3033  0.4860
 4950SOL     OW26311   1.718   3.173   0.672  0.4053  0.1509 -0.0357
 4950SOL    HW126312   1.675   3.088   0.681  1.4260 -0.4730 -1.0969
 4950SOL    HW226313   1.638   3.224   0.656  0.4233 -0.0040 -0.6011
 4951SOL     OW26314   4.415   0.446   2.736  0.0925 -0.2349  0.1144
 4951SOL    HW126315   4.355   0.427   2.663  1.3850 -1.1113 -0.7092
 4951SOL    HW226316   4.501   0.423   2.702  0.1310  1.1311 -0.7471
 4952SOL     OW26317   2.919   4.589   1.116  0.6918 -0.2023  0.4164
 4952SOL    HW126318   2.939   4.567   1.025  1.7437  0.8958  0.3858
 4952SOL    HW226319   2.992   4.648   1.137  0.9225 -0.7167  1.0535
 4953SOL     OW26320   0.272   3.886   4.281 -0.3493 -0.4216 -0.0340
 4953SOL    HW126321   0.216   3.953   4.241 -1.3227 -0.0046  1.9917
 4953SOL    HW226322   0.358   3.909   4.248 -0.1505  0.3074  0.9831
 4954SOL     OW26323   2.437   4.559   6.257  0.6705 -0.2050  0.4197
 4954SOL    HW126324   2.358   4.563   6.311  0.0249  1.3833 -0.6550
 4954SOL    HW226325   2.439   4.643   6.211 -0.5924 -1.6512 -2.2775
 4955SOL     OW26326   0.921   3.007   2.320  0.6366  0.1442  0.0450
 4955SOL    HW126327   0.862   3.004   2.395  0.5753 -0.6643 -0.0359
 4955SOL    HW226328   1.006   3.005   2.363  0.7563  1.5927 -0.1206
 4956SOL     OW26329   2.551   2.163   7.511 -0.0656 -0.4660  0.2236
 4956SOL    HW126330   2.534   2.181   7.603 -1.3340 -0.6393  0.0189
 4956SOL    HW226331   2.632   2.113   7.522  1.0824  1.3269 -0.0986
 4957SOL     OW26332   0.146   0.155  16.857  0.4258 -0.2830  0.8435
 4957SOL    HW126333   0.098   0.238  16.855 -1.4393 -1.4130 -1.7571
 4957SOL    HW226334   0.215   0.174  16.793 -1.2118 -3.2364 -1.7944
 4958SOL     OW26335   1.317   2.062   7.309 -0.4956  0.6417  0.0968
 4958SOL    HW126336   1.392   2.097   7.262  0.5918 -0.3774  1.0846
 4958SOL    HW226337   1.351   2.028   7.391  0.7617 -2.9404 -1.9219
 4959SOL     OW26338   4.676   0.592   4.557 -0.2076  0.2225 -0.4856
 4959SOL    HW126339   4.702   0.501   4.569  0.1328  0.3755 -0.0303
 4959SOL    HW226340   0.030   0.641   4.530 -1.2848  0.6915 -2.7990
 4960SOL     OW26341   1.832   1.159   4.996  0.2268 -0.1260  0.1999
 4960SOL    HW126342   1.746   1.156   5.038 -0.2519  1.0000 -0.6854
 4960SOL    HW226343   1.900   1.134   5.058 -0.1028  0.3613  0.7529
 4961SOL     OW26344   4.570   2.521   4.048  0.4442 -0.1238  0.5825
 4961SOL    HW126345   4.566   2.584   3.977  0.7409  0.1940  0.8516
 4961SOL    HW226346   4.664   2.503   4.045  0.6588  1.4072 -1.5982
 4962SOL     OW26347   1.307   1.209   1.869  0.3714  0.2126  0.1661
 4962SOL    HW126348   1.356   1.276   1.823  0.6109  0.4419  0.7581
 4962SOL    HW226349   1.215   1.235   1.862  0.3696 -0.2589 -1.5379
 4963SOL     OW26350   0.619   2.403  10.555  0.1235  0.2015  0.0538
 4963SOL    HW126351   0.542   2.383  10.608  0.5740 -1.0194  0.2472
 4963SOL    HW226352   0.636   2.321  10.508 -1.8654 -0.4929  0.5697
 4964SOL     OW26353   2.161   2.560  11.839 -0.2896 -0.3813  0.1212
 4964SOL    HW126354   2.165   2.467  11.858  0.5524 -0.5653 -0.9467
 4964SOL    HW226355   2.115   2.551  11.756  0.5402 -1.6867 -0.2014
 4965SOL     OW26356   2.214   3.256   5.076 -0.3255 -0.2880 -0.6882
 4965SOL    HW126357   2.304   3.232   5.056  0.1402  1.3848 -0.6492
 4965SOL    HW226358   2.178   3.295   4.996 -0.7392 -1.0726 -0.8830
 4966SOL     OW26359   2.573   2.484   6.068 -0.2993  0.8148  0.4049
 4966SOL    HW126360   2.643   2.530   6.115  0.2565 -0.8004  1.1566
 4966SOL    HW226361   2.595   2.521   5.982 -0.5553  1.4646  0.6211
 4967SOL     OW26362   1.719   2.794   9.447  0.0496  0.2181 -0.3674
 4967SOL    HW126363   1.730   2.761   9.536  0.2937  1.9420  0.2525
 4967SOL    HW226364   1.780   2.867   9.435  1.3479 -0.9479 -0.8252
 4968SOL     OW26365   3.569   1.511   6.501  0.3719 -0.0360  0.3625
 4968SOL    HW126366   3.559   1.441   6.566 -0.7579  0.7256  1.0246
 4968SOL    HW226367   3.658   1.490   6.474  0.4380 -0.5926  1.0245
 4969SOL     OW26368   3.740   0.934  13.155 -0.2215 -0.0032  0.2416
 4969SOL    HW126369   3.701   0.851  13.180 -2.4360  0.8044 -0.5125
 4969SOL    HW226370   3.822   0.930  13.203 -1.0405  0.8659  1.7446
 4970SOL     OW26371   2.925   1.268   6.361 -0.0992 -0.5175 -0.2668
 4970SOL    HW126372   2.946   1.190   6.310  1.2070 -0.0737 -0.4024
 4970SOL    HW226373   2.991   1.323   6.318  0.0430 -1.1927 -0.9048
 4971SOL     OW26374   1.591   1.918  10.792 -0.7966 -0.0777 -0.4989
 4971SOL    HW126375   1.580   1.826  10.771 -1.7969 -0.1053  0.0952
 4971SOL    HW226376   1.518   1.939  10.851 -0.0686 -1.3860  0.8585
 4972SOL     OW26377   2.708   0.660   5.944 -0.0872  0.6598 -0.4083
 4972SOL    HW126378   2.625   0.629   5.981  0.6302 -0.0724  0.5976
 4972SOL    HW226379   2.674   0.715   5.873  0.6909  0.6392 -0.7995
 4973SOL     OW26380   1.051   3.718   2.420  0.3454  0.2285 -0.5622
 4973SOL    HW126381   1.037   3.674   2.336 -0.2725 -0.8384  0.0963
 4973SOL    HW226382   1.097   3.796   2.390 -0.2894  0.4669 -0.8963
 4974SOL     OW26383   3.445   0.982   4.507 -0.7161  0.4553  0.5717
 4974SOL    HW126384   3.492   0.932   4.440  2.1184  1.9219  1.4786
 4974SOL    HW226385   3.520   1.025   4.547 -0.2044 -0.2875  0.4057
 4975SOL     OW26386   3.599   2.682   6.897 -0.3792  0.4152  0.0975
 4975SOL    HW126387   3.536   2.700   6.967 -1.7488  0.4873 -1.1579
 4975SOL    HW226388   3.545   2.616   6.854 -0.4117 -0.1401  0.9802
 4976SOL     OW26389   1.392   2.474   7.276  0.0311  0.6960  0.2252
 4976SOL    HW126390   1.308   2.518   7.288 -0.7322 -1.1536  1.4488
 4976SOL    HW226391   1.401   2.489   7.181 -0.5329 -1.4241 -0.1602
 4977SOL     OW26392   2.052   0.743   4.920  0.3132  0.0800 -0.1699
 4977SOL    HW126393   1.958   0.762   4.916  0.4293  0.7649  0.3803
 4977SOL    HW226394   2.095   0.776   4.841  0.4409  0.7229  0.1749
 4978SOL     OW26395   0.077   4.644  16.748 -0.0677 -0.0200 -0.1119
 4978SOL    HW126396   0.086   0.011  16.775 -0.0088  0.9225 -3.3575
 4978SOL    HW226397   4.708   4.637  16.761 -0.2694 -0.3977 -1.8830
 4979SOL     OW26398   3.632   3.573   5.097 -0.3140  0.2008 -0.1658
 4979SOL    HW126399   3.622   3.585   5.003  2.3926  0.0780 -0.4710
 4979SOL    HW226400   3.725   3.551   5.099 -0.1840  0.8343  0.9080
 4980SOL     OW26401   4.177   1.747   9.965 -0.1176  0.4031  1.0702
 4980SOL    HW126402   4.232   1.707   9.898 -0.4892  0.2455  0.8548
 4980SOL    HW226403   4.127   1.671   9.995  0.9136 -0.1541  1.3616
 4981SOL     OW26404   4.101   0.721   8.604 -0.4329 -0.0915  0.1497
 4981SOL    HW126405   4.042   0.651   8.577  0.7395 -0.9062 -0.3362
 4981SOL    HW226406   4.068   0.743   8.691  1.3613  0.7737  0.6229
 4982SOL     OW26407   4.658   4.449   4.015  0.0086 -0.0133  0.6772
 4982SOL    HW126408   4.631   4.363   3.981 -1.8507  1.5151 -1.6898
 4982SOL    HW226409   4.636   4.510   3.944  0.6399 -0.3493  0.1856
 4983SOL     OW26410   1.138   3.257   1.283  0.1086 -0.1207  0.4366
 4983SOL    HW126411   1.186   3.256   1.200 -3.2025 -0.2008 -1.4721
 4983SOL    HW226412   1.055   3.251   1.236 -1.0323 -1.7946  2.6547
 4984SOL     OW26413   2.438   1.395   0.322  0.2040 -0.3692  0.2715
 4984SOL    HW126414   2.511   1.455   0.305 -1.8718  1.3702 -2.4853
 4984SOL    HW226415   2.408   1.375   0.234  0.8685  1.2921 -0.3304
 4985SOL     OW26416   2.879   0.973   2.664  0.3109  0.0949 -0.8192
 4985SOL    HW126417   2.836   1.054   2.690 -0.9418 -0.5369 -0.9442
 4985SOL    HW226418   2.858   0.922   2.743 -1.0980  1.0892 -0.5536
 4986SOL     OW26419   2.549   1.760   9.581  0.1868 -0.6142  0.6911
 4986SOL    HW126420   2.502   1.677   9.574 -2.0609  0.7323 -0.3465
 4986SOL    HW226421   2.632   1.743   9.537  0.5115  1.4041  0.5021
 4987SOL     OW26422   2.214   0.159   1.871  0.1970  0.2570 -0.7209
 4987SOL    HW126423   2.271   0.211   1.927  1.8079 -2.2546 -0.0126
 4987SOL    HW226424   2.192   0.081   1.922 -0.4376  0.1164 -1.2110
 4988SOL     OW26425   0.662   0.031  14.679 -0.0944  0.4589  0.2023
 4988SOL    HW126426   0.653   4.697  14.753  0.9764 -1.2909 -1.0404
 4988SOL    HW226427   0.573   0.025  14.644 -0.0890  3.6230 -0.3151
 4989SOL     OW26428   1.225   4.123   6.753  0.1200  0.5537 -0.0362
 4989SOL    HW126429   1.249   4.149   6.664  1.1627  1.0600  0.3998
 4989SOL    HW226430   1.243   4.029   6.756  1.7235  0.7950 -1.9099
 4990SOL     OW26431   2.443   0.542   6.028  0.6794 -0.1509  0.1295
 4990SOL    HW126432   2.475   0.470   6.082  2.0464  1.0906  0.9625
 4990SOL    HW226433   2.417   0.595   6.104  0.7844 -0.4259  0.3573
 4991SOL     OW26434   0.416   4.250   1.167  0.1271  0.1675 -0.6593
 4991SOL    HW126435   0.364   4.273   1.090  1.0117  1.7735 -0.7732
 4991SOL    HW226436   0.488   4.203   1.126 -0.9159 -3.1271  1.2539
 4992SOL     OW26437   1.261   3.684   6.609  0.0816  0.0333 -0.0254
 4992SOL    HW126438   1.299   3.633   6.680  0.8729 -1.7004 -1.7064
 4992SOL    HW226439   1.320   3.654   6.540 -0.2010  0.8574 -0.6304
 4993SOL     OW26440   0.825   4.176  16.297 -0.1160 -0.1414 -0.1183
 4993SOL    HW126441   0.781   4.094  16.319 -1.2287  0.8007  1.1600
 4993SOL    HW226442   0.827   4.209  16.387 -1.1812 -0.9847  0.2268
 4994SOL     OW26443   4.231   4.280   0.593 -0.2188  0.0696  0.4287
 4994SOL    HW126444   4.302   4.263   0.654  0.3377  0.2478 -0.1732
 4994SOL    HW226445   4.167   4.301   0.661  1.3680  4.3189  0.5993
 4995SOL     OW26446   4.676   2.208   3.342  0.0577 -0.7530 -0.0815
 4995SOL    HW126447   4.659   2.282   3.400 -1.4133 -0.2857 -1.1208
 4995SOL    HW226448   0.043   2.199   3.368  0.0805  1.5042  0.6556
 4996SOL     OW26449   0.338   3.135  17.308 -0.5656  0.8248  0.0597
 4996SOL    HW126450   0.423   3.112  17.347  0.3207  0.7309 -1.9424
 4996SOL    HW226451   0.272   3.075  17.345 -0.9812  1.4462  0.3229
 4997SOL     OW26452   3.049   0.072  14.879 -0.6137  0.1187 -0.3428
 4997SOL    HW126453   3.027   0.121  14.959 -0.2168  0.2613 -0.3236
 4997SOL    HW226454   2.958   0.053  14.855 -0.5521  0.0553 -0.5189
 4998SOL     OW26455   4.343   2.266  14.813  0.6260  0.1204  0.1935
 4998SOL    HW126456   4.355   2.171  14.812 -2.5797 -0.2955 -0.1764
 4998SOL    HW226457   4.399   2.301  14.881 -1.4426  0.1015  1.9159
 4999SOL     OW26458   1.894   4.156   3.757  0.0923 -0.3458  0.2888
 4999SOL    HW126459   1.811   4.109   3.763  0.5246 -1.2366 -0.7283
 4999SOL    HW226460   1.919   4.175   3.847  1.2240  1.3498 -0.3823
 5000SOL     OW26461   3.959   4.657  17.067 -0.2177 -0.1892 -0.5153
 5000SOL    HW126462   3.883   4.711  17.046  2.5639  3.2290 -1.7958
 5000SOL    HW226463   4.017   4.665  16.992  1.4123 -2.2043  0.5453
 5001SOL     OW26464   0.307   4.034   7.135  0.0094 -0.2823 -0.3855
 5001SOL    HW126465   0.299   3.991   7.220 -2.9659  1.2430  0.1013
 5001SOL    HW226466   0.317   4.126   7.161 -0.1994  0.1023 -1.6377
 5002SOL     OW26467   4.694   2.630   4.717 -0.1173 -0.7452 -0.0987
 5002SOL    HW126468   4.668   2.694   4.651 -0.0716 -1.1324 -0.4863
 5002SOL    HW226469   4.650   2.662   4.796  2.5183  1.1585  0.5887
 5003SOL     OW26470   1.328   1.161   0.729 -0.6620  0.7184  0.4599
 5003SOL    HW126471   1.269   1.152   0.654  0.4042  1.5284 -0.4777
 5003SOL    HW226472   1.350   1.068   0.736 -0.8063  0.6477 -0.0347
 5004SOL     OW26473   4.200   0.456  14.664 -0.8222  0.2881 -0.3888
 5004SOL    HW126474   4.130   0.402  14.701 -1.6283  1.3049 -0.4263
 5004SOL    HW226475   4.162   0.460  14.576  1.1073 -0.0419 -1.2223
 5005SOL     OW26476   3.413   0.244  17.203 -0.2395 -0.0793  0.0955
 5005SOL    HW126477   3.391   0.221  17.293  0.7270  1.8750  0.8453
 5005SOL    HW226478   3.343   0.211  17.146  0.0016  0.6785 -0.6490
 5006SOL     OW26479   2.912   1.797   7.081  0.1548  0.0199  0.2572
 5006SOL    HW126480   2.820   1.824   7.090 -0.3084 -1.9084  1.2119
 5006SOL    HW226481   2.905   1.766   6.991  1.0704  1.9986 -0.4958
 5007SOL     OW26482   3.978   4.011   7.309 -0.5828  0.2332  0.5550
 5007SOL    HW126483   3.953   4.084   7.253 -0.2918  0.8940  1.2906
 5007SOL    HW226484   4.011   3.952   7.240 -0.9405  0.5177  0.1432
 5008SOL     OW26485   2.334   2.346   6.124 -0.5668  0.6754  0.7837
 5008SOL    HW126486   2.313   2.426   6.173  2.9391  1.9697  0.1740
 5008SOL    HW226487   2.419   2.375   6.090  0.3691 -0.9719  1.7535
 5009SOL     OW26488   1.836   3.014   6.775 -0.2318  0.4604  0.6959
 5009SOL    HW126489   1.928   3.020   6.802  0.8991 -0.7698 -2.7715
 5009SOL    HW226490   1.839   3.046   6.684 -0.4206  0.5144  0.7101
 5010SOL     OW26491   2.201   2.301   9.967 -0.3063  0.4095 -0.0245
 5010SOL    HW126492   2.257   2.329  10.039 -1.0265 -0.7968  1.0127
 5010SOL    HW226493   2.249   2.327   9.888  1.2733  2.4098  1.6036
 5011SOL     OW26494   1.333   1.335   7.670  0.1929 -0.1275 -0.3184
 5011SOL    HW126495   1.371   1.423   7.675 -2.5582  0.9933  1.1734
 5011SOL    HW226496   1.385   1.289   7.735  1.6155 -0.6934 -1.8513
 5012SOL     OW26497   2.380   1.285   2.167  0.5304  0.5348  0.2346
 5012SOL    HW126498   2.386   1.291   2.262 -1.5741  0.2418  0.3946
 5012SOL    HW226499   2.463   1.245   2.143  2.2617  2.9679  2.2062
 5013SOL     OW26500   4.316   2.545   0.663 -0.1445  0.4599 -0.4990
 5013SOL    HW126501   4.275   2.571   0.745  1.7466  2.3173 -0.1523
 5013SOL    HW226502   4.402   2.505   0.675  0.0975  1.8026  2.2007
 5014SOL     OW26503   4.260   2.184   8.115  0.3197  0.2182 -0.5286
 5014SOL    HW126504   4.283   2.094   8.094  0.8729 -0.0744  1.4062
 5014SOL    HW226505   4.296   2.188   8.203 -3.3215  1.5435  0.9029
 5015SOL     OW26506   1.999   1.511   6.616  0.2105  0.1744 -0.1011
 5015SOL    HW126507   2.040   1.559   6.688 -1.1562  0.0987  0.7195
 5015SOL    HW226508   1.909   1.497   6.643  0.1998 -1.3950 -0.9781
 5016SOL     OW26509   0.562   1.814   8.612 -0.9336 -0.1420  0.4553
 5016SOL    HW126510   0.620   1.890   8.606  0.4895 -1.3205 -0.8753
 5016SOL    HW226511   0.495   1.829   8.546  0.4306  1.0343 -0.6452
 5017SOL     OW26512   0.780   0.393  15.065  0.1828 -0.1871  0.2833
 5017SOL    HW126513   0.722   0.439  15.005 -0.6568  1.1511  2.1033
 5017SOL    HW226514   0.815   0.332  15.000  2.8655  1.7574 -0.0994
 5018SOL     OW26515   1.689   3.423   8.825  0.2487  0.1457 -0.2770
 5018SOL    HW126516   1.683   3.515   8.802  0.3413  0.4924  1.0859
 5018SOL    HW226517   1.612   3.419   8.881 -0.6730 -0.4811 -1.5782
 5019SOL     OW26518   0.970   1.873  13.597  0.3220  0.3039 -0.7543
 5019SOL    HW126519   0.886   1.919  13.601 -0.5031 -1.3971  1.5911
 5019SOL    HW226520   0.944   1.781  13.594 -0.4759  0.4832  0.6410
 5020SOL     OW26521   3.054   4.341  15.811  0.0055 -0.0900 -0.0585
 5020SOL    HW126522   3.066   4.262  15.758  2.2780 -1.5001  2.5390
 5020SOL    HW226523   3.029   4.412  15.752  1.2411  0.4969  0.1285
 5021SOL     OW26524   2.317   4.159   8.084 -0.4170 -0.0670 -0.1668
 5021SOL    HW126525   2.249   4.133   8.145 -0.6662 -0.5167 -0.6325
 5021SOL    HW226526   2.305   4.088   8.021  0.1472  0.5688 -0.9903
 5022SOL     OW26527   0.640   0.093  17.398  0.2702  0.3939  0.0691
 5022SOL    HW126528   0.725   0.088  17.442  0.1854  0.1563  0.2069
 5022SOL    HW226529   0.635   0.188  17.396  0.4594  0.4332  1.1444
 5023SOL     OW26530   3.187   1.781   2.780 -0.3494  0.1673 -0.6351
 5023SOL    HW126531   3.229   1.695   2.775  1.5967  0.9904  1.3376
 5023SOL    HW226532   3.107   1.768   2.729 -1.6502 -0.3354  1.4851
 5024SOL     OW26533   0.297   4.377   3.007 -0.1466  0.5483  0.2478
 5024SOL    HW126534   0.356   4.446   2.978 -1.6361  1.3006 -1.0117
 5024SOL    HW226535   0.224   4.383   2.946 -0.6282  1.2754  0.8920
 5025SOL     OW26536   3.102   3.764   6.310  0.1270 -0.3668  0.0632
 5025SOL    HW126537   3.035   3.717   6.361 -2.5983  1.1661 -2.1456
 5025SOL    HW226538   3.175   3.703   6.317 -1.3245 -2.1182 -0.1967
 5026SOL     OW26539   1.125   2.041  13.495 -0.7801  0.5890 -0.3509
 5026SOL    HW126540   1.076   1.979  13.550  1.2977 -0.3985  0.3778
 5026SOL    HW226541   1.142   1.987  13.418  1.6899  1.1303 -0.1712
 5027SOL     OW26542   4.497   1.750   4.647  0.1198  0.0924 -0.2921
 5027SOL    HW126543   4.433   1.719   4.712  1.4347 -1.4303  0.2630
 5027SOL    HW226544   4.566   1.787   4.702 -1.1416  0.0243  1.3654
 5028SOL     OW26545   4.698   3.580   5.030  0.9749  0.3408  0.5078
 5028SOL    HW126546   4.647   3.575   4.949  0.1270  0.9245  0.9929
 5028SOL    HW226547   4.632   3.559   5.097  1.0086 -0.1343  0.3887
 5029SOL     OW26548   0.708   3.969   6.330 -0.2846 -0.0055 -0.6764
 5029SOL    HW126549   0.726   3.964   6.236 -0.3276  1.7615 -0.7856
 5029SOL    HW226550   0.788   3.933   6.368 -0.0538 -0.7638 -1.8745
 5030SOL     OW26551   0.492   1.762   3.077  0.2503 -0.3312 -0.0694
 5030SOL    HW126552   0.516   1.834   3.135 -0.5586 -0.8885  0.9708
 5030SOL    HW226553   0.518   1.680   3.121 -1.4182 -0.8936 -0.1416
 5031SOL     OW26554   1.677   3.760   7.038  0.0710  0.7386 -0.2339
 5031SOL    HW126555   1.769   3.740   7.020 -0.3719 -1.6840  0.1329
 5031SOL    HW226556   1.644   3.670   7.040  0.3196  0.6688  0.4293
 5032SOL     OW26557   3.755   4.165  15.657 -0.1493 -0.5390 -0.1666
 5032SOL    HW126558   3.754   4.261  15.654  1.5160 -0.5185 -0.4551
 5032SOL    HW226559   3.667   4.128  15.656  0.1023 -1.1314 -0.9048
 5033SOL     OW26560   1.000   0.487   3.749  0.2465  0.0004  0.1321
 5033SOL    HW126561   0.992   0.434   3.670 -1.2610  1.1309 -0.4748
 5033SOL    HW226562   0.912   0.515   3.775  0.7381  1.6169  0.0955
 5034SOL     OW26563   0.804   1.365   4.406  0.1770  0.2468  0.5052
 5034SOL    HW126564   0.837   1.400   4.489  0.5452 -0.0759  0.4893
 5034SOL    HW226565   0.714   1.374   4.439  0.5284  0.7888  1.3151
 5035SOL     OW26566   1.673   0.610   2.292 -0.0432 -0.3464  0.4721
 5035SOL    HW126567   1.721   0.660   2.227 -0.4938 -0.8873 -0.2897
 5035SOL    HW226568   1.719   0.639   2.370 -0.1988 -0.0862  0.4657
 5036SOL     OW26569   0.451   1.740   6.623  0.6091 -0.2846 -0.3700
 5036SOL    HW126570   0.541   1.707   6.625  0.5551 -0.4826 -1.1528
 5036SOL    HW226571   0.402   1.671   6.667  0.5198  1.0630  1.6427
 5037SOL     OW26572   2.635   0.907   9.125 -1.0053  0.4840 -0.2471
 5037SOL    HW126573   2.607   0.996   9.149 -0.0242  0.3407  1.3829
 5037SOL    HW226574   2.729   0.924   9.122 -0.6542 -1.8713 -1.7964
 5038SOL     OW26575   0.070   4.269  15.641 -0.3602  0.4462  0.4538
 5038SOL    HW126576   0.041   4.184  15.673  0.5522 -0.9166 -2.3325
 5038SOL    HW226577   0.041   4.260  15.550  1.0937 -1.7575  0.2100
 5039SOL     OW26578   1.132   1.379   6.115 -0.0292  0.2356 -0.1486
 5039SOL    HW126579   1.158   1.360   6.025 -1.3468  0.8777 -0.6550
 5039SOL    HW226580   1.038   1.392   6.103  0.1980  1.1377 -0.9627
 5040SOL     OW26581   2.734   4.441   8.216 -0.2569  0.0413 -0.1703
 5040SOL    HW126582   2.711   4.523   8.261 -1.5962 -0.8987  0.8264
 5040SOL    HW226583   2.825   4.427   8.245 -0.8875 -0.0207  1.7754
 5041SOL     OW26584   3.389   1.408  12.340  0.0941  0.0831  0.0804
 5041SOL    HW126585   3.301   1.384  12.308  0.5154  0.6499 -1.5195
 5041SOL    HW226586   3.422   1.439  12.256 -0.8282 -0.6335 -0.5558
 5042SOL     OW26587   3.263   3.237  13.892  0.6567  0.2497 -0.3689
 5042SOL    HW126588   3.229   3.299  13.956  1.7364  0.4834 -0.0249
 5042SOL    HW226589   3.196   3.168  13.896  1.4913 -0.3994  1.9949
 5043SOL     OW26590   1.552   2.944   9.623 -0.0514 -0.6225  0.7744
 5043SOL    HW126591   1.601   2.947   9.705 -0.8310  0.9834  1.1693
 5043SOL    HW226592   1.590   2.885   9.558 -2.1481  0.1890 -1.1917
 5044SOL     OW26593   1.321   0.344   6.936  0.4979 -0.1225 -0.2989
 5044SOL    HW126594   1.331   0.419   6.878  2.3188  0.9236  1.3469
 5044SOL    HW226595   1.312   0.273   6.873  1.1404 -1.5552  1.2272
 5045SOL     OW26596   3.199   0.016  14.660 -0.2610  0.7157 -0.0683
 5045SOL    HW126597   3.140   0.072  14.610 -0.1311 -0.3300 -1.3587
 5045SOL    HW226598   3.174   0.035  14.751  0.4445 -0.3907  0.3558
 5046SOL     OW26599   2.084   2.308   7.940 -0.0097  0.1381  0.0229
 5046SOL    HW126600   2.012   2.250   7.965 -0.1035  0.8365  1.3377
 5046SOL    HW226601   2.113   2.348   8.022  2.0554  0.8804 -1.0730
 5047SOL     OW26602   0.836   2.529   2.351 -0.0702 -0.5674 -0.1027
 5047SOL    HW126603   0.918   2.480   2.345  0.1095 -0.0021 -2.1097
 5047SOL    HW226604   0.765   2.465   2.340  1.4227 -1.7058 -3.0213
 5048SOL     OW26605   2.006   2.604  14.321  0.0955  0.6166  0.5714
 5048SOL    HW126606   1.997   2.547  14.245 -2.7586  0.1703  1.2532
 5048SOL    HW226607   1.918   2.641  14.325  0.5976  1.8050  0.8573
 5049SOL     OW26608   4.039   0.395   3.857  0.0021  0.0165  0.0008
 5049SOL    HW126609   3.950   0.403   3.822 -0.4693 -0.7269  1.0396
 5049SOL    HW226610   4.028   0.379   3.950 -0.5475  2.4766  0.3673
 5050SOL     OW26611   2.969   3.528  15.356 -0.0174  0.2410  0.3278
 5050SOL    HW126612   2.886   3.493  15.389  0.0290  0.4387  0.6454
 5050SOL    HW226613   3.002   3.580  15.428  1.9598 -0.2788 -0.2109
 5051SOL     OW26614   2.008   1.697  13.520 -0.5895 -0.2083  0.8237
 5051SOL    HW126615   2.051   1.765  13.572  0.3241 -0.4847  0.4336
 5051SOL    HW226616   2.084   1.654  13.481 -0.0419  0.5461  1.0733
 5052SOL     OW26617   4.277   3.142  14.709  0.3097  0.3974  0.3124
 5052SOL    HW126618   4.221   3.081  14.660  2.6388 -1.4101 -0.1262
 5052SOL    HW226619   4.326   3.177  14.634  0.2732 -0.3166 -0.0473
 5053SOL     OW26620   0.369   0.941  14.689  0.2241 -0.0626  0.0218
 5053SOL    HW126621   0.406   0.956  14.602 -0.3083 -1.0994 -0.3779
 5053SOL    HW226622   0.349   1.026  14.729 -1.2291  0.1526 -1.1446
 5054SOL     OW26623   3.171   2.105  17.451  0.2981  0.5734  0.5796
 5054SOL    HW126624   3.087   2.096  17.405 -0.2306  3.0478  1.0991
 5054SOL    HW226625   3.152   2.116  17.544 -0.7059 -2.6572  0.7620
 5055SOL     OW26626   3.693   3.417   6.028  0.1684  0.3389 -0.2408
 5055SOL    HW126627   3.745   3.463   5.962  0.7277 -0.9938 -0.7340
 5055SOL    HW226628   3.618   3.475   6.042  0.1835 -0.0075  1.2598
 5056SOL     OW26629   1.240   4.606  10.778 -0.2677 -0.7729 -0.4671
 5056SOL    HW126630   1.278   4.590  10.692  1.1670 -2.1103  0.4265
 5056SOL    HW226631   1.272   4.537  10.836 -0.4145  0.9896  1.7135
 5057SOL     OW26632   0.616   4.007   8.149 -0.5053 -0.0619 -0.0148
 5057SOL    HW126633   0.680   3.986   8.217  0.6594  0.0294 -1.0837
 5057SOL    HW226634   0.645   4.093   8.120  0.2998 -0.4702 -0.4171
 5058SOL     OW26635   2.187   4.724   3.368  0.2625 -0.3150  0.0503
 5058SOL    HW126636   2.221   4.663   3.302 -0.0512  1.8297 -2.0525
 5058SOL    HW226637   2.101   4.686   3.382 -0.0306  0.3166 -0.0543
 5059SOL     OW26638   4.188   1.447   3.094  0.1104 -0.3367  0.2114
 5059SOL    HW126639   4.145   1.531   3.075 -0.9148 -1.4133 -2.2898
 5059SOL    HW226640   4.157   1.392   3.022 -2.4502 -3.0237  3.3651
 5060SOL     OW26641   2.363   0.346   6.614 -0.2922  0.4549  0.3804
 5060SOL    HW126642   2.438   0.404   6.610 -0.0261  0.0686 -0.2491
 5060SOL    HW226643   2.408   0.266   6.640 -0.0072  0.7143  0.6670
 5061SOL     OW26644   0.975   3.410   5.959  0.6112 -0.4199  0.2307
 5061SOL    HW126645   0.993   3.405   6.052  4.3489 -1.7276 -0.5748
 5061SOL    HW226646   1.020   3.492   5.939 -0.9800  0.4107  0.0416
 5062SOL     OW26647   2.568   4.068   9.969  0.0882 -0.4425 -0.5510
 5062SOL    HW126648   2.646   4.079   9.915 -0.1762  2.4998 -0.3144
 5062SOL    HW226649   2.601   4.062  10.059  1.8962  0.1628 -1.1892
 5063SOL     OW26650   3.918   3.224   2.713 -0.4417 -0.0584  0.2473
 5063SOL    HW126651   3.915   3.262   2.801  1.4036  0.8040 -0.0561
 5063SOL    HW226652   3.828   3.202   2.687 -0.2294 -0.4098 -0.1890
 5064SOL     OW26653   2.297   1.849   9.574 -0.3183 -0.2913 -0.2127
 5064SOL    HW126654   2.390   1.846   9.592 -0.5985 -0.5953  1.1491
 5064SOL    HW226655   2.267   1.798   9.649  0.2405 -1.0782 -0.5353
 5065SOL     OW26656   0.810   1.190  11.105  0.2239 -0.6766 -0.8561
 5065SOL    HW126657   0.815   1.132  11.181 -0.0315  0.3402 -0.0632
 5065SOL    HW226658   0.717   1.215  11.109  0.9250  1.7813 -0.0625
 5066SOL     OW26659   0.198   0.015   2.293 -0.4734  0.0495 -0.4613
 5066SOL    HW126660   0.201   0.099   2.338  0.3099 -0.4090  0.3428
 5066SOL    HW226661   0.283   0.008   2.249  0.2144  0.3347  0.7961
 5067SOL     OW26662   4.564   0.891   7.705 -0.5064  0.0203  0.1000
 5067SOL    HW126663   4.525   0.976   7.686  1.3339  0.9314  0.4426
 5067SOL    HW226664   4.619   0.918   7.778  0.7682  0.2917 -0.9612
 5068SOL     OW26665   2.515   0.779  11.598  0.8558 -0.6013  0.1071
 5068SOL    HW126666   2.492   0.692  11.630 -0.8307 -1.0442 -2.2503
 5068SOL    HW226667   2.557   0.749  11.518  1.9986  0.8902  0.1439
 5069SOL     OW26668   3.532   3.995   7.699  0.6264  0.0508 -0.3978
 5069SOL    HW126669   3.440   3.989   7.674  0.3474  0.7802  0.4389
 5069SOL    HW226670   3.552   4.074   7.649  0.0918  1.3655  1.4342
 5070SOL     OW26671   4.409   1.913   3.046  0.5075 -0.3550  0.3875
 5070SOL    HW126672   4.450   1.992   3.082  0.4455 -0.4386  0.6394
 5070SOL    HW226673   4.338   1.954   2.996 -0.5332 -0.4237  1.7890
 5071SOL     OW26674   3.795   2.285  17.280  0.2285 -0.1272  0.1374
 5071SOL    HW126675   3.870   2.343  17.272 -0.1430  0.2212 -0.8704
 5071SOL    HW226676   3.759   2.298  17.192  1.2918 -1.5375 -0.4989
 5072SOL     OW26677   0.033   0.401   5.515  0.0400  0.0018  0.2813
 5072SOL    HW126678   0.009   0.443   5.432 -0.3508 -2.5500 -0.8824
 5072SOL    HW226679   0.117   0.364   5.487  0.0069 -1.2891  1.9327
 5073SOL     OW26680   1.353   4.139   5.211 -0.2129 -0.3840 -0.9126
 5073SOL    HW126681   1.429   4.092   5.246 -1.1304 -1.5071 -0.4107
 5073SOL    HW226682   1.337   4.202   5.281  1.2945 -0.7086 -0.2938
 5074SOL     OW26683   2.824   2.125   8.228  0.5768 -0.2925 -0.4089
 5074SOL    HW126684   2.787   2.161   8.309  0.7017 -1.5387  0.2039
 5074SOL    HW226685   2.752   2.063   8.214 -2.0282  2.9627 -1.3478
 5075SOL     OW26686   4.121   2.237  16.792  0.2948 -0.1286 -0.1045
 5075SOL    HW126687   4.215   2.245  16.775  0.0202  1.7286 -0.7632
 5075SOL    HW226688   4.092   2.274  16.708  0.6261 -0.1903 -0.2462
 5076SOL     OW26689   1.280   3.202   5.458 -0.3256 -0.0063  0.0300
 5076SOL    HW126690   1.261   3.293   5.438 -1.2544 -0.3316 -0.5689
 5076SOL    HW226691   1.314   3.225   5.544 -0.9326 -1.1515  0.5809
 5077SOL     OW26692   1.542   2.236   5.043  0.4404  0.0637 -0.2177
 5077SOL    HW126693   1.537   2.141   5.054 -0.9866  0.1493 -0.2119
 5077SOL    HW226694   1.487   2.251   4.966  0.4230  2.7506  0.3237
 5078SOL     OW26695   4.435   4.619  14.302 -0.2140 -0.0684  0.1456
 5078SOL    HW126696   4.369   4.593  14.238  0.0925 -0.1065 -0.1547
 5078SOL    HW226697   4.428   4.553  14.372  1.0183  1.3163  1.5771
 5079SOL     OW26698   4.689   1.044  16.739  0.3509  0.1135 -0.9593
 5079SOL    HW126699   0.046   1.007  16.770 -0.5521 -0.2486  0.9830
 5079SOL    HW226700   4.717   1.119  16.686 -2.5778  1.3865 -0.7363
 5080SOL     OW26701   0.049   3.101   9.248 -0.0749  0.0383  0.2487
 5080SOL    HW126702   4.688   3.069   9.222  0.0560 -0.3410  0.2784
 5080SOL    HW226703   0.065   3.166   9.179  0.2357  0.2334  0.5038
 5081SOL     OW26704   3.661   3.825   4.546 -0.2417 -0.4885  0.3231
 5081SOL    HW126705   3.711   3.785   4.617  0.1956 -0.2819  0.1351
 5081SOL    HW226706   3.707   3.801   4.465 -2.2708  0.6785 -1.1539
 5082SOL     OW26707   1.210   0.968   9.099 -0.4460  0.4438 -0.1996
 5082SOL    HW126708   1.213   0.976   9.195 -0.5402  0.7246 -0.2207
 5082SOL    HW226709   1.122   0.930   9.091 -0.1718 -0.0902 -0.6313
 5083SOL     OW26710   4.269   1.235   6.001 -0.3984  0.4869 -0.6518
 5083SOL    HW126711   4.311   1.153   6.026 -2.0740  0.0239  0.5994
 5083SOL    HW226712   4.183   1.224   6.039 -0.2903 -0.2030 -0.6046
 5084SOL     OW26713   3.720   0.921  12.508 -0.1525 -0.0098  0.5626
 5084SOL    HW126714   3.798   0.888  12.463  0.8248  3.0598  0.0286
 5084SOL    HW226715   3.672   0.838  12.506 -2.9458  1.6435 -0.7587
 5085SOL     OW26716   1.055   2.712   7.508  0.3249  0.0717  0.0972
 5085SOL    HW126717   1.116   2.766   7.559 -0.4344  0.6280  0.4208
 5085SOL    HW226718   1.018   2.652   7.573  1.9008  0.7394  1.6350
 5086SOL     OW26719   0.618   0.049   7.967 -0.6033 -0.2635 -0.1785
 5086SOL    HW126720   0.684   0.118   7.959 -0.8741  0.0733  0.5553
 5086SOL    HW226721   0.633   0.000   7.885 -2.2483  0.2830 -0.8097
 5087SOL     OW26722   0.035   0.704   2.341  0.5477 -0.3546  0.0627
 5087SOL    HW126723   4.676   0.711   2.387 -0.5664  0.9937 -2.1551
 5087SOL    HW226724   0.017   0.691   2.248 -0.2064 -0.7371  0.2608
 5088SOL     OW26725   3.068   3.457   7.184 -0.5950 -0.0439 -0.0420
 5088SOL    HW126726   3.100   3.475   7.273  0.5734  0.6026 -0.5948
 5088SOL    HW226727   3.041   3.365   7.190 -1.8325  0.2995 -0.4263
 5089SOL     OW26728   2.618   0.077  13.136  0.1686  0.2346 -0.6778
 5089SOL    HW126729   2.647   0.118  13.054  0.7486 -0.5933 -0.8941
 5089SOL    HW226730   2.700   0.060  13.181 -1.1736 -0.2711  1.5832
 5090SOL     OW26731   2.247   1.314   2.744 -0.4142 -0.0009  0.8107
 5090SOL    HW126732   2.230   1.329   2.837  0.3570  0.3878  0.8931
 5090SOL    HW226733   2.325   1.369   2.734 -0.1192 -0.5399  0.1380
 5091SOL     OW26734   2.798   3.275   1.934 -0.5641 -0.0241  0.1638
 5091SOL    HW126735   2.708   3.259   1.965 -1.2178  2.3361 -0.4762
 5091SOL    HW226736   2.845   3.263   2.015  3.6872 -1.1860 -2.5053
 5092SOL     OW26737   0.330   0.540   2.682 -0.3220 -0.1437 -0.1001
 5092SOL    HW126738   0.248   0.588   2.693 -0.5567 -0.0751 -2.2375
 5092SOL    HW226739   0.326   0.472   2.750 -1.0605  1.2926  1.3120
 5093SOL     OW26740   1.368   3.609  13.089  0.0664 -0.0992  0.4171
 5093SOL    HW126741   1.327   3.632  13.172  0.3131 -0.3817  0.6130
 5093SOL    HW226742   1.397   3.698  13.071 -1.7220  0.0157 -1.9462
 5094SOL     OW26743   3.989   3.845   4.943 -0.0368 -0.3502  0.1901
 5094SOL    HW126744   4.024   3.929   4.914  0.3311 -1.2115 -1.8939
 5094SOL    HW226745   4.039   3.827   5.022 -0.2018  0.5496  0.4887
 5095SOL     OW26746   2.726   3.874   5.454 -0.4533  0.0598  0.5062
 5095SOL    HW126747   2.727   3.951   5.399 -1.4379 -0.5576 -0.3815
 5095SOL    HW226748   2.807   3.832   5.425 -0.9368 -1.0074  0.6826
 5096SOL     OW26749   3.812   1.883   9.659 -0.2884 -0.2319 -0.5774
 5096SOL    HW126750   3.863   1.882   9.740  0.1239  1.4291 -0.8091
 5096SOL    HW226751   3.875   1.885   9.587  2.1576  0.7433  1.6027
 5097SOL     OW26752   1.816   4.237   4.473  0.2549  0.0183 -0.0931
 5097SOL    HW126753   1.865   4.317   4.491 -0.6114  0.9191 -1.8093
 5097SOL    HW226754   1.736   4.271   4.435  2.5723  1.6271 -3.4625
 5098SOL     OW26755   2.300   0.893   8.066 -0.6399  0.6159 -0.3285
 5098SOL    HW126756   2.279   0.814   8.115 -2.4328  1.1072 -0.3212
 5098SOL    HW226757   2.368   0.935   8.119 -1.3992  1.1094  0.2525
 5099SOL     OW26758   0.082   3.816   9.480 -0.2592  0.2374  0.0897
 5099SOL    HW126759   0.044   3.820   9.568 -1.5006  0.9763 -0.4670
 5099SOL    HW226760   0.014   3.863   9.431  1.6978  1.5037 -1.3917
 5100SOL     OW26761   0.316   0.196   8.454  0.3574 -0.2633  0.1290
 5100SOL    HW126762   0.383   0.182   8.520  0.6204  0.5006  0.0249
 5100SOL    HW226763   0.365   0.176   8.374  2.2759 -1.1313  1.5350
 5101SOL     OW26764   3.546   4.692   1.597  0.2123  0.0223  0.5924
 5101SOL    HW126765   3.477   4.640   1.556  0.4955 -1.0044  1.4151
 5101SOL    HW226766   3.571   0.012   1.516  1.0830 -0.4670  0.5956
 5102SOL     OW26767   4.200   3.089   7.107  0.3009  0.0091  0.1615
 5102SOL    HW126768   4.235   3.055   7.189 -3.5439 -0.3310  1.6892
 5102SOL    HW226769   4.114   3.115   7.140  0.0578  0.5047 -0.8505
 5103SOL     OW26770   1.102   4.090   6.108 -0.2960  0.6486 -0.6433
 5103SOL    HW126771   1.063   4.091   6.195  0.9484  1.1019 -0.0872
 5103SOL    HW226772   1.194   4.083   6.134 -1.0689 -1.4824  1.4758
 5104SOL     OW26773   4.184   3.245   8.676 -0.4258 -0.6577  0.1759
 5104SOL    HW126774   4.225   3.314   8.729 -1.2714 -1.2353  1.5805
 5104SOL    HW226775   4.096   3.261   8.708 -0.6836 -2.6154  0.4086
 5105SOL     OW26776   3.752   0.440  11.098  0.0925  0.1025 -0.2097
 5105SOL    HW126777   3.769   0.349  11.124 -0.3093 -0.9490 -3.7275
 5105SOL    HW226778   3.843   0.470  11.103  0.5550 -1.5530  1.4579
 5106SOL     OW26779   3.288   1.216  15.201  0.6908  0.7877 -0.1903
 5106SOL    HW126780   3.261   1.181  15.286 -0.1407  0.6434 -0.5151
 5106SOL    HW226781   3.263   1.307  15.214 -0.8351  0.2137  0.9730
 5107SOL     OW26782   3.975   3.396   4.194  0.1061 -0.3779 -0.5729
 5107SOL    HW126783   3.897   3.436   4.154 -0.6107 -2.7189 -1.5285
 5107SOL    HW226784   3.943   3.306   4.188 -1.3124 -0.0111  1.5865
 5108SOL     OW26785   0.041   0.860  15.760  0.4408  0.4105  0.0657
 5108SOL    HW126786   4.714   0.857  15.680 -1.7025 -0.0977  1.5124
 5108SOL    HW226787   0.126   0.895  15.730  1.3477 -0.8049  1.2420
 5109SOL     OW26788   4.645   2.349   3.587 -0.1968 -0.0918  0.5935
 5109SOL    HW126789   4.595   2.344   3.668 -0.3900 -1.6534  0.3785
 5109SOL    HW226790   4.673   2.440   3.592 -1.9873  0.3629  2.3534
 5110SOL     OW26791   3.246   2.668  11.506  0.2817  0.6877  0.1952
 5110SOL    HW126792   3.184   2.612  11.553  3.7001 -1.8166  1.7318
 5110SOL    HW226793   3.185   2.731  11.469 -2.3705 -0.9945  1.7039
 5111SOL     OW26794   1.197   1.570   1.096  0.0054 -0.0333 -0.6528
 5111SOL    HW126795   1.194   1.664   1.114  1.8607 -0.1030 -0.0352
 5111SOL    HW226796   1.279   1.550   1.141  1.7202  1.0773 -3.2962
 5112SOL     OW26797   2.461   3.394   4.127 -0.1759 -0.0815 -0.4404
 5112SOL    HW126798   2.453   3.379   4.033  1.3588 -1.0611 -0.4258
 5112SOL    HW226799   2.476   3.488   4.116 -2.2047  0.2756 -0.0842
 5113SOL     OW26800   2.717   0.147   3.723 -0.0097 -0.1229 -0.2862
 5113SOL    HW126801   2.697   0.064   3.680  0.3633 -0.9937  1.2204
 5113SOL    HW226802   2.773   0.177   3.651 -1.0810  3.2016  0.2725
 5114SOL     OW26803   2.662   0.631  10.727  0.5431 -0.1248 -0.0495
 5114SOL    HW126804   2.578   0.601  10.761 -0.2326 -1.5362 -3.2523
 5114SOL    HW226805   2.710   0.663  10.804 -0.8330  0.3589  0.6006
 5115SOL     OW26806   3.707   2.695   5.668  0.5392 -0.0843  0.3658
 5115SOL    HW126807   3.727   2.659   5.581 -0.5833  1.2493 -0.4509
 5115SOL    HW226808   3.640   2.641   5.708  1.4115 -1.3647  0.0969
 5116SOL     OW26809   0.281   2.020  12.634  0.5649  0.6534 -0.2126
 5116SOL    HW126810   0.340   1.996  12.706 -2.3887 -2.1403  1.2526
 5116SOL    HW226811   0.285   2.115  12.634 -1.3789  0.7334  0.1844
 5117SOL     OW26812   2.482   2.757  17.221 -0.0085 -0.6420 -0.7408
 5117SOL    HW126813   2.463   2.808  17.300  0.3830  0.1883 -1.1874
 5117SOL    HW226814   2.448   2.814  17.152  2.2490 -0.7879 -1.9779
 5118SOL     OW26815   2.457   1.724   1.006  0.1241  0.2355 -0.1183
 5118SOL    HW126816   2.429   1.632   1.009 -2.8774  1.2224  0.8400
 5118SOL    HW226817   2.381   1.765   1.045  1.7343  0.4705  2.7687
 5119SOL     OW26818   0.908   2.033   8.720 -0.2790 -0.2032  0.1088
 5119SOL    HW126819   0.933   1.991   8.803 -1.2529  1.3643  1.1987
 5119SOL    HW226820   0.967   2.108   8.722 -1.1540  0.4794  0.3281
 5120SOL     OW26821   0.241   4.218  11.022  0.3985  0.2469 -0.0993
 5120SOL    HW126822   0.314   4.281  11.020 -0.5063  1.1293 -3.9269
 5120SOL    HW226823   0.258   4.179  11.108  1.1757 -1.0337 -0.8297
 5121SOL     OW26824   0.725   0.747   0.848  0.2731  0.6376 -0.2286
 5121SOL    HW126825   0.805   0.710   0.886  0.0397  1.5560  1.1504
 5121SOL    HW226826   0.718   0.711   0.759 -0.0544  0.0480  0.0348
 5122SOL     OW26827   0.672   3.384   4.369  0.4184 -0.2253 -0.1027
 5122SOL    HW126828   0.761   3.348   4.369  1.3127  1.9608  0.5598
 5122SOL    HW226829   0.652   3.363   4.459  1.6983  0.2912  0.3145
 5123SOL     OW26830   2.844   4.167   2.282  0.1230  0.9237  0.5347
 5123SOL    HW126831   2.815   4.255   2.255 -0.8855 -0.1830 -1.9978
 5123SOL    HW226832   2.780   4.123   2.226  4.1953 -2.2012 -1.6780
 5124SOL     OW26833   1.107   1.083   6.703 -0.3000  0.0912 -0.2114
 5124SOL    HW126834   1.081   1.146   6.770 -1.1570  0.2985 -0.7402
 5124SOL    HW226835   1.021   1.041   6.697 -0.2987  0.2481 -1.2193
 5125SOL     OW26836   3.721   2.305   5.744  0.4538 -0.0305 -0.7384
 5125SOL    HW126837   3.765   2.222   5.763  1.4878  0.7256  0.1497
 5125SOL    HW226838   3.749   2.360   5.817  0.1147  0.5990 -1.0866
 5126SOL     OW26839   2.498   2.839   3.414  0.3812  0.0651 -0.3581
 5126SOL    HW126840   2.558   2.913   3.408 -0.3849  0.7489  0.2900
 5126SOL    HW226841   2.535   2.787   3.343  1.1734  0.4236 -0.2100
 5127SOL     OW26842   4.478   1.927  10.401  0.1005  0.0081 -0.6027
 5127SOL    HW126843   4.509   2.013  10.372  0.7810 -0.1754 -0.4295
 5127SOL    HW226844   4.416   1.907  10.331 -0.8426 -1.1717  0.5885
 5128SOL     OW26845   2.857   1.642   7.813  0.5235 -0.3302 -0.4610
 5128SOL    HW126846   2.782   1.669   7.759  0.1392 -1.1634 -0.3553
 5128SOL    HW226847   2.804   1.649   7.892 -1.8423  0.1590 -2.0761
 5129SOL     OW26848   3.514   4.263   2.805 -0.0331  0.6056 -0.1971
 5129SOL    HW126849   3.606   4.238   2.817 -0.3634 -0.2979  0.4731
 5129SOL    HW226850   3.501   4.264   2.710  0.1174  2.5789 -0.1855
 5130SOL     OW26851   0.801   3.358   2.248  0.2662  0.5636  0.1390
 5130SOL    HW126852   0.746   3.293   2.292 -1.6852  1.6099 -0.7601
 5130SOL    HW226853   0.812   3.308   2.168  0.8472  0.2069  0.4392
 5131SOL     OW26854   4.251   3.316   3.390 -0.2576  0.4731  0.0958
 5131SOL    HW126855   4.282   3.361   3.312  0.2213  2.2577  1.2914
 5131SOL    HW226856   4.302   3.236   3.386 -0.9891  0.0793 -1.1771
 5132SOL     OW26857   1.172   4.175   8.959 -0.0644 -0.4577  0.8171
 5132SOL    HW126858   1.245   4.163   9.020 -1.0948  0.6798  2.2595
 5132SOL    HW226859   1.099   4.194   9.018 -1.0353 -0.8851 -0.2423
 5133SOL     OW26860   3.913   0.592   8.297 -0.5949  0.1603  0.3177
 5133SOL    HW126861   3.953   0.579   8.383 -0.3003 -3.6688 -0.4020
 5133SOL    HW226862   3.893   0.685   8.307  0.7918  0.3894  1.0496
 5134SOL     OW26863   1.132   1.949   2.718 -0.0044 -0.5837  0.2184
 5134SOL    HW126864   1.155   2.014   2.652 -1.0922 -0.3043  0.1069
 5134SOL    HW226865   1.148   1.995   2.800 -1.8489  1.5754 -0.6343
 5135SOL     OW26866   4.160   4.444  12.580  0.4858  0.4274  0.3867
 5135SOL    HW126867   4.146   4.395  12.499 -2.8092 -0.7919  1.6868
 5135SOL    HW226868   4.177   4.533  12.548 -0.9282  0.6080  0.1375
 5136SOL     OW26869   4.712   2.431   7.771  0.0753 -0.3017  0.2248
 5136SOL    HW126870   4.668   2.347   7.761  1.7901 -1.0050 -1.4922
 5136SOL    HW226871   4.644   2.487   7.809 -0.5743 -0.3389 -0.8754
 5137SOL     OW26872   4.105   3.060   5.685 -0.6373  0.3690 -0.0310
 5137SOL    HW126873   4.136   2.977   5.649 -1.4472 -0.1899  0.5652
 5137SOL    HW226874   4.120   3.044   5.778 -2.0070 -0.9451 -0.0270
 5138SOL     OW26875   0.694   3.048   2.916  0.6423 -0.5033  0.7658
 5138SOL    HW126876   0.743   3.130   2.911 -2.5166  1.6205  3.9259
 5138SOL    HW226877   0.605   3.084   2.920  0.5564 -0.8162  1.7837
 5139SOL     OW26878   3.551   3.324   0.136  0.0518 -0.8092 -0.0194
 5139SOL    HW126879   3.564   3.414   0.105 -0.3333 -0.5322  0.6145
 5139SOL    HW226880   3.471   3.312   0.086 -0.1823  0.6346 -0.0091
 5140SOL     OW26881   1.709   1.030   4.715 -0.2088 -0.2444  0.2192
 5140SOL    HW126882   1.764   1.065   4.785 -0.6999  0.8907  0.0370
 5140SOL    HW226883   1.766   1.044   4.639 -1.0445  1.4053 -0.1094
 5141SOL     OW26884   2.928   4.079  10.743 -0.7354  0.3416 -0.2518
 5141SOL    HW126885   2.952   3.994  10.779 -0.4673  0.5106 -0.0296
 5141SOL    HW226886   2.942   4.128  10.824 -1.4019 -0.3746  0.2971
 5142SOL     OW26887   3.548   2.354   1.655 -0.2644 -0.1024  0.0930
 5142SOL    HW126888   3.557   2.342   1.561 -0.9727  1.2673 -0.1478
 5142SOL    HW226889   3.567   2.447   1.665 -1.5474 -0.1451  3.0999
 5143SOL     OW26890   1.072   3.850   9.933  0.1936  0.1732 -0.6029
 5143SOL    HW126891   1.157   3.838   9.974  0.7223 -1.4644 -2.1910
 5143SOL    HW226892   1.024   3.892  10.004 -1.3023 -0.6354 -1.1421
 5144SOL     OW26893   1.117   1.658   3.501 -0.0896  0.5136 -0.2157
 5144SOL    HW126894   1.168   1.723   3.550  1.2894  0.8062 -2.0462
 5144SOL    HW226895   1.059   1.709   3.445  0.0551 -1.6257 -2.3258
 5145SOL     OW26896   3.038   0.125   7.008  0.5140  0.0770 -0.3609
 5145SOL    HW126897   2.972   0.120   7.077  0.6459 -0.3919 -0.2669
 5145SOL    HW226898   2.978   0.119   6.933 -0.2097  0.2051  0.2086
 5146SOL     OW26899   4.096   2.153  11.743 -0.2221 -0.3805  0.3606
 5146SOL    HW126900   4.025   2.216  11.738 -0.5791 -0.7661  0.5623
 5146SOL    HW226901   4.150   2.173  11.667  0.8450  1.8669  1.7135
 5147SOL     OW26902   0.276   1.643   4.185 -0.3087  1.3904  0.4651
 5147SOL    HW126903   0.325   1.561   4.181 -0.3929  1.3270  0.7775
 5147SOL    HW226904   0.349   1.702   4.200  0.2586  0.6109  0.7533
 5148SOL     OW26905   4.419   4.200   5.352  0.0040  0.8327  0.0635
 5148SOL    HW126906   4.492   4.144   5.324  1.0859  2.0549  0.4287
 5148SOL    HW226907   4.465   4.266   5.403  1.8988 -0.1030 -0.3897
 5149SOL     OW26908   2.385   3.824  14.970  0.1281 -0.4019 -0.2602
 5149SOL    HW126909   2.345   3.893  14.918 -0.1750 -0.8514 -0.6099
 5149SOL    HW226910   2.318   3.775  15.018  1.2806 -0.8660  0.8786
 5150SOL     OW26911   2.795   2.314   0.473 -0.0813  0.4243  0.0655
 5150SOL    HW126912   2.701   2.329   0.472  0.2682  2.4919 -1.2841
 5150SOL    HW226913   2.831   2.320   0.562 -1.4093  0.6136  0.5856
 5151SOL     OW26914   2.585   4.165   4.211 -0.7837  0.0944 -0.0076
 5151SOL    HW126915   2.627   4.101   4.154  1.8146  0.9211  0.9592
 5151SOL    HW226916   2.544   4.105   4.273 -1.8146  1.0851  0.2707
 5152SOL     OW26917   1.953   4.665   7.790 -0.1266  0.5707 -0.3167
 5152SOL    HW126918   1.974   0.033   7.785 -0.3122  0.6695  0.7276
 5152SOL    HW226919   1.871   4.667   7.740 -0.8704 -0.7527  0.8224
 5153SOL     OW26920   0.994   0.739   3.573 -0.4121 -0.3742  0.2647
 5153SOL    HW126921   0.936   0.725   3.648 -2.2179 -0.7943 -1.2189
 5153SOL    HW226922   1.060   0.670   3.580 -0.4139 -0.2836  1.1593
 5154SOL     OW26923   1.075   2.084   4.218 -0.5848  0.7498  0.2031
 5154SOL    HW126924   1.119   2.160   4.255  1.5233  0.7314 -2.2522
 5154SOL    HW226925   1.148   2.047   4.167 -2.0860 -0.6414 -0.9288
 5155SOL     OW26926   4.241   1.865  12.093 -0.5216 -0.2111  0.0809
 5155SOL    HW126927   4.328   1.905  12.093 -0.4473 -0.4014 -1.6527
 5155SOL    HW226928   4.259   1.802  12.163  1.5175 -0.2797 -0.5102
 5156SOL     OW26929   0.261   4.613   7.664  0.2030  0.0050  0.0765
 5156SOL    HW126930   0.351   4.578   7.668 -0.1373 -1.0223 -1.5614
 5156SOL    HW226931   0.216   4.538   7.703  1.6589 -0.6626  0.4820
 5157SOL     OW26932   4.098   2.784   6.024  0.2830  0.6299  0.3434
 5157SOL    HW126933   4.065   2.770   5.935 -0.8022 -0.9945  1.0214
 5157SOL    HW226934   4.194   2.784   6.014  0.1436 -4.6184 -0.7270
 5158SOL     OW26935   3.869   3.161  15.288 -0.3295  0.3224  0.2672
 5158SOL    HW126936   3.953   3.155  15.241 -0.1735 -0.5285  0.6545
 5158SOL    HW226937   3.813   3.170  15.211  0.8026 -0.3899 -0.6580
 5159SOL     OW26938   2.038   2.407   5.131 -0.4791  0.4589  0.2588
 5159SOL    HW126939   2.029   2.349   5.055  0.8539  0.5979 -0.0162
 5159SOL    HW226940   1.946   2.396   5.152  0.3566 -2.7512  2.2279
 5160SOL     OW26941   3.366   2.421  11.686 -0.1125  0.1084  0.3155
 5160SOL    HW126942   3.273   2.406  11.703 -0.0836 -0.5247 -0.0853
 5160SOL    HW226943   3.375   2.504  11.638 -2.0089  0.1267 -0.0190
 5161SOL     OW26944   3.586   0.313   8.553  0.2459  0.0073 -0.0020
 5161SOL    HW126945   3.676   0.290   8.578  1.4524  3.5519 -1.1021
 5161SOL    HW226946   3.595   0.388   8.495  1.0539  2.9182  3.8526
 5162SOL     OW26947   4.667   0.573  15.661 -0.1070  0.2465  0.1123
 5162SOL    HW126948   4.664   0.589  15.756 -0.2437  2.4901 -0.2637
 5162SOL    HW226949   4.636   0.655  15.623 -0.3613 -0.4710 -1.2105
 5163SOL     OW26950   2.813   2.026   7.539 -0.1477  0.0457 -0.0959
 5163SOL    HW126951   2.842   2.002   7.627 -0.8712  0.2267  0.1929
 5163SOL    HW226952   2.829   1.950   7.485 -1.9666  0.8871 -1.8035
 5164SOL     OW26953   0.148   2.551   9.537  0.2218 -0.6248  0.0886
 5164SOL    HW126954   0.216   2.561   9.604 -1.5960  0.8013  1.7246
 5164SOL    HW226955   0.089   2.618   9.571  2.1443 -0.0393  2.3117
 5165SOL     OW26956   3.675   2.963  11.027 -0.0488  0.2303 -0.2509
 5165SOL    HW126957   3.684   3.049  11.068  1.6586 -0.6209  1.1797
 5165SOL    HW226958   3.624   2.987  10.950 -0.6193 -0.6391 -0.1390
 5166SOL     OW26959   2.711   0.778   2.527 -0.5928 -0.4975 -0.6211
 5166SOL    HW126960   2.781   0.715   2.546  0.0397  0.8309  1.5341
 5166SOL    HW226961   2.755   0.860   2.551 -0.5512 -0.0664 -2.1881
 5167SOL     OW26962   2.055   2.110   5.423  0.4924  0.6821 -0.4303
 5167SOL    HW126963   2.095   2.034   5.465  0.3235  0.2954 -0.9616
 5167SOL    HW226964   2.124   2.176   5.416  0.1530  1.0373 -0.4404
 5168SOL     OW26965   1.946   4.024   9.246  0.2678 -0.3043 -0.5163
 5168SOL    HW126966   1.893   4.101   9.226  0.1123 -0.8404 -2.1397
 5168SOL    HW226967   1.912   3.993   9.330 -2.8685  1.1661 -1.2375
 5169SOL     OW26968   0.147   2.174   7.461 -0.4099 -0.5372 -0.0641
 5169SOL    HW126969   0.095   2.157   7.539 -0.1469 -2.8396 -0.3961
 5169SOL    HW226970   0.227   2.199   7.508  0.6959  0.4384 -2.4417
 5170SOL     OW26971   3.113   3.479  16.610  0.0283 -0.1281  0.4215
 5170SOL    HW126972   3.161   3.466  16.528  1.5057  1.2851  1.0611
 5170SOL    HW226973   3.121   3.574  16.620 -1.9060  0.2396 -1.5742
 5171SOL     OW26974   1.709   3.113  17.359  0.1037  0.3036 -0.0410
 5171SOL    HW126975   1.772   3.048  17.391 -0.5668 -0.5254 -0.4228
 5171SOL    HW226976   1.698   3.169  17.436 -2.1651  1.0962 -0.9414
 5172SOL     OW26977   1.123   2.592  12.217 -0.0242 -0.2376  0.4951
 5172SOL    HW126978   1.089   2.646  12.145 -0.8062  0.2516  1.2352
 5172SOL    HW226979   1.105   2.649  12.291  0.3401  0.4340  0.0725
 5173SOL     OW26980   4.125   1.558  12.204  0.1696 -0.8230  0.2239
 5173SOL    HW126981   4.171   1.624  12.256  0.7677  0.5853 -2.0880
 5173SOL    HW226982   4.187   1.489  12.224  1.5709  0.0243 -1.2491
 5174SOL     OW26983   1.264   2.780   2.812 -0.1101  0.0174 -0.1420
 5174SOL    HW126984   1.323   2.769   2.886  0.1655 -0.2677 -0.4033
 5174SOL    HW226985   1.262   2.690   2.779 -2.7504  0.2773 -0.7063
 5175SOL     OW26986   4.505   0.271  15.873 -0.4730 -0.1062  0.2346
 5175SOL    HW126987   4.567   0.321  15.925 -0.3213  0.6417 -0.6757
 5175SOL    HW226988   4.462   0.220  15.942 -2.0722  0.1348 -0.5700
 5176SOL     OW26989   1.074   4.611   6.375  0.1174  0.5938  0.2040
 5176SOL    HW126990   0.983   4.635   6.362  0.3200  1.1463 -0.1634
 5176SOL    HW226991   1.115   4.611   6.289 -1.5736 -0.6509 -0.6197
 5177SOL     OW26992   2.649   3.931   9.029  0.6326 -0.1101 -0.9194
 5177SOL    HW126993   2.664   3.952   8.937  0.5553  2.7759 -0.2699
 5177SOL    HW226994   2.600   3.849   9.017  0.5839 -0.3844  1.1387
 5178SOL     OW26995   3.825   3.788   2.777 -0.3030  0.3827  0.1685
 5178SOL    HW126996   3.773   3.851   2.728  2.9913  0.8785 -2.6715
 5178SOL    HW226997   3.906   3.788   2.726  0.2025 -0.8768  0.9733
 5179SOL     OW26998   3.988   0.397  14.850 -0.0043  0.3448 -0.2362
 5179SOL    HW126999   3.997   0.308  14.883 -1.0897  0.6618  0.9229
 5179SOL    HW227000   3.948   0.377  14.765 -1.2999  0.6828  0.2837
 5180SOL     OW27001   3.562   1.296   1.514  0.4554  0.3927  0.2616
 5180SOL    HW127002   3.483   1.339   1.482  0.4907  0.2003 -0.0777
 5180SOL    HW227003   3.620   1.371   1.507  0.6138  0.3029  0.5893
 5181SOL     OW27004   3.511   3.743   2.629 -0.1742 -0.1811 -0.2506
 5181SOL    HW127005   3.579   3.797   2.670  1.7056 -2.8533  0.2505
 5181SOL    HW227006   3.562   3.709   2.556  1.6519  1.4046  0.3008
 5182SOL     OW27007   1.040   3.692   7.967  0.2904 -1.0880  0.0087
 5182SOL    HW127008   1.131   3.664   7.966  0.7920  0.5792 -0.9434
 5182SOL    HW227009   1.002   3.620   7.916  1.0735 -1.3626 -0.1895
 5183SOL     OW27010   2.498   2.117   6.813 -0.3545  0.1914  0.4229
 5183SOL    HW127011   2.446   2.186   6.772 -1.3368 -1.0937 -0.4772
 5183SOL    HW227012   2.581   2.161   6.792 -0.8365  0.9368  0.0699
 5184SOL     OW27013   0.452   1.339   3.386  0.1313 -0.6222  0.1788
 5184SOL    HW127014   0.414   1.251   3.397 -0.5206 -0.1554  1.6928
 5184SOL    HW227015   0.534   1.312   3.345  1.3381 -0.9522  2.7782
 5185SOL     OW27016   0.686   1.023   7.185 -0.1631 -0.5142  0.7278
 5185SOL    HW127017   0.731   1.106   7.205  1.0294 -0.6311 -1.4608
 5185SOL    HW227018   0.672   0.983   7.271  1.5065  0.6008  1.5285
 5186SOL     OW27019   0.614   3.140   9.488  0.3213 -0.4263 -0.8439
 5186SOL    HW127020   0.520   3.132   9.471  0.5275  0.9938 -2.6512
 5186SOL    HW227021   0.611   3.134   9.583  0.4061 -0.2185 -0.8286
 5187SOL     OW27022   1.370   4.201   7.975  0.1002  0.0653  0.7699
 5187SOL    HW127023   1.380   4.296   7.970 -1.5534  0.1461 -1.2621
 5187SOL    HW227024   1.370   4.188   8.069  2.6509  1.8452  1.0394
 5188SOL     OW27025   3.710   2.580   7.204  0.1712  0.0730 -0.4148
 5188SOL    HW127026   3.753   2.495   7.211 -0.5581 -0.0758  2.2325
 5188SOL    HW227027   3.620   2.549   7.192 -0.4266  1.6379  0.0779
 5189SOL     OW27028   3.500   2.450   2.395  0.4741 -0.0042  0.2738
 5189SOL    HW127029   3.579   2.473   2.347 -1.8254  0.2949 -3.3554
 5189SOL    HW227030   3.484   2.523   2.455  1.3422  0.9384 -0.6464
 5190SOL     OW27031   2.182   0.105   8.128  0.5846  0.2909  0.4945
 5190SOL    HW127032   2.173   0.072   8.217 -1.8527 -0.0856  0.1214
 5190SOL    HW227033   2.264   0.066   8.097 -1.4766 -1.6654 -2.5426
 5191SOL     OW27034   4.265   4.271   2.802  0.2600 -0.2864  0.2672
 5191SOL    HW127035   4.254   4.279   2.707 -0.7071  0.0697  0.4138
 5191SOL    HW227036   4.203   4.200   2.820  0.3656 -0.0789  1.4777
 5192SOL     OW27037   0.887   3.477   8.142  0.3343  0.5309  0.5024
 5192SOL    HW127038   0.892   3.538   8.068 -1.0765 -0.6750 -0.5872
 5192SOL    HW227039   0.876   3.398   8.090 -1.2739  1.4773 -0.5989
 5193SOL     OW27040   4.005   2.295   2.404 -0.3324 -0.2555  0.0296
 5193SOL    HW127041   4.006   2.382   2.363 -0.9088 -0.0562  0.4494
 5193SOL    HW227042   3.993   2.242   2.325  1.0347  2.1545 -1.8138
 5194SOL     OW27043   1.253   0.041   3.424 -0.3982  0.4690  0.4495
 5194SOL    HW127044   1.340   0.071   3.451  1.2492 -1.7709 -2.3338
 5194SOL    HW227045   1.237   0.099   3.349  0.6436  1.9118  1.3546
 5195SOL     OW27046   3.271   1.583  17.097  0.3509  0.2500  0.1068
 5195SOL    HW127047   3.336   1.520  17.128 -0.4558 -1.0081 -0.7656
 5195SOL    HW227048   3.276   1.573  17.001  1.3315 -0.0782  0.1894
 5196SOL     OW27049   1.204   1.319  17.296 -0.6034 -0.1093  0.3007
 5196SOL    HW127050   1.133   1.296  17.357  0.4663 -1.4485  1.0290
 5196SOL    HW227051   1.164   1.397  17.257 -0.6645 -0.3007 -0.0179
 5197SOL     OW27052   1.658   0.794   5.717 -0.6406  0.2951 -0.6804
 5197SOL    HW127053   1.596   0.837   5.658 -1.9624  0.9626  1.2129
 5197SOL    HW227054   1.599   0.783   5.791  0.6315 -3.5305 -0.2579
 5198SOL     OW27055   0.702   2.759   8.488  0.3386  0.4424  0.2448
 5198SOL    HW127056   0.755   2.730   8.562 -0.3112  1.7722  1.2287
 5198SOL    HW227057   0.617   2.760   8.532 -0.0300  0.2183 -0.4595
 5199SOL     OW27058   0.679   4.229  11.553 -0.5452  0.0492  1.2015
 5199SOL    HW127059   0.589   4.215  11.521  0.7136 -1.2794 -1.8144
 5199SOL    HW227060   0.728   4.242  11.472 -0.5815 -2.3422  0.7908
 5200SOL     OW27061   1.070   3.081   4.396  0.2810 -0.3124  0.2075
 5200SOL    HW127062   1.125   3.065   4.473  0.4825  1.0105  0.3392
 5200SOL    HW227063   1.103   3.011   4.340 -0.2668 -0.0540 -0.4338
 5201SOL     OW27064   2.009   4.301   7.900 -0.0249 -0.1475  0.2064
 5201SOL    HW127065   2.017   4.348   7.983  0.3081  2.7904 -1.4815
 5201SOL    HW227066   1.928   4.338   7.864  0.1348  0.8991  0.9079
 5202SOL     OW27067   0.197   3.249  13.229  0.3398 -0.1312 -0.5164
 5202SOL    HW127068   0.104   3.239  13.250 -0.2717 -1.3969 -3.8800
 5202SOL    HW227069   0.198   3.227  13.136  0.5919  1.4148 -0.8791
 5203SOL     OW27070   2.784   0.651   5.562  0.2042  0.1476  0.1826
 5203SOL    HW127071   2.868   0.695   5.545  0.0088  0.9526  1.3550
 5203SOL    HW227072   2.803   0.570   5.514  0.5413  0.1789  0.2605
 5204SOL     OW27073   3.797   3.012  13.794  0.4603 -0.1000 -0.2099
 5204SOL    HW127074   3.728   2.958  13.756  0.6535 -0.0231 -0.6632
 5204SOL    HW227075   3.808   2.954  13.869  2.4350  1.6623  0.8981
 5205SOL     OW27076   1.822   1.508   6.058  0.2007 -0.2845  0.1573
 5205SOL    HW127077   1.783   1.591   6.031  1.1472 -0.7045 -2.4354
 5205SOL    HW227078   1.820   1.513   6.154 -3.1993 -1.5282  0.1719
 5206SOL     OW27079   2.921   4.243   1.369 -0.0035 -0.4772  0.5442
 5206SOL    HW127080   2.936   4.176   1.303  0.4718 -0.2535  0.4319
 5206SOL    HW227081   2.853   4.204   1.425 -0.4473  0.2592  0.5337
 5207SOL     OW27082   0.475   0.974   6.948 -0.1924 -0.2416 -0.1365
 5207SOL    HW127083   0.476   1.057   6.901 -0.5160 -0.9945 -1.4691
 5207SOL    HW227084   0.535   0.998   7.018  0.1399 -3.2803  0.6455
 5208SOL     OW27085   2.352   3.139   3.492  0.4082  0.1702 -0.6994
 5208SOL    HW127086   2.372   3.058   3.444 -2.4434 -1.5745  1.0481
 5208SOL    HW227087   2.276   3.173   3.446  1.0802  0.5505 -1.5239
 5209SOL     OW27088   4.011   0.760  11.483  0.2241  0.6376  0.0956
 5209SOL    HW127089   3.999   0.674  11.442  1.6574  0.2622  0.4592
 5209SOL    HW227090   4.106   0.761  11.474  0.0811 -1.5830 -1.8360
 5210SOL     OW27091   1.113   1.851   7.254  0.6083 -0.2076 -0.4875
 5210SOL    HW127092   1.113   1.790   7.180 -0.9660  1.2967 -1.7285
 5210SOL    HW227093   1.189   1.909   7.247 -0.7574  1.6374 -0.0729
 5211SOL     OW27094   3.092   4.073   3.536  0.3009  0.4737  0.0894
 5211SOL    HW127095   3.054   3.986   3.550  0.5469  0.6957  2.1878
 5211SOL    HW227096   3.047   4.101   3.456 -1.0666 -1.4243  0.1933
 5212SOL     OW27097   0.458   0.999   3.076 -0.6325  0.9767  0.0331
 5212SOL    HW127098   0.498   1.086   3.066 -0.8001  1.0095 -0.3492
 5212SOL    HW227099   0.445   0.967   2.986  5.0100 -3.0960  0.6685
 5213SOL     OW27100   2.049   4.267   6.670 -0.3912  0.5751  0.2296
 5213SOL    HW127101   2.144   4.261   6.661 -0.1846  2.7066  1.1782
 5213SOL    HW227102   2.023   4.176   6.656  3.4496 -0.3722 -0.7193
 5214SOL     OW27103   4.088   0.926   8.445  0.3145 -1.0622 -0.7701
 5214SOL    HW127104   4.103   0.856   8.508  0.8405  0.2984  0.6197
 5214SOL    HW227105   4.123   0.997   8.498 -1.2533 -0.8674  0.0160
 5215SOL     OW27106   4.442   2.530  17.029  0.4743  0.1822 -0.0025
 5215SOL    HW127107   4.403   2.491  16.952  1.7000 -0.5413 -0.2510
 5215SOL    HW227108   4.525   2.552  16.986  0.5360 -0.1988 -0.0727
 5216SOL     OW27109   3.391   1.169   3.884 -0.4052 -0.2732  0.2825
 5216SOL    HW127110   3.318   1.170   3.946  1.5553  0.5066  2.5699
 5216SOL    HW227111   3.378   1.081   3.848  0.6347 -0.4585  0.3537
 5217SOL     OW27112   4.576   0.836   8.842  0.2855  0.2472  0.6149
 5217SOL    HW127113   4.627   0.776   8.896  0.2854 -0.4370 -0.1615
 5217SOL    HW227114   4.509   0.785   8.797 -0.3408  0.4245  1.3356
 5218SOL     OW27115   3.280   2.013   4.202 -0.2018  0.5766 -0.5762
 5218SOL    HW127116   3.229   2.080   4.156 -3.0242 -1.8907 -1.0139
 5218SOL    HW227117   3.232   2.008   4.285  1.9509  0.2421  0.6381
 5219SOL     OW27118   1.398   2.629  13.580  0.7487  0.1022 -0.6476
 5219SOL    HW127119   1.407   2.629  13.485 -0.0562  1.0936 -0.7276
 5219SOL    HW227120   1.386   2.537  13.605 -0.3238 -0.1710 -2.2118
 5220SOL     OW27121   0.325   0.038  12.107 -0.1264 -0.6612  0.3315
 5220SOL    HW127122   0.352   4.699  12.041  0.1088 -1.4080  1.1649
 5220SOL    HW227123   0.406   0.061  12.152 -0.3437  0.0570  0.3621
 5221SOL     OW27124   3.906   1.582  17.536 -0.4792  0.3689  0.5764
 5221SOL    HW127125   3.817   1.556  17.561 -0.5495  0.9682  0.9456
 5221SOL    HW227126   3.876   1.663  17.496 -1.3087  0.2475  0.9475
 5222SOL     OW27127   0.459   4.537   4.083 -0.4126  0.3712  0.0354
 5222SOL    HW127128   0.465   4.600   4.011  1.9519  0.0811 -0.0163
 5222SOL    HW227129   0.547   4.503   4.096  0.0179  2.3938  2.5393
 5223SOL     OW27130   4.614   3.394   7.205 -0.4883 -0.1285 -0.5442
 5223SOL    HW127131   4.619   3.311   7.157  0.4429  0.2483 -1.0945
 5223SOL    HW227132   4.702   3.393   7.244 -0.6238 -0.4194 -0.2405
 5224SOL     OW27133   2.201   3.377   0.779  0.0056  0.3679  0.0445
 5224SOL    HW127134   2.143   3.306   0.752 -0.4596  1.7340 -2.5091
 5224SOL    HW227135   2.138   3.447   0.762 -2.6049 -2.3450 -1.4014
 5225SOL     OW27136   1.495   4.201   2.634 -0.5059  0.4094  0.3272
 5225SOL    HW127137   1.427   4.238   2.579  0.1241  1.0654 -0.0025
 5225SOL    HW227138   1.556   4.172   2.566 -0.1258 -0.2155  0.9262
 5226SOL     OW27139   4.058   4.090  12.919 -0.1051  0.1446  0.1082
 5226SOL    HW127140   4.107   4.172  12.916 -1.5013  0.9217 -1.4090
 5226SOL    HW227141   3.980   4.125  12.876  0.0142  0.7764  0.4013
 5227SOL     OW27142   3.654   0.974   6.791 -0.3843 -0.3542 -0.1658
 5227SOL    HW127143   3.734   1.011   6.827 -0.6977 -1.0094  1.2083
 5227SOL    HW227144   3.598   0.960   6.868  1.0411 -1.4604  0.6518
 5228SOL     OW27145   0.016   3.551   2.439  0.0934 -0.0097  0.1331
 5228SOL    HW127146   4.724   3.642   2.463  0.7088 -0.0710  0.7710
 5228SOL    HW227147   0.104   3.559   2.404 -0.1567  0.4414 -0.3842
 5229SOL     OW27148   2.732   3.007   3.438 -0.0304  0.5780 -0.5803
 5229SOL    HW127149   2.694   3.081   3.390  0.0422  1.4429  0.6881
 5229SOL    HW227150   2.801   2.982   3.377 -0.4628  0.5796 -1.0669
 5230SOL     OW27151   2.403   1.329   5.848 -0.1801 -0.0451  0.2042
 5230SOL    HW127152   2.318   1.353   5.811 -1.2457 -0.6064  2.3093
 5230SOL    HW227153   2.418   1.406   5.902  0.1657  0.3453 -0.4410
 5231SOL     OW27154   4.038   1.164   3.035 -0.0026 -0.3260  0.1677
 5231SOL    HW127155   4.057   1.224   2.963 -0.6129 -0.0825  0.2045
 5231SOL    HW227156   4.123   1.124   3.052  0.7289  0.5511 -1.4307
 5232SOL     OW27157   4.194   1.195  13.991 -0.0110 -0.1110  0.4345
 5232SOL    HW127158   4.278   1.171  14.031  0.2419 -0.5949 -0.3997
 5232SOL    HW227159   4.163   1.105  14.004 -1.5165  0.2792 -0.4630
 5233SOL     OW27160   2.602   0.450  13.532  0.0177  0.0456 -0.8059
 5233SOL    HW127161   2.569   0.408  13.612  1.7036  1.1608  0.4816
 5233SOL    HW227162   2.693   0.420  13.521  0.2646  0.6723 -0.4444
 5234SOL     OW27163   1.445   1.708   2.034  0.3237 -0.3164  0.5268
 5234SOL    HW127164   1.471   1.724   2.125  2.0546 -1.8170  0.2962
 5234SOL    HW227165   1.398   1.789   2.015 -2.0495 -2.2527 -1.6823
 5235SOL     OW27166   1.896   2.431  16.713 -0.5231  0.0678 -0.5155
 5235SOL    HW127167   1.873   2.486  16.639  0.6538 -0.5229 -1.3183
 5235SOL    HW227168   1.976   2.385  16.687 -1.0007 -0.4852 -1.0224
 5236SOL     OW27169   1.036   2.027   3.622  0.0172  0.1449 -0.6742
 5236SOL    HW127170   0.951   1.986   3.635  0.9531 -1.3412  0.7902
 5236SOL    HW227171   1.099   1.962   3.653 -0.4542  0.1742  0.3343
 5237SOL     OW27172   3.264   4.378   4.388  0.0311  0.2758 -0.2363
 5237SOL    HW127173   3.188   4.427   4.357 -0.4187 -0.1232  0.2432
 5237SOL    HW227174   3.247   4.378   4.482 -1.9919 -2.1815 -0.6256
 5238SOL     OW27175   3.715   2.470   6.532  0.4148 -0.2819  0.4034
 5238SOL    HW127176   3.660   2.548   6.540  0.4868 -0.2028  0.1413
 5238SOL    HW227177   3.751   2.484   6.444  0.8970  0.7587  0.7614
 5239SOL     OW27178   4.641   0.488   3.274 -0.1467  0.1296 -0.0819
 5239SOL    HW127179   4.655   0.396   3.297 -1.4292  0.3243  1.4360
 5239SOL    HW227180   4.684   0.482   3.188  2.4951 -0.7437  1.3025
 5240SOL     OW27181   3.426   4.519   9.705 -0.1205 -0.2469  0.1298
 5240SOL    HW127182   3.492   4.580   9.737 -1.6170  0.9029  0.9912
 5240SOL    HW227183   3.452   4.459   9.775 -0.2402 -0.3683  0.0710
 5241SOL     OW27184   4.499   3.257   3.279  0.2510  0.1855  0.4589
 5241SOL    HW127185   4.579   3.217   3.245  0.9599  1.4030  0.6945
 5241SOL    HW227186   4.526   3.291   3.365  2.2918 -0.6039  0.1227
 5242SOL     OW27187   1.761   2.373  13.047 -0.0860 -0.1073 -0.3020
 5242SOL    HW127188   1.777   2.283  13.076  1.7370  1.2269  2.8184
 5242SOL    HW227189   1.845   2.391  13.004 -0.1010  2.5373  0.8161
 5243SOL     OW27190   0.450   3.639  13.961 -0.1003  0.3630 -0.9637
 5243SOL    HW127191   0.356   3.627  13.967 -0.3850  2.1810 -1.7801
 5243SOL    HW227192   0.462   3.714  14.019  3.1761 -1.0093  0.1735
 5244SOL     OW27193   1.871   3.002   9.457 -0.1104 -0.0484 -0.3856
 5244SOL    HW127194   1.863   3.096   9.440  1.2499  0.3413  1.0605
 5244SOL    HW227195   1.957   2.993   9.499  0.3753 -1.0071 -1.5978
 5245SOL     OW27196   4.021   1.121   2.086 -0.5461 -0.3257  0.0329
 5245SOL    HW127197   4.047   1.100   1.996 -1.0732  0.4343 -0.2951
 5245SOL    HW227198   3.965   1.195   2.062  0.6278  0.6325  0.2375
 5246SOL     OW27199   3.446   2.799   3.811 -0.2624  0.5725  0.6407
 5246SOL    HW127200   3.539   2.817   3.829  0.9319 -1.5743 -3.4093
 5246SOL    HW227201   3.427   2.733   3.876  2.0590 -0.3590  0.3875
 5247SOL     OW27202   2.487   2.970   2.664 -0.0902  0.2946  0.0844
 5247SOL    HW127203   2.418   3.036   2.657 -0.0782  0.2577 -0.3948
 5247SOL    HW227204   2.550   3.024   2.712  1.5304  0.4945 -2.2780
 5248SOL     OW27205   2.951   0.152  10.768  0.1516 -1.3687 -0.0592
 5248SOL    HW127206   2.952   0.234  10.817 -3.1451 -2.1216  1.3338
 5248SOL    HW227207   2.886   0.101  10.817 -0.6752 -0.7229 -0.4980
 5249SOL     OW27208   2.788   1.000   4.486  0.2405 -0.3594 -0.3622
 5249SOL    HW127209   2.878   0.969   4.493  0.2224 -0.6882 -1.6394
 5249SOL    HW227210   2.757   1.003   4.577 -0.6394 -0.5795 -0.6549
 5250SOL     OW27211   4.629   2.525   7.526  0.0203 -0.0027 -0.2007
 5250SOL    HW127212   4.670   2.476   7.597  0.2986 -0.2419 -0.5260
 5250SOL    HW227213   4.690   2.536   7.453 -0.0285 -2.3862 -0.6195
 5251SOL     OW27214   2.923   1.254   8.681 -0.2500  0.4957  0.1192
 5251SOL    HW127215   2.853   1.299   8.728 -0.3152  0.0819  0.4237
 5251SOL    HW227216   2.867   1.213   8.615  1.5866  0.0353 -1.1545
 5252SOL     OW27217   2.066   2.587   0.928 -0.1044  0.3839 -0.2090
 5252SOL    HW127218   2.104   2.590   0.840 -3.8652  1.2939 -1.8120
 5252SOL    HW227219   2.060   2.495   0.953  1.7628  1.0307  2.5453
 5253SOL     OW27220   4.103   0.325   1.713 -0.4398 -0.3233 -0.4333
 5253SOL    HW127221   4.110   0.240   1.756 -2.0375 -0.7135 -0.9395
 5253SOL    HW227222   4.192   0.331   1.679 -1.2542  0.4500 -2.3940
 5254SOL     OW27223   0.447   0.144   2.231 -0.1511 -0.0139  0.3453
 5254SOL    HW127224   0.444   0.109   2.142 -0.0060  1.2871 -0.1639
 5254SOL    HW227225   0.456   0.237   2.211  3.0376 -0.7283 -1.5984
 5255SOL     OW27226   1.532   1.834   6.285  0.0388 -0.3799  0.1198
 5255SOL    HW127227   1.527   1.851   6.191 -2.4012  0.5795  0.4150
 5255SOL    HW227228   1.551   1.922   6.318  1.1063 -0.6770  0.2831
 5256SOL     OW27229   0.888   0.296   3.950 -0.1130  0.0609 -0.0423
 5256SOL    HW127230   0.813   0.330   4.000  0.6943  0.7671  0.6716
 5256SOL    HW227231   0.843   0.211   3.944  0.3381 -0.1596 -0.2653
 5257SOL     OW27232   1.879   2.826   8.713 -0.2927 -0.2154 -1.1573
 5257SOL    HW127233   1.845   2.909   8.746  0.6949  1.0763 -3.3951
 5257SOL    HW227234   1.879   2.774   8.793  1.4278  1.6276  0.0482
 5258SOL     OW27235   4.239   4.110   3.273  0.0632 -0.1059 -0.1668
 5258SOL    HW127236   4.188   4.163   3.333 -1.3546  0.3017 -1.7241
 5258SOL    HW227237   4.235   4.166   3.195  0.8885  0.6746  0.3497
 5259SOL     OW27238   0.503   2.910  15.355  0.1636  0.3424  0.0550
 5259SOL    HW127239   0.555   2.975  15.403  0.8032 -0.7398  0.8225
 5259SOL    HW227240   0.518   2.930  15.262  0.3995 -3.2164 -0.6772
 5260SOL     OW27241   0.167   3.816   6.691 -0.0807 -0.3270 -0.1096
 5260SOL    HW127242   0.197   3.774   6.771  0.6602 -0.5655 -0.5084
 5260SOL    HW227243   0.246   3.809   6.637  0.8939  1.2547  1.1105
 5261SOL     OW27244   0.032   0.295  17.102  0.0716  0.5618  0.1718
 5261SOL    HW127245   4.677   0.344  17.122 -0.6044 -0.4794  0.0348
 5261SOL    HW227246   0.052   0.344  17.022 -1.0177  0.5068 -0.1361
 5262SOL     OW27247   4.379   2.803   8.587  0.2491 -0.7184 -0.2723
 5262SOL    HW127248   4.340   2.788   8.501 -1.3239 -1.8732  0.6368
 5262SOL    HW227249   4.316   2.862   8.628  1.3892  0.6611 -0.4777
 5263SOL     OW27250   4.317   1.837   5.821  0.1546 -0.3849 -0.0946
 5263SOL    HW127251   4.351   1.853   5.733 -0.0140  1.8618  0.2456
 5263SOL    HW227252   4.367   1.903   5.870  1.1792  0.5753 -2.4706
 5264SOL     OW27253   2.962   1.693   8.327  0.0343  0.4004 -0.4807
 5264SOL    HW127254   2.961   1.711   8.233 -0.3323 -1.5464 -0.8411
 5264SOL    HW227255   2.876   1.654   8.343 -0.1511  1.2153  0.4834
 5265SOL     OW27256   0.337   3.528   6.614  0.6277  0.3769 -0.2007
 5265SOL    HW127257   0.335   3.594   6.545 -2.4036 -0.4079 -0.8444
 5265SOL    HW227258   0.247   3.497   6.623  0.6296  0.4612  0.0995
 5266SOL     OW27259   2.948   2.820  13.481  0.0004  0.7678  0.0345
 5266SOL    HW127260   2.878   2.860  13.430 -3.2618 -2.5337  1.9632
 5266SOL    HW227261   3.008   2.894  13.473  1.3453 -0.3647 -0.5721
 5267SOL     OW27262   1.697   3.735   2.483  0.6800 -0.3103 -0.0526
 5267SOL    HW127263   1.741   3.714   2.400  1.4495  0.1644  0.2328
 5267SOL    HW227264   1.608   3.734   2.447  0.5104 -0.7499  0.3794
 5268SOL     OW27265   0.658   1.611   9.219  0.3378  0.4575 -0.1032
 5268SOL    HW127266   0.564   1.609   9.200  0.4360 -2.2812 -0.3194
 5268SOL    HW227267   0.667   1.682   9.282  1.9946 -0.8511  1.1446
 5269SOL     OW27268   2.797   3.414  15.577  0.8153  0.0112  0.0170
 5269SOL    HW127269   2.795   3.464  15.658 -2.5032  1.0336 -0.6968
 5269SOL    HW227270   2.822   3.324  15.598  0.9668  0.0652  0.0714
 5270SOL     OW27271   3.200   1.345  13.518 -0.3211  0.2135  0.5320
 5270SOL    HW127272   3.210   1.265  13.465 -0.9679  0.8458 -0.5317
 5270SOL    HW227273   3.179   1.304  13.602  3.2881 -0.6297  1.0500
 5271SOL     OW27274   1.650   0.582   9.100 -0.0637 -0.3641  0.1941
 5271SOL    HW127275   1.600   0.502   9.085 -0.1784 -0.6092  1.8274
 5271SOL    HW227276   1.707   0.573   9.024  0.8060  0.4557  0.7432
 5272SOL     OW27277   3.367   0.136   3.524 -0.5951 -0.5278  0.2054
 5272SOL    HW127278   3.312   0.206   3.488  0.2962 -0.6009 -1.2875
 5272SOL    HW227279   3.407   0.121   3.438  0.2610  0.3507  0.4528
 5273SOL     OW27280   1.139   1.041   2.968 -0.3685  0.7433  0.0181
 5273SOL    HW127281   1.119   0.960   2.920 -0.3635  0.8415 -0.1495
 5273SOL    HW227282   1.094   1.101   2.908  0.0994  0.3991 -0.6803
 5274SOL     OW27283   0.822   2.930   7.591  0.2169 -0.1114 -0.1038
 5274SOL    HW127284   0.770   2.866   7.641 -2.8247 -0.1443 -3.2864
 5274SOL    HW227285   0.912   2.905   7.612  0.9611  2.8673  0.2443
 5275SOL     OW27286   2.309   1.651   3.315  0.5016  0.1696  0.1601
 5275SOL    HW127287   2.218   1.621   3.320  0.6832 -0.4884 -0.3452
 5275SOL    HW227288   2.301   1.736   3.357 -1.2267 -1.9717  4.1029
 5276SOL     OW27289   1.609   0.568  17.540 -1.0990  0.2662  0.3467
 5276SOL    HW127290   1.593   0.663  17.539 -1.0072  0.2930  1.8435
 5276SOL    HW227291   1.699   0.572  17.508 -0.9575 -0.8932  0.6132
 5277SOL     OW27292   3.481   1.225   2.668  0.9451 -0.0370 -0.5503
 5277SOL    HW127293   3.402   1.180   2.699 -0.7924  2.3401 -1.5225
 5277SOL    HW227294   3.513   1.246   2.756 -0.2370 -0.0406 -0.1245
 5278SOL     OW27295   3.149   2.716  12.939  0.6894  0.3632  0.0023
 5278SOL    HW127296   3.165   2.623  12.950 -0.9581  0.0996  0.1871
 5278SOL    HW227297   3.104   2.715  12.854  2.4624  1.7739 -0.9472
 5279SOL     OW27298   1.030   2.837   7.238  0.0360 -0.0078  0.1187
 5279SOL    HW127299   0.968   2.906   7.259 -0.6495  0.0195 -1.9956
 5279SOL    HW227300   1.043   2.795   7.323 -3.6893 -0.4031  0.4535
 5280SOL     OW27301   4.076   0.771  14.636 -0.1502 -0.1781 -0.3908
 5280SOL    HW127302   3.997   0.738  14.593 -0.5833 -2.2618  1.9655
 5280SOL    HW227303   4.044   0.826  14.708 -0.9714  1.0271 -1.6728
 5281SOL     OW27304   0.278   4.705   4.671  0.3754  0.7061 -0.8247
 5281SOL    HW127305   0.220   4.665   4.607 -0.1970 -1.3373  0.9714
 5281SOL    HW227306   0.224   4.694   4.750 -0.1792  1.1070 -1.1462
 5282SOL     OW27307   1.953   3.031  16.056  0.1448  0.4125 -0.1258
 5282SOL    HW127308   1.977   2.986  15.974 -1.6294 -2.0779  0.6984
 5282SOL    HW227309   1.867   3.059  16.024 -0.4595  0.4493  1.5239
 5283SOL     OW27310   4.656   1.150   6.782 -0.8375 -0.1652  0.1519
 5283SOL    HW127311   4.706   1.229   6.801  0.2424  0.0358 -3.4740
 5283SOL    HW227312   4.694   1.086   6.842  1.4134 -0.0217 -1.1050
 5284SOL     OW27313   0.310   2.532   9.302 -0.3327 -0.0622  0.4482
 5284SOL    HW127314   0.294   2.578   9.385  0.1501 -0.0830  0.5538
 5284SOL    HW227315   0.396   2.491   9.303 -1.3716 -2.2676 -0.2795
 5285SOL     OW27316   0.216   4.452  16.939  0.6622  0.0026  0.2551
 5285SOL    HW127317   0.179   4.507  16.870  0.9519 -2.3483 -1.7794
 5285SOL    HW227318   0.270   4.515  16.987  0.8433  1.6929 -2.1889
 5286SOL     OW27319   1.678   3.928  12.200  0.6270 -0.1420  0.1031
 5286SOL    HW127320   1.697   3.890  12.114  4.1888 -1.7362  1.5787
 5286SOL    HW227321   1.648   4.017  12.182  2.0937  0.0354 -1.4482
 5287SOL     OW27322   1.273   1.844   4.998  0.6102  0.1718 -0.1071
 5287SOL    HW127323   1.336   1.774   5.011  1.2825  0.8740  0.4238
 5287SOL    HW227324   1.190   1.797   5.004  0.1338  0.5862 -3.5108
 5288SOL     OW27325   3.426   3.909  14.697  0.0481 -0.0888  0.0775
 5288SOL    HW127326   3.465   3.924  14.783  1.0719  1.9464 -0.7600
 5288SOL    HW227327   3.494   3.946  14.641  0.7013 -0.2639  0.7657
 5289SOL     OW27328   3.951   2.782   9.484 -0.5756  0.2889 -0.7778
 5289SOL    HW127329   3.981   2.776   9.393  0.2636  0.2549 -0.4917
 5289SOL    HW227330   4.028   2.824   9.520 -0.4443  1.0904 -1.9774
 5290SOL     OW27331   0.342   0.993   0.254 -0.1400  0.7169 -0.9654
 5290SOL    HW127332   0.303   1.079   0.240  0.3103  1.2317  0.9683
 5290SOL    HW227333   0.276   0.960   0.315  0.2511  1.4111 -0.1692
 5291SOL     OW27334   4.054   2.214   5.561  0.4666 -0.3493 -0.3399
 5291SOL    HW127335   3.992   2.143   5.579  0.5648  0.1350  1.9031
 5291SOL    HW227336   3.994   2.287   5.549  0.3537  0.0971  2.8581
 5292SOL     OW27337   3.539   3.271   2.426  0.1997 -0.1566  0.0689
 5292SOL    HW127338   3.583   3.269   2.511 -0.4954  1.0176  0.4433
 5292SOL    HW227339   3.485   3.192   2.426  1.2038 -0.8537  0.6738
 5293SOL     OW27340   0.681   2.200   4.790  0.6355  0.0495  0.3982
 5293SOL    HW127341   0.720   2.113   4.792  0.1924 -0.1124  2.0206
 5293SOL    HW227342   0.642   2.200   4.702  0.4350  3.0485  0.4827
 5294SOL     OW27343   4.344   3.732   3.833  0.1378 -0.4248  0.3517
 5294SOL    HW127344   4.397   3.657   3.806 -1.8985 -1.1711 -1.5605
 5294SOL    HW227345   4.413   3.798   3.822  1.2285 -1.6577 -0.2879
 5295SOL     OW27346   0.526   0.622   7.930 -0.4875  0.7553 -1.0205
 5295SOL    HW127347   0.432   0.603   7.938 -0.2648  0.9219  1.9384
 5295SOL    HW227348   0.536   0.696   7.989 -0.8234  0.4681 -0.6067
 5296SOL     OW27349   4.326   2.695  13.242  0.3073  0.0996 -0.1424
 5296SOL    HW127350   4.397   2.745  13.282 -0.2311  1.4207 -0.8457
 5296SOL    HW227351   4.361   2.665  13.159 -0.3649 -0.4731 -0.2197
 5297SOL     OW27352   3.110   3.391   6.766  0.1780 -0.6748  0.2583
 5297SOL    HW127353   3.100   3.464   6.827 -1.7857 -0.6700 -0.0693
 5297SOL    HW227354   3.182   3.349   6.812 -0.8844 -2.6303  0.1503
 5298SOL     OW27355   0.025   2.071   5.981  0.2283  0.8282  0.0481
 5298SOL    HW127356   0.086   2.142   6.003  1.0174  0.2806 -0.3634
 5298SOL    HW227357   0.031   2.006   6.051 -0.6407 -1.3293 -1.8769
 5299SOL     OW27358   2.433   1.821   3.844  0.1610 -0.1344 -0.1058
 5299SOL    HW127359   2.366   1.841   3.909 -0.0189  3.0285 -1.2721
 5299SOL    HW227360   2.500   1.778   3.897  0.7559  2.5351  1.3302
 5300SOL     OW27361   4.633   3.083   3.618 -0.4868 -0.6298  0.0887
 5300SOL    HW127362   4.558   3.125   3.660  0.5575 -0.1146  1.4318
 5300SOL    HW227363   4.588   3.023   3.558  1.9718 -0.9904 -1.3668
 5301SOL     OW27364   3.948   1.663  13.734 -0.1609 -0.2486 -0.2607
 5301SOL    HW127365   3.918   1.655  13.644  0.2006  1.5326 -0.5363
 5301SOL    HW227366   3.882   1.727  13.762  0.3713 -0.2390  0.9829
 5302SOL     OW27367   1.601   1.321   7.330 -0.8285  0.1713 -0.6232
 5302SOL    HW127368   1.547   1.277   7.396 -1.4072  1.9879  0.1330
 5302SOL    HW227369   1.630   1.247   7.277 -1.3419 -2.1028  2.2344
 5303SOL     OW27370   0.091   2.583   8.726  0.4486 -0.0893 -0.6633
 5303SOL    HW127371   0.087   2.503   8.778  1.1806 -0.5517 -1.3109
 5303SOL    HW227372   0.036   2.644   8.775 -0.2135  0.8684 -2.6056
 5304SOL     OW27373   4.100   1.022   0.560 -0.3132  0.2542  0.7788
 5304SOL    HW127374   4.154   1.063   0.628  0.9678 -1.9118  1.0788
 5304SOL    HW227375   4.047   1.095   0.529 -1.6105 -1.6275 -1.4417
 5305SOL     OW27376   4.249   3.538   6.966  0.1163  0.3228 -0.1727
 5305SOL    HW127377   4.169   3.526   7.018 -0.4777  0.2389 -1.0986
 5305SOL    HW227378   4.272   3.447   6.951 -0.0457 -0.1364  2.4426
 5306SOL     OW27379   0.140   3.461   5.364  0.2874  0.2297  0.7334
 5306SOL    HW127380   0.059   3.433   5.321  1.5089 -0.0611 -1.3462
 5306SOL    HW227381   0.144   3.398   5.437  0.8239 -2.6285 -1.7553
 5307SOL     OW27382   3.434   1.874  10.401 -0.5581  0.8196  0.2697
 5307SOL    HW127383   3.416   1.958  10.443  0.8420  1.6170 -0.7051
 5307SOL    HW227384   3.361   1.852  10.343 -1.2162  0.3857  1.2632
 5308SOL     OW27385   2.144   4.477   0.975  0.9549  0.2062  0.3744
 5308SOL    HW127386   2.187   4.473   0.889 -0.2628  0.5354 -0.2532
 5308SOL    HW227387   2.088   4.400   0.980  1.3915 -0.2205 -1.3913
 5309SOL     OW27388   3.650   1.044  17.608 -0.4609  0.2556  0.4791
 5309SOL    HW127389   3.583   0.986  17.643  0.3888 -0.5117  0.8425
 5309SOL    HW227390   3.677   0.985  17.537  1.2672 -0.3688  1.6678
 5310SOL     OW27391   2.473   1.005   3.105  0.0612 -0.3335 -0.0207
 5310SOL    HW127392   2.434   0.965   3.183  1.7312 -1.8840  0.0115
 5310SOL    HW227393   2.448   0.935   3.044  1.4103  2.3427 -3.6096
 5311SOL     OW27394   3.507   4.253   7.824  0.0395 -0.6675  0.2536
 5311SOL    HW127395   3.459   4.333   7.846 -0.6148 -0.7915 -0.7180
 5311SOL    HW227396   3.575   4.238   7.890  0.3151  0.6209  0.2696
 5312SOL     OW27397   3.458   3.300   2.846 -0.0999 -0.2438 -0.1962
 5312SOL    HW127398   3.441   3.349   2.926 -2.8170 -2.0315  0.3371
 5312SOL    HW227399   3.436   3.214   2.882 -1.0980 -0.7524 -1.9891
 5313SOL     OW27400   3.530   2.413   4.835 -0.2345  0.0089 -0.2441
 5313SOL    HW127401   3.483   2.496   4.847  1.2443  0.8085  0.0346
 5313SOL    HW227402   3.458   2.366   4.792  0.1853 -0.1664 -0.7522
 5314SOL     OW27403   1.963   0.434  16.355 -0.1398  0.1271  0.0119
 5314SOL    HW127404   1.940   0.343  16.374  0.0039  0.2403  0.7338
 5314SOL    HW227405   1.887   0.473  16.398  0.6645  1.6621  0.0530
 5315SOL     OW27406   1.882   3.431   7.005  0.0519 -1.2592 -0.4250
 5315SOL    HW127407   1.858   3.438   7.097 -0.9421  0.1139 -0.7918
 5315SOL    HW227408   1.930   3.508   6.975 -3.0831  1.0515  0.4859
 5316SOL     OW27409   3.935   0.211  15.115 -0.3124 -0.1274 -0.0308
 5316SOL    HW127410   3.840   0.204  15.128 -0.3577 -0.9040 -0.7580
 5316SOL    HW227411   3.947   0.150  15.042 -0.4583  0.1012 -0.2494
 5317SOL     OW27412   0.098   2.153   5.421 -0.6205 -0.5812  0.5288
 5317SOL    HW127413   0.007   2.127   5.410 -0.6006 -0.3464 -0.2002
 5317SOL    HW227414   0.092   2.242   5.456 -1.3592 -0.2816 -0.3473
 5318SOL     OW27415   4.112   0.127   2.745  0.8574 -0.0770 -0.2104
 5318SOL    HW127416   4.101   0.183   2.668  1.5740  0.2482 -0.0710
 5318SOL    HW227417   4.062   0.055   2.706  0.8980  0.3996 -1.1568
 5319SOL     OW27418   3.921   3.336   5.246  1.0461 -0.1007 -0.3010
 5319SOL    HW127419   3.973   3.301   5.318 -0.2547 -1.7389 -0.1489
 5319SOL    HW227420   3.866   3.397   5.294 -2.2328 -0.6738 -3.2328
 5320SOL     OW27421   3.649   3.250  12.850  0.2876  0.3028  1.0916
 5320SOL    HW127422   3.634   3.161  12.882 -0.6412  0.2060  0.3667
 5320SOL    HW227423   3.689   3.298  12.923  2.0911  1.2024 -0.4803
 5321SOL     OW27424   1.973   4.280   8.812  0.2340 -0.2697 -0.1217
 5321SOL    HW127425   2.018   4.307   8.892  0.6093  1.0016 -0.7535
 5321SOL    HW227426   2.039   4.302   8.747 -0.4743 -1.9119 -1.3780
 5322SOL     OW27427   1.471   0.601   3.031  0.5880  0.0318  0.5449
 5322SOL    HW127428   1.565   0.612   3.013  0.9827 -2.7320  0.9664
 5322SOL    HW227429   1.444   0.692   3.047  1.9046  0.4137  0.6451
 5323SOL     OW27430   2.641   3.971   1.836 -0.2190  0.4888  0.3801
 5323SOL    HW127431   2.635   3.876   1.851  1.0317  0.4893  0.8338
 5323SOL    HW227432   2.553   3.990   1.803 -1.5008 -1.4285  2.7560
 5324SOL     OW27433   2.405   1.075   0.424 -0.0357  0.4016 -0.7358
 5324SOL    HW127434   2.348   1.139   0.465  0.0584 -0.4197  0.6665
 5324SOL    HW227435   2.360   1.044   0.345 -0.7401 -0.3361 -0.0454
 5325SOL     OW27436   2.354   1.636   5.583 -0.2549  0.1586  0.2071
 5325SOL    HW127437   2.421   1.581   5.541 -0.3466  0.6691 -0.6090
 5325SOL    HW227438   2.294   1.563   5.597  0.2998 -0.1634  0.9382
 5326SOL     OW27439   0.810   2.402   8.834 -0.7665 -0.5593  0.2703
 5326SOL    HW127440   0.855   2.427   8.915  2.4973 -0.6567 -1.5145
 5326SOL    HW227441   0.881   2.350   8.797  0.0786  0.5440  0.3135
 5327SOL     OW27442   2.598   0.513  14.059  0.1400  0.1873 -0.1296
 5327SOL    HW127443   2.635   0.474  14.138  0.0460  0.5915  0.1083
 5327SOL    HW227444   2.666   0.574  14.029  1.7763 -0.6011  1.9910
 5328SOL     OW27445   3.192   2.654  15.101 -0.5000 -0.4018  0.4774
 5328SOL    HW127446   3.159   2.567  15.078 -0.6966 -0.8778  2.5397
 5328SOL    HW227447   3.135   2.671  15.176 -1.0562  0.1009 -0.0563
 5329SOL     OW27448   2.185   3.647   2.871 -0.4606 -0.1239 -0.2365
 5329SOL    HW127449   2.203   3.700   2.949  0.7893  2.0329 -2.0165
 5329SOL    HW227450   2.095   3.618   2.886 -0.2034 -0.9737 -0.3571
 5330SOL     OW27451   3.785   3.431   9.377  0.6436 -0.9795 -0.3136
 5330SOL    HW127452   3.691   3.410   9.378  0.1925  1.1287  2.5270
 5330SOL    HW227453   3.801   3.373   9.452  2.0124 -0.2659 -0.0561
 5331SOL     OW27454   2.026   3.367   8.565 -0.2201 -0.2460 -0.2708
 5331SOL    HW127455   2.036   3.332   8.653  1.0157  0.0215 -0.3115
 5331SOL    HW227456   2.028   3.281   8.522  0.1644 -1.4736  2.2022
 5332SOL     OW27457   0.076   1.510   3.725 -0.4223 -0.0936  0.4014
 5332SOL    HW127458   0.057   1.603   3.718  1.5452  0.2387 -0.4695
 5332SOL    HW227459   0.124   1.502   3.642 -2.3427 -0.6954 -0.6751
 5333SOL     OW27460   0.430   3.984   6.407  0.6055  0.3328  0.4589
 5333SOL    HW127461   0.508   3.963   6.357  0.5741  0.0436  0.5335
 5333SOL    HW227462   0.455   4.073   6.431  2.7141  0.6375 -2.8767
 5334SOL     OW27463   2.381   1.772   8.551  0.0690  0.1308  0.7396
 5334SOL    HW127464   2.387   1.759   8.646  1.1183  0.9992  0.7922
 5334SOL    HW227465   2.292   1.804   8.535 -0.1272 -1.4594 -1.2488
 5335SOL     OW27466   3.282   1.291  10.762  0.3110  0.3034  0.5424
 5335SOL    HW127467   3.199   1.335  10.745  0.6599 -0.0890 -2.2164
 5335SOL    HW227468   3.260   1.202  10.790  0.5504 -0.4793 -1.7865
 5336SOL     OW27469   4.708   3.166   1.951  0.7005  0.2513 -0.5723
 5336SOL    HW127470   0.044   3.126   1.890 -0.7155 -1.7067 -0.6955
 5336SOL    HW227471   4.661   3.229   1.897  2.6855 -0.1505 -2.7319
 5337SOL     OW27472   2.991   0.819   0.525  0.6276 -0.0803  0.0017
 5337SOL    HW127473   3.077   0.839   0.562  0.9708  0.2625 -0.9667
 5337SOL    HW227474   3.015   0.757   0.456  0.9363  0.3766 -0.3006
 5338SOL     OW27475   1.463   2.052   9.294 -0.3780  0.3488 -0.2199
 5338SOL    HW127476   1.473   1.998   9.372 -2.6217 -0.9573 -0.7957
 5338SOL    HW227477   1.424   2.129   9.334 -0.4350  0.3551 -0.2862
 5339SOL     OW27478   4.033   0.447   4.498 -0.0049  0.2998 -0.1470
 5339SOL    HW127479   4.022   0.356   4.525 -1.8568  0.7832  0.7214
 5339SOL    HW227480   4.017   0.439   4.404 -3.9378  2.5010  0.3584
 5340SOL     OW27481   2.745   4.619   7.067 -0.3582  0.2854 -0.3436
 5340SOL    HW127482   2.782   4.690   7.119  1.5099 -0.1927 -1.0160
 5340SOL    HW227483   2.657   4.654   7.049  0.3802  2.3867  0.1679
 5341SOL     OW27484   1.810   3.670   8.251  0.5333 -0.4298  0.2207
 5341SOL    HW127485   1.876   3.621   8.202  0.4630 -0.1488 -0.1502
 5341SOL    HW227486   1.780   3.729   8.182  0.2835 -2.1274 -1.1109
 5342SOL     OW27487   2.528   4.398   4.925  0.5577  0.5857  0.9011
 5342SOL    HW127488   2.444   4.376   4.967 -1.0275  0.9356 -2.1119
 5342SOL    HW227489   2.579   4.332   4.972 -1.1929 -0.1517  1.8029
 5343SOL     OW27490   0.777   4.268   5.741  0.1394  0.2439  0.1001
 5343SOL    HW127491   0.846   4.325   5.707  0.2440  0.5828  0.8784
 5343SOL    HW227492   0.822   4.245   5.823  1.2801  1.4735 -0.1751
 5344SOL     OW27493   0.023   1.113   6.523  0.0522 -0.5726 -0.1732
 5344SOL    HW127494   0.108   1.077   6.551  0.2776 -1.1360 -1.6183
 5344SOL    HW227495   4.699   1.124   6.604  1.5993  0.5405  0.6300
 5345SOL     OW27496   1.164   0.316   7.147  0.0182  0.3767  0.2289
 5345SOL    HW127497   1.123   0.402   7.159  1.1302  0.6659  1.9417
 5345SOL    HW227498   1.243   0.349   7.105 -0.7992  1.5899 -0.3805
 5346SOL     OW27499   4.032   1.515  10.052  0.0188 -0.6482 -0.4109
 5346SOL    HW127500   4.073   1.430  10.065 -0.8713 -1.1456 -0.8540
 5346SOL    HW227501   4.020   1.547  10.142  0.1432  0.0693 -0.6457
 5347SOL     OW27502   0.526   0.545   2.887  0.5307  0.0019 -0.1547
 5347SOL    HW127503   0.558   0.562   2.976 -2.3358  0.4279  0.7946
 5347SOL    HW227504   0.436   0.571   2.903  1.0584  1.2716  0.7588
 5348SOL     OW27505   3.493   3.475   8.066  0.3398  0.0069 -0.6513
 5348SOL    HW127506   3.537   3.504   8.146  2.0348 -0.9403 -1.2455
 5348SOL    HW227507   3.401   3.502   8.072  0.8976  1.2082  2.3013
 5349SOL     OW27508   1.982   0.386   6.767  0.1982  0.4001 -0.1439
 5349SOL    HW127509   2.074   0.414   6.764  0.3854 -0.2684 -0.7579
 5349SOL    HW227510   1.932   0.465   6.747 -0.5415 -0.2137 -0.6875
 5350SOL     OW27511   2.224   0.535  10.560  0.1931 -0.0023 -0.4438
 5350SOL    HW127512   2.266   0.472  10.502  0.6616 -0.0332 -0.0662
 5350SOL    HW227513   2.160   0.583  10.507  0.2172 -0.6981 -1.0894
 5351SOL     OW27514   1.542   4.194   8.734 -0.0136 -0.1063  0.3655
 5351SOL    HW127515   1.534   4.119   8.793  0.4692 -0.1379  0.3941
 5351SOL    HW227516   1.458   4.239   8.727  0.4100  0.4327 -1.1545
 5352SOL     OW27517   1.118   2.199   5.497 -0.4055 -0.0807  0.5923
 5352SOL    HW127518   1.157   2.206   5.410  0.3797  0.0291  0.9557
 5352SOL    HW227519   1.126   2.288   5.529 -0.3256 -0.3222  1.2416
 5353SOL     OW27520   2.279   1.035   0.796 -0.1560  0.6222  0.0124
 5353SOL    HW127521   2.191   1.041   0.835 -0.6620 -0.8196 -0.9298
 5353SOL    HW227522   2.263   0.995   0.711  1.2057  0.6938 -0.2751
 5354SOL     OW27523   4.336   2.702   0.435  0.0040  0.9297  0.3986
 5354SOL    HW127524   4.253   2.668   0.401 -0.2140  0.5796  1.2742
 5354SOL    HW227525   4.352   2.649   0.512 -1.4837 -0.5183 -0.2953
 5355SOL     OW27526   3.943   3.446   3.839 -0.2482  0.6027 -0.0958
 5355SOL    HW127527   3.945   3.533   3.799 -1.2551  0.9619  0.6524
 5355SOL    HW227528   3.882   3.463   3.911 -0.8179 -2.0726  0.0441
 5356SOL     OW27529   4.100   0.973   8.140  0.1352  0.1492 -0.5866
 5356SOL    HW127530   4.098   1.069   8.137 -0.9974  0.1143 -0.9708
 5356SOL    HW227531   4.108   0.959   8.234  0.1019 -3.1633 -1.0944
 5357SOL     OW27532   2.894   2.390  16.843 -0.2128  0.3330 -0.6050
 5357SOL    HW127533   2.823   2.452  16.824  1.0440  2.6125  2.2347
 5357SOL    HW227534   2.849   2.306  16.851  0.8280 -0.3301 -1.9004
 5358SOL     OW27535   0.373   1.485   7.936 -0.2832 -0.3269 -0.0412
 5358SOL    HW127536   0.289   1.447   7.910 -1.0151 -0.0288  1.9227
 5358SOL    HW227537   0.398   1.516   7.849 -0.1665  0.3345  0.2283
 5359SOL     OW27538   3.965   1.348  12.876 -0.2756 -0.0840  0.7972
 5359SOL    HW127539   3.897   1.415  12.873 -0.5292 -0.2614  2.3489
 5359SOL    HW227540   3.927   1.261  12.885  1.3081 -0.7334  1.3537
 5360SOL     OW27541   2.967   0.687  17.612  0.0855 -0.1539 -0.2842
 5360SOL    HW127542   2.890   0.716  17.563 -0.4859 -3.0170 -1.0760
 5360SOL    HW227543   2.991   0.618  17.551 -0.4614 -1.5583  1.0926
 5361SOL     OW27544   0.079   2.450   8.059 -0.7778  0.1793  0.1206
 5361SOL    HW127545   0.171   2.423   8.064 -0.9943 -0.9986 -2.3202
 5361SOL    HW227546   0.030   2.368   8.045  0.6511 -0.5604 -0.5370
 5362SOL     OW27547   2.318   3.210  15.414  0.2240  0.2882  0.4907
 5362SOL    HW127548   2.288   3.152  15.484 -0.0076  1.2157  1.1564
 5362SOL    HW227549   2.412   3.197  15.419  0.1911  0.2958  1.1401
 5363SOL     OW27550   2.812   0.466   3.920 -0.1093 -0.2253 -0.1354
 5363SOL    HW127551   2.737   0.407   3.930 -0.8374  0.5813 -0.9118
 5363SOL    HW227552   2.832   0.449   3.828 -0.3390  2.1023 -0.6138
 5364SOL     OW27553   1.883   2.567   4.680  0.4254 -0.5775 -0.2905
 5364SOL    HW127554   1.905   2.518   4.601  0.9753 -1.9440  0.7092
 5364SOL    HW227555   1.966   2.569   4.726 -0.1534  1.0851  0.6720
 5365SOL     OW27556   1.092   2.356   5.774  1.0179 -0.4854 -0.2385
 5365SOL    HW127557   1.076   2.429   5.713 -2.2217 -0.3800  0.7479
 5365SOL    HW227558   1.003   2.336   5.802  0.7376 -1.4605 -1.8120
 5366SOL     OW27559   1.248   3.843   7.494 -0.1602  0.2837  0.0105
 5366SOL    HW127560   1.214   3.914   7.549 -0.8327 -1.3303  1.6745
 5366SOL    HW227561   1.229   3.764   7.544  0.7651  0.1795  0.1831
 5367SOL     OW27562   3.265   2.653   1.988 -0.5919 -0.1526  0.4030
 5367SOL    HW127563   3.339   2.593   1.974  0.5434  0.9057  1.9153
 5367SOL    HW227564   3.318   2.732   1.982 -1.4171  0.5069  2.0537
 5368SOL     OW27565   3.150   4.116  10.319  0.1276 -0.1025 -0.1119
 5368SOL    HW127566   3.099   4.154  10.391  1.3954  0.9167  0.2540
 5368SOL    HW227567   3.196   4.042  10.358  1.2132  0.9755  0.6640
 5369SOL     OW27568   3.213   0.760   3.069 -0.6290  0.1445  0.0533
 5369SOL    HW127569   3.293   0.710   3.087 -2.2073 -2.7195 -0.8380
 5369SOL    HW227570   3.242   0.845   3.035  2.4538 -0.2911  1.6019
 5370SOL     OW27571   4.719   0.571   2.050 -0.3530 -0.0143 -0.4682
 5370SOL    HW127572   0.025   0.655   2.016  2.5710 -0.4442  1.1671
 5370SOL    HW227573   4.626   0.592   2.041  0.3887  3.3697 -0.5225
 5371SOL     OW27574   0.071   0.259   8.250 -0.1864 -0.3848 -0.3072
 5371SOL    HW127575   4.720   0.222   8.205 -3.1881  1.1501  3.5483
 5371SOL    HW227576   0.047   0.254   8.342  0.7397 -0.9503 -0.0950
 5372SOL     OW27577   1.876   3.077  13.188 -0.8157  0.0664  0.1258
 5372SOL    HW127578   1.944   3.050  13.249 -1.2763 -2.7411 -0.6241
 5372SOL    HW227579   1.797   3.047  13.232 -0.1718  0.7670  1.7460
 5373SOL     OW27580   2.137   2.877   2.910  0.2518  0.0595 -0.0374
 5373SOL    HW127581   2.052   2.833   2.914  0.3401 -0.0097  1.0583
 5373SOL    HW227582   2.141   2.883   2.815  0.4535  0.3259 -0.0143
 5374SOL     OW27583   1.093   3.070  17.334 -0.0549 -0.3559 -0.0827
 5374SOL    HW127584   1.122   3.012  17.263  0.2279 -1.0891  0.6286
 5374SOL    HW227585   1.036   3.006  17.377 -0.4702  1.2511  1.7560
 5375SOL     OW27586   2.180   0.220  16.646 -0.4752 -0.5385 -0.1806
 5375SOL    HW127587   2.135   0.136  16.647  1.3412 -1.5240 -0.4458
 5375SOL    HW227588   2.271   0.191  16.649 -0.2156  0.3699  1.0203
 5376SOL     OW27589   4.423   3.108  11.200 -0.4849 -0.0165  0.2031
 5376SOL    HW127590   4.365   3.082  11.271  0.0514 -1.6081  0.0635
 5376SOL    HW227591   4.507   3.075  11.231 -0.7072 -2.1955 -1.4874
 5377SOL     OW27592   0.432   3.158   2.938 -0.1661 -0.3638  0.1280
 5377SOL    HW127593   0.391   3.199   3.014  0.2970  0.8687 -0.2967
 5377SOL    HW227594   0.384   3.075   2.937  3.0557 -2.2095 -0.4081
 5378SOL     OW27595   2.485   2.264   3.447 -0.6930  0.1912  0.2238
 5378SOL    HW127596   2.419   2.230   3.506  1.4573 -0.1498  2.4521
 5378SOL    HW227597   2.465   2.356   3.461 -0.5748  0.6192 -2.3283
 5379SOL     OW27598   4.406   2.575   2.260 -0.0042  0.7387 -0.0334
 5379SOL    HW127599   4.363   2.576   2.175 -2.6209  1.4779  1.2630
 5379SOL    HW227600   4.345   2.539   2.325  1.6551 -0.7297  0.7307
 5380SOL     OW27601   2.629   2.764   5.847 -0.1264 -0.1316  0.3021
 5380SOL    HW127602   2.710   2.811   5.827 -1.9318  3.0064  0.2732
 5380SOL    HW227603   2.658   2.674   5.838  0.6407  0.0116  1.3607
 5381SOL     OW27604   4.403   0.057   8.362 -0.1256  0.4695  0.5110
 5381SOL    HW127605   4.384   0.148   8.341  0.1445  0.5275  0.5182
 5381SOL    HW227606   4.324   0.031   8.410  0.6790 -0.2679  1.4506
 5382SOL     OW27607   4.593   4.221  15.823 -0.0019  0.3794 -0.5253
 5382SOL    HW127608   4.596   4.188  15.913 -2.1343 -0.7953 -0.8716
 5382SOL    HW227609   4.655   4.294  15.820  0.2438  0.2659  1.6718
 5383SOL     OW27610   2.948   0.363   2.441 -0.0874  0.1374  0.1657
 5383SOL    HW127611   2.954   0.273   2.474  1.6339  1.3401  3.0633
 5383SOL    HW227612   3.036   0.396   2.426 -1.7994  4.2121 -0.9429
 5384SOL     OW27613   0.854   3.058   4.686  0.0759 -0.0781 -0.1067
 5384SOL    HW127614   0.893   3.112   4.755 -0.4949  0.7552 -0.4378
 5384SOL    HW227615   0.773   3.029   4.728  0.6166 -2.3523 -0.6106
 5385SOL     OW27616   4.009   4.232  14.322 -0.1732 -0.1378 -0.0870
 5385SOL    HW127617   4.030   4.163  14.259  1.0260 -0.7894  1.0300
 5385SOL    HW227618   4.088   4.285  14.330  0.2116 -0.3416 -2.6044
 5386SOL     OW27619   2.674   0.245   8.041 -0.0163  0.7280 -0.1727
 5386SOL    HW127620   2.689   0.299   7.963 -0.5396 -0.0620 -0.8306
 5386SOL    HW227621   2.627   0.306   8.098  1.6728  2.3054 -0.4650
 5387SOL     OW27622   1.599   3.601   4.342  0.2905 -0.2514 -0.4261
 5387SOL    HW127623   1.606   3.584   4.436  1.0096 -2.1623 -0.8243
 5387SOL    HW227624   1.504   3.591   4.331 -0.2304  0.7695  2.9445
 5388SOL     OW27625   4.271   0.348   9.926 -0.2030 -0.0849  0.3309
 5388SOL    HW127626   4.198   0.343   9.865  1.1616 -1.1869 -1.2276
 5388SOL    HW227627   4.282   0.264   9.972  0.3484  0.1709  0.6709
 5389SOL     OW27628   1.910   0.756   3.588 -0.1254  0.3516 -0.5430
 5389SOL    HW127629   2.000   0.726   3.577 -0.2221  0.2690 -1.1368
 5389SOL    HW227630   1.865   0.728   3.508 -2.1714 -0.2058  0.8142
 5390SOL     OW27631   1.838   1.837   6.170  0.0634 -0.1159  0.2474
 5390SOL    HW127632   1.764   1.898   6.164 -0.8353 -1.3175 -1.0016
 5390SOL    HW227633   1.786   1.764   6.201  1.5096 -0.9087  0.8032
 5391SOL     OW27634   1.993   0.226   2.663 -0.3332  0.1507  0.3288
 5391SOL    HW127635   2.061   0.160   2.679  0.7352  1.1759 -0.0624
 5391SOL    HW227636   1.922   0.173   2.700  0.1762 -0.8562 -0.1309
 5392SOL     OW27637   0.560   0.943  15.036  0.3284 -0.0529 -0.3359
 5392SOL    HW127638   0.491   1.009  15.041  0.1262 -0.0229 -3.3178
 5392SOL    HW227639   0.620   0.959  15.109 -1.8869  0.6552  1.3352
 5393SOL     OW27640   1.269   2.628   0.311 -0.0419 -0.2086  0.2215
 5393SOL    HW127641   1.259   2.564   0.381  0.6700  0.0276  0.5446
 5393SOL    HW227642   1.313   2.571   0.248 -0.5328 -1.2185  0.7956
 5394SOL     OW27643   3.297   4.247  16.852  0.4328  0.3677 -0.8317
 5394SOL    HW127644   3.227   4.300  16.889  1.3836 -1.0368  2.9810
 5394SOL    HW227645   3.368   4.305  16.828  1.9038 -0.3579  1.7414
 5395SOL     OW27646   0.133   1.804  11.696 -0.1531  0.5117  0.3632
 5395SOL    HW127647   0.161   1.721  11.660  0.0152 -0.8183  3.5305
 5395SOL    HW227648   0.215   1.828  11.740  0.3729 -0.8710  0.1364
 5396SOL     OW27649   1.507   2.259  13.981  0.0440 -0.0735  0.2594
 5396SOL    HW127650   1.523   2.165  13.987 -0.2323 -0.1100  0.4161
 5396SOL    HW227651   1.511   2.292  14.070  0.4982  0.3137  0.0966
 5397SOL     OW27652   3.136   1.068   1.538  0.4096  0.5632 -0.5744
 5397SOL    HW127653   3.187   1.133   1.587  0.7104 -0.5195  0.5595
 5397SOL    HW227654   3.196   1.007   1.496  0.5677  0.4595 -0.1985
 5398SOL     OW27655   2.077   0.608   5.687  0.0069 -0.4245 -0.4637
 5398SOL    HW127656   2.073   0.585   5.594  0.4791  1.1100 -0.8582
 5398SOL    HW227657   2.123   0.540   5.736 -0.5097  0.9950  1.9802
 5399SOL     OW27658   2.844   2.826  16.337  0.0222 -0.7376 -0.4279
 5399SOL    HW127659   2.869   2.786  16.254  0.4634 -0.3058 -0.5076
 5399SOL    HW227660   2.808   2.743  16.369 -1.5392  0.4461  0.9571
 5400SOL     OW27661   3.514   1.670   8.152  0.3282  0.8776 -0.4554
 5400SOL    HW127662   3.598   1.626   8.139 -0.8219 -1.4325 -0.0534
 5400SOL    HW227663   3.457   1.629   8.087  1.3493  2.7525 -2.5489
 5401SOL     OW27664   2.328   3.152   8.584 -0.0764  0.3517 -0.4932
 5401SOL    HW127665   2.406   3.138   8.531 -1.9290 -2.0655 -2.5949
 5401SOL    HW227666   2.355   3.227   8.637 -0.5535 -0.4595  0.8763
 5402SOL     OW27667   3.523   0.561  11.257  0.3819 -0.5652  0.2700
 5402SOL    HW127668   3.600   0.526  11.214  1.4066  1.0884  0.7647
 5402SOL    HW227669   3.507   0.482  11.309  0.0979 -0.2323  0.6822
 5403SOL     OW27670   2.012   3.713  10.931 -0.1502 -0.1342  0.1283
 5403SOL    HW127671   2.024   3.808  10.933  1.4287 -0.3169 -0.3863
 5403SOL    HW227672   2.024   3.690  10.839  0.2599 -1.8019  0.6108
 5404SOL     OW27673   4.496   0.016  11.686 -0.1205  0.1483 -0.3759
 5404SOL    HW127674   4.572   0.033  11.629 -0.2251  1.2133 -0.2040
 5404SOL    HW227675   4.529   4.700  11.766 -1.0065  1.2141  0.5424
 5405SOL     OW27676   2.681   1.859   2.056 -0.5189  0.2531 -0.1534
 5405SOL    HW127677   2.598   1.871   2.010  1.3913  2.2622 -3.0601
 5405SOL    HW227678   2.656   1.781   2.105 -1.1740 -0.8042 -2.1355
 5406SOL     OW27679   0.714   1.944   4.545 -0.0716  0.0373 -0.5395
 5406SOL    HW127680   0.772   2.017   4.521 -0.1406  0.4772  0.6000
 5406SOL    HW227681   0.735   1.897   4.465  0.7099  1.3947 -1.1455
 5407SOL     OW27682   2.547   0.356   7.533 -0.2413  0.4525 -0.3943
 5407SOL    HW127683   2.474   0.367   7.472  0.2160 -2.4461 -1.4425
 5407SOL    HW227684   2.594   0.428   7.489 -0.2370 -1.0106 -2.7888
 5408SOL     OW27685   3.423   4.125   9.664 -0.0673  0.4860 -0.3904
 5408SOL    HW127686   3.329   4.142   9.670 -0.8176 -3.6265 -0.5785
 5408SOL    HW227687   3.427   4.114   9.569  2.5036  0.0802 -0.2327
 5409SOL     OW27688   1.545   0.311  11.114  0.4340  0.2996  0.8932
 5409SOL    HW127689   1.625   0.317  11.062 -1.6192  3.2954 -1.9685
 5409SOL    HW227690   1.568   0.341  11.202 -0.0015  0.5807  0.9128
 5410SOL     OW27691   3.420   0.208   2.978 -0.3215 -1.1533  0.2073
 5410SOL    HW127692   3.475   0.137   2.945 -0.4085  0.2955 -3.0157
 5410SOL    HW227693   3.484   0.279   2.981  0.0462 -1.3752 -2.5430
 5411SOL     OW27694   1.461   1.929   7.722 -0.1541 -0.0323  0.1493
 5411SOL    HW127695   1.369   1.916   7.745 -0.2621  1.4665  0.5316
 5411SOL    HW227696   1.442   1.913   7.629  0.2974 -0.2407  0.0927
 5412SOL     OW27697   3.993   2.696  11.871  0.1650 -0.0397 -0.7759
 5412SOL    HW127698   3.967   2.785  11.849  0.7108  0.7114  1.6536
 5412SOL    HW227699   3.906   2.656  11.859  0.0282  0.0685 -0.1572
 5413SOL     OW27700   2.826   0.303   6.129  0.0495 -0.5730 -1.0712
 5413SOL    HW127701   2.786   0.368   6.186 -0.3818 -2.0484  0.3147
 5413SOL    HW227702   2.886   0.274   6.198 -2.5146 -0.2225  1.2985
 5414SOL     OW27703   2.378   4.196  16.862 -0.2958 -0.3485 -0.3929
 5414SOL    HW127704   2.285   4.219  16.871 -0.5877 -2.3667  1.7083
 5414SOL    HW227705   2.410   4.184  16.951  1.2901 -0.1032 -0.9328
 5415SOL     OW27706   2.425   0.569   7.953 -0.1030  0.1366  0.2191
 5415SOL    HW127707   2.480   0.645   7.936  0.0508 -0.2928 -1.2118
 5415SOL    HW227708   2.390   0.585   8.040 -0.5701 -0.7220  0.1920
 5416SOL     OW27709   1.233   3.521  13.890 -0.1945  0.0753 -0.5114
 5416SOL    HW127710   1.223   3.568  13.808  1.9826 -0.6181 -1.1798
 5416SOL    HW227711   1.226   3.429  13.863 -0.4522  0.5038 -1.8973
 5417SOL     OW27712   2.564   2.863   3.074 -0.5195  0.0380 -0.4994
 5417SOL    HW127713   2.624   2.791   3.051  2.4527  2.9350 -1.8347
 5417SOL    HW227714   2.607   2.944   3.048 -3.1241  1.3424 -0.7501
 5418SOL     OW27715   3.842   4.395   4.657  0.5933 -0.2508  0.1534
 5418SOL    HW127716   3.887   4.392   4.741 -1.1065 -1.8714  0.9813
 5418SOL    HW227717   3.781   4.468   4.667 -2.3207 -2.3582 -2.1050
 5419SOL     OW27718   0.621   4.137   5.372  0.1389  0.1329  0.1203
 5419SOL    HW127719   0.643   4.166   5.461  1.5900  0.2380 -0.2750
 5419SOL    HW227720   0.706   4.142   5.328  0.1044 -0.2533  0.0108
 5420SOL     OW27721   0.380   2.761  10.550 -0.3294 -0.0936  0.6994
 5420SOL    HW127722   0.469   2.728  10.556  0.5859  2.2774  0.0422
 5420SOL    HW227723   0.393   2.844  10.504  0.5119 -0.2875  0.5870
 5421SOL     OW27724   4.122   1.983   3.090 -0.4259 -0.3718 -0.6928
 5421SOL    HW127725   4.172   2.059   3.061 -0.1644  0.7129  2.6486
 5421SOL    HW227726   4.148   1.973   3.182 -1.1732 -2.1906 -0.6758
 5422SOL     OW27727   2.010   2.916   3.646  0.2339  0.9098  0.2636
 5422SOL    HW127728   2.089   2.955   3.684 -0.5347  2.4111  0.3140
 5422SOL    HW227729   1.940   2.965   3.688 -0.6197  1.6794 -2.0944
 5423SOL     OW27730   0.508   2.204   6.906 -0.2549 -0.1091 -0.0745
 5423SOL    HW127731   0.511   2.114   6.871  2.1177 -1.0455  2.5631
 5423SOL    HW227732   0.454   2.195   6.984  0.5014  4.1970  0.9015
 5424SOL     OW27733   3.230   2.879   3.328  0.3786 -0.0762 -0.4789
 5424SOL    HW127734   3.243   2.821   3.253 -1.0772 -0.1692 -0.6564
 5424SOL    HW227735   3.304   2.939   3.329  0.0797  0.3012 -0.8557
 5425SOL     OW27736   3.791   2.875   5.322 -0.5157 -0.1602 -0.6133
 5425SOL    HW127737   3.749   2.945   5.272 -2.4998 -1.1704 -0.3425
 5425SOL    HW227738   3.803   2.917   5.408  2.6043 -1.4203 -0.4361
 5426SOL     OW27739   0.836   1.235   5.248 -0.1349  0.3415  0.1764
 5426SOL    HW127740   0.836   1.298   5.319 -1.5786 -1.4658  1.7864
 5426SOL    HW227741   0.788   1.287   5.183 -2.0618 -1.0250  0.5122
 5427SOL     OW27742   3.758   1.229   4.083 -0.1971 -0.7172  0.0055
 5427SOL    HW127743   3.680   1.279   4.107 -0.2606 -0.6340 -0.3735
 5427SOL    HW227744   3.829   1.254   4.142 -0.1970  0.2597 -0.4021
 5428SOL     OW27745   1.831   3.124   3.357  0.0183  0.7837  0.1109
 5428SOL    HW127746   1.786   3.097   3.437  1.2824  1.2194  0.9698
 5428SOL    HW227747   1.779   3.076   3.293 -3.1289  1.5537  2.1014
 5429SOL     OW27748   1.162   0.338   3.996 -0.0660  0.2589  0.3494
 5429SOL    HW127749   1.073   0.333   3.960 -0.4078 -0.9144  1.3703
 5429SOL    HW227750   1.208   0.281   3.934  1.9346  3.5345 -1.1443
 5430SOL     OW27751   1.796   3.174   1.597 -0.3916  0.6712  0.4229
 5430SOL    HW127752   1.778   3.227   1.675 -0.1247  1.6535 -0.1793
 5430SOL    HW227753   1.871   3.131   1.637  0.7243  0.6549 -1.6689
 5431SOL     OW27754   0.051   1.490   2.234  0.2470  0.6410  0.1124
 5431SOL    HW127755   0.080   1.498   2.143 -0.8815 -1.3296 -0.4082
 5431SOL    HW227756   0.136   1.462   2.267 -0.4009 -1.3857  0.0596
 5432SOL     OW27757   4.502   2.873   3.221 -0.4379  0.1634  0.2864
 5432SOL    HW127758   4.444   2.940   3.185  0.4661 -0.5422 -2.5008
 5432SOL    HW227759   4.519   2.824   3.140 -0.1861  1.3603 -0.3908
 5433SOL     OW27760   0.414   0.284   7.349  0.8666 -0.1201  0.5784
 5433SOL    HW127761   0.470   0.359   7.368  1.2661 -0.3024  0.1475
 5433SOL    HW227762   0.400   0.237   7.431  0.4120  0.7257  0.9853
 5434SOL     OW27763   3.129   3.572   6.953  0.1571  0.0486 -0.5003
 5434SOL    HW127764   3.091   3.537   7.033  1.5698  2.0178  1.0068
 5434SOL    HW227765   3.211   3.615   6.978  0.7503 -1.0916 -0.4897
 5435SOL     OW27766   3.756   2.744   0.765  0.1520 -0.3229 -0.2686
 5435SOL    HW127767   3.748   2.700   0.681  2.0938  0.0235 -0.6257
 5435SOL    HW227768   3.663   2.752   0.787  0.2966 -0.2226  0.3076
 5436SOL     OW27769   4.649   0.501   3.622  0.1253  0.0080 -0.0650
 5436SOL    HW127770   4.555   0.517   3.609  0.3672  0.8662 -0.7802
 5436SOL    HW227771   4.659   0.411   3.592 -0.9670 -0.5963  1.3387
 5437SOL     OW27772   4.549   4.192  14.289 -0.5638 -0.1454 -0.1510
 5437SOL    HW127773   4.636   4.155  14.272 -1.7745 -2.0531 -2.1065
 5437SOL    HW227774   4.514   4.113  14.329 -0.2844 -1.4099 -2.3988
 5438SOL     OW27775   0.249   2.027   3.329  0.4697 -0.5961 -0.4221
 5438SOL    HW127776   0.167   1.983   3.305 -0.9934  0.8751  1.8703
 5438SOL    HW227777   0.278   1.973   3.403  0.0140  2.1305  1.7557
 5439SOL     OW27778   2.263   3.456   8.771  0.5334 -0.1427  0.6756
 5439SOL    HW127779   2.349   3.413   8.765  0.9805  0.7489  0.6333
 5439SOL    HW227780   2.269   3.505   8.689  0.8632 -0.2323  0.6458
 5440SOL     OW27781   0.812   1.927  12.129  0.3059 -0.2779  0.0132
 5440SOL    HW127782   0.760   2.007  12.121 -0.9097 -1.1136 -0.4327
 5440SOL    HW227783   0.879   1.977  12.175  0.2546 -0.6641  0.5072
 5441SOL     OW27784   1.779   0.762  17.396  0.1599 -0.1014 -0.3943
 5441SOL    HW127785   1.825   0.787  17.476  0.2926 -1.1829 -0.1215
 5441SOL    HW227786   1.774   0.844  17.348  0.0021  1.2901  2.0046
 5442SOL     OW27787   4.316   1.696  10.848 -0.2046 -0.4720 -0.0660
 5442SOL    HW127788   4.355   1.725  10.765 -0.8926 -0.8468 -0.5234
 5442SOL    HW227789   4.325   1.772  10.905  0.3083  0.7439 -1.7471
 5443SOL     OW27790   2.063   3.081  15.382  0.6837  0.0353 -0.2200
 5443SOL    HW127791   2.147   3.128  15.374  1.7165 -1.7813 -0.0750
 5443SOL    HW227792   2.017   3.134  15.318 -0.3879 -0.8400 -0.1797
 5444SOL     OW27793   1.099   4.427   4.487 -0.1693 -0.9654 -0.2036
 5444SOL    HW127794   1.138   4.459   4.405 -1.6889  0.0268 -0.5486
 5444SOL    HW227795   1.015   4.393   4.456 -0.6358 -0.4360  0.4835
 5445SOL     OW27796   0.504   1.244   1.791  0.0570 -0.4143 -0.8249
 5445SOL    HW127797   0.596   1.248   1.763  0.1060  0.8830 -0.4799
 5445SOL    HW227798   0.481   1.177   1.727 -2.3817 -0.2355 -0.1280
 5446SOL     OW27799   2.469   4.234   1.313  0.3380 -0.7442  0.2003
 5446SOL    HW127800   2.506   4.187   1.238 -0.6689  0.5754 -1.1316
 5446SOL    HW227801   2.409   4.300   1.279 -1.0893 -2.5512 -0.7650
 5447SOL     OW27802   1.378   2.643   0.845 -0.0999  0.8134 -0.6442
 5447SOL    HW127803   1.417   2.652   0.758  1.3633  1.7579  0.1138
 5447SOL    HW227804   1.284   2.636   0.826 -0.2192  1.0314 -0.1253
 5448SOL     OW27805   1.733   4.360   7.274 -0.1604 -0.0716 -0.2545
 5448SOL    HW127806   1.769   4.375   7.187  0.1388 -2.5545 -0.5490
 5448SOL    HW227807   1.709   4.446   7.310 -0.1170 -0.6977  1.2879
 5449SOL     OW27808   0.839   1.560   7.878  0.2475  0.5543  0.3533
 5449SOL    HW127809   0.856   1.536   7.787 -1.9233 -2.1276  0.6428
 5449SOL    HW227810   0.930   1.562   7.906  0.4634  2.0953 -0.4448
 5450SOL     OW27811   3.720   1.803   8.850 -0.5512 -0.0212  0.1524
 5450SOL    HW127812   3.663   1.748   8.796 -1.2378  3.3113 -2.4918
 5450SOL    HW227813   3.692   1.889   8.820 -0.9834 -0.2260 -0.0285
 5451SOL     OW27814   0.638   0.261   1.318  0.3259  0.1614  0.1245
 5451SOL    HW127815   0.682   0.177   1.308  0.8332  0.1986  1.9703
 5451SOL    HW227816   0.710   0.323   1.307  1.2847 -1.3557 -2.1331
 5452SOL     OW27817   1.104   2.430   4.675 -0.5230 -0.2131 -0.3753
 5452SOL    HW127818   1.049   2.487   4.728 -0.2299 -1.3662  1.1568
 5452SOL    HW227819   1.091   2.463   4.586  2.0644  1.1390 -0.2610
 5453SOL     OW27820   1.897   0.584   7.776 -0.5599 -0.0138 -0.3503
 5453SOL    HW127821   1.878   0.588   7.682 -0.3706  1.5929 -0.3220
 5453SOL    HW227822   1.977   0.532   7.787 -2.6525 -3.2510 -0.4387
 5454SOL     OW27823   1.537   3.910   7.591 -0.2117  0.1142 -0.9028
 5454SOL    HW127824   1.509   3.848   7.658  1.8512 -1.5892 -1.6118
 5454SOL    HW227825   1.467   3.975   7.595  0.4838  0.8670 -1.0893
 5455SOL     OW27826   3.114   2.858   4.024 -0.0353 -0.0003  0.0252
 5455SOL    HW127827   3.031   2.810   4.030 -0.2010  0.0777 -1.5156
 5455SOL    HW227828   3.100   2.929   3.961  0.0610 -1.5130 -1.7022
 5456SOL     OW27829   1.325   0.083   7.716 -0.1606  0.0792 -0.1259
 5456SOL    HW127830   1.329   0.015   7.649  1.3005  1.0088 -0.9969
 5456SOL    HW227831   1.350   0.036   7.795 -0.0120 -0.5294 -0.5424
 5457SOL     OW27832   0.167   0.178   4.454  0.6618  0.6680 -0.1995
 5457SOL    HW127833   0.201   0.115   4.392 -2.6728 -0.6607 -0.6894
 5457SOL    HW227834   0.214   0.148   4.532  1.2737  2.4316  0.1169
 5458SOL     OW27835   1.972   1.800   0.175  0.0894  0.0528  0.3167
 5458SOL    HW127836   1.900   1.737   0.174 -0.1705  0.4103 -2.5886
 5458SOL    HW227837   1.987   1.811   0.269  0.0889  2.6846  0.0067
 5459SOL     OW27838   2.180   1.065   1.739  0.2677  0.2983  0.1570
 5459SOL    HW127839   2.253   1.115   1.703  0.5290  1.4771  2.2876
 5459SOL    HW227840   2.204   1.091   1.828  2.5354  1.4916 -0.8118
 5460SOL     OW27841   1.885   1.749   2.304  0.1910  0.1018  0.4936
 5460SOL    HW127842   1.857   1.659   2.320 -1.6987  0.6475  0.2043
 5460SOL    HW227843   1.964   1.753   2.358  0.1238 -2.2246  0.7671
 5461SOL     OW27844   1.868   2.031   3.728 -0.2691 -0.2376  0.4640
 5461SOL    HW127845   1.858   1.963   3.661 -0.0710  2.5873 -2.4421
 5461SOL    HW227846   1.788   2.020   3.778  0.2988 -1.5783  1.0688
 5462SOL     OW27847   4.631   1.539   0.713 -0.1953 -0.6947 -0.0800
 5462SOL    HW127848   4.565   1.510   0.649  0.2047 -1.3900 -0.1827
 5462SOL    HW227849   4.587   1.616   0.749 -1.0844 -0.0974 -2.4123
 5463SOL     OW27850   0.173   3.797   2.120 -0.3862  0.5369  0.1231
 5463SOL    HW127851   0.144   3.777   2.031  0.0945 -2.1638  0.5747
 5463SOL    HW227852   0.091   3.772   2.162 -0.1361  1.4493  1.1861
 5464SOL     OW27853   3.610   4.330   1.185  0.4732 -0.2124 -0.1504
 5464SOL    HW127854   3.572   4.246   1.158 -0.6505  0.5623 -0.9871
 5464SOL    HW227855   3.529   4.377   1.205  1.8879  2.4738 -0.7466
 5465SOL     OW27856   3.873   0.019   6.632 -0.4282  0.0912 -0.3426
 5465SOL    HW127857   3.793   4.721   6.680 -0.2281 -0.8585 -0.4681
 5465SOL    HW227858   3.848   0.105   6.599  2.4035  0.9310 -0.2289
 5466SOL     OW27859   3.191   0.887   3.982 -0.3560 -0.5489  0.0080
 5466SOL    HW127860   3.121   0.893   3.917  0.2625 -0.4298 -0.6375
 5466SOL    HW227861   3.181   0.976   4.014  0.7415 -0.8347  1.1627
 5467SOL     OW27862   1.829   3.646  15.275  1.0158 -0.5159 -0.2211
 5467SOL    HW127863   1.775   3.702  15.219  0.8369  1.0157  1.4966
 5467SOL    HW227864   1.813   3.689  15.359 -0.7296  0.4779 -1.0764
 5468SOL     OW27865   3.345   3.044   2.930  0.2302  0.1330 -0.3536
 5468SOL    HW127866   3.404   2.999   2.869  1.7579 -0.1079  1.3241
 5468SOL    HW227867   3.259   3.010   2.905 -0.3435  1.0849  0.3342
 5469SOL     OW27868   2.540   0.480   6.934  0.3093 -0.0445 -0.1886
 5469SOL    HW127869   2.555   0.508   6.844  2.2056 -3.1467 -0.8654
 5469SOL    HW227870   2.451   0.514   6.939 -0.1741 -1.3004 -0.1996
 5470SOL     OW27871   2.234   4.297   7.390 -0.3245  0.2828 -0.1577
 5470SOL    HW127872   2.155   4.329   7.433 -0.2969  1.9799 -1.3500
 5470SOL    HW227873   2.194   4.280   7.304  0.8224 -1.4108 -0.3609
 5471SOL     OW27874   1.577   0.319   2.904 -0.0452  0.4628  0.4032
 5471SOL    HW127875   1.585   0.337   2.998  0.7207 -1.0117  0.6307
 5471SOL    HW227876   1.585   0.401   2.856  0.3332  0.8343  1.1095
 5472SOL     OW27877   3.857   0.400  15.401 -0.6532 -0.2000 -0.3694
 5472SOL    HW127878   3.813   0.327  15.358 -1.4516 -0.5333  1.0070
 5472SOL    HW227879   3.943   0.363  15.420 -0.9278 -1.1800 -1.0171
 5473SOL     OW27880   3.151   2.432   9.121 -0.1232  0.3910  0.1909
 5473SOL    HW127881   3.164   2.423   9.215 -1.9079  0.3465  0.4391
 5473SOL    HW227882   3.209   2.361   9.094 -1.2716 -0.9021  1.1292
 5474SOL     OW27883   0.562   3.892   4.312  0.0785  0.4191 -0.1077
 5474SOL    HW127884   0.565   3.904   4.217  0.5463 -3.7723 -0.6117
 5474SOL    HW227885   0.529   3.977   4.341 -0.0386  0.3178  0.0564
 5475SOL     OW27886   4.168   4.092   4.410 -0.0951 -0.3739 -0.1259
 5475SOL    HW127887   4.178   4.141   4.491  1.7756 -1.1166  0.1183
 5475SOL    HW227888   4.251   4.043   4.407  1.4253  2.2497 -0.3884
 5476SOL     OW27889   3.680   3.970  13.879 -0.3535 -0.2438 -0.1509
 5476SOL    HW127890   3.596   3.972  13.926 -0.5333 -0.3771 -0.4680
 5476SOL    HW227891   3.727   4.021  13.945 -0.8300 -0.4005  0.3118
 5477SOL     OW27892   1.548   2.794  15.659 -0.6985 -0.8057  0.2921
 5477SOL    HW127893   1.603   2.805  15.736  0.4778  0.5419 -0.7644
 5477SOL    HW227894   1.485   2.730  15.694  0.2125 -1.4929  0.6773
 5478SOL     OW27895   4.599   1.198  10.666  0.5683 -0.3466  0.3005
 5478SOL    HW127896   4.691   1.184  10.690  0.6109  0.9539  0.9318
 5478SOL    HW227897   4.603   1.211  10.572 -1.4209  0.0812  0.2708
 5479SOL     OW27898   4.113   2.381   9.139 -0.4227  0.6810  0.7679
 5479SOL    HW127899   4.132   2.320   9.067  3.4096  0.5127  1.9412
 5479SOL    HW227900   4.053   2.337   9.200 -1.1897 -0.2343 -0.6423
 5480SOL     OW27901   1.465   0.743   8.123  0.1140  0.0533  0.1840
 5480SOL    HW127902   1.469   0.795   8.042 -1.1119  0.0484  0.1290
 5480SOL    HW227903   1.524   0.791   8.181 -1.4761  1.6462  0.4976
 5481SOL     OW27904   0.633   4.440   8.869  0.1989  0.0734 -0.1792
 5481SOL    HW127905   0.542   4.427   8.898 -0.0446  1.6349 -0.2500
 5481SOL    HW227906   0.658   4.487   8.948 -0.7945  2.8478 -1.5027
 5482SOL     OW27907   3.207   1.129   4.437  0.6161 -0.3160 -0.1494
 5482SOL    HW127908   3.133   1.073   4.462  0.1207  1.0773  1.4793
 5482SOL    HW227909   3.275   1.063   4.451 -0.6007 -1.4130  0.6566
 5483SOL     OW27910   2.501   3.740   4.299 -0.0292 -0.5004  0.1672
 5483SOL    HW127911   2.493   3.663   4.355  0.6768 -0.8238 -0.1775
 5483SOL    HW227912   2.470   3.804   4.364  0.5346  1.3143 -1.3495
 5484SOL     OW27913   1.007   2.469   2.597  0.2953 -0.1427 -0.2649
 5484SOL    HW127914   0.969   2.552   2.566  1.5982 -0.6551 -3.3377
 5484SOL    HW227915   1.070   2.467   2.524  1.3902  1.4090  0.6317
 5485SOL     OW27916   1.512   2.523   5.556 -0.8598 -0.0712  0.1860
 5485SOL    HW127917   1.549   2.558   5.475 -0.6140  0.4995  0.5465
 5485SOL    HW227918   1.547   2.595   5.609  0.1215 -0.0980 -0.4383
 5486SOL     OW27919   0.082   3.497  14.389  0.0304 -0.1048 -0.2097
 5486SOL    HW127920   0.006   3.555  14.388 -1.5694 -2.1928 -0.1689
 5486SOL    HW227921   0.142   3.546  14.333  0.8788 -0.3969  0.4463
 5487SOL     OW27922   1.948   2.578   1.615 -0.6570 -0.3756  0.0271
 5487SOL    HW127923   1.931   2.642   1.685  1.3475  1.4350 -1.1793
 5487SOL    HW227924   1.861   2.543   1.595  0.1015 -1.6640 -0.9844
 5488SOL     OW27925   2.330   1.007  14.280 -0.3489  0.2857  0.1115
 5488SOL    HW127926   2.240   1.017  14.249 -1.0443  1.0143  2.4291
 5488SOL    HW227927   2.336   1.087  14.332 -0.1203 -0.3533  1.0568
 5489SOL     OW27928   3.933   4.094   0.966 -0.4239  0.0438 -0.3044
 5489SOL    HW127929   3.943   4.177   0.918 -1.5114  1.2461  1.5467
 5489SOL    HW227930   3.861   4.058   0.913  2.4576 -2.4912 -2.4783
 5490SOL     OW27931   1.800   0.162   8.400  0.0919 -0.3270  0.3275
 5490SOL    HW127932   1.832   0.077   8.432 -0.0873 -0.6970 -0.4714
 5490SOL    HW227933   1.714   0.134   8.371 -0.4676  1.9018 -0.1922
 5491SOL     OW27934   1.112   0.274   5.067  0.8355  0.2162 -0.0614
 5491SOL    HW127935   1.145   0.258   4.978 -3.5861  0.4018 -1.7454
 5491SOL    HW227936   1.150   0.202   5.117 -0.9411  0.4860  1.6670
 5492SOL     OW27937   0.071   0.049  11.992 -0.1303  0.8553 -0.2661
 5492SOL    HW127938   0.161   0.055  12.023 -1.1181 -0.9484  3.0174
 5492SOL    HW227939   0.077   0.116  11.925  0.7782 -0.7860 -1.8252
 5493SOL     OW27940   3.450   1.093   5.964  0.1516 -0.2194  0.2903
 5493SOL    HW127941   3.357   1.074   5.964  0.4548 -1.7443  1.2561
 5493SOL    HW227942   3.457   1.162   6.031 -0.7225  1.1338 -1.0209
 5494SOL     OW27943   2.925   3.189  12.359  0.1796 -0.0550  0.0539
 5494SOL    HW127944   2.972   3.215  12.438 -0.2551  3.3811 -0.7866
 5494SOL    HW227945   2.965   3.236  12.285  0.4024 -0.1556  0.1147
 5495SOL     OW27946   3.180   0.240   5.645  0.6564  0.1477 -0.1839
 5495SOL    HW127947   3.128   0.280   5.575  3.2731  1.4024 -1.4086
 5495SOL    HW227948   3.151   0.153   5.619 -1.1197  0.7089 -0.0634
 5496SOL     OW27949   1.035   3.636   3.505  0.1911 -0.0308  0.4936
 5496SOL    HW127950   0.984   3.606   3.580  0.4041  0.4902  0.8370
 5496SOL    HW227951   1.113   3.583   3.523 -0.3828 -0.5478  1.4535
 5497SOL     OW27952   0.574   3.261   4.640  0.5821  0.1478  0.3491
 5497SOL    HW127953   0.512   3.291   4.707 -0.8491 -1.0919 -0.4042
 5497SOL    HW227954   0.573   3.170   4.669 -0.4843 -0.1384 -0.5739
 5498SOL     OW27955   1.390   0.523   3.652 -0.0890 -0.1010 -0.2512
 5498SOL    HW127956   1.444   0.590   3.694 -1.1020 -0.2463  1.2757
 5498SOL    HW227957   1.320   0.517   3.717 -0.9405 -1.2412 -1.2795
 5499SOL     OW27958   4.556   2.798   4.225 -0.0077 -0.6053 -0.0354
 5499SOL    HW127959   4.546   2.709   4.191 -1.0691  0.1321 -1.7107
 5499SOL    HW227960   4.613   2.781   4.299  1.1919  0.5826 -0.6743
 5500SOL     OW27961   3.241   3.627  15.907  0.2710 -0.0015  0.0031
 5500SOL    HW127962   3.284   3.560  15.959  1.4639  1.5389  1.0282
 5500SOL    HW227963   3.170   3.574  15.872 -0.0650 -0.9215  2.0882
 5501SOL     OW27964   3.764   3.865   3.599  0.6068  0.1165 -0.0292
 5501SOL    HW127965   3.726   3.922   3.532 -0.4256  1.3005  1.5633
 5501SOL    HW227966   3.856   3.891   3.606  0.4718  0.7160 -0.4791
 5502SOL     OW27967   4.683   1.234  13.959  0.2846  0.4011 -0.1111
 5502SOL    HW127968   0.040   1.188  13.977 -0.1220 -0.5515 -0.6943
 5502SOL    HW227969   4.617   1.197  14.018  0.1584 -1.3593 -1.3592
 5503SOL     OW27970   1.555   3.251  13.211 -0.4334  0.1966  0.1521
 5503SOL    HW127971   1.586   3.330  13.167  1.6838 -0.0485  1.2084
 5503SOL    HW227972   1.466   3.281  13.227  0.6162  2.8593  0.9875
 5504SOL     OW27973   1.062   4.554   8.839  0.2091  0.3826 -0.0972
 5504SOL    HW127974   1.004   4.586   8.908 -1.3344 -1.3193 -0.6156
 5504SOL    HW227975   1.004   4.555   8.763 -1.1533  0.4888  0.9443
 5505SOL     OW27976   3.994   1.812   5.631 -0.9690 -0.0284 -0.0055
 5505SOL    HW127977   4.067   1.833   5.572  0.0376 -0.6233  1.0224
 5505SOL    HW227978   3.938   1.889   5.626 -0.0985  0.6195  0.3301
 5506SOL     OW27979   4.559   4.035   3.161 -0.0483  0.2983  0.2097
 5506SOL    HW127980   4.603   4.050   3.078 -1.1605 -2.3006 -0.8559
 5506SOL    HW227981   4.485   3.981   3.134 -0.7151  1.5927 -0.5934
 5507SOL     OW27982   0.090   4.721  13.873 -0.0846  0.1955  0.0336
 5507SOL    HW127983   0.177   4.684  13.888  0.4166  0.5408 -1.9978
 5507SOL    HW227984   0.100   0.015  13.780  1.5347  1.0966  0.3837
 5508SOL     OW27985   4.302   4.547   4.095  0.2757 -0.2319 -0.5609
 5508SOL    HW127986   4.211   4.574   4.097  0.4158  0.1797  0.0945
 5508SOL    HW227987   4.308   4.453   4.075 -3.4089 -0.2910 -1.2628
 5509SOL     OW27988   0.987   1.998   6.853 -0.3751 -0.6353 -0.5026
 5509SOL    HW127989   1.045   2.051   6.908 -2.1425  0.0926  0.6374
 5509SOL    HW227990   0.934   2.069   6.817  1.1678  1.0702  0.5695
 5510SOL     OW27991   2.458   0.406   0.145 -0.0555  0.1926 -0.6385
 5510SOL    HW127992   2.442   0.481   0.202 -1.6541 -0.7089  0.0773
 5510SOL    HW227993   2.396   0.339   0.173  0.6989 -0.7105 -1.1243
 5511SOL     OW27994   3.230   3.032   2.421 -0.2622 -0.6730 -0.0433
 5511SOL    HW127995   3.161   2.966   2.428 -0.7446  0.0151  1.6374
 5511SOL    HW227996   3.315   2.987   2.416 -0.7495 -1.3895 -1.6972
 5512SOL     OW27997   2.262   0.888   0.576  0.0046  0.2686 -0.1013
 5512SOL    HW127998   2.301   0.945   0.510  2.3472 -0.0010  1.0574
 5512SOL    HW227999   2.273   0.800   0.540  2.2101  0.4455  0.1685
 5513SOL     OW28000   2.978   3.932   6.609 -0.4657 -0.2875 -0.6380
 5513SOL    HW128001   2.887   3.962   6.612 -0.2755  0.0788  1.8757
 5513SOL    HW228002   2.982   3.874   6.686  0.4337 -0.5991 -0.9154
 5514SOL     OW28003   0.460   4.426   4.441 -0.4506 -0.2960  0.3183
 5514SOL    HW128004   0.389   4.380   4.396 -1.4110  2.9604 -1.5380
 5514SOL    HW228005   0.425   4.516   4.441  0.5165  0.0947  3.6404
 5515SOL     OW28006   3.061   3.525   2.372  0.3999  0.2430  0.5570
 5515SOL    HW128007   2.983   3.532   2.426  0.0787  0.4161  0.0675
 5515SOL    HW228008   3.123   3.464   2.412  0.0864 -2.0962 -2.5087
 5516SOL     OW28009   3.008   4.147   3.250 -0.1326 -0.1996  0.1132
 5516SOL    HW128010   3.065   4.218   3.222 -1.8274  0.4455 -1.6812
 5516SOL    HW228011   2.919   4.178   3.232 -0.3989 -1.2889 -0.4767
 5517SOL     OW28012   3.876   2.154   1.780 -0.3662 -0.2490 -0.1003
 5517SOL    HW128013   3.853   2.132   1.690  1.0271  2.4578 -1.0953
 5517SOL    HW228014   3.971   2.145   1.783 -0.1810  1.6532 -0.4821
 5518SOL     OW28015   0.654   2.671  10.559  0.1518  0.5335  0.3581
 5518SOL    HW128016   0.634   2.577  10.561  2.4243  0.0865  1.7261
 5518SOL    HW228017   0.720   2.671  10.628 -1.6835  0.8769  2.0957
 5519SOL     OW28018   1.442   2.155   1.005 -0.6818 -0.4412 -0.8017
 5519SOL    HW128019   1.412   2.193   1.088  0.1837 -0.2888 -0.5644
 5519SOL    HW228020   1.468   2.234   0.958  3.0346 -1.1878  0.0275
 5520SOL     OW28021   4.080   0.566   1.948 -0.1745  0.2194  0.5792
 5520SOL    HW128022   4.044   0.552   1.860  1.0822  0.5976  0.0050
 5520SOL    HW228023   4.173   0.585   1.937 -0.4238  0.5069 -1.0318
 5521SOL     OW28024   0.015   1.851   3.311  0.1872 -0.3871 -0.1726
 5521SOL    HW128025   0.057   1.798   3.244 -0.8184  1.0847 -1.9403
 5521SOL    HW228026   4.650   1.848   3.278  0.0768  2.0329 -0.1119
 5522SOL     OW28027   3.901   1.706  12.150  0.3304 -0.3639 -0.5014
 5522SOL    HW128028   3.827   1.645  12.148 -0.1003  0.1618 -0.3266
 5522SOL    HW228029   3.979   1.650  12.154 -0.5642 -1.5359  0.6947
 5523SOL     OW28030   3.222   4.723  11.096  0.0727 -0.3148  0.0262
 5523SOL    HW128031   3.221   0.074  11.038 -0.3712  0.6010  1.2481
 5523SOL    HW228032   3.249   0.033  11.181 -0.0543 -2.3095  0.8825
 5524SOL     OW28033   3.873   0.953   3.717 -0.0641  0.0385  0.3540
 5524SOL    HW128034   3.796   0.978   3.769 -1.5040 -1.6593 -0.9311
 5524SOL    HW228035   3.942   1.015   3.740 -1.9691  1.6082  1.8404
 5525SOL     OW28036   2.290   3.556   3.724 -1.0723  0.5135 -0.2612
 5525SOL    HW128037   2.245   3.527   3.803 -1.5721 -1.0792 -1.1395
 5525SOL    HW228038   2.304   3.648   3.749  0.5073  0.0833  0.4559
 5526SOL     OW28039   0.493   4.039   6.103  0.2163 -0.3799  0.4417
 5526SOL    HW128040   0.475   3.978   6.031 -1.0835  0.0256  0.4382
 5526SOL    HW228041   0.586   4.054   6.086  0.3621  0.4667  1.9652
 5527SOL     OW28042   4.453   2.009   4.474  0.1671 -0.3299  0.1196
 5527SOL    HW128043   4.512   2.036   4.544 -0.2324  0.5769  0.1084
 5527SOL    HW228044   4.450   1.915   4.495  0.7809 -0.3612  0.0407
 5528SOL     OW28045   2.373   4.594   3.162 -0.0039 -0.0695  0.1389
 5528SOL    HW128046   2.371   4.580   3.068  2.0045  2.3903 -0.2549
 5528SOL    HW228047   2.466   4.583   3.180  0.1133 -0.4024 -0.6875
 5529SOL     OW28048   4.683   0.378   8.498  0.7691  0.7255 -0.4303
 5529SOL    HW128049   4.602   0.381   8.550  0.1974 -3.0221 -1.0708
 5529SOL    HW228050   4.694   0.470   8.476 -1.3242  1.0976  0.0045
 5530SOL     OW28051   3.803   2.109   1.535 -0.2502 -0.3687 -0.5767
 5530SOL    HW128052   3.757   2.037   1.493 -3.1820  0.3967  1.3148
 5530SOL    HW228053   3.804   2.175   1.466  2.6865  2.4450  2.1327
 5531SOL     OW28054   2.657   1.871   1.712  0.6131 -0.0279  0.4871
 5531SOL    HW128055   2.574   1.918   1.703  0.2595 -1.1050 -1.7640
 5531SOL    HW228056   2.717   1.944   1.723  0.4982  0.1735 -0.2428
 5532SOL     OW28057   4.080   3.417  13.277  0.5130 -0.2762  0.5645
 5532SOL    HW128058   3.990   3.397  13.251  1.4461  0.1885 -2.9324
 5532SOL    HW228059   4.105   3.334  13.318 -1.0129 -0.5691  0.9284
 5533SOL     OW28060   1.703   3.489   5.805 -0.1199 -0.3550  0.0053
 5533SOL    HW128061   1.767   3.517   5.871 -0.1957  2.5392 -1.1616
 5533SOL    HW228062   1.693   3.394   5.814  1.5859 -0.3606  1.8489
 5534SOL     OW28063   2.759   3.112   5.912 -0.6664 -0.3615 -0.2244
 5534SOL    HW128064   2.670   3.086   5.891 -0.3126 -0.4865 -1.5560
 5534SOL    HW228065   2.751   3.091   6.006 -0.0550 -0.6671 -0.2400
 5535SOL     OW28066   3.071   2.198   4.233 -0.0035 -0.2465 -0.2474
 5535SOL    HW128067   3.001   2.200   4.299  1.9193  0.5058  1.7545
 5535SOL    HW228068   3.098   2.289   4.228  0.6922 -0.3643  1.3488
 5536SOL     OW28069   4.157   0.330  15.395  0.0768  0.2681  0.1073
 5536SOL    HW128070   4.189   0.325  15.485 -0.6794 -2.2802  0.2335
 5536SOL    HW228071   4.148   0.235  15.391  0.0525  0.3725 -2.4260
 5537SOL     OW28072   2.592   0.706   3.953 -0.9256 -0.2224  0.1926
 5537SOL    HW128073   2.568   0.737   4.040  3.2398 -0.2079  1.3389
 5537SOL    HW228074   2.647   0.630   3.972  0.7106  0.6331 -1.1882
 5538SOL     OW28075   1.342   3.303   7.780  0.2938 -0.0911  0.8088
 5538SOL    HW128076   1.369   3.375   7.837  1.4628  1.4184 -1.6700
 5538SOL    HW228077   1.249   3.293   7.798  0.4075 -1.2680  0.7214
 5539SOL     OW28078   3.414   4.217  13.154 -0.3129 -0.3531  0.2600
 5539SOL    HW128079   3.481   4.175  13.208  0.1870  1.7072  1.2267
 5539SOL    HW228080   3.426   4.194  13.062 -0.8969 -0.3572  0.1836
 5540SOL     OW28081   2.852   2.237   4.386 -0.0776  0.3687  0.1486
 5540SOL    HW128082   2.804   2.188   4.319  0.9830  0.5812 -0.7563
 5540SOL    HW228083   2.804   2.320   4.386 -0.4196  0.1723 -0.0631
 5541SOL     OW28084   0.265   3.918  17.304  0.3830  0.3025  0.3985
 5541SOL    HW128085   0.209   3.853  17.345  0.6350 -0.5392 -0.5740
 5541SOL    HW228086   0.258   3.990  17.366  0.5152  1.2409 -0.6748
 5542SOL     OW28087   4.542   0.070  16.721 -0.0292  0.7031 -0.4536
 5542SOL    HW128088   4.536   0.143  16.782 -3.6254 -0.9897  1.1978
 5542SOL    HW228089   4.484   0.003  16.759  0.4465  1.0136  0.8233
 5543SOL     OW28090   0.298   2.045   9.042 -0.2583  0.6617  0.1824
 5543SOL    HW128091   0.301   2.042   8.946  1.6630 -2.0631  0.3291
 5543SOL    HW228092   0.270   1.955   9.061  1.8478  0.1447  0.7848
 5544SOL     OW28093   1.987   2.570   3.459  0.1998 -0.3812  0.4024
 5544SOL    HW128094   1.954   2.534   3.377 -0.9628  0.3462  0.5536
 5544SOL    HW228095   2.081   2.570   3.442 -0.0411  0.5804 -0.9160
 5545SOL     OW28096   0.952   1.749   6.759  0.3247 -0.4205  0.0547
 5545SOL    HW128097   0.989   1.821   6.811 -1.4684  0.8054 -0.3565
 5545SOL    HW228098   0.921   1.814   6.696 -0.6029 -0.8364  0.0834
 5546SOL     OW28099   2.607   1.415  16.571 -0.4203  0.4920 -0.2651
 5546SOL    HW128100   2.658   1.412  16.491 -0.1418 -1.4830 -0.0229
 5546SOL    HW228101   2.545   1.487  16.557  0.2418  0.8294 -1.4191
 5547SOL     OW28102   0.595   1.692   4.103 -0.0093 -0.4538  0.5986
 5547SOL    HW128103   0.661   1.681   4.035 -1.1733  1.9096 -0.9562
 5547SOL    HW228104   0.562   1.604   4.083  0.3521 -0.3686 -0.3351
 5548SOL     OW28105   1.334   4.381   4.801 -0.5801  0.0148 -0.3128
 5548SOL    HW128106   1.427   4.404   4.800 -0.9451  1.5243  0.6713
 5548SOL    HW228107   1.289   4.463   4.820 -0.5319 -0.0467  0.0624
 5549SOL     OW28108   1.757   4.586   7.605 -0.2566  0.0186  0.0180
 5549SOL    HW128109   1.750   4.614   7.514  0.3200  2.3471  0.7044
 5549SOL    HW228110   1.666   4.560   7.615 -0.7387  0.9860 -1.7854
 5550SOL     OW28111   4.095   2.220   7.834  0.1145  0.2663  0.0962
 5550SOL    HW128112   4.014   2.195   7.877 -2.2139  0.6415 -4.1872
 5550SOL    HW228113   4.120   2.144   7.782  0.2342  0.2675  0.1496
 5551SOL     OW28114   4.561   2.278   9.978 -0.2306 -0.7484  0.3070
 5551SOL    HW128115   4.605   2.348   9.929 -1.7563  0.6814  0.9719
 5551SOL    HW228116   4.492   2.336  10.010 -0.3207 -1.5139  1.4871
 5552SOL     OW28117   4.024   2.081  17.536  0.3572 -0.1857 -0.3041
 5552SOL    HW128118   4.093   2.015  17.525 -0.3464 -1.1796  1.3194
 5552SOL    HW228119   4.058   2.152  17.482 -0.4911  0.8845  0.5691
 5553SOL     OW28120   1.414   2.365   1.588 -0.0768  0.6098 -0.0930
 5553SOL    HW128121   1.442   2.383   1.498 -0.5954 -0.8077 -0.5377
 5553SOL    HW228122   1.373   2.450   1.607  1.3377  0.9299  1.4690
 5554SOL     OW28123   2.683   3.361  10.222  0.1479 -0.1814  0.8835
 5554SOL    HW128124   2.699   3.396  10.310 -0.3779 -0.4002  1.0624
 5554SOL    HW228125   2.697   3.267  10.228  1.5198 -0.0559 -0.1612
 5555SOL     OW28126   3.494   0.066  16.628  0.4642  0.0472 -0.0954
 5555SOL    HW128127   3.399   0.064  16.631  0.4036 -2.2717 -3.1745
 5555SOL    HW228128   3.505   0.063  16.533  0.9682 -2.0746  0.0392
 5556SOL     OW28129   3.338   0.893   8.719  0.8800 -0.1273  0.1170
 5556SOL    HW128130   3.250   0.929   8.732  0.2197 -1.2612 -1.1987
 5556SOL    HW228131   3.374   0.957   8.658  0.6823 -1.1692 -1.0885
 5557SOL     OW28132   1.820   3.712  12.358  0.3542 -0.2058  0.6510
 5557SOL    HW128133   1.725   3.701  12.357  0.2993  0.2456  1.1809
 5557SOL    HW228134   1.833   3.794  12.311  0.5453  0.1228  1.2788
 5558SOL     OW28135   2.047   4.012   3.180  0.0515  0.0962  0.9186
 5558SOL    HW128136   2.035   4.074   3.108  2.0994 -0.9021 -0.2842
 5558SOL    HW228137   2.135   4.038   3.207  0.8596 -1.4591 -0.2344
 5559SOL     OW28138   2.272   3.066   7.845  0.2247 -0.2050 -0.7830
 5559SOL    HW128139   2.222   3.056   7.926  1.0082  0.3537 -0.2228
 5559SOL    HW228140   2.344   3.124   7.872  0.5205 -0.6298 -0.6583
 5560SOL     OW28141   2.206   3.999   7.340  0.7207  0.0917 -0.0458
 5560SOL    HW128142   2.236   3.959   7.421 -0.0001 -3.0199 -1.3131
 5560SOL    HW228143   2.285   3.981   7.289  0.6594 -1.2675  0.3307
 5561SOL     OW28144   1.695   1.940  13.814 -0.4964  0.5588 -0.1615
 5561SOL    HW128145   1.721   2.010  13.754 -0.1671  0.7313  0.1798
 5561SOL    HW228146   1.693   1.991  13.895 -1.5622  2.0603 -1.1439
 5562SOL     OW28147   0.047   3.297   4.976 -0.0535  0.0084  0.4714
 5562SOL    HW128148   0.036   3.277   4.883  0.8657  0.7827  0.2052
 5562SOL    HW228149   0.043   3.392   4.965  0.0355  0.0259  0.5925
 5563SOL     OW28150   2.386   0.832   2.900 -0.5675 -0.1863  0.5587
 5563SOL    HW128151   2.382   0.897   2.830 -0.9615  0.0846  0.8319
 5563SOL    HW228152   2.389   0.746   2.859  1.0810  1.0072 -1.8173
 5564SOL     OW28153   3.282   4.719   7.594  0.0007 -0.9688 -0.0059
 5564SOL    HW128154   3.238   4.634   7.588 -0.8740 -0.5899  1.1138
 5564SOL    HW228155   3.312   0.007   7.504  1.6881  1.0859  0.8654
 5565SOL     OW28156   1.377   2.066   5.610  0.1228 -0.3736  0.5285
 5565SOL    HW128157   1.398   2.150   5.652 -2.1614  0.3479  0.2211
 5565SOL    HW228158   1.463   2.024   5.616 -0.0224 -0.7930 -0.2787
 5566SOL     OW28159   2.417   2.199  12.480  0.3576 -0.0958  0.6673
 5566SOL    HW128160   2.367   2.141  12.422  2.0493 -2.4855  1.5761
 5566SOL    HW228161   2.356   2.247  12.536 -1.9733 -1.5606 -0.5937
 5567SOL     OW28162   4.028   2.420   1.555 -0.3247 -0.3818 -0.0574
 5567SOL    HW128163   3.958   2.374   1.508 -1.5635  0.2128  1.2061
 5567SOL    HW228164   4.070   2.470   1.486 -1.0381 -0.5240 -0.6007
 5568SOL     OW28165   1.664   2.380   7.039 -0.0117  0.3005  0.3637
 5568SOL    HW128166   1.685   2.473   7.051  0.0012  0.1457  1.4780
 5568SOL    HW228167   1.640   2.378   6.946  0.9503 -2.3374  0.1648
 5569SOL     OW28168   1.284   1.572   5.951  0.1541  0.0319  0.0207
 5569SOL    HW128169   1.362   1.621   5.925  0.1767 -1.8743 -3.4682
 5569SOL    HW228170   1.210   1.626   5.923 -0.1811 -0.8707 -0.8306
 5570SOL     OW28171   3.221   0.309   4.877  0.1800 -0.9890 -0.0418
 5570SOL    HW128172   3.224   0.395   4.835  3.3040 -1.9056 -1.7295
 5570SOL    HW228173   3.128   0.289   4.878 -0.2476  1.0739 -0.8480
 5571SOL     OW28174   4.508   2.130   6.387 -0.5484 -0.2419 -0.1048
 5571SOL    HW128175   4.570   2.140   6.459 -1.4091 -2.0759  0.8863
 5571SOL    HW228176   4.526   2.202   6.326  0.3607  0.4633  0.9994
 5572SOL     OW28177   4.189   1.165   2.304  0.1461  0.0850  0.2857
 5572SOL    HW128178   4.128   1.158   2.230  0.7895  0.9030 -0.3246
 5572SOL    HW228179   4.222   1.078   2.325 -1.2250 -0.7641 -1.0569
 5573SOL     OW28180   3.867   2.551  11.602 -0.3286  0.1330 -1.0159
 5573SOL    HW128181   3.815   2.492  11.548 -0.3377 -0.1642 -0.6747
 5573SOL    HW228182   3.808   2.613  11.645  0.5308 -0.5757  1.1763
 5574SOL     OW28183   1.544   0.974   8.570 -0.4193 -0.2098  0.3630
 5574SOL    HW128184   1.560   1.056   8.617  1.0329  0.0077 -0.5257
 5574SOL    HW228185   1.450   0.960   8.576 -0.6933  2.1218  1.4258
 5575SOL     OW28186   4.717   2.298  15.323  0.1358  0.5435  0.0102
 5575SOL    HW128187   4.678   2.269  15.405  1.3644 -0.0172  0.3936
 5575SOL    HW228188   0.085   2.293  15.346 -0.0129  0.5484  0.5981
 5576SOL     OW28189   4.654   0.256  11.530  0.1570 -0.3252  0.2685
 5576SOL    HW128190   4.589   0.275  11.598  0.3015  0.5514  0.1727
 5576SOL    HW228191   4.635   0.324  11.464  0.6329 -0.5429 -0.0904
 5577SOL     OW28192   1.729   2.205  10.718 -0.1375  0.0278  0.1113
 5577SOL    HW128193   1.719   2.154  10.638  0.9739 -0.1446  0.0831
 5577SOL    HW228194   1.776   2.132  10.759  1.4569  0.6017 -0.7030
 5578SOL     OW28195   3.039   4.451   5.446  0.2072  0.3680 -0.1609
 5578SOL    HW128196   2.977   4.512   5.407 -0.1406 -0.8457 -1.5117
 5578SOL    HW228197   2.974   4.392   5.484  1.4338 -0.8869 -0.0057
 5579SOL     OW28198   1.101   1.157  17.002 -0.4408 -0.0904  0.3906
 5579SOL    HW128199   1.183   1.131  17.043  0.5949 -0.6764 -2.0187
 5579SOL    HW228200   1.132   1.203  16.924 -0.0015 -1.3613 -0.1812
 5580SOL     OW28201   1.889   2.050   2.959 -0.5771 -0.0241 -0.5929
 5580SOL    HW128202   1.803   2.047   2.918 -0.3887  1.6511 -1.1312
 5580SOL    HW228203   1.934   1.987   2.903 -0.5630  0.5052 -1.1837
 5581SOL     OW28204   0.416   3.106   6.539  0.6029 -0.1757 -0.3018
 5581SOL    HW128205   0.443   3.167   6.471  0.4338  0.4066  0.1449
 5581SOL    HW228206   0.492   3.112   6.597  0.8685 -1.0514 -0.5627
 5582SOL     OW28207   3.327   3.759   6.919  0.4198 -0.1745 -0.8052
 5582SOL    HW128208   3.322   3.852   6.894  1.3342  0.2533  0.5913
 5582SOL    HW228209   3.396   3.769   6.984  0.3096 -1.6057 -0.4695
 5583SOL     OW28210   1.178   1.976  12.855 -0.2237 -0.1582 -0.3155
 5583SOL    HW128211   1.210   2.022  12.777  0.6781  1.3127  0.9175
 5583SOL    HW228212   1.153   1.892  12.816 -0.4475  0.2392 -1.0411
 5584SOL     OW28213   4.259   1.597  13.088  0.1361 -0.0433  0.8166
 5584SOL    HW128214   4.342   1.643  13.099  0.5591 -0.9453  1.4373
 5584SOL    HW228215   4.202   1.672  13.100 -1.5729 -1.3418  0.8294
 5585SOL     OW28216   2.232   3.545  14.809 -0.5202 -0.1130  0.0087
 5585SOL    HW128217   2.153   3.560  14.757 -0.5904 -0.8820 -0.0925
 5585SOL    HW228218   2.214   3.578  14.898 -1.3489 -0.2885 -0.0944
 5586SOL     OW28219   4.510   1.374   0.043 -0.3340 -0.3060 -0.0675
 5586SOL    HW128220   4.451   1.315  17.697 -0.2875 -0.7470  0.4135
 5586SOL    HW228221   4.577   1.313   0.074 -0.8115 -0.3770  0.8497
 5587SOL     OW28222   2.595   4.580  16.342 -0.9662  0.1914 -0.7094
 5587SOL    HW128223   2.574   4.574  16.249  1.7694 -1.5140 -1.2385
 5587SOL    HW228224   2.598   4.675  16.352 -0.0245  0.0867  0.0436
 5588SOL     OW28225   3.621   0.643  17.327  0.7586 -0.6386  0.5629
 5588SOL    HW128226   3.600   0.586  17.253  0.4268 -1.6340  1.4365
 5588SOL    HW228227   3.536   0.632  17.370  0.4592 -0.2616  0.0716
 5589SOL     OW28228   2.358   4.141  16.600 -0.5834 -0.4997 -0.0203
 5589SOL    HW128229   2.438   4.175  16.561 -1.1638  4.4720  3.1885
 5589SOL    HW228230   2.375   4.151  16.693  2.2172 -3.9192 -0.1409
 5590SOL     OW28231   3.430   1.700   9.930  0.6619 -0.1404  0.7364
 5590SOL    HW128232   3.524   1.701   9.909  0.3647  1.3364 -0.4485
 5590SOL    HW228233   3.413   1.606   9.934 -0.8470  0.1056 -0.3160
 5591SOL     OW28234   0.336   1.133  15.780 -0.3640 -0.5130 -0.6088
 5591SOL    HW128235   0.267   1.157  15.842 -1.1650  0.0217 -1.6967
 5591SOL    HW228236   0.416   1.163  15.822  0.1804 -1.1686 -1.1782
 5592SOL     OW28237   3.714   4.138   5.417  0.8948 -0.4257 -0.5189
 5592SOL    HW128238   3.784   4.203   5.414  0.0012  0.5323 -0.7679
 5592SOL    HW228239   3.761   4.057   5.435  2.0940  0.3848 -0.0327
 5593SOL     OW28240   3.566   4.432  11.376 -0.2113 -0.0063  0.0151
 5593SOL    HW128241   3.631   4.479  11.429  1.8354  0.3339 -2.8317
 5593SOL    HW228242   3.496   4.437  11.442  2.0944 -2.5738  2.6511
 5594SOL     OW28243   3.945   0.113   2.320  0.1222  0.4108  0.5920
 5594SOL    HW128244   3.858   0.093   2.287 -0.2359  3.5965 -0.3957
 5594SOL    HW228245   3.977   0.153   2.239 -2.5045  0.3519 -0.4596
 5595SOL     OW28246   2.113   2.219   3.291  0.4431 -0.8442  0.0311
 5595SOL    HW128247   2.165   2.228   3.370 -0.1170 -0.4019  0.3436
 5595SOL    HW228248   2.079   2.307   3.277  1.1263 -0.4207  1.0498
 5596SOL     OW28249   0.764   0.046   3.700 -0.2483  0.6758  0.2024
 5596SOL    HW128250   0.748   0.039   3.794 -0.0151  0.1104  0.1988
 5596SOL    HW228251   0.739   4.681   3.678  2.6769 -0.6387  2.2159
 5597SOL     OW28252   1.013   3.961   9.434  0.0382 -0.2448  0.1044
 5597SOL    HW128253   1.018   3.969   9.529 -0.3715 -2.2877  0.3050
 5597SOL    HW228254   0.921   3.987   9.426 -0.1289 -1.1697 -1.0250
 5598SOL     OW28255   2.745   4.047   6.011  0.1770 -0.4511 -0.1148
 5598SOL    HW128256   2.787   4.128   5.983  0.3752 -0.3897  0.3528
 5598SOL    HW228257   2.787   4.030   6.095 -0.0097  1.1965  0.3227
 5599SOL     OW28258   0.596   2.036   1.280  0.5828 -0.5213  0.8113
 5599SOL    HW128259   0.514   1.999   1.314  0.1139 -0.8504 -0.6847
 5599SOL    HW228260   0.575   2.056   1.189 -3.9442 -2.0975  1.4856
 5600SOL     OW28261   4.666   3.552  13.264  0.7676 -0.4606 -0.1141
 5600SOL    HW128262   4.618   3.635  13.260 -0.2400 -1.0836 -0.9725
 5600SOL    HW228263   0.030   3.563  13.296  0.0712 -0.0239  1.7374
 5601SOL     OW28264   3.317   0.543  10.802 -0.4688  0.1862  0.0123
 5601SOL    HW128265   3.353   0.628  10.779  2.9783 -0.7138  2.1166
 5601SOL    HW228266   3.328   0.538  10.897  0.6781  0.3122 -0.1194
 5602SOL     OW28267   4.138   1.562   4.437 -0.4309  0.0412  0.4341
 5602SOL    HW128268   4.214   1.606   4.399 -0.4882 -0.1686  0.0788
 5602SOL    HW228269   4.109   1.522   4.355 -0.7714 -0.6554  0.8914
 5603SOL     OW28270   1.582   4.227   9.153 -0.3894  0.2923 -0.1179
 5603SOL    HW128271   1.622   4.192   9.233 -0.0879 -0.5052 -0.6198
 5603SOL    HW228272   1.594   4.156   9.090  0.1876  0.4922 -0.2348
 5604SOL     OW28273   0.599   2.738   6.463  0.0061 -0.2963 -0.0782
 5604SOL    HW128274   0.663   2.697   6.404 -0.2901 -2.0908  0.8344
 5604SOL    HW228275   0.523   2.738   6.406  0.5454  1.1235 -0.7869
 5605SOL     OW28276   4.062   3.658  11.291  0.3483 -0.5110 -1.1360
 5605SOL    HW128277   4.027   3.632  11.376  1.7207  1.9015  0.1574
 5605SOL    HW228278   4.107   3.742  11.301  0.1588 -0.6021  0.5102
 5606SOL     OW28279   0.777   3.250   8.908  0.4514 -0.3055  0.2582
 5606SOL    HW128280   0.836   3.244   8.983 -0.7575  0.4690  1.2847
 5606SOL    HW228281   0.690   3.268   8.944 -0.2931 -0.1927 -1.6052
 5607SOL     OW28282   3.717   1.787   9.946  0.5339  0.8333  0.3655
 5607SOL    HW128283   3.806   1.798   9.914 -0.3867  2.0090 -1.7399
 5607SOL    HW228284   3.728   1.743  10.031  0.7204  0.9920  0.4235
 5608SOL     OW28285   1.044   4.004   9.698  0.3699  0.2825  0.3211
 5608SOL    HW128286   1.095   4.078   9.731  3.2473 -0.8939 -1.4885
 5608SOL    HW228287   1.062   3.941   9.768  1.4122  0.9626  0.6566
 5609SOL     OW28288   0.543   4.539   7.385  0.1334 -0.2199 -0.5127
 5609SOL    HW128289   0.581   4.453   7.368 -1.7365 -1.4460  1.4389
 5609SOL    HW228290   0.524   4.528   7.478  0.5702  2.0725 -0.1620
 5610SOL     OW28291   2.410   3.232   0.889 -0.3567 -0.0804  0.5713
 5610SOL    HW128292   2.346   3.289   0.848 -0.7046 -0.0781  1.1269
 5610SOL    HW228293   2.379   3.145   0.862  2.6388 -0.9099 -0.2686
 5611SOL     OW28294   3.839   4.106   2.353  0.5416  0.4096 -0.3362
 5611SOL    HW128295   3.917   4.051   2.341  0.1435  0.0529 -1.3485
 5611SOL    HW228296   3.833   4.149   2.268 -1.5377  1.8353  0.5522
 5612SOL     OW28297   0.972   4.116   4.915 -0.7105  0.8855 -0.1625
 5612SOL    HW128298   1.052   4.132   4.864  0.8527 -2.3828  1.2810
 5612SOL    HW228299   0.983   4.022   4.931 -1.0939  1.0619  1.1696
 5613SOL     OW28300   2.886   2.567  12.095  0.1302 -0.1028  0.1437
 5613SOL    HW128301   2.949   2.624  12.139  0.8214  0.1987 -1.2431
 5613SOL    HW228302   2.813   2.570  12.157 -1.0340  1.3368 -1.3115
 5614SOL     OW28303   4.612   1.835   1.981 -0.1116 -0.2104  0.3521
 5614SOL    HW128304   4.634   1.865   2.069 -1.3373  2.4095 -0.2481
 5614SOL    HW228305   4.543   1.772   2.004  0.2015 -0.6083  0.2145
 5615SOL     OW28306   3.623   0.595   3.517 -1.1059  0.1608  0.0777
 5615SOL    HW128307   3.619   0.662   3.585  1.2572  2.1800 -1.8049
 5615SOL    HW228308   3.594   0.652   3.446 -1.1328 -2.3715 -1.9469
 5616SOL     OW28309   3.720   3.535   3.132  0.0750  0.1685  0.1359
 5616SOL    HW128310   3.763   3.564   3.212  1.5476 -0.3612 -0.4625
 5616SOL    HW228311   3.688   3.453   3.169 -0.9030  0.5094  0.0450
 5617SOL     OW28312   4.509   3.404  14.123 -0.1672  0.7197  0.1119
 5617SOL    HW128313   4.559   3.474  14.082 -0.3567  1.1835  0.6753
 5617SOL    HW228314   4.580   3.344  14.147 -1.6724 -1.5446 -1.0279
 5618SOL     OW28315   0.471   2.044  17.115 -0.1876 -0.0762  1.2394
 5618SOL    HW128316   0.492   1.955  17.085  2.3040  1.7695 -2.5022
 5618SOL    HW228317   0.380   2.027  17.138 -0.1835 -0.1343  1.2130
 5619SOL     OW28318   3.318   2.410   3.721 -0.1817  0.9885  0.1783
 5619SOL    HW128319   3.389   2.445   3.775 -0.2065  0.7943  0.3379
 5619SOL    HW228320   3.357   2.333   3.679  0.3760  1.6427 -0.4940
 5620SOL     OW28321   3.753   0.646   1.278 -0.0527  0.7382  0.3891
 5620SOL    HW128322   3.788   0.710   1.341  1.2420  0.5885 -0.1752
 5620SOL    HW228323   3.659   0.660   1.294  0.0613  0.1607  1.4947
 5621SOL     OW28324   0.645   1.617   2.391  0.0273 -0.6034 -0.6097
 5621SOL    HW128325   0.658   1.557   2.317  0.6100  1.5389 -2.2610
 5621SOL    HW228326   0.725   1.658   2.424  0.1257  0.3152 -1.9719
 5622SOL     OW28327   3.229   3.716   8.302  0.2138 -0.1200  0.2714
 5622SOL    HW128328   3.322   3.719   8.322 -0.0168  0.4217  1.2739
 5622SOL    HW228329   3.201   3.808   8.298 -0.7940 -0.3734  1.4778
 5623SOL     OW28330   3.897   0.598  17.391  0.4834  0.0355  0.4540
 5623SOL    HW128331   3.917   0.680  17.347 -2.0348 -0.1106 -0.9719
 5623SOL    HW228332   3.814   0.625  17.432  0.4352 -0.5407  0.7319
 5624SOL     OW28333   4.324   1.321   0.536 -0.0588  0.2415 -0.2279
 5624SOL    HW128334   4.329   1.249   0.473 -1.1018  1.7331 -2.0110
 5624SOL    HW228335   4.364   1.292   0.618  0.8673  1.6821 -0.1653
 5625SOL     OW28336   1.850   0.291   6.190 -0.0747 -0.1347  0.5053
 5625SOL    HW128337   1.923   0.238   6.221  1.6686  2.6712  1.1962
 5625SOL    HW228338   1.891   0.349   6.126 -1.0391  0.1868  0.1749
 5626SOL     OW28339   3.392   0.039  16.359  0.1075  0.1101 -0.0377
 5626SOL    HW128340   3.313   4.724  16.323  0.8826 -0.3689 -1.2049
 5626SOL    HW228341   3.397   0.123  16.312  0.6896 -0.3638 -0.8239
 5627SOL     OW28342   3.193   3.731   2.842 -0.2890 -0.6865 -0.7455
 5627SOL    HW128343   3.196   3.805   2.781 -1.7093 -0.2109 -0.2392
 5627SOL    HW228344   3.260   3.674   2.806 -0.0227 -1.6123  1.1900
 5628SOL     OW28345   3.961   1.301   4.229 -0.3895  0.3228  0.0562
 5628SOL    HW128346   4.020   1.332   4.161 -3.8486  1.8154 -2.2675
 5628SOL    HW228347   4.006   1.219   4.248 -1.8715 -1.3686 -3.7873
 5629SOL     OW28348   2.067   0.050   5.103 -0.1557 -0.0793  0.1345
 5629SOL    HW128349   2.050   0.080   5.014 -0.1081 -0.7071 -0.0841
 5629SOL    HW228350   2.143   4.718   5.092  1.3520  1.7307  1.2469
 5630SOL     OW28351   1.606   0.937   8.305  0.1883  0.0513 -0.0314
 5630SOL    HW128352   1.700   0.935   8.287  0.6838  1.6086  2.2996
 5630SOL    HW228353   1.614   0.955   8.399 -0.0565 -0.5345  0.1031
 5631SOL     OW28354   4.431   3.239  16.583  0.2913  0.3521  0.4779
 5631SOL    HW128355   4.452   3.321  16.538  1.2310 -0.1136  0.0601
 5631SOL    HW228356   4.485   3.251  16.660  1.8265 -2.3665 -0.1608
 5632SOL     OW28357   2.208   2.225  13.027 -0.2560 -0.4198 -0.2964
 5632SOL    HW128358   2.221   2.136  12.994 -0.8255 -0.3997 -0.5795
 5632SOL    HW228359   2.138   2.257  12.970 -0.1350  0.2464 -0.0804
 5633SOL     OW28360   3.533   0.277  15.717 -0.3279  0.6319  0.1430
 5633SOL    HW128361   3.528   0.337  15.791 -0.2175  2.0030 -0.9652
 5633SOL    HW228362   3.626   0.256  15.710 -0.2795  0.0999  2.4123
 5634SOL     OW28363   3.003   2.213  10.086  0.3274 -0.1242 -0.0114
 5634SOL    HW128364   3.025   2.292  10.036  0.3231  1.5408  2.6266
 5634SOL    HW228365   3.083   2.176  10.124  0.0091 -2.4047 -1.5599
 5635SOL     OW28366   2.543   2.905  10.605  0.0641  0.1129  0.2165
 5635SOL    HW128367   2.626   2.858  10.613  1.0069  1.8013  0.1631
 5635SOL    HW228368   2.561   2.995  10.578 -1.2009  0.2354 -0.2187
 5636SOL     OW28369   0.610   4.722   4.920  0.4543 -0.4037  0.0077
 5636SOL    HW128370   0.669   4.649   4.905 -1.2450 -1.9794  0.9504
 5636SOL    HW228371   0.579   0.022   4.833  0.7486 -0.0048  0.0204
 5637SOL     OW28372   3.267   1.251   1.696 -0.5325  0.1235 -0.3647
 5637SOL    HW128373   3.323   1.210   1.762  0.2368 -1.7279 -2.1842
 5637SOL    HW228374   3.308   1.338   1.693  0.7559 -0.4487  0.4556
 5638SOL     OW28375   3.342   2.675   1.680 -0.6274  0.8624 -0.0119
 5638SOL    HW128376   3.337   2.770   1.683 -0.4400  0.8494  0.5668
 5638SOL    HW228377   3.250   2.648   1.682 -0.7067  1.0181 -1.8357
 5639SOL     OW28378   1.221   4.536   6.815  0.3223 -0.3009 -0.3803
 5639SOL    HW128379   1.127   4.556   6.819  0.4628 -0.1713  1.9008
 5639SOL    HW228380   1.250   4.587   6.890 -0.8548  0.1308 -0.2215
 5640SOL     OW28381   0.564   1.104   8.387  0.1044 -0.0870  1.0700
 5640SOL    HW128382   0.653   1.098   8.423  2.2471 -0.9403 -4.3581
 5640SOL    HW228383   0.571   1.187   8.340 -0.1346 -0.6342  0.0474
 5641SOL     OW28384   0.206   2.003   9.887  0.2119 -0.0951 -0.3328
 5641SOL    HW128385   0.156   2.007   9.968 -0.2183 -1.4382 -0.5340
 5641SOL    HW228386   0.192   1.911   9.865 -0.9844  0.5615 -2.4067
 5642SOL     OW28387   1.496   1.501   2.434 -0.2688 -0.1426  0.3768
 5642SOL    HW128388   1.583   1.528   2.403 -1.5803  2.9636 -0.5591
 5642SOL    HW228389   1.500   1.522   2.527  0.0959 -0.1794  0.3694
 5643SOL     OW28390   4.145   4.362   6.083 -0.0826 -0.2609 -0.1811
 5643SOL    HW128391   4.225   4.327   6.043  1.4108  1.5969  1.1827
 5643SOL    HW228392   4.112   4.402   6.003 -0.1006  1.2665  0.5947
 5644SOL     OW28393   0.865   3.899   7.319 -0.8083 -0.0000  0.3454
 5644SOL    HW128394   0.812   3.868   7.393  0.5110 -3.1015 -0.0099
 5644SOL    HW228395   0.908   3.814   7.312  0.5943  0.8340 -1.0970
 5645SOL     OW28396   4.654   0.707  14.742  0.0666  0.3421  0.2971
 5645SOL    HW128397   4.713   0.697  14.667 -0.1962 -0.6695  0.2281
 5645SOL    HW228398   4.589   0.642  14.716  1.6401 -1.6770  1.4044
 5646SOL     OW28399   2.159   1.059   2.266  0.3376  0.1631 -0.3675
 5646SOL    HW128400   2.245   1.094   2.287  1.0284 -1.2589 -0.8441
 5646SOL    HW228401   2.115   1.141   2.241 -0.6499  0.2228  1.5413
 5647SOL     OW28402   1.262   0.005   1.571  0.0744  0.9871 -0.3510
 5647SOL    HW128403   1.318   4.718   1.495 -1.0356 -2.2937 -0.6486
 5647SOL    HW228404   1.306   0.082   1.608  1.2870  0.6283 -1.0607
 5648SOL     OW28405   4.292   0.872   7.445  0.0233  0.2295  0.2143
 5648SOL    HW128406   4.330   0.785   7.460 -2.4201 -1.0814 -1.2816
 5648SOL    HW228407   4.214   0.867   7.499  0.3311  0.3002  0.6726
 5649SOL     OW28408   3.639   1.232   7.828  0.4057  0.0147  0.0675
 5649SOL    HW128409   3.693   1.311   7.826  0.7317 -0.2288 -0.7355
 5649SOL    HW228410   3.593   1.256   7.748  1.7683 -0.8653 -0.9848
 5650SOL     OW28411   1.413   1.990   5.313 -0.4497  0.5453 -0.0152
 5650SOL    HW128412   1.481   2.023   5.372  0.2132 -0.9226  0.0206
 5650SOL    HW228413   1.342   1.959   5.369 -0.1856  1.6994  0.9685
 5651SOL     OW28414   4.666   4.005   9.340  0.4927 -0.1402  0.2482
 5651SOL    HW128415   4.628   4.091   9.319 -0.0704 -0.2364  0.8941
 5651SOL    HW228416   4.597   3.944   9.316  0.0713  0.1554  0.7195
 5652SOL     OW28417   2.778   1.980   8.585  0.7503  0.2327 -0.1675
 5652SOL    HW128418   2.719   1.951   8.515  2.0238  1.5375 -1.7779
 5652SOL    HW228419   2.844   1.911   8.588  1.0412  0.5969  1.4357
 5653SOL     OW28420   2.934   2.029   2.734  0.0323  0.3708  0.3147
 5653SOL    HW128421   2.906   2.102   2.790 -1.1588 -0.3846  0.7132
 5653SOL    HW228422   3.027   2.051   2.728 -0.0098  0.0038 -1.6681
 5654SOL     OW28423   3.317   4.231   9.275 -0.2740 -0.4814  0.0020
 5654SOL    HW128424   3.261   4.159   9.305  0.6379 -1.3230 -0.2972
 5654SOL    HW228425   3.393   4.210   9.330 -0.3848  2.2668  1.1938
 5655SOL     OW28426   3.377   2.902   1.994 -0.3886 -0.7803  0.0175
 5655SOL    HW128427   3.347   2.980   2.040 -1.1452 -1.0872  0.0317
 5655SOL    HW228428   3.459   2.874   2.035  0.3834  1.3823 -0.0131
 5656SOL     OW28429   4.144   0.818   1.608  0.2853 -0.7871 -0.3589
 5656SOL    HW128430   4.238   0.805   1.596  0.5376  1.6985 -0.9269
 5656SOL    HW228431   4.118   0.859   1.525  0.8662  1.2432  0.4632
 5657SOL     OW28432   4.542   3.633   8.826  0.0344 -0.1072  0.1198
 5657SOL    HW128433   4.577   3.710   8.870 -2.2189  2.2042 -2.0788
 5657SOL    HW228434   4.547   3.568   8.897  1.7632 -1.3809 -1.1735
 5658SOL     OW28435   2.023   2.370   3.739 -0.4896  0.6678 -0.3706
 5658SOL    HW128436   1.929   2.383   3.745 -0.5051  0.0659  0.7821
 5658SOL    HW228437   2.054   2.457   3.714 -1.2411  0.4437 -2.1352
 5659SOL     OW28438   3.438   3.433   0.519 -0.1055 -0.3182 -0.0528
 5659SOL    HW128439   3.429   3.455   0.611  0.3632 -1.5212  0.2808
 5659SOL    HW228440   3.508   3.487   0.481  0.6303 -1.7036 -0.6844
 5660SOL     OW28441   0.772   0.022   4.263  0.1945  0.4138 -0.2077
 5660SOL    HW128442   0.737   4.671   4.310 -0.3232  1.1756  0.6348
 5660SOL    HW228443   0.865   0.014   4.283  0.1945 -0.4363 -0.5329
 5661SOL     OW28444   4.290   0.353   0.369  0.4204 -0.0833  0.8221
 5661SOL    HW128445   4.356   0.308   0.422  0.8840 -0.8450 -0.3939
 5661SOL    HW228446   4.214   0.317   0.417  0.2327  0.0795  0.6477
 5662SOL     OW28447   4.209   3.828   6.438  0.2010  0.0288 -0.2090
 5662SOL    HW128448   4.184   3.893   6.504  1.5313 -0.0103  0.3408
 5662SOL    HW228449   4.127   3.813   6.392 -0.2178 -0.6484  0.7464
 5663SOL     OW28450   3.085   1.187  12.520  0.6445 -0.5135  0.4106
 5663SOL    HW128451   3.044   1.217  12.600  1.4795  1.4417  0.0905
 5663SOL    HW228452   3.018   1.128  12.485 -1.6236  1.9058  0.7672
 5664SOL     OW28453   4.580   0.521   4.224 -1.1140 -0.0304  0.1794
 5664SOL    HW128454   4.576   0.458   4.151 -0.9208 -0.1246  0.2493
 5664SOL    HW228455   4.506   0.575   4.197  0.6011  0.9668 -2.5494
 5665SOL     OW28456   2.018   4.337  16.801 -0.1697  0.0987 -0.2714
 5665SOL    HW128457   1.961   4.414  16.808  1.0650  0.8626  1.3703
 5665SOL    HW228458   2.054   4.357  16.715 -2.8685 -2.7113 -2.0443
 5666SOL     OW28459   2.189   3.972   6.231  0.0786 -0.4591  0.2063
 5666SOL    HW128460   2.184   4.007   6.142  0.6452  1.0759  0.7871
 5666SOL    HW228461   2.215   3.882   6.210 -0.2198  0.1739 -2.8403
 5667SOL     OW28462   0.052   0.649   1.353  0.2948 -0.6741  0.1489
 5667SOL    HW128463   0.074   0.597   1.430  1.6292 -1.1560 -0.5767
 5667SOL    HW228464   0.025   0.591   1.283  0.9724 -0.6162 -0.1545
 5668SOL     OW28465   4.393   0.506   4.480  0.3271 -0.4257  0.0868
 5668SOL    HW128466   4.354   0.464   4.557 -1.0248  1.0220  0.2027
 5668SOL    HW228467   4.481   0.531   4.508 -0.8839  4.4880 -0.4654
 5669SOL     OW28468   0.688   3.851  12.060 -0.3220  0.5902 -0.4064
 5669SOL    HW128469   0.711   3.822  12.148 -1.3453 -1.1367 -0.7099
 5669SOL    HW228470   0.623   3.784  12.038  1.7305 -1.5337 -0.0654
 5670SOL     OW28471   1.618   3.490  13.082 -0.1150  0.3731 -0.1041
 5670SOL    HW128472   1.526   3.518  13.076  0.3832  2.7993  3.4848
 5670SOL    HW228473   1.658   3.553  13.022 -0.9293 -0.8517 -1.9503
 5671SOL     OW28474   3.950   4.272   6.920 -0.2000 -0.0180 -0.6167
 5671SOL    HW128475   3.999   4.190   6.927  2.0118  1.3695  0.1706
 5671SOL    HW228476   3.894   4.248   6.847 -3.4515  0.3428  1.7512
 5672SOL     OW28477   2.017   3.451   5.536  0.1578  0.0012  0.1868
 5672SOL    HW128478   2.110   3.472   5.529  0.2502 -1.7630 -4.3833
 5672SOL    HW228479   2.003   3.410   5.450 -5.3199 -0.9637  1.5401
 5673SOL     OW28480   3.999   3.343   3.097  0.3107  0.4725 -0.1857
 5673SOL    HW128481   3.960   3.351   3.184  1.2336  1.8076  0.0998
 5673SOL    HW228482   3.928   3.287   3.067 -0.4409  1.0613  0.4808
 5674SOL     OW28483   3.053   1.755   2.307  0.9616 -0.4145 -0.3093
 5674SOL    HW128484   3.136   1.803   2.310  0.8231 -0.1855 -0.1431
 5674SOL    HW228485   3.000   1.834   2.308 -0.9119 -1.6902  1.6335
 5675SOL     OW28486   0.653   0.693   1.408  0.6411  0.1361  0.7637
 5675SOL    HW128487   0.702   0.662   1.332  0.4334  0.4341  0.5108
 5675SOL    HW228488   0.649   0.610   1.456 -3.3198  0.7173  1.3870
 5676SOL     OW28489   3.626   2.254  17.495  0.7966 -0.1751  0.1570
 5676SOL    HW128490   3.693   2.224  17.557  1.0540 -1.8624 -0.9541
 5676SOL    HW228491   3.684   2.268  17.420 -1.0596 -2.5285 -1.6921
 5677SOL     OW28492   0.665   3.636   0.763  0.6571 -0.0478  0.4656
 5677SOL    HW128493   0.600   3.626   0.832  1.9231 -0.1203  1.6470
 5677SOL    HW228494   0.610   3.668   0.691  0.7393  1.6849  1.1796
 5678SOL     OW28495   3.478   1.175  13.523 -0.3792 -0.6236 -0.0455
 5678SOL    HW128496   3.497   1.263  13.554  0.2104 -0.1864 -1.6303
 5678SOL    HW228497   3.566   1.138  13.530 -0.0867 -0.1751 -1.2749
 5679SOL     OW28498   0.340   1.121  14.941 -0.0129  0.6642 -0.1666
 5679SOL    HW128499   0.324   1.179  14.866  1.3210  1.5614  0.2411
 5679SOL    HW228500   0.250   1.102  14.967  1.3457 -1.2157  3.0898
 5680SOL     OW28501   3.985   1.438   8.942  0.0039 -0.4275 -0.3711
 5680SOL    HW128502   4.070   1.448   8.985  0.5286 -1.3922 -1.1924
 5680SOL    HW228503   4.019   1.440   8.853 -0.2909  0.5285 -0.4581
 5681SOL     OW28504   4.377   3.291   7.742 -0.0132  0.0580  0.2840
 5681SOL    HW128505   4.406   3.216   7.794 -0.3931 -1.6883 -1.9994
 5681SOL    HW228506   4.450   3.314   7.685  0.9322 -0.4164  1.2961
 5682SOL     OW28507   1.384   0.576   7.073  0.0515  0.0360  0.4043
 5682SOL    HW128508   1.310   0.597   7.131 -1.9542 -2.1422 -1.3664
 5682SOL    HW228509   1.340   0.562   6.990  0.8185  0.6240 -0.1071
 5683SOL     OW28510   4.691   0.167  11.191 -0.2836 -0.5224  0.2935
 5683SOL    HW128511   4.681   0.262  11.194  1.1068 -0.2762 -3.5840
 5683SOL    HW228512   0.022   0.149  11.116  2.6583 -0.0649  2.4260
 5684SOL     OW28513   2.025   3.911   2.240 -0.4806  0.0880  0.1301
 5684SOL    HW128514   2.057   3.851   2.308 -0.7398  0.9357  0.9921
 5684SOL    HW228515   2.000   3.850   2.170 -0.1129 -1.4577  1.3495
 5685SOL     OW28516   1.304   0.273   6.106  0.1284  0.2125 -0.1284
 5685SOL    HW128517   1.228   0.327   6.126 -0.8284 -1.8490  1.7156
 5685SOL    HW228518   1.374   0.331   6.137  1.7956 -1.6863 -0.3579
 5686SOL     OW28519   0.310   1.269   0.536  0.7023  0.1818 -0.0608
 5686SOL    HW128520   0.288   1.287   0.444  0.5023  0.8107  0.1048
 5686SOL    HW228521   0.250   1.330   0.580 -0.5270 -0.8988 -0.2274
 5687SOL     OW28522   1.056   0.102   4.609  0.0935  0.4586  0.7545
 5687SOL    HW128523   1.054   0.056   4.525 -0.7039  0.0230  1.0050
 5687SOL    HW228524   1.016   0.185   4.581  1.3255  0.7540 -0.1244
 5688SOL     OW28525   3.602   2.138   6.340  0.2838  0.0008  0.0086
 5688SOL    HW128526   3.552   2.161   6.261  0.0986 -2.4030 -0.5761
 5688SOL    HW228527   3.546   2.064   6.365 -0.1741  0.2397 -0.3070
 5689SOL     OW28528   4.108   2.188   1.109 -0.4683  0.3522 -0.2317
 5689SOL    HW128529   4.084   2.217   1.021 -0.5060 -1.2209 -0.7293
 5689SOL    HW228530   4.154   2.266   1.139  0.1854  0.0190 -0.3828
 5690SOL     OW28531   2.298   4.645  11.148 -0.3416  0.0906 -0.7093
 5690SOL    HW128532   2.257   4.648  11.234  2.2550  0.1884  0.5307
 5690SOL    HW228533   2.249   4.703  11.089 -2.3880 -1.1377 -0.2146
 5691SOL     OW28534   3.329   3.510  13.145  0.6438 -0.0208 -0.2115
 5691SOL    HW128535   3.313   3.530  13.237 -0.2487  1.7839 -0.7548
 5691SOL    HW228536   3.349   3.417  13.155  1.3027  0.2100  0.5504
 5692SOL     OW28537   3.396   2.503  11.368 -0.0902 -0.2229 -0.6721
 5692SOL    HW128538   3.319   2.510  11.313 -2.0646  0.2934  2.1743
 5692SOL    HW228539   3.386   2.582  11.422 -0.9073 -1.9697  1.7091
 5693SOL     OW28540   4.051   2.708   0.761  0.5791 -0.4431  0.4245
 5693SOL    HW128541   4.074   2.799   0.746 -1.5349 -0.0118 -0.0994
 5693SOL    HW228542   3.957   2.710   0.779  0.2369 -4.0187 -0.9036
 5694SOL     OW28543   2.091   3.476   9.880  0.0264 -0.2824  0.4268
 5694SOL    HW128544   2.071   3.390   9.843  1.0331 -1.5723  2.8566
 5694SOL    HW228545   2.165   3.450   9.935  1.0763  0.6059 -0.5923
 5695SOL     OW28546   0.594   0.349   0.952 -0.8470 -0.1921  0.1296
 5695SOL    HW128547   0.570   0.333   0.860  2.3223  0.6998 -0.8538
 5695SOL    HW228548   0.689   0.359   0.955 -0.9408  1.4031 -2.0533
 5696SOL     OW28549   4.347   2.495   1.484  0.0164  0.1953 -0.1270
 5696SOL    HW128550   4.274   2.528   1.431  1.0871 -0.0859 -1.7702
 5696SOL    HW228551   4.383   2.579   1.514 -2.4796  0.8133  1.1506
 5697SOL     OW28552   3.069   1.289   6.606  0.3967 -0.2812 -0.4387
 5697SOL    HW128553   3.002   1.272   6.539 -2.3573  0.9652  1.9849
 5697SOL    HW228554   3.039   1.371   6.645  0.7888 -0.7269  0.7859
 5698SOL     OW28555   2.473   0.279   6.088 -0.1550  0.0047 -0.7171
 5698SOL    HW128556   2.415   0.248   6.018 -1.6991  0.6694  0.2650
 5698SOL    HW228557   2.562   0.266   6.056 -0.2202  1.6765 -1.5647
 5699SOL     OW28558   1.507   0.192  16.475  0.0443 -0.3516 -0.1942
 5699SOL    HW128559   1.462   0.143  16.543  1.2845 -0.1544  0.7612
 5699SOL    HW228560   1.589   0.143  16.462 -0.6078 -1.1420 -1.3015
 5700SOL     OW28561   3.860   3.802   7.903  0.2443  0.4788 -0.4861
 5700SOL    HW128562   3.826   3.724   7.860  3.4912 -1.2005 -0.0082
 5700SOL    HW228563   3.891   3.762   7.985 -0.4507 -2.2481 -1.5572
 5701SOL     OW28564   1.636   3.441   7.724 -0.3952  0.0224 -0.0490
 5701SOL    HW128565   1.645   3.384   7.800  2.0520 -0.1731 -0.5021
 5701SOL    HW228566   1.722   3.434   7.682  0.8158  1.0554  2.2614
 5702SOL     OW28567   3.511   1.707   0.368  0.0292  0.0530  0.2332
 5702SOL    HW128568   3.519   1.613   0.351  0.0227  0.2130 -0.6457
 5702SOL    HW228569   3.604   1.727   0.377  0.2864 -2.4972  3.4145
 5703SOL     OW28570   2.241   4.095   2.237 -0.3019  0.1262  0.6518
 5703SOL    HW128571   2.214   4.145   2.160  0.7342  0.5213  0.5372
 5703SOL    HW228572   2.189   4.017   2.216  0.7111 -0.2312 -0.5373
 5704SOL     OW28573   0.106   2.543   7.330  0.0057  1.0124  0.2750
 5704SOL    HW128574   0.118   2.458   7.287 -2.0429  0.0003  1.6746
 5704SOL    HW228575   0.160   2.601   7.277  2.7238  0.7232  2.6859
 5705SOL     OW28576   1.386   0.572   5.790 -0.4273  0.1052  0.0844
 5705SOL    HW128577   1.407   0.628   5.865  0.7807  0.9179 -0.8611
 5705SOL    HW228578   1.294   0.556   5.811 -0.1916 -0.4820  0.6926
 5706SOL     OW28579   0.153   3.396   7.272  0.0713  0.3310  0.0349
 5706SOL    HW128580   0.161   3.453   7.348 -1.0241 -0.1543  0.5153
 5706SOL    HW228581   0.234   3.415   7.224  0.2149  0.7925  0.4612
 5707SOL     OW28582   3.910   2.588   5.126  0.2292  0.0856  0.1169
 5707SOL    HW128583   3.819   2.595   5.098  0.7165  0.7932 -1.2715
 5707SOL    HW228584   3.946   2.668   5.088 -1.0215  1.1532  1.1683
 5708SOL     OW28585   2.999   1.850   1.014 -0.0908  0.1412  0.3119
 5708SOL    HW128586   2.991   1.910   0.940  0.9444  0.5105  0.5004
 5708SOL    HW228587   2.912   1.811   1.011  0.9723 -1.9891 -3.1360
 5709SOL     OW28588   2.368   3.362  11.663 -0.0320 -0.1685 -0.1613
 5709SOL    HW128589   2.374   3.445  11.710 -1.2996 -0.0628 -0.1914
 5709SOL    HW228590   2.311   3.310  11.720 -0.1816  2.0597  1.6986
 5710SOL     OW28591   2.901   1.710   4.536  0.3021  0.0324 -0.1388
 5710SOL    HW128592   2.820   1.755   4.514  0.8999  0.8332 -0.6839
 5710SOL    HW228593   2.883   1.691   4.628 -1.3046  0.5522 -0.3513
 5711SOL     OW28594   2.425   1.419   8.020  0.3066 -0.1191 -0.1794
 5711SOL    HW128595   2.354   1.421   7.957 -1.2882  0.2018  1.6320
 5711SOL    HW228596   2.465   1.333   8.009  0.6443  0.3151 -2.4215
 5712SOL     OW28597   3.761   3.894   8.323 -0.4659  0.4850  0.4012
 5712SOL    HW128598   3.735   3.902   8.415 -0.9627 -0.8336  0.3807
 5712SOL    HW228599   3.854   3.876   8.334 -0.1579  1.0087 -1.4327
 5713SOL     OW28600   3.757   1.929   5.091  0.1879  0.2121 -0.0961
 5713SOL    HW128601   3.680   1.961   5.044 -0.2744 -2.5826 -1.2428
 5713SOL    HW228602   3.820   1.974   5.035 -0.2807  0.9969  0.0134
 5714SOL     OW28603   3.143   0.818  17.219  0.4789  0.2293 -0.1995
 5714SOL    HW128604   3.149   0.744  17.159 -1.7032  1.0468 -1.3774
 5714SOL    HW228605   3.111   0.889  17.164  1.8200  0.0032 -1.2849
 5715SOL     OW28606   4.211   1.755   9.129 -0.2983 -0.1970 -0.5287
 5715SOL    HW128607   4.283   1.813   9.104 -0.3869  0.4662  0.7973
 5715SOL    HW228608   4.144   1.778   9.064 -0.9162  0.3450  0.3083
 5716SOL     OW28609   0.870   1.507   4.648 -0.3348 -0.1531  0.2028
 5716SOL    HW128610   0.901   1.487   4.737  2.6602  3.3591 -0.0445
 5716SOL    HW228611   0.831   1.594   4.646  0.5222  0.1883 -2.2128
 5717SOL     OW28612   3.065   4.723   6.443  0.6182  0.3161 -0.3536
 5717SOL    HW128613   3.081   4.667   6.519 -1.7532  1.8887  1.2728
 5717SOL    HW228614   3.153   0.015   6.410  0.1931  0.3535 -1.4669
 5718SOL     OW28615   2.519   4.557   9.797  0.3771  0.3119 -0.4495
 5718SOL    HW128616   2.585   4.489   9.807  1.5637  1.4560 -0.3849
 5718SOL    HW228617   2.584   4.627   9.789  2.0802 -1.0752  1.5609
 5719SOL     OW28618   1.140   1.455   5.610  0.1860 -0.0909 -0.0820
 5719SOL    HW128619   1.149   1.508   5.689 -0.8170  1.6072 -1.0816
 5719SOL    HW228620   1.091   1.512   5.550  0.7982 -1.8190 -2.2472
 5720SOL     OW28621   3.206   1.635   0.546  0.2918  0.4092  0.1995
 5720SOL    HW128622   3.141   1.653   0.614  1.0791  1.2474  0.7194
 5720SOL    HW228623   3.145   1.647   0.473  2.1266  0.8768 -1.2749
 5721SOL     OW28624   1.227   3.109  14.143  0.2715  0.0038 -0.5333
 5721SOL    HW128625   1.194   3.048  14.077 -0.5301 -1.7798  1.5079
 5721SOL    HW228626   1.300   3.060  14.180  0.0411 -0.6124 -0.8922
 5722SOL     OW28627   4.090   0.516   3.610 -0.4430 -0.0458  0.5259
 5722SOL    HW128628   4.089   0.470   3.693 -1.8320  0.5757  0.8538
 5722SOL    HW228629   4.067   0.601   3.647 -2.0847 -0.6199  0.8333
 5723SOL     OW28630   1.363   1.172   6.584  0.3717  0.3809 -0.1948
 5723SOL    HW128631   1.379   1.264   6.607 -0.5500  0.9073 -1.6439
 5723SOL    HW228632   1.270   1.167   6.605  0.2881 -0.0298 -0.6722
 5724SOL     OW28633   1.366   3.478  12.483  0.2348  0.0671 -0.3677
 5724SOL    HW128634   1.367   3.562  12.529 -0.2658  0.5322 -1.2034
 5724SOL    HW228635   1.446   3.495  12.434  0.9398 -0.7110  0.5065
 5725SOL     OW28636   2.197   4.102   2.513 -0.1955  0.3070 -0.0952
 5725SOL    HW128637   2.272   4.148   2.551 -0.5977  1.0302 -0.1953
 5725SOL    HW228638   2.215   4.094   2.419 -2.3652  1.2311 -0.5775
 5726SOL     OW28639   1.038   1.162  11.789  0.3930  1.0273  0.3216
 5726SOL    HW128640   1.032   1.206  11.874 -0.1335  3.1225 -0.7851
 5726SOL    HW228641   1.134   1.165  11.789  0.4695 -2.0530 -0.4611
 5727SOL     OW28642   4.652   2.023  17.106 -0.2858  0.6235 -0.2397
 5727SOL    HW128643   4.581   1.989  17.051  1.1188  0.4220 -1.9369
 5727SOL    HW228644   4.620   2.100  17.153 -1.9090  0.2973 -0.8204
 5728SOL     OW28645   1.770   0.379  11.904  0.0275 -0.0636  0.4442
 5728SOL    HW128646   1.822   0.324  11.846  0.6222  1.2797 -0.3151
 5728SOL    HW228647   1.824   0.378  11.983  3.0389  0.6096 -1.5898
 5729SOL     OW28648   3.899   4.474  16.190  0.8800 -0.2040  0.2208
 5729SOL    HW128649   3.816   4.429  16.169  0.7720  0.0479  0.1145
 5729SOL    HW228650   3.868   4.562  16.211 -0.6087 -0.5859 -0.3116
 5730SOL     OW28651   3.057   1.679   5.440  0.1339 -0.3574 -0.1973
 5730SOL    HW128652   3.150   1.660   5.442  0.5737  1.8256 -0.2530
 5730SOL    HW228653   3.045   1.673   5.345  1.4981  1.0291 -0.4582
 5731SOL     OW28654   4.439   3.840   9.696  0.0142 -0.0054  0.0777
 5731SOL    HW128655   4.390   3.867   9.774  2.3999  1.3896  1.0739
 5731SOL    HW228656   4.532   3.837   9.718 -0.2699 -0.9644  1.2176
 5732SOL     OW28657   1.013   2.631   8.189 -0.1769 -0.9874  0.3412
 5732SOL    HW128658   1.077   2.560   8.193  1.2640  0.3028  0.7063
 5732SOL    HW228659   1.065   2.711   8.201  2.8267 -2.8782 -0.0226
 5733SOL     OW28660   2.229   0.270  16.356  0.1032  0.4866 -0.2276
 5733SOL    HW128661   2.242   0.206  16.285 -0.0425  0.9283 -0.6526
 5733SOL    HW228662   2.135   0.262  16.372  0.2009  2.4542  1.1614
 5734SOL     OW28663   3.200   4.032   2.456 -0.7373  0.2963 -0.3392
 5734SOL    HW128664   3.249   3.952   2.439 -0.9259  0.2083 -0.4685
 5734SOL    HW228665   3.270   4.085   2.418  0.8144 -0.4562  1.5071
 5735SOL     OW28666   3.574   0.960  13.799 -0.0925  0.4450  0.0549
 5735SOL    HW128667   3.610   1.005  13.723  1.9117  0.8091  1.2274
 5735SOL    HW228668   3.634   0.999  13.862  0.2806 -0.1963  0.0940
 5736SOL     OW28669   4.064   0.764   3.752  0.0299  0.8044 -0.4777
 5736SOL    HW128670   3.999   0.828   3.724  0.0412  0.8871 -0.3123
 5736SOL    HW228671   4.143   0.807   3.720  1.9566 -1.3244  1.4886
 5737SOL     OW28672   1.299   0.209   1.774  0.3929 -0.4574 -0.4916
 5737SOL    HW128673   1.228   0.269   1.798 -0.1575 -2.0394  1.8490
 5737SOL    HW228674   1.305   0.160   1.856  2.3598 -2.2253 -1.6974
 5738SOL     OW28675   2.372   4.687  13.198 -0.3127 -0.1511 -0.0023
 5738SOL    HW128676   2.349   4.635  13.121 -2.2539  0.1697  0.3482
 5738SOL    HW228677   2.451   0.009  13.172 -1.7964  1.3809 -1.6802
 5739SOL     OW28678   2.505   2.425   4.997 -0.2663 -0.2184 -0.5970
 5739SOL    HW128679   2.520   2.516   4.969  0.3679 -0.1282  0.0591
 5739SOL    HW228680   2.596   2.399   4.987 -0.5067 -0.5586 -1.9566
 5740SOL     OW28681   1.461   3.164  11.090  0.5764  0.0091 -0.1385
 5740SOL    HW128682   1.416   3.080  11.085  3.3146 -1.5058  0.6924
 5740SOL    HW228683   1.433   3.197  11.005  0.5083  0.6383  0.1273
 5741SOL     OW28684   0.371   2.839   5.994 -1.0097  0.0635  0.0925
 5741SOL    HW128685   0.360   2.815   5.902 -4.9822  2.3132 -0.0428
 5741SOL    HW228686   0.280   2.864   6.012 -0.7531  0.6804  0.5435
 5742SOL     OW28687   3.858   2.186   3.988 -0.7916 -0.3560  0.4673
 5742SOL    HW128688   3.910   2.122   4.037  0.6056  0.3802 -0.0683
 5742SOL    HW228689   3.911   2.265   3.994  1.1755 -1.5190 -1.3388
 5743SOL     OW28690   3.224   4.444   6.889  0.0980 -0.2803 -0.6620
 5743SOL    HW128691   3.171   4.397   6.953 -0.6531  3.9388  1.7543
 5743SOL    HW228692   3.253   4.516   6.945 -4.7774  1.5358 -0.4783
 5744SOL     OW28693   1.378   0.955   1.869 -0.8457  0.2729  0.2991
 5744SOL    HW128694   1.284   0.938   1.858 -0.4986  0.0915 -2.3402
 5744SOL    HW228695   1.371   1.050   1.857 -1.4791  0.1440 -0.3735
 5745SOL     OW28696   3.088   4.471   5.964 -0.3659 -0.2210  0.0978
 5745SOL    HW128697   3.169   4.455   6.012 -0.4344  0.1913  0.3520
 5745SOL    HW228698   3.130   4.505   5.884  0.6247 -1.2966  0.1627
 5746SOL     OW28699   4.597   3.635   7.065  0.1703  0.4289 -0.5215
 5746SOL    HW128700   4.538   3.692   7.114 -0.1033  0.1847 -0.5642
 5746SOL    HW228701   4.578   3.547   7.098  1.6227  0.5699  0.7133
 5747SOL     OW28702   0.239   1.994   2.358  0.4394  0.4704 -0.0683
 5747SOL    HW128703   0.248   2.087   2.338  1.7880  0.2371 -0.5762
 5747SOL    HW228704   0.331   1.974   2.377  0.4134 -1.3082 -1.8891
 5748SOL     OW28705   0.179   0.160  11.464  0.1010  0.2444 -0.3903
 5748SOL    HW128706   0.183   0.064  11.468  2.4763  0.2859 -1.6829
 5748SOL    HW228707   0.089   0.183  11.488  0.2118 -0.3280  0.5883
 5749SOL     OW28708   0.141   3.775   4.822  0.7430 -0.4256  0.0884
 5749SOL    HW128709   0.093   3.746   4.899 -0.8431 -0.1154 -0.7849
 5749SOL    HW228710   0.081   3.753   4.751  1.7704  1.1471 -1.2781
 5750SOL     OW28711   0.263   1.157   3.497 -0.1315 -0.2329  0.4241
 5750SOL    HW128712   0.226   1.178   3.583  1.4506 -0.4431  1.1481
 5750SOL    HW228713   0.182   1.115   3.466  0.0710  0.5230 -1.0887
 5751SOL     OW28714   1.126   0.195  11.865 -0.1044  0.2480 -0.5321
 5751SOL    HW128715   1.148   0.284  11.891 -0.5610 -0.1607  1.2545
 5751SOL    HW228716   1.073   0.169  11.940 -0.1054  2.0649  0.1065
 5752SOL     OW28717   0.632   4.538   2.801 -0.6908  0.0634 -0.1913
 5752SOL    HW128718   0.606   4.460   2.752 -0.7689 -0.2449  0.3384
 5752SOL    HW228719   0.601   4.612   2.749 -0.2645  0.1863 -0.2644
 5753SOL     OW28720   4.335   2.922   4.096 -0.0052  0.5769  0.3269
 5753SOL    HW128721   4.378   2.955   4.016 -0.2512  2.2310  0.8808
 5753SOL    HW228722   4.408   2.876   4.136  0.1426  1.1134  0.6733
 5754SOL     OW28723   0.270   4.601   8.564  0.0405  0.3501 -0.7282
 5754SOL    HW128724   0.179   4.627   8.577 -0.5762 -2.0012 -0.2154
 5754SOL    HW228725   0.288   4.578   8.656 -0.2910 -0.7894 -0.9381
 5755SOL     OW28726   3.258   1.850  17.234  0.3266 -0.3783 -0.8879
 5755SOL    HW128727   3.241   1.766  17.192 -1.1554 -0.2145 -0.6180
 5755SOL    HW228728   3.255   1.911  17.161  1.2548  1.5833  0.7129
 5756SOL     OW28729   0.579   1.690   6.984  0.1091  0.0283 -0.1674
 5756SOL    HW128730   0.584   1.596   7.002  0.2806  0.1008  0.1604
 5756SOL    HW228731   0.517   1.723   7.049  1.9989 -1.2299  2.2739
 5757SOL     OW28732   0.631   4.405  17.053  0.3089 -0.1102  0.3766
 5757SOL    HW128733   0.576   4.346  17.104 -0.0763  0.2671  0.4009
 5757SOL    HW228734   0.641   4.480  17.112 -3.5752  1.2662 -0.6880
 5758SOL     OW28735   1.529   3.428   5.521 -1.0252  0.0321 -0.0158
 5758SOL    HW128736   1.620   3.400   5.518 -0.8649  0.7325 -1.7372
 5758SOL    HW228737   1.537   3.523   5.523  0.2725 -0.1030  1.2360
 5759SOL     OW28738   1.704   2.483   1.667  0.0681  0.3586  0.7000
 5759SOL    HW128739   1.629   2.542   1.658  1.2579  1.2988 -3.2113
 5759SOL    HW228740   1.690   2.462   1.759 -0.1898  0.5694  0.7122
 5760SOL     OW28741   4.194   2.120   5.062 -0.3895 -0.5649  0.9175
 5760SOL    HW128742   4.152   2.202   5.038  2.3270  0.0504 -1.8128
 5760SOL    HW228743   4.231   2.142   5.147  4.8642 -2.3343 -0.8443
 5761SOL     OW28744   4.326   2.451   2.880  0.8072 -0.4070  0.3858
 5761SOL    HW128745   4.258   2.477   2.818 -0.4916 -0.9579  1.5905
 5761SOL    HW228746   4.372   2.534   2.896 -0.5716  0.5364 -0.5151
 5762SOL     OW28747   2.579   2.896   2.422  0.0010 -0.2831  0.3165
 5762SOL    HW128748   2.530   2.891   2.504  0.0915  0.7073  0.4285
 5762SOL    HW228749   2.609   2.987   2.430  0.7373 -0.3578 -1.5200
 5763SOL     OW28750   1.773   0.971   2.506  0.4702  0.4487  0.2079
 5763SOL    HW128751   1.773   0.981   2.411  2.3901  0.7921  0.2431
 5763SOL    HW228752   1.782   0.876   2.516 -3.4378  0.0465 -0.2416
 5764SOL     OW28753   1.812   0.909   4.442 -0.2692 -0.1158 -0.1230
 5764SOL    HW128754   1.888   0.951   4.401 -2.1077  1.4404 -1.9021
 5764SOL    HW228755   1.744   0.953   4.392 -1.7461 -0.8898  1.1924
 5765SOL     OW28756   2.337   1.441   4.309 -0.2657 -0.0189  0.2114
 5765SOL    HW128757   2.415   1.406   4.267 -0.3544  1.1735 -0.9563
 5765SOL    HW228758   2.336   1.530   4.274 -1.1706 -1.0420 -2.3419
 5766SOL     OW28759   3.247   4.005  11.553 -0.3053  0.9985 -0.6358
 5766SOL    HW128760   3.175   4.000  11.491  0.6046 -3.2229 -1.3107
 5766SOL    HW228761   3.308   3.951  11.503  0.1621  1.8611 -1.0115
 5767SOL     OW28762   1.443   1.172  17.552 -0.5574  0.3071 -0.2904
 5767SOL    HW128763   1.437   1.207  17.463 -1.6990  0.3977 -0.1724
 5767SOL    HW228764   1.525   1.126  17.534 -0.0902  1.2061 -0.4702
 5768SOL     OW28765   3.143   0.673   6.935  0.0358 -0.3231 -0.0987
 5768SOL    HW128766   3.236   0.696   6.934 -0.0074 -0.1478 -0.0967
 5768SOL    HW228767   3.144   0.591   6.984 -0.6389 -0.0036  0.4625
 5769SOL     OW28768   0.337   1.411   5.129  0.0970  0.0098  0.1088
 5769SOL    HW128769   0.377   1.361   5.057 -0.4758  1.0170 -0.9067
 5769SOL    HW228770   0.382   1.374   5.205 -0.4925 -0.1974  0.3616
 5770SOL     OW28771   1.757   3.218   0.989 -0.5670 -0.6540 -0.3941
 5770SOL    HW128772   1.758   3.299   0.938 -0.9048  0.4805  1.3823
 5770SOL    HW228773   1.799   3.245   1.071 -0.4436 -0.0216 -0.6634
 5771SOL     OW28774   3.468   2.001   2.300  0.0450 -0.6597  0.2205
 5771SOL    HW128775   3.374   2.013   2.288 -0.1962 -0.2792  2.4181
 5771SOL    HW228776   3.506   2.077   2.256 -0.1107 -1.2547 -0.9356
 5772SOL     OW28777   1.729   2.505   3.111 -0.1872  0.1615 -0.6929
 5772SOL    HW128778   1.766   2.483   3.026  2.8200  0.8104  0.4468
 5772SOL    HW228779   1.723   2.601   3.105  1.0707  0.2746 -0.0066
 5773SOL     OW28780   0.323   2.538  10.915 -0.0181 -0.1271 -0.4321
 5773SOL    HW128781   0.302   2.525  11.008 -2.5805 -0.4472 -1.0598
 5773SOL    HW228782   0.282   2.622  10.896 -0.9543 -0.4168  0.2662
 5774SOL     OW28783   2.960   1.260   3.261  0.3188 -0.2372  0.8482
 5774SOL    HW128784   2.921   1.263   3.348 -1.5079  2.1082 -0.0376
 5774SOL    HW228785   2.960   1.354   3.245 -0.1617 -0.0933  1.6732
 5775SOL     OW28786   2.554   1.842   8.907  0.0901 -0.3967 -0.1402
 5775SOL    HW128787   2.471   1.835   8.953  0.3639  2.0320  0.7045
 5775SOL    HW228788   2.617   1.802   8.967  0.7368  0.0936 -0.4826
 5776SOL     OW28789   3.591   2.207   3.995  0.0358 -0.3955 -0.4952
 5776SOL    HW128790   3.685   2.186   3.998  0.3188  0.7392 -1.8102
 5776SOL    HW228791   3.577   2.259   3.917  2.6133 -0.1671 -0.8051
 5777SOL     OW28792   2.611   4.346   9.201 -0.3983 -0.1211  0.3238
 5777SOL    HW128793   2.626   4.263   9.248  0.4473 -0.7082 -0.9759
 5777SOL    HW228794   2.535   4.331   9.145 -0.9289  1.8548  0.5193
 5778SOL     OW28795   3.971   0.398  13.144 -0.1118 -0.2219  0.0213
 5778SOL    HW128796   3.994   0.455  13.218 -0.8859 -1.0631  0.8981
 5778SOL    HW228797   4.058   0.360  13.128 -0.4855  0.2132 -3.2013
 5779SOL     OW28798   1.394   2.565  12.638 -0.3641  0.1827 -0.1154
 5779SOL    HW128799   1.458   2.636  12.646  1.7013 -1.5464 -1.3104
 5779SOL    HW228800   1.432   2.502  12.699  0.8413 -0.5162 -1.5781
 5780SOL     OW28801   3.389   2.546   2.876  0.0639 -0.1054 -0.0048
 5780SOL    HW128802   3.455   2.482   2.903  1.2930  0.3431 -1.9716
 5780SOL    HW228803   3.370   2.579   2.964 -0.3424  0.1351 -0.1806
 5781SOL     OW28804   3.464   2.956   7.496 -0.0293  0.4856 -0.5635
 5781SOL    HW128805   3.512   2.998   7.425  1.2223 -2.5819 -1.5511
 5781SOL    HW228806   3.379   2.934   7.457  0.1615  0.1481 -0.7927
 5782SOL     OW28807   3.098   1.398  17.274 -0.0131  0.3392 -0.2455
 5782SOL    HW128808   3.147   1.454  17.214  0.4900  0.3743  0.1982
 5782SOL    HW228809   3.163   1.341  17.315 -0.4969 -1.0394 -1.3798
 5783SOL     OW28810   0.556   2.898   3.486  0.0286  0.1868  0.4123
 5783SOL    HW128811   0.576   2.902   3.580 -0.6776  2.4683  0.4738
 5783SOL    HW228812   0.647   2.901   3.456  0.3057  1.3059  1.3398
 5784SOL     OW28813   0.040   2.888   2.767  0.2997 -0.0126 -0.0239
 5784SOL    HW128814   0.027   2.793   2.759  2.5030 -0.3991  0.9131
 5784SOL    HW228815   0.054   2.910   2.675  2.9351  0.5023  0.5155
 5785SOL     OW28816   2.985   2.653  13.184 -0.7341 -0.1451 -0.3421
 5785SOL    HW128817   2.909   2.616  13.139 -2.1868  1.8151  0.4920
 5785SOL    HW228818   3.029   2.705  13.117  1.3793  0.4114  1.4942
 5786SOL     OW28819   0.373   0.870   5.578 -0.0972  0.3977 -0.2372
 5786SOL    HW128820   0.458   0.858   5.621  1.0793  2.6583 -1.9184
 5786SOL    HW228821   0.381   0.959   5.545  1.3945  0.2771 -0.1905
 5787SOL     OW28822   4.661   1.239   2.243 -0.4445 -0.2046 -0.1066
 5787SOL    HW128823   4.653   1.329   2.275 -0.6493  0.4876 -2.1361
 5787SOL    HW228824   4.659   1.264   2.151  0.6649  0.7451  0.1242
 5788SOL     OW28825   3.045   3.456  15.846 -0.3237 -0.1361 -0.1958
 5788SOL    HW128826   3.046   3.364  15.873  1.9544 -0.6588 -2.0588
 5788SOL    HW228827   2.951   3.477  15.845 -0.7080 -1.7937  0.0783
 5789SOL     OW28828   2.056   2.075   1.958 -0.5783 -0.5147  0.2366
 5789SOL    HW128829   1.968   2.084   1.921 -1.5100 -1.8544  2.1889
 5789SOL    HW228830   2.040   2.019   2.033  0.7941 -3.2611 -1.5462
 5790SOL     OW28831   3.208   3.744   2.197 -0.0771 -0.2328  0.2033
 5790SOL    HW128832   3.266   3.747   2.273  0.6434 -0.0805 -0.3405
 5790SOL    HW228833   3.127   3.720   2.241 -0.0997 -0.8607 -0.1777
 5791SOL     OW28834   3.253   0.876   0.593  0.3612 -0.4287  0.4026
 5791SOL    HW128835   3.275   0.950   0.536  0.5405 -0.4498  0.4446
 5791SOL    HW228836   3.293   0.887   0.679 -0.3138 -0.6787  0.7488
 5792SOL     OW28837   3.992   4.294   7.594  0.1993 -0.0306  0.6053
 5792SOL    HW128838   3.983   4.382   7.558 -0.2383 -0.4123 -0.2301
 5792SOL    HW228839   4.045   4.246   7.530 -0.1187  2.2412 -1.3743
 5793SOL     OW28840   1.964   1.785   3.219  0.4257 -0.1023  0.0135
 5793SOL    HW128841   2.035   1.842   3.249 -1.4634  2.5021 -0.4819
 5793SOL    HW228842   1.969   1.777   3.124 -1.3959  0.4584 -0.1219
 5794SOL     OW28843   0.174   3.192   5.838  0.5591 -0.2817  0.1030
 5794SOL    HW128844   0.141   3.278   5.863  2.9213  0.0822  1.9526
 5794SOL    HW228845   0.209   3.165   5.922 -0.6005  1.2277  1.0599
 5795SOL     OW28846   4.311   3.203   5.424 -0.1434  0.8209  0.0875
 5795SOL    HW128847   4.339   3.112   5.429  0.7915  1.0730 -0.5913
 5795SOL    HW228848   4.347   3.229   5.340 -0.7504 -1.2235 -0.8075
 5796SOL     OW28849   1.813   3.114   8.523  0.6743 -0.1403 -0.1676
 5796SOL    HW128850   1.903   3.084   8.536  1.7009  1.5004 -3.2618
 5796SOL    HW228851   1.805   3.138   8.615  3.0381  1.2360 -0.3388
 5797SOL     OW28852   4.640   1.897   6.835 -0.1216 -0.3677 -0.0445
 5797SOL    HW128853   0.007   1.890   6.862 -0.2410 -0.3782  0.3572
 5797SOL    HW228854   4.639   1.860   6.747 -0.4068  1.1709 -0.6850
 5798SOL     OW28855   0.742   4.002   3.750 -0.1394 -0.3922  0.8760
 5798SOL    HW128856   0.754   4.093   3.775 -2.3441  0.0907  0.2047
 5798SOL    HW228857   0.830   3.967   3.764  0.8113  1.9038  0.6255
 5799SOL     OW28858   4.208   4.024  12.675 -0.7652  0.4410 -0.0840
 5799SOL    HW128859   4.208   3.931  12.698 -0.2586  0.2120 -0.9943
 5799SOL    HW228860   4.149   4.061  12.741 -0.3239  2.0507 -0.5910
 5800SOL     OW28861   0.325   0.499   3.286  0.0931 -0.1433 -0.0116
 5800SOL    HW128862   0.253   0.560   3.275  0.0886 -0.3284 -0.9771
 5800SOL    HW228863   0.397   0.559   3.308  0.7193 -0.1212 -2.1285
 5801SOL     OW28864   1.121   4.609   5.687 -0.2701 -0.4762 -0.7703
 5801SOL    HW128865   1.163   4.678   5.635  0.2567  1.4696  2.1984
 5801SOL    HW228866   1.036   4.645   5.711  0.3154 -0.5443  1.3755
 5802SOL     OW28867   3.068   0.933   4.570  0.0929  0.2230 -0.5558
 5802SOL    HW128868   3.092   0.844   4.544 -0.2798 -0.1167  0.2603
 5802SOL    HW228869   3.033   0.910   4.656 -0.1059  0.5735 -0.5458
 5803SOL     OW28870   2.668   0.519  14.330  0.6041 -0.3467 -0.1829
 5803SOL    HW128871   2.754   0.544  14.363 -0.2107  0.2467  1.4737
 5803SOL    HW228872   2.641   0.460  14.400 -3.6259  2.1106  0.2724
 5804SOL     OW28873   3.252   3.329   1.943  0.1281 -0.6011 -0.3946
 5804SOL    HW128874   3.199   3.249   1.935  2.5934 -2.2426 -0.1168
 5804SOL    HW228875   3.263   3.333   2.038  0.0460  1.2426 -0.4751
 5805SOL     OW28876   3.274   0.687  16.696 -0.1382 -0.0490  0.0138
 5805SOL    HW128877   3.348   0.749  16.699 -0.7608  0.6845  0.1459
 5805SOL    HW228878   3.315   0.615  16.648  1.9745  0.5567  0.8962
 5806SOL     OW28879   3.227   0.261   9.952 -0.5655 -0.8984  0.0393
 5806SOL    HW128880   3.196   0.351   9.946 -0.8561 -0.9996  0.0458
 5806SOL    HW228881   3.311   0.267   9.907 -0.9187 -0.9622 -0.6285
 5807SOL     OW28882   2.775   4.318   3.246 -0.1107 -0.0192  0.1235
 5807SOL    HW128883   2.765   4.295   3.153  3.1139  2.7449 -0.9130
 5807SOL    HW228884   2.696   4.372   3.257 -1.3949 -1.9672  0.4049
 5808SOL     OW28885   0.312   3.091   2.462 -0.3495  0.1126  0.0917
 5808SOL    HW128886   0.356   3.159   2.513 -0.2799  0.4430 -0.4036
 5808SOL    HW228887   0.221   3.120   2.456 -0.2440  0.3456 -0.4160
 5809SOL     OW28888   3.513   0.124  13.939  0.1199  0.3370  0.6900
 5809SOL    HW128889   3.569   0.086  13.872 -0.8381 -0.3197  0.2692
 5809SOL    HW228890   3.428   0.120  13.894  0.0987  1.6979  0.5840
 5810SOL     OW28891   3.680   2.892   3.876  0.0456 -0.0347 -0.0445
 5810SOL    HW128892   3.752   2.857   3.823  1.4909 -1.3112  2.7508
 5810SOL    HW228893   3.677   2.985   3.855 -0.0614 -0.1502 -0.5435
 5811SOL     OW28894   2.389   0.107  11.850 -0.5897  0.8301  0.3300
 5811SOL    HW128895   2.451   0.114  11.778 -1.4790 -0.2989 -0.5158
 5811SOL    HW228896   2.406   0.021  11.888 -1.2403  1.3279  1.7835
 5812SOL     OW28897   2.392   4.378   9.371  0.3824 -0.2491  0.1107
 5812SOL    HW128898   2.482   4.392   9.342  0.9564  0.6362  2.3362
 5812SOL    HW228899   2.349   4.442   9.314 -0.8540 -1.9714 -0.8941
 5813SOL     OW28900   2.281   0.875  14.867  0.0294 -0.4106 -0.4162
 5813SOL    HW128901   2.235   0.879  14.783 -0.9859 -1.2688  0.1136
 5813SOL    HW228902   2.285   0.779  14.874 -1.0282 -0.6095 -2.6377
 5814SOL     OW28903   3.649   1.164  12.392  0.4303 -0.0831  0.4827
 5814SOL    HW128904   3.693   1.085  12.422 -0.0628 -0.4549  0.2302
 5814SOL    HW228905   3.655   1.158  12.297 -0.2143  1.9955  0.3218
 5815SOL     OW28906   2.698   4.184  10.657 -0.3355 -0.4428 -0.3681
 5815SOL    HW128907   2.781   4.139  10.672 -0.0312  0.6823  1.4201
 5815SOL    HW228908   2.742   4.261  10.622 -2.9695  1.2422 -0.0238
 5816SOL     OW28909   1.907   2.840   1.212 -0.1385  0.1764 -0.2591
 5816SOL    HW128910   1.935   2.899   1.281 -0.1019 -0.4627  0.2755
 5816SOL    HW228911   1.983   2.811   1.160  1.9970 -0.4298  3.2256
 5817SOL     OW28912   0.740   1.031   9.310 -0.3060 -0.4411 -0.0079
 5817SOL    HW128913   0.733   1.125   9.327 -1.6287 -0.2488 -1.5374
 5817SOL    HW228914   0.780   1.034   9.224  0.4511 -2.5628  0.2716
 5818SOL     OW28915   2.540   2.787   6.188  0.2715  0.0165  0.3282
 5818SOL    HW128916   2.547   2.876   6.222 -3.2346  0.1253  0.7358
 5818SOL    HW228917   2.470   2.752   6.244 -0.7068  1.0782 -0.2352
 5819SOL     OW28918   1.449   3.950   7.875 -0.2191 -0.2744 -0.1465
 5819SOL    HW128919   1.431   4.039   7.907 -0.9436 -1.1852  2.0089
 5819SOL    HW228920   1.543   3.938   7.884 -0.0167  0.4780 -1.3550
 5820SOL     OW28921   3.479   1.788  13.957 -0.3534 -0.1917 -0.6168
 5820SOL    HW128922   3.412   1.724  13.933 -1.1319  0.0674  0.8974
 5820SOL    HW228923   3.476   1.783  14.052  0.1367  0.6154 -0.5563
 5821SOL     OW28924   1.159   2.776  16.079 -0.2158 -0.2796  0.0214
 5821SOL    HW128925   1.104   2.738  16.010 -0.2291 -1.1160  0.4970
 5821SOL    HW228926   1.118   2.861  16.095  0.2228  0.0596 -0.6714
 5822SOL     OW28927   2.057   2.276  15.423 -0.3494  0.8536  0.0133
 5822SOL    HW128928   2.010   2.311  15.347  0.0892 -1.0448 -1.1493
 5822SOL    HW228929   2.095   2.352  15.467  0.3834 -0.1594  1.1340
 5823SOL     OW28930   0.769   3.247   8.026 -0.2755  0.3187 -0.6393
 5823SOL    HW128931   0.688   3.257   8.076 -0.5893  1.2869 -1.3466
 5823SOL    HW228932   0.811   3.170   8.063 -1.5607 -0.0998 -0.0546
 5824SOL     OW28933   1.551   2.568   5.090 -0.6345 -0.4336 -0.0868
 5824SOL    HW128934   1.489   2.552   5.161  1.0591 -2.7428  0.8510
 5824SOL    HW228935   1.521   2.651   5.051 -0.8419  0.3035  1.6404
 5825SOL     OW28936   4.206   1.923  14.816  0.4852 -0.1216 -0.2625
 5825SOL    HW128937   4.284   1.869  14.832  1.0773  1.1890  1.2634
 5825SOL    HW228938   4.180   1.946  14.905 -1.9853  0.7788 -1.2183
 5826SOL     OW28939   2.593   4.686   8.309 -0.2282 -0.4637 -0.4272
 5826SOL    HW128940   2.554   0.042   8.343 -0.3997 -0.5726 -0.3628
 5826SOL    HW228941   2.580   4.632   8.387 -2.0858  1.7076  0.7862
 5827SOL     OW28942   3.610   4.329   3.341  0.4065 -0.2038 -0.1001
 5827SOL    HW128943   3.653   4.289   3.416 -1.5607  0.4898  1.3847
 5827SOL    HW228944   3.686   4.366   3.296  0.1145 -0.0142 -0.4353
 5828SOL     OW28945   1.563   0.688   8.781 -0.6357 -0.3812 -0.0909
 5828SOL    HW128946   1.503   0.670   8.709 -2.2269  3.7982  0.2273
 5828SOL    HW228947   1.513   0.736   8.847  2.0616  0.7370  1.1098
 5829SOL     OW28948   4.349   4.627   3.818 -0.7539  0.0301  0.7501
 5829SOL    HW128949   4.316   4.698   3.872 -2.8535 -1.2060  1.0789
 5829SOL    HW228950   4.314   4.551   3.864  0.0681 -0.9040 -0.1768
 5830SOL     OW28951   0.873   0.118  16.072  0.1540 -0.1619  0.7516
 5830SOL    HW128952   0.783   0.129  16.043  0.5007  0.3742 -0.1108
 5830SOL    HW228953   0.904   0.208  16.064  0.9518 -0.4820  0.1674
 5831SOL     OW28954   4.198   3.888   9.919 -0.3383  0.0898 -0.1652
 5831SOL    HW128955   4.206   3.883  10.014 -1.4920  0.0251 -0.0761
 5831SOL    HW228956   4.116   3.845   9.895  0.0438 -0.1410 -1.0716
 5832SOL     OW28957   0.975   1.147   7.295 -0.2420  0.1237 -0.1536
 5832SOL    HW128958   0.995   1.105   7.378  0.8667  1.5153  0.2840
 5832SOL    HW228959   1.017   1.086   7.235  0.4547 -0.2228  0.6936
 5833SOL     OW28960   0.338   4.232   6.219  0.2547 -0.0954 -0.2856
 5833SOL    HW128961   0.302   4.220   6.131 -2.2599  0.6759  0.6299
 5833SOL    HW228962   0.418   4.181   6.208  0.4763  0.3210 -0.6105
 5834SOL     OW28963   3.788   1.933   7.927 -0.2257 -0.8326 -0.4066
 5834SOL    HW128964   3.693   1.937   7.915 -0.2882  0.9482  0.7186
 5834SOL    HW228965   3.800   2.026   7.941 -0.2982 -1.0215  0.8861
 5835SOL     OW28966   0.654   3.123   7.708  0.1400  0.0453  0.3591
 5835SOL    HW128967   0.683   3.038   7.675 -2.6935 -0.9686  0.4776
 5835SOL    HW228968   0.702   3.148   7.787 -0.5595 -0.2451  0.8785
 5836SOL     OW28969   4.174   1.146   5.742 -0.0875 -0.6169  0.3949
 5836SOL    HW128970   4.143   1.231   5.713 -1.2125 -0.5320  1.8244
 5836SOL    HW228971   4.181   1.163   5.836 -1.6750  2.1626 -0.0148
 5837SOL     OW28972   4.346   4.153  12.495 -0.0077 -0.2312 -0.6279
 5837SOL    HW128973   4.297   4.101  12.558  0.5576  1.6020  1.3251
 5837SOL    HW228974   4.434   4.153  12.534 -0.1458  0.2440 -0.3157
 5838SOL     OW28975   1.903   0.629   1.822 -0.5992 -0.7246 -1.2248
 5838SOL    HW128976   1.956   0.552   1.843 -2.1368 -1.1062  1.2083
 5838SOL    HW228977   1.977   0.685   1.799  1.4630 -3.0794 -0.3642
 5839SOL     OW28978   1.805   4.242   8.523  0.7309 -0.3969  0.1151
 5839SOL    HW128979   1.754   4.232   8.443 -0.8160 -0.8984  1.1644
 5839SOL    HW228980   1.887   4.277   8.487  0.2128 -1.6121 -2.1987
 5840SOL     OW28981   2.678   3.138   4.520 -0.0376  0.1102  0.3821
 5840SOL    HW128982   2.679   3.191   4.600 -2.2135 -0.3059  0.6647
 5840SOL    HW228983   2.749   3.175   4.467 -0.2177 -0.7246 -0.4441
 5841SOL     OW28984   4.254   1.472   9.030 -0.0525  0.4837 -0.6200
 5841SOL    HW128985   4.346   1.456   9.051  0.2163  2.5289 -0.2178
 5841SOL    HW228986   4.261   1.559   9.070  0.6422 -0.0183  0.3799
 5842SOL     OW28987   0.564   1.333   8.135  0.2581 -0.2741  0.2809
 5842SOL    HW128988   0.525   1.406   8.183 -0.2575 -0.2840 -0.1278
 5842SOL    HW228989   0.600   1.387   8.064  1.2550 -1.0214  0.2073
 5843SOL     OW28990   0.531   2.774  17.016 -0.2630 -0.3677 -0.2693
 5843SOL    HW128991   0.447   2.773  17.060 -1.7624 -1.3877 -3.1187
 5843SOL    HW228992   0.571   2.698  17.058 -0.2966  0.5750  1.4496
 5844SOL     OW28993   3.222   0.315   6.595 -0.0757 -0.0409 -0.3577
 5844SOL    HW128994   3.252   0.227   6.617 -1.2735 -0.7302 -1.5154
 5844SOL    HW228995   3.275   0.341   6.520 -0.2928  1.2971 -0.0475
 5845SOL     OW28996   4.713   0.713   8.328  0.2230 -0.2093  0.4114
 5845SOL    HW128997   0.038   0.786   8.364  0.1147  0.2192 -0.3009
 5845SOL    HW228998   0.057   0.647   8.327 -0.4844 -0.9298 -1.5170
 5846SOL     OW28999   4.564   3.912   3.833 -0.3132  0.2826 -0.2647
 5846SOL    HW129000   4.534   4.002   3.842  1.7956  0.8487  1.1775
 5846SOL    HW229001   4.605   3.914   3.746 -0.3487 -2.4668 -0.3428
 5847SOL     OW29002   1.266   2.288   9.389  0.3178 -0.0073  0.2860
 5847SOL    HW129003   1.259   2.379   9.362  0.9535  0.2252  0.9201
 5847SOL    HW229004   1.273   2.297   9.484 -0.4350 -0.9282  0.4231
 5848SOL     OW29005   0.292   1.015   0.613 -0.0796  0.2823  0.2664
 5848SOL    HW129006   0.277   1.105   0.584 -0.9669  0.2646  0.6773
 5848SOL    HW229007   0.321   1.021   0.704  2.8832 -0.1286 -0.6406
 5849SOL     OW29008   1.866   4.451   7.047  0.2472 -0.5362  0.0519
 5849SOL    HW129009   1.906   4.528   7.087 -2.7942  0.7937  0.5741
 5849SOL    HW229010   1.779   4.481   7.018  0.1092 -0.7736  0.2233
 5850SOL     OW29011   4.235   3.715   3.466 -0.9196  0.2248  0.2049
 5850SOL    HW129012   4.286   3.682   3.392 -0.6092  2.2313 -0.4910
 5850SOL    HW229013   4.302   3.774   3.502  0.4184 -0.3097 -1.3925
 5851SOL     OW29014   1.732   2.826  15.860 -0.2841  0.0906  0.5548
 5851SOL    HW129015   1.739   2.921  15.846  0.4636  0.0097  0.4240
 5851SOL    HW229016   1.682   2.822  15.942 -0.3435  2.0256  0.6198
 5852SOL     OW29017   1.781   2.028   7.908 -0.2002  0.8107  0.5132
 5852SOL    HW129018   1.760   2.055   7.818  1.0950 -1.2100 -0.3736
 5852SOL    HW229019   1.777   2.118   7.940 -1.8519  0.8290  0.2778
 5853SOL     OW29020   3.354   1.240  12.596 -0.5789 -0.0393 -0.2930
 5853SOL    HW129021   3.275   1.216  12.547 -0.4643 -1.1877  0.0766
 5853SOL    HW229022   3.344   1.177  12.668 -2.6536  0.2172 -0.3590
 5854SOL     OW29023   2.041   1.904  11.524  0.0803  0.1389  0.8236
 5854SOL    HW129024   2.045   1.989  11.480  2.4484 -0.1034  0.5934
 5854SOL    HW229025   1.954   1.910  11.563 -0.1545  1.9825 -0.0045
 5855SOL     OW29026   1.458   2.795   8.851 -0.1334  0.1846 -0.0733
 5855SOL    HW129027   1.469   2.838   8.936  0.9743 -1.7169  0.7347
 5855SOL    HW229028   1.492   2.864   8.792  1.1639 -2.0247 -1.9117
 5856SOL     OW29029   4.444   4.542  14.758 -0.0871 -0.2625 -0.0568
 5856SOL    HW129030   4.522   4.527  14.705 -1.1126  1.7717 -2.1237
 5856SOL    HW229031   4.430   4.463  14.812 -0.3704  0.5967  1.1364
 5857SOL     OW29032   2.301   3.556   6.798 -0.4538  0.2947 -0.1547
 5857SOL    HW129033   2.286   3.645   6.766  0.4171  0.0855 -1.1168
 5857SOL    HW229034   2.301   3.575   6.892  0.2571  2.1276 -0.5352
 5858SOL     OW29035   3.255   1.016   6.960 -0.1808  0.4330 -0.5018
 5858SOL    HW129036   3.200   0.986   7.033 -1.2103  1.8240 -0.7042
 5858SOL    HW229037   3.234   1.109   6.956  1.0964  0.6874 -1.1372
 5859SOL     OW29038   2.172   3.286   2.960 -0.5005 -0.0221  0.0125
 5859SOL    HW129039   2.226   3.219   3.002  1.7334  1.2997 -0.7195
 5859SOL    HW229040   2.243   3.327   2.909  1.1415 -0.8890  1.6120
 5860SOL     OW29041   4.223   1.078   0.815  0.1597  0.2544 -0.5825
 5860SOL    HW129042   4.167   1.133   0.870  1.8932  0.5650  0.8704
 5860SOL    HW229043   4.298   1.135   0.798  1.5780 -0.6763  2.7631
 5861SOL     OW29044   2.189   1.905   3.000  0.6477  0.0475  0.6521
 5861SOL    HW129045   2.284   1.915   2.987  0.3992 -0.1401 -1.3959
 5861SOL    HW229046   2.187   1.897   3.095 -1.2423 -3.3891  0.3349
 5862SOL     OW29047   0.534   2.150   8.345 -0.2727  0.1521  0.2652
 5862SOL    HW129048   0.465   2.091   8.314 -0.2361  0.9690 -1.4005
 5862SOL    HW229049   0.575   2.090   8.406 -1.1323 -0.2132  0.4884
 5863SOL     OW29050   1.894   2.600  17.373  0.0441 -0.0013 -0.1198
 5863SOL    HW129051   1.972   2.655  17.379  0.0173 -0.0986  1.0399
 5863SOL    HW229052   1.929   2.518  17.409  0.7242 -0.1500 -1.1016
 5864SOL     OW29053   2.255   2.464   5.866  0.6456  0.5231  0.1099
 5864SOL    HW129054   2.255   2.424   5.953  0.3286  1.4378  0.5199
 5864SOL    HW229055   2.198   2.402   5.821  2.0819 -0.9295  0.3000
 5865SOL     OW29056   2.556   4.238   8.564 -0.0828  0.0025  0.1367
 5865SOL    HW129057   2.631   4.225   8.622  0.5272  0.3742 -0.5710
 5865SOL    HW229058   2.496   4.167   8.586 -0.7207  0.4464 -0.1660
 5866SOL     OW29059   4.540   2.926  12.548  0.2966 -0.3084 -0.3164
 5866SOL    HW129060   4.527   2.900  12.640 -2.1867 -2.4497 -1.2820
 5866SOL    HW229061   4.551   2.840  12.507 -0.4455 -0.6711  0.2597
 5867SOL     OW29062   2.666   4.338   7.027  0.2639 -0.2423  0.0157
 5867SOL    HW129063   2.674   4.404   6.959 -0.1380  1.3307  1.4992
 5867SOL    HW229064   2.658   4.401   7.099  2.0044  0.3028 -0.2690
 5868SOL     OW29065   0.616   2.205   7.838 -0.0421 -0.7249  0.4782
 5868SOL    HW129066   0.585   2.282   7.790  0.7536  0.4580  1.8643
 5868SOL    HW229067   0.686   2.236   7.895 -0.4006  2.2814 -0.7009
 5869SOL     OW29068   2.147   4.027  16.479 -0.2218 -0.1394  0.2812
 5869SOL    HW129069   2.110   3.991  16.559  1.5841 -0.0091  1.1709
 5869SOL    HW229070   2.220   4.079  16.513  0.8072 -0.7776 -0.9151
 5870SOL     OW29071   4.118   2.600   3.789  0.3106 -0.1713 -0.0340
 5870SOL    HW129072   4.041   2.546   3.775  1.3748 -1.7010 -0.0066
 5870SOL    HW229073   4.176   2.546   3.843 -0.1486 -2.7887 -2.1522
 5871SOL     OW29074   1.087   2.125   2.915  0.3104  0.3343  0.2428
 5871SOL    HW129075   1.139   2.188   2.965 -2.0696  1.1592  1.6986
 5871SOL    HW229076   1.062   2.187   2.847  0.1081  0.1572  0.1577
 5872SOL     OW29077   4.566   0.971  10.790 -0.7155 -0.0590  0.0367
 5872SOL    HW129078   4.561   0.988  10.884  0.0540 -0.9315  0.2419
 5872SOL    HW229079   4.569   1.060  10.757  0.1887 -0.0054  0.2410
 5873SOL     OW29080   1.124   1.316  10.701  0.0487 -0.1164  0.0938
 5873SOL    HW129081   1.070   1.238  10.688  1.3478 -0.9568 -0.3008
 5873SOL    HW229082   1.206   1.271  10.725  0.7785  0.2087 -1.8313
 5874SOL     OW29083   1.056   1.422   7.276  0.5128  0.1031 -0.5175
 5874SOL    HW129084   1.028   1.331   7.270 -1.0577  0.6421 -1.4117
 5874SOL    HW229085   1.079   1.421   7.369 -0.2580 -1.5625 -0.3406
 5875SOL     OW29086   2.175   0.063   6.843 -0.2220  0.2963 -0.1695
 5875SOL    HW129087   2.175   4.711   6.900 -1.0126  1.5710  1.5083
 5875SOL    HW229088   2.247   0.040   6.783 -1.6348 -2.0760 -0.9784
 5876SOL     OW29089   4.119   1.767  11.865  0.6653 -0.3880  0.2794
 5876SOL    HW129090   4.150   1.677  11.857 -1.0080 -1.0128  1.0068
 5876SOL    HW229091   4.165   1.800  11.942  0.5281  3.0618 -1.0927
 5877SOL     OW29092   2.635   3.205  10.555 -0.8313 -0.0946  0.0510
 5877SOL    HW129093   2.546   3.208  10.589 -0.2272  3.1945  1.3668
 5877SOL    HW229094   2.665   3.284  10.601 -2.5245  0.4265  0.2408
 5878SOL     OW29095   2.454   4.493  16.530  0.0522 -0.0341 -0.1995
 5878SOL    HW129096   2.486   4.546  16.457 -1.5053  0.2844 -0.6604
 5878SOL    HW229097   2.529   4.435  16.544  0.3134  0.1527 -0.8100
 5879SOL     OW29098   0.562   1.442   4.533  0.5359  0.7212  0.0353
 5879SOL    HW129099   0.487   1.447   4.474 -0.3662  1.1628  1.2150
 5879SOL    HW229100   0.549   1.524   4.580 -1.0402  0.9632 -0.8135
 5880SOL     OW29101   1.987   2.167  10.887 -0.2922 -0.3179 -0.2953
 5880SOL    HW129102   1.956   2.105  10.953 -0.8336  1.2120  0.9148
 5880SOL    HW229103   1.995   2.115  10.808  1.2535  0.0969 -0.4038
 5881SOL     OW29104   4.238   0.930   2.812  0.2237  0.1308  0.3654
 5881SOL    HW129105   4.163   0.891   2.769 -1.2113  0.3907  2.5983
 5881SOL    HW229106   4.310   0.871   2.787 -0.2153 -0.1941 -0.1257
 5882SOL     OW29107   4.166   3.567   4.771 -0.0636  0.1340 -0.1067
 5882SOL    HW129108   4.226   3.579   4.844  1.9530 -0.5140 -1.6525
 5882SOL    HW229109   4.167   3.656   4.735  0.3687 -0.1457 -0.7913
 5883SOL     OW29110   3.928   0.328  10.826  0.1901 -0.3140 -0.4118
 5883SOL    HW129111   3.950   0.351  10.916 -1.1988 -1.0640  0.1225
 5883SOL    HW229112   3.846   0.374  10.806 -0.4593 -0.5129  1.7698
 5884SOL     OW29113   1.427   1.644  17.013  0.6927  0.4642  0.2971
 5884SOL    HW129114   1.405   1.666  16.922 -1.3656  0.6067  0.8134
 5884SOL    HW229115   1.392   1.725  17.052 -2.4445 -1.2184  1.0354
 5885SOL     OW29116   3.798   1.058   5.058 -0.0046 -0.2575  0.1592
 5885SOL    HW129117   3.765   0.968   5.046  0.1587 -0.4511  1.1573
 5885SOL    HW229118   3.889   1.035   5.040  0.2322  1.2690 -0.5678
 5886SOL     OW29119   3.669   0.450   6.763 -0.0827 -0.3784 -0.1355
 5886SOL    HW129120   3.702   0.462   6.852 -1.9462  0.5249  0.4358
 5886SOL    HW229121   3.637   0.539   6.746  1.7027  0.1747 -0.6227
 5887SOL     OW29122   3.493   2.333  12.714 -0.1371  0.5046  0.0693
 5887SOL    HW129123   3.457   2.263  12.769  1.1839 -1.2956 -1.3576
 5887SOL    HW229124   3.414   2.373  12.678 -0.3685 -1.2516 -1.3771
 5888SOL     OW29125   4.244   0.371   7.686 -0.2046  0.1880 -0.1090
 5888SOL    HW129126   4.295   0.415   7.754 -1.4867  0.9662  0.3463
 5888SOL    HW229127   4.189   0.326   7.750 -1.4948  0.2469 -1.1722
 5889SOL     OW29128   0.257   2.854   7.493  0.2475  0.1830 -0.3549
 5889SOL    HW129129   0.255   2.811   7.407  2.9070 -1.4566  0.4242
 5889SOL    HW229130   0.274   2.784   7.556 -1.0901 -0.1618 -0.3719
 5890SOL     OW29131   3.386   2.854   1.423  0.4358  0.2380 -0.2096
 5890SOL    HW129132   3.460   2.905   1.391 -0.6739  1.1989 -1.2384
 5890SOL    HW229133   3.398   2.873   1.516  0.9363 -2.8776  0.3616
 5891SOL     OW29134   2.083   1.987  15.140  0.3437  0.5145 -0.4231
 5891SOL    HW129135   2.121   1.900  15.153 -0.3960  0.1917 -0.4117
 5891SOL    HW229136   2.029   2.008  15.215 -1.5921 -3.2479 -0.7577
 5892SOL     OW29137   2.003   3.659   6.889  0.3444  0.5668  0.7516
 5892SOL    HW129138   1.976   3.711   6.814  0.0612 -2.0096 -0.9120
 5892SOL    HW229139   2.078   3.713   6.915 -2.1808  3.6373  1.6431
 5893SOL     OW29140   2.233   1.320   3.021  0.2424 -0.2736  0.2556
 5893SOL    HW129141   2.166   1.372   3.065  1.1826  0.4888  0.7965
 5893SOL    HW229142   2.199   1.234   3.045  0.6231  0.1646  2.3807
 5894SOL     OW29143   2.107   0.845   2.999 -0.3246  0.2372  0.4246
 5894SOL    HW129144   2.185   0.814   2.954  0.7678  1.2896  1.5968
 5894SOL    HW229145   2.072   0.911   2.940 -0.6477 -2.3209 -2.2279
 5895SOL     OW29146   1.165   2.813   2.129 -0.0876  0.7858  0.1141
 5895SOL    HW129147   1.160   2.908   2.122 -1.8673  0.5509 -1.7019
 5895SOL    HW229148   1.114   2.795   2.208 -0.4418 -0.6276 -0.4453
 5896SOL     OW29149   1.685   1.728   8.589  0.0572 -0.2589 -0.6199
 5896SOL    HW129150   1.774   1.747   8.620  0.5459 -3.9552  0.3178
 5896SOL    HW229151   1.634   1.784   8.646 -2.4238 -2.6504 -0.5021
 5897SOL     OW29152   2.484   2.292   7.204  0.1039  0.7603 -0.4404
 5897SOL    HW129153   2.482   2.206   7.163 -0.5186  0.6153 -0.1109
 5897SOL    HW229154   2.465   2.266   7.295 -1.0101 -1.0419 -1.1962
 5898SOL     OW29155   1.921   3.417   7.682 -0.9859 -0.5822  0.4632
 5898SOL    HW129156   1.969   3.352   7.631  0.6887 -1.3936  3.0746
 5898SOL    HW229157   1.956   3.487   7.627  2.0864 -0.9883  1.9333
 5899SOL     OW29158   2.220   1.452  17.413 -0.0442 -0.4146  0.1032
 5899SOL    HW129159   2.193   1.433  17.503 -0.2417  3.3915  0.8532
 5899SOL    HW229160   2.266   1.373  17.386  1.6417  0.5966  0.0524
 5900SOL     OW29161   0.205   3.071   5.084 -0.3520 -0.0728 -0.0359
 5900SOL    HW129162   0.123   3.026   5.065 -0.0494  0.0330 -1.5897
 5900SOL    HW229163   0.166   3.159   5.084  0.7893  0.4300 -0.7325
 5901SOL     OW29164   2.963   4.130  11.553 -0.1584 -0.1628  0.2612
 5901SOL    HW129165   2.879   4.167  11.525  0.9431  2.1925  0.0723
 5901SOL    HW229166   3.000   4.096  11.472  1.2635 -0.6191  1.0969
 5902SOL     OW29167   0.079   4.557   0.760 -0.4001  0.5278 -0.2213
 5902SOL    HW129168   0.169   4.530   0.777  0.2887  2.0897 -1.3973
 5902SOL    HW229169   0.087   4.627   0.696 -0.9054  1.3139  0.5771
 5903SOL     OW29170   2.289   0.943   8.344  0.0950  0.0291 -0.1567
 5903SOL    HW129171   2.246   1.015   8.390  1.0879  0.2154  0.4925
 5903SOL    HW229172   2.227   0.873   8.363 -1.4007  1.7330  1.2211
 5904SOL     OW29173   1.434   3.256   1.124 -0.7087  0.1543 -0.8661
 5904SOL    HW129174   1.473   3.336   1.091 -0.0464 -0.9317 -2.7288
 5904SOL    HW229175   1.371   3.241   1.053 -0.1899  1.4154 -1.5841
 5905SOL     OW29176   2.031   4.407   4.908  0.1806 -0.6771  0.0047
 5905SOL    HW129177   1.982   4.325   4.908  0.6108 -0.9345 -1.0200
 5905SOL    HW229178   2.024   4.420   5.003 -1.4880 -1.3514 -0.0224
 5906SOL     OW29179   1.387   2.006  17.583 -0.1368 -0.5742  0.5317
 5906SOL    HW129180   1.341   1.931  17.620  1.2305 -1.5016  0.3425
 5906SOL    HW229181   1.475   1.991  17.617  0.5287  0.9570 -0.4725
 5907SOL     OW29182   0.126   2.876   1.926 -0.4105 -0.0762 -0.2424
 5907SOL    HW129183   0.094   2.936   1.859 -2.4277  0.1516  0.9056
 5907SOL    HW229184   0.083   2.793   1.904 -0.0657 -0.1979 -0.4546
 5908SOL     OW29185   2.682   3.102  12.222  0.4032  0.1500 -0.0236
 5908SOL    HW129186   2.701   3.009  12.228 -1.7289 -0.3119 -0.4835
 5908SOL    HW229187   2.764   3.139  12.255  0.3790 -1.2386  1.6107
 5909SOL     OW29188   4.578   1.991   8.037  0.6720 -0.0002  0.3714
 5909SOL    HW129189   4.570   1.944   8.120 -0.0267  1.5035  1.1712
 5909SOL    HW229190   4.559   2.074   8.080  0.4802 -0.4932  1.2340
 5910SOL     OW29191   0.454   1.206   6.819 -0.0681 -0.3567  0.1474
 5910SOL    HW129192   0.391   1.246   6.759 -0.6353  0.0332  1.0046
 5910SOL    HW229193   0.536   1.249   6.795  1.2708 -1.3014  2.9793
 5911SOL     OW29194   4.471   1.209   7.114 -0.1515  0.3181 -0.2607
 5911SOL    HW129195   4.542   1.272   7.120 -2.0085  2.6148 -2.3687
 5911SOL    HW229196   4.432   1.231   7.030  1.8435  1.4618 -0.8710
 5912SOL     OW29197   3.935   0.488   3.050 -0.0331  0.1609  0.0761
 5912SOL    HW129198   4.015   0.438   3.063 -0.1117 -0.0718 -0.3397
 5912SOL    HW229199   3.937   0.566   3.107 -0.6483  0.9973 -1.0344
 5913SOL     OW29200   3.742   0.324   0.509 -0.2194 -0.2437 -0.1284
 5913SOL    HW129201   3.661   0.363   0.542 -0.2084 -1.8631  1.8147
 5913SOL    HW229202   3.795   0.334   0.588 -0.8600  2.6799 -0.0592
 5914SOL     OW29203   0.546   1.845  16.050 -0.2959 -0.0784 -0.9465
 5914SOL    HW129204   0.529   1.817  16.140  0.5620 -0.1749 -0.8173
 5914SOL    HW229205   0.492   1.923  16.043  1.1578  0.9786 -0.2913
 5915SOL     OW29206   3.556   3.539   4.814  0.0307 -0.3223 -0.8069
 5915SOL    HW129207   3.497   3.591   4.760  0.5246  1.3601  0.2557
 5915SOL    HW229208   3.623   3.518   4.749  2.4027  1.3042  1.1175
 5916SOL     OW29209   2.056   1.805   6.363  0.5490 -0.1343 -0.0600
 5916SOL    HW129210   1.999   1.795   6.440  0.0197 -1.3728 -0.6248
 5916SOL    HW229211   1.997   1.818   6.289  0.5905 -0.7285 -0.1919
 5917SOL     OW29212   4.668   0.428  14.856 -0.2322  0.5933  0.1518
 5917SOL    HW129213   0.008   0.436  14.925 -0.2817  0.9801  0.1573
 5917SOL    HW229214   4.679   0.334  14.842 -2.0154  0.8552 -3.2918
 5918SOL     OW29215   2.549   3.313  12.352  0.0280 -0.6817  0.1743
 5918SOL    HW129216   2.500   3.308  12.434 -2.2518 -1.9217 -1.2478
 5918SOL    HW229217   2.528   3.227  12.313 -1.7829 -0.6298  1.0021
 5919SOL     OW29218   0.089   2.238   2.621  0.4388  0.3295 -0.7520
 5919SOL    HW129219   0.129   2.314   2.662  3.2018 -0.9605 -1.0891
 5919SOL    HW229220   0.008   2.279   2.588 -0.0996 -0.8554 -0.9178
 5920SOL     OW29221   3.259   0.695  13.852 -0.4019 -0.1647  0.0832
 5920SOL    HW129222   3.293   0.636  13.919  0.8208 -0.3145 -0.6667
 5920SOL    HW229223   3.321   0.768  13.852 -0.5190 -0.0524 -3.2850
 5921SOL     OW29224   3.328   4.111   7.166 -0.3800 -0.0418 -0.0866
 5921SOL    HW129225   3.333   4.054   7.243  0.4009  2.3311  1.6446
 5921SOL    HW229226   3.253   4.164   7.191  0.8758  0.9320  1.6470
 5922SOL     OW29227   2.245   3.602   7.671 -0.3353  0.6806 -0.2432
 5922SOL    HW129228   2.266   3.537   7.605  0.3484 -0.0469  0.6904
 5922SOL    HW229229   2.302   3.583   7.746  0.2874  0.4138 -0.7842
 5923SOL     OW29230   4.515   2.758   2.997  0.3950  0.3841  0.3340
 5923SOL    HW129231   4.498   2.824   2.929 -3.0128 -1.6801 -0.7876
 5923SOL    HW229232   4.591   2.716   2.956  0.5965 -0.0481  1.1602
 5924SOL     OW29233   1.549   1.102   6.284  0.4821 -0.9811 -0.3658
 5924SOL    HW129234   1.589   1.188   6.278 -0.7836 -0.4459 -1.2038
 5924SOL    HW229235   1.455   1.121   6.279 -0.2867 -4.6336 -0.3345
 5925SOL     OW29236   3.088   3.882   9.799  0.4580  0.1279  0.0158
 5925SOL    HW129237   3.056   3.792   9.803 -0.2182  0.3985  0.9738
 5925SOL    HW229238   3.102   3.893   9.705  0.5277 -0.3806 -0.0298
 5926SOL     OW29239   1.764   4.221  11.076 -0.1849  0.0877  0.7791
 5926SOL    HW129240   1.849   4.239  11.116  0.9032  0.1689 -1.6210
 5926SOL    HW229241   1.713   4.295  11.109  0.4069  0.9733 -0.3084
 5927SOL     OW29242   2.824   0.088   4.142  0.5179 -0.5461 -0.0772
 5927SOL    HW129243   2.861   0.013   4.094  1.4889 -0.6599  0.8386
 5927SOL    HW229244   2.778   0.040   4.211  2.5463 -1.1307  0.8771
 5928SOL     OW29245   3.201   3.651   8.670  0.1918  0.0076 -0.1612
 5928SOL    HW129246   3.121   3.695   8.642 -0.6676 -1.1953  0.4334
 5928SOL    HW229247   3.228   3.716   8.735  0.5748  0.0749 -0.3839
 5929SOL     OW29248   2.730   3.801   3.618 -0.7375 -0.2131 -0.5226
 5929SOL    HW129249   2.672   3.729   3.594 -1.1433 -0.0127 -0.1530
 5929SOL    HW229250   2.737   3.781   3.711 -1.1448  2.3165  0.0638
 5930SOL     OW29251   2.290   3.517  16.908  0.7039 -0.2538  0.3346
 5930SOL    HW129252   2.335   3.559  16.981 -0.3187  0.6783  0.4384
 5930SOL    HW229253   2.268   3.435  16.952 -2.0606 -0.2270 -0.9923
 5931SOL     OW29254   4.708   3.221  14.181 -0.2184  0.0250 -0.4717
 5931SOL    HW129255   0.032   3.149  14.219  3.1713  2.7667  0.2879
 5931SOL    HW229256   4.633   3.166  14.156  0.1968 -0.9431  0.3979
 5932SOL     OW29257   2.667   3.105  10.307  0.2198 -0.3254  0.3262
 5932SOL    HW129258   2.650   3.152  10.389  1.4537 -1.0282  0.9863
 5932SOL    HW229259   2.594   3.044  10.306  1.4855 -1.8158 -0.5379
 5933SOL     OW29260   1.588   3.473   2.361  0.2002 -0.4383 -0.3359
 5933SOL    HW129261   1.565   3.411   2.291  0.3799  0.6099 -1.3233
 5933SOL    HW229262   1.661   3.528   2.333 -0.1764  1.0467  1.6105
 5934SOL     OW29263   4.490   3.450  10.203  0.1729  0.0863 -0.0500
 5934SOL    HW129264   4.477   3.544  10.193  0.0258 -0.0923 -1.5707
 5934SOL    HW229265   4.532   3.442  10.289 -0.1316  0.0759  0.0977
 5935SOL     OW29266   4.461   4.390  13.649  0.5857  0.4319 -0.2507
 5935SOL    HW129267   4.471   4.452  13.721  1.4925  0.3444 -0.2970
 5935SOL    HW229268   4.528   4.331  13.683 -0.3980 -0.9765 -0.7294
 5936SOL     OW29269   2.041   3.850   9.700 -0.0954  0.0586 -0.2105
 5936SOL    HW129270   2.063   3.806   9.782  0.7942 -0.0994 -0.5397
 5936SOL    HW229271   2.090   3.928   9.724 -1.5760  1.6637 -2.3499
 5937SOL     OW29272   0.821   4.220  16.944 -0.0388 -0.2216 -0.4124
 5937SOL    HW129273   0.867   4.290  16.898  1.1743  0.0691  1.2173
 5937SOL    HW229274   0.749   4.273  16.978  0.7108  1.4424 -1.4017
 5938SOL     OW29275   1.834   0.430  13.013 -0.3568 -0.0289  0.0385
 5938SOL    HW129276   1.919   0.434  13.056 -0.4311 -0.2398  0.2054
 5938SOL    HW229277   1.788   0.511  13.035  1.8520  1.0238  0.7751
 5939SOL     OW29278   0.882   1.810   3.053  0.3122 -0.3637  0.3210
 5939SOL    HW129279   0.799   1.776   3.020  0.5726 -3.6369  3.0994
 5939SOL    HW229280   0.865   1.903   3.037  1.9899 -0.3757 -1.5860
 5940SOL     OW29281   0.283   1.898   5.121  0.2650  0.5293 -0.1016
 5940SOL    HW129282   0.266   1.805   5.136 -0.0341  0.0089 -3.8023
 5940SOL    HW229283   0.276   1.904   5.026 -0.2476 -1.5690 -0.1848
 5941SOL     OW29284   3.808   2.153  12.082  0.1223  0.0940  0.0059
 5941SOL    HW129285   3.792   2.185  12.170 -1.4225  0.3547 -0.3700
 5941SOL    HW229286   3.844   2.066  12.100  1.0324  0.5158  0.1893
 5942SOL     OW29287   0.859   2.581  13.039  0.4036  0.4672  0.1414
 5942SOL    HW129288   0.912   2.584  12.960  2.4851  1.9417  1.6139
 5942SOL    HW229289   0.909   2.529  13.103  0.3096 -0.6343 -0.6849
 5943SOL     OW29290   1.743   0.261   9.288  0.1425  0.2998 -0.0551
 5943SOL    HW129291   1.799   0.333   9.259  0.2602 -0.3780 -1.5018
 5943SOL    HW229292   1.753   0.254   9.383  1.7483 -2.4624 -0.4349
 5944SOL     OW29293   1.312   2.509   3.376 -0.8379  0.5518  0.4066
 5944SOL    HW129294   1.302   2.604   3.370  0.0039  0.7952  2.6358
 5944SOL    HW229295   1.405   2.499   3.395 -0.8210  0.8225  0.4688
 5945SOL     OW29296   1.970   3.524   8.053 -0.6006 -0.1714 -0.1100
 5945SOL    HW129297   1.944   3.433   8.044 -0.3105 -0.2021 -0.6146
 5945SOL    HW229298   2.060   3.494   8.064  0.3211  2.4775 -0.2715
 5946SOL     OW29299   0.913   0.899   2.080  0.4396 -0.0486 -0.1410
 5946SOL    HW129300   0.986   0.842   2.058  0.0740 -1.9800  3.5467
 5946SOL    HW229301   0.914   0.908   2.176 -0.0435 -0.1377 -0.1271
 5947SOL     OW29302   0.465   1.668  12.514 -0.2225 -0.0234 -0.0662
 5947SOL    HW129303   0.533   1.611  12.551  0.4672  1.3419  0.7705
 5947SOL    HW229304   0.507   1.692  12.431  2.3652  0.3309  1.3504
 5948SOL     OW29305   1.976   1.189   1.590  0.2707  0.6029  0.4337
 5948SOL    HW129306   1.888   1.190   1.627  0.1021 -1.7923  0.1330
 5948SOL    HW229307   2.022   1.145   1.661  0.0766 -2.6619 -1.4367
 5949SOL     OW29308   1.820   1.276  16.496 -0.8529  0.4026 -0.5273
 5949SOL    HW129309   1.726   1.259  16.505 -0.8111 -0.3244 -1.5951
 5949SOL    HW229310   1.851   1.191  16.527 -1.3919  1.2210  2.3269
 5950SOL     OW29311   3.687   1.485   1.166  0.1016  0.1546 -0.6924
 5950SOL    HW129312   3.671   1.487   1.261  0.1675  0.5459 -0.6887
 5950SOL    HW229313   3.615   1.538   1.133  0.2966  0.7574 -0.1684
 5951SOL     OW29314   2.670   4.699  12.771 -0.4478 -0.0530 -0.5453
 5951SOL    HW129315   2.575   4.686  12.777 -0.4598 -0.5479 -1.7603
 5951SOL    HW229316   2.686   0.042  12.836  1.5105 -1.8697  0.8890
 5952SOL     OW29317   0.646   0.366   5.823 -0.2822 -0.2502  0.1630
 5952SOL    HW129318   0.726   0.333   5.865  0.3851 -0.3822 -1.2255
 5952SOL    HW229319   0.633   0.447   5.871  0.2143  1.7539 -3.1044
 5953SOL     OW29320   4.169   0.442   3.367  0.1565  0.1676  0.4674
 5953SOL    HW129321   4.141   0.454   3.458 -0.6095 -1.4813  0.4398
 5953SOL    HW229322   4.170   0.534   3.338  2.3947 -0.1341 -0.4585
 5954SOL     OW29323   2.777   2.444  11.628  0.3449  0.8583  0.0166
 5954SOL    HW129324   2.771   2.482  11.541  0.1608 -0.9266 -0.7593
 5954SOL    HW229325   2.820   2.515  11.675  0.7476  0.4568  0.2516
 5955SOL     OW29326   0.646   2.641   4.365  0.1774  0.4772 -0.4990
 5955SOL    HW129327   0.685   2.616   4.281  2.1653 -0.0167  0.5726
 5955SOL    HW229328   0.610   2.726   4.341  0.0703  0.6712  0.3533
 5956SOL     OW29329   3.871   1.800  14.233  0.3153 -0.4705  0.2608
 5956SOL    HW129330   3.915   1.776  14.152  0.5340 -0.3318  0.3395
 5956SOL    HW229331   3.782   1.770  14.213  0.7081 -1.3501 -0.1805
 5957SOL     OW29332   4.590   0.312   6.533  0.2729 -0.1835  0.6996
 5957SOL    HW129333   4.537   0.381   6.494 -0.0588 -0.2631  1.0134
 5957SOL    HW229334   4.585   0.322   6.628  1.3276 -1.1236  0.8564
 5958SOL     OW29335   0.143   0.813   2.036  0.1419 -0.5286  0.5259
 5958SOL    HW129336   0.222   0.765   2.059 -0.2908 -2.1384 -1.2920
 5958SOL    HW229337   0.184   0.886   1.990 -2.5942  1.4649  1.1994
 5959SOL     OW29338   0.177   1.639   7.234  0.3835  0.5119 -0.5611
 5959SOL    HW129339   0.183   1.581   7.310  0.0296  1.3062  0.0758
 5959SOL    HW229340   0.119   1.708   7.268  0.8760 -0.3361  2.0070
 5960SOL     OW29341   3.131   4.311   5.052 -0.2341  0.3562  0.1198
 5960SOL    HW129342   3.163   4.400   5.065  0.0489  0.3351 -0.4203
 5960SOL    HW229343   3.194   4.286   4.985  0.3435 -0.2782  0.8978
 5961SOL     OW29344   3.998   4.011   6.884  0.0247 -0.3862  0.0302
 5961SOL    HW129345   3.925   3.957   6.855 -1.2295  0.0139  2.4735
 5961SOL    HW229346   4.029   3.965   6.961 -1.4925  0.0407  0.9054
 5962SOL     OW29347   3.729   2.228  11.272 -0.0584  0.4704 -0.4533
 5962SOL    HW129348   3.641   2.197  11.251  0.1386  0.3536 -1.1165
 5962SOL    HW229349   3.777   2.208  11.191  0.2845 -2.0902  0.4058
 5963SOL     OW29350   4.305   3.170   4.164 -0.3175  0.0195 -0.0564
 5963SOL    HW129351   4.282   3.078   4.152 -1.2865  0.2296  0.1898
 5963SOL    HW229352   4.359   3.183   4.086  0.6909 -1.0569  0.4634
 5964SOL     OW29353   4.464   3.724  11.878 -0.0554  0.0168  0.1403
 5964SOL    HW129354   4.510   3.685  11.953  1.5156  0.4780 -0.6006
 5964SOL    HW229355   4.539   3.734  11.820  1.0672 -3.0145  1.0494
 5965SOL     OW29356   2.044   1.794  10.560  0.0699 -0.9485  0.4518
 5965SOL    HW129357   2.121   1.798  10.503 -1.1365 -0.4023 -1.1385
 5965SOL    HW229358   2.004   1.712  10.531  1.4328 -2.2690  2.3251
 5966SOL     OW29359   0.053   2.502  14.348  0.1690 -0.4705  0.5023
 5966SOL    HW129360   0.110   2.520  14.422  1.3813 -0.0595 -0.5266
 5966SOL    HW229361   0.108   2.516  14.271  0.2699 -2.2199  0.2469
 5967SOL     OW29362   3.943   1.917   3.484 -0.1560 -0.3718  0.7552
 5967SOL    HW129363   3.944   1.863   3.563 -1.0938 -0.9823  0.3446
 5967SOL    HW229364   3.849   1.909   3.469 -0.2307 -0.5055  1.2896
 5968SOL     OW29365   2.391   1.532  13.043 -0.8591 -0.4113 -0.2028
 5968SOL    HW129366   2.388   1.462  12.978 -0.2480 -2.1788  1.6765
 5968SOL    HW229367   2.376   1.478  13.120  0.2904  0.6358  0.7620
 5969SOL     OW29368   3.932   1.658   1.689 -0.7761 -0.3720 -0.0812
 5969SOL    HW129369   3.875   1.725   1.726  0.0796 -0.1236  0.7868
 5969SOL    HW229370   3.967   1.704   1.612  0.3116  1.6479  1.6073
 5970SOL     OW29371   0.451   4.580   2.461  0.1132 -0.5708  0.2252
 5970SOL    HW129372   0.471   4.622   2.377 -0.7723 -1.2524 -0.3288
 5970SOL    HW229373   0.446   4.651   2.525  1.2199  0.8546 -1.2917
 5971SOL     OW29374   3.993   4.523   5.595  0.5664  0.1423 -0.0560
 5971SOL    HW129375   4.064   4.569   5.549 -0.8134  0.5413 -1.7760
 5971SOL    HW229376   3.935   4.599   5.596 -0.1466 -0.3940 -0.8422
 5972SOL     OW29377   3.135   0.020   3.633  0.0712 -0.3915 -0.0802
 5972SOL    HW129378   3.218   0.048   3.594  1.2520 -1.9226  1.3233
 5972SOL    HW229379   3.147   0.033   3.727 -0.5434  0.2772 -0.0866
 5973SOL     OW29380   2.986   0.078  17.099 -0.0131  0.5482  0.0909
 5973SOL    HW129381   2.949   0.051  17.183 -2.7789  1.8793 -0.6968
 5973SOL    HW229382   2.905   0.084  17.048  1.0489  0.1096 -1.6411
 5974SOL     OW29383   2.164   2.850  12.674  0.2146  0.4787  0.3496
 5974SOL    HW129384   2.114   2.868  12.594  1.4613  1.1363 -0.2839
 5974SOL    HW229385   2.172   2.937  12.715 -1.9765  0.8628 -0.0693
 5975SOL     OW29386   0.860   2.994   5.986 -0.6663 -0.2957 -0.3263
 5975SOL    HW129387   0.788   2.997   5.922 -2.2179  0.2797  1.4486
 5975SOL    HW229388   0.907   2.924   5.941  0.1217 -0.9954  1.5824
 5976SOL     OW29389   1.038   3.158   8.764  0.0147  0.1601 -0.4490
 5976SOL    HW129390   0.945   3.178   8.756  0.1653  0.4902 -1.3086
 5976SOL    HW229391   1.047   3.068   8.735  1.9182  1.0050 -2.4560
 5977SOL     OW29392   1.443   3.897   4.448  0.0436  0.4535  0.4286
 5977SOL    HW129393   1.396   3.823   4.486 -2.1175  1.8119  0.3622
 5977SOL    HW229394   1.374   3.963   4.440 -0.7114 -0.5302 -1.1735
 5978SOL     OW29395   4.600   3.367   2.119 -0.1170 -0.2913  0.2091
 5978SOL    HW129396   4.538   3.437   2.096 -1.3186 -1.3568  0.2402
 5978SOL    HW229397   4.590   3.308   2.044  0.1405  0.2878 -0.2869
 5979SOL     OW29398   3.955   0.599   1.498 -0.2341  0.3977  0.2446
 5979SOL    HW129399   3.914   0.685   1.483 -0.3326  0.6021  1.6801
 5979SOL    HW229400   4.040   0.613   1.458 -1.7628 -0.7760 -3.3955
 5980SOL     OW29401   3.170   2.782   3.573  0.1023  0.0639  0.1456
 5980SOL    HW129402   3.187   2.813   3.484  2.3840  0.5931  0.7776
 5980SOL    HW229403   3.187   2.847   3.641  1.4015  0.7145 -0.8017
 5981SOL     OW29404   2.541   1.067   6.269  0.0424 -0.2817  0.4193
 5981SOL    HW129405   2.616   1.039   6.216  0.7682  0.4744  1.0379
 5981SOL    HW229406   2.556   1.161   6.278  0.0753 -0.2325 -0.1473
 5982SOL     OW29407   0.821   0.360   2.840 -0.4588 -0.2168 -0.2096
 5982SOL    HW129408   0.881   0.391   2.772  1.7444  1.1683  2.3548
 5982SOL    HW229409   0.740   0.349   2.791 -0.4031  1.2969 -0.6667
 5983SOL     OW29410   3.910   3.839   1.366 -0.1374  0.3465  0.8185
 5983SOL    HW129411   3.836   3.897   1.388 -0.8770 -0.6224  0.8843
 5983SOL    HW229412   3.870   3.770   1.313  1.3345 -0.7448  1.1480
 5984SOL     OW29413   4.468   0.007   0.871 -0.2787  0.2095  0.8177
 5984SOL    HW129414   4.546   4.698   0.915 -0.0877  1.9724  1.8531
 5984SOL    HW229415   4.492   4.715   0.780  1.7771  1.5934  1.1113
 5985SOL     OW29416   0.077   2.695   4.394 -0.1162  0.2733  0.4569
 5985SOL    HW129417   0.086   2.646   4.312 -1.5397  1.1028 -0.1908
 5985SOL    HW229418   0.149   2.654   4.442 -1.4766 -1.9897  0.5972
 5986SOL     OW29419   3.805   0.563   5.428 -0.1285 -0.3212  0.0297
 5986SOL    HW129420   3.857   0.483   5.435 -1.3440 -1.1324 -0.0210
 5986SOL    HW229421   3.860   0.635   5.457 -3.1103  1.9116  0.1388
 5987SOL     OW29422   0.834   0.549   6.821 -0.2891 -0.0835 -0.0574
 5987SOL    HW129423   0.773   0.537   6.894 -0.7016  2.3695 -0.0231
 5987SOL    HW229424   0.888   0.470   6.829  1.9972  1.2100 -2.6956
 5988SOL     OW29425   4.150   3.900  11.392  0.1564  0.7821 -0.1112
 5988SOL    HW129426   4.148   3.875  11.484 -2.7033  0.5560 -0.2417
 5988SOL    HW229427   4.242   3.917  11.373  0.6537 -1.7384  0.0296
 5989SOL     OW29428   0.506   2.825   8.674 -0.6672  0.0589 -0.5515
 5989SOL    HW129429   0.543   2.827   8.762  1.9752 -0.9981 -1.6505
 5989SOL    HW229430   0.503   2.920   8.663 -1.7067  0.0164 -0.5965
 5990SOL     OW29431   4.037   1.761   0.395  0.2448 -0.2460 -0.6020
 5990SOL    HW129432   3.990   1.829   0.444  1.0438 -1.2738  1.5417
 5990SOL    HW229433   4.044   1.815   0.315  1.2537  0.1361 -0.2603
 5991SOL     OW29434   2.973   4.168   2.550  0.2392  0.4013 -0.2617
 5991SOL    HW129435   2.926   4.155   2.468  0.8736 -0.4024 -0.4946
 5991SOL    HW229436   3.060   4.133   2.530 -0.9881 -2.4105 -0.6419
 5992SOL     OW29437   0.244   1.912   1.038 -0.2669 -0.0983 -0.3707
 5992SOL    HW129438   0.208   1.999   1.058 -1.9616 -0.3122 -2.4679
 5992SOL    HW229439   0.173   1.892   0.977 -1.3349 -1.5280  1.3288
 5993SOL     OW29440   1.507   0.242   1.585  0.5268  0.1207  0.4810
 5993SOL    HW129441   1.456   0.221   1.663  0.6971  0.9017  0.8057
 5993SOL    HW229442   1.529   0.335   1.587  0.9127  0.0436 -0.0890
 5994SOL     OW29443   1.662   4.003   3.807 -0.1804  0.2316 -0.2534
 5994SOL    HW129444   1.577   4.047   3.796 -1.0680 -1.9910 -2.4043
 5994SOL    HW229445   1.643   3.937   3.741  0.1194 -1.8302  1.7288
 5995SOL     OW29446   3.075   2.708  15.325  0.6056  0.1789  0.5492
 5995SOL    HW129447   3.014   2.650  15.370 -1.0350  1.0938 -0.4921
 5995SOL    HW229448   3.070   2.790  15.374  0.2016  1.3876 -1.4999
 5996SOL     OW29449   3.483   0.200   9.503 -0.2803  0.7032 -0.0806
 5996SOL    HW129450   3.467   0.271   9.566 -2.5060 -0.0698  0.2106
 5996SOL    HW229451   3.413   0.144   9.538  0.7887 -2.0130 -2.3568
 5997SOL     OW29452   2.843   3.512   3.068 -0.1182  0.1583  0.7998
 5997SOL    HW129453   2.854   3.551   2.982 -0.2178  2.4078  1.8042
 5997SOL    HW229454   2.925   3.464   3.078  0.1932  0.4533 -0.3909
 5998SOL     OW29455   0.278   2.792   5.704  0.0595  0.0465  0.2693
 5998SOL    HW129456   0.216   2.802   5.632  1.3589 -0.2520 -0.9043
 5998SOL    HW229457   0.267   2.701   5.729 -0.1969  0.4046  1.4505
 5999SOL     OW29458   1.799   1.457   0.901  0.2644 -0.7524 -0.4201
 5999SOL    HW129459   1.744   1.388   0.937 -0.6295  0.3085  0.2370
 5999SOL    HW229460   1.891   1.436   0.918  0.0717 -0.9445  0.3854
 6000SOL     OW29461   2.744   1.503   2.737  0.2685  0.2275 -0.1784
 6000SOL    HW129462   2.771   1.533   2.650 -0.8866  0.4801 -0.4515
 6000SOL    HW229463   2.797   1.553   2.799  1.5896 -0.1086 -1.0129
 6001SOL     OW29464   0.310   2.476   5.357 -0.3517 -0.1570  0.6329
 6001SOL    HW129465   0.331   2.407   5.293 -0.7551  0.8116 -0.5469
 6001SOL    HW229466   0.264   2.542   5.305  0.0245 -0.7739 -0.5023
 6002SOL     OW29467   0.159   1.553   5.636 -0.3125  0.0187  0.0523
 6002SOL    HW129468   0.091   1.566   5.702 -0.5319 -1.9624  0.2129
 6002SOL    HW229469   0.162   1.459   5.618 -2.1892 -0.1935  0.8859
 6003SOL     OW29470   1.333   2.545   9.102  0.0677  0.1799  0.3834
 6003SOL    HW129471   1.330   2.584   9.189  0.8698  2.3858 -0.5786
 6003SOL    HW229472   1.382   2.618   9.065 -1.2831  1.5957  1.3640
 6004SOL     OW29473   3.415   0.638   7.022  0.1773 -0.1957  0.3331
 6004SOL    HW129474   3.419   0.633   7.117 -1.6055 -1.6794  0.3268
 6004SOL    HW229475   3.490   0.581   7.002  0.3009  0.0212  0.1787
 6005SOL     OW29476   3.611   2.828   2.111 -0.1416 -0.0942 -0.0760
 6005SOL    HW129477   3.682   2.852   2.171 -0.1522  0.0755 -0.1309
 6005SOL    HW229478   3.655   2.817   2.026 -1.3672 -1.4697 -0.5285
 6006SOL     OW29479   3.256   1.652  12.014 -0.3109  0.2628  0.3498
 6006SOL    HW129480   3.319   1.723  12.013  1.4036 -1.2662 -0.4733
 6006SOL    HW229481   3.197   1.693  11.951 -0.5856  2.0423  1.7566
 6007SOL     OW29482   2.649   0.808   7.849  0.5391  0.0726 -0.2672
 6007SOL    HW129483   2.583   0.835   7.785  0.3500  1.5524  0.5620
 6007SOL    HW229484   2.727   0.826   7.797  0.5189 -1.0287 -0.6815
 6008SOL     OW29485   1.493   0.623   6.630 -0.1156 -0.2197 -0.1318
 6008SOL    HW129486   1.425   0.632   6.697 -0.0265  0.9051 -0.1862
 6008SOL    HW229487   1.535   0.707   6.650 -1.5098  0.3139  0.5821
 6009SOL     OW29488   2.313   0.187   1.597  0.6071  0.1874  0.5636
 6009SOL    HW129489   2.284   0.208   1.686  0.1938 -2.1021  0.9747
 6009SOL    HW229490   2.406   0.174   1.616  1.1087  0.3225 -1.8410
 6010SOL     OW29491   1.215   2.313  13.502 -0.7035  0.1244 -0.1681
 6010SOL    HW129492   1.271   2.273  13.569 -2.9792 -1.4658  0.7948
 6010SOL    HW229493   1.158   2.238  13.482 -1.2503  0.8074 -1.1434
 6011SOL     OW29494   0.352   3.484   7.085  0.2376 -0.1800 -0.0954
 6011SOL    HW129495   0.448   3.490   7.086  0.0799  2.2853  0.0983
 6011SOL    HW229496   0.331   3.567   7.043 -0.1071 -0.7698 -1.0702
 6012SOL     OW29497   2.370   0.166   9.325  0.0563  0.1683  0.9432
 6012SOL    HW129498   2.333   0.237   9.273  1.6453  1.4416  1.5285
 6012SOL    HW229499   2.299   0.103   9.325 -1.8681  2.3374  4.2715
 6013SOL     OW29500   3.167   3.940   1.275 -0.9354  0.2283 -0.1219
 6013SOL    HW129501   3.201   3.946   1.185 -0.6974  1.7444  0.0667
 6013SOL    HW229502   3.203   4.026   1.295  1.4597 -0.9630  0.7612
 6014SOL     OW29503   2.712   3.127   8.758  0.0210  0.0066  0.2518
 6014SOL    HW129504   2.679   3.105   8.845  0.9992  0.5229  0.7646
 6014SOL    HW229505   2.700   3.048   8.706  2.5079 -0.3101  0.1382
 6015SOL     OW29506   1.141   0.652  10.052 -0.2486  0.0528  0.2067
 6015SOL    HW129507   1.222   0.658  10.103  0.3103 -2.3956 -0.3824
 6015SOL    HW229508   1.126   0.740  10.019 -0.5931 -0.2397 -0.4128
 6016SOL     OW29509   2.825   0.200   5.185 -0.6465 -0.1706  0.0129
 6016SOL    HW129510   2.754   0.151   5.144 -0.1895 -1.3114  0.5833
 6016SOL    HW229511   2.895   0.136   5.169 -0.0931  0.2225  0.8690
 6017SOL     OW29512   0.693   0.771   5.040  0.1338 -0.4108  0.1428
 6017SOL    HW129513   0.714   0.820   4.961 -0.6173 -0.5981 -0.1798
 6017SOL    HW229514   0.719   0.838   5.104  1.5797 -0.2873 -0.5922
 6018SOL     OW29515   3.017   1.288   1.828  0.2462 -0.2087  0.3471
 6018SOL    HW129516   3.053   1.288   1.917  0.2060  1.3240  0.3482
 6018SOL    HW229517   3.094   1.263   1.777  2.1211 -0.1040  3.0863
 6019SOL     OW29518   0.011   4.384   0.124 -0.3904 -0.0863  0.1553
 6019SOL    HW129519   0.082   4.339   0.171  0.4356 -0.4305 -1.4237
 6019SOL    HW229520   4.680   4.313   0.092 -1.7834  0.3779  1.6207
 6020SOL     OW29521   1.888   2.821   0.679 -0.4107  0.1528 -0.3135
 6020SOL    HW129522   1.859   2.843   0.590  1.6536  0.2708 -0.9651
 6020SOL    HW229523   1.980   2.840   0.662  0.3093 -1.7893  1.3485
 6021SOL     OW29524   3.870   2.587   6.876  0.6104  0.5772 -0.3808
 6021SOL    HW129525   3.896   2.668   6.834 -1.9019  2.1357  1.0736
 6021SOL    HW229526   3.780   2.613   6.858 -0.2951 -1.5724  0.9071
 6022SOL     OW29527   2.525   1.195   3.877  0.0881 -0.1075 -0.2463
 6022SOL    HW129528   2.449   1.190   3.935  1.2757 -0.4069  1.3051
 6022SOL    HW229529   2.540   1.289   3.885  1.6847 -0.3739 -0.0379
 6023SOL     OW29530   4.336   1.710   6.212 -0.1496 -0.0762 -0.3790
 6023SOL    HW129531   4.373   1.685   6.128 -0.5637  2.6015 -1.3766
 6023SOL    HW229532   4.241   1.701   6.204 -0.2779  1.4853 -0.7600
 6024SOL     OW29533   3.553   2.127   4.951  0.2397 -0.0901  0.2937
 6024SOL    HW129534   3.563   2.042   4.910 -0.8442  0.0471 -0.2574
 6024SOL    HW229535   3.503   2.182   4.890  1.4298  1.2911  0.5426
 6025SOL     OW29536   2.576   0.610   2.127  0.5533  0.3871  0.6166
 6025SOL    HW129537   2.501   0.636   2.181 -0.0361  0.1769 -0.0950
 6025SOL    HW229538   2.597   0.531   2.177 -0.6097  0.3444  1.0341
 6026SOL     OW29539   2.456   4.097  12.490  0.1667 -0.3410  0.5502
 6026SOL    HW129540   2.473   4.084  12.583  2.4536  0.5615  0.2608
 6026SOL    HW229541   2.389   4.165  12.495  0.7508  0.0800  2.6349
 6027SOL     OW29542   3.482   1.735   8.429 -0.5080 -0.2982  0.1066
 6027SOL    HW129543   3.400   1.687   8.432 -1.0617  0.5650 -1.3446
 6027SOL    HW229544   3.493   1.729   8.334 -0.9005  0.0047  0.0430
 6028SOL     OW29545   4.026   1.682   4.803  0.5128 -0.1032 -0.5456
 6028SOL    HW129546   3.982   1.598   4.787 -2.2428  1.3207 -0.3876
 6028SOL    HW229547   4.015   1.717   4.714 -2.3936  1.0589  0.2543
 6029SOL     OW29548   1.333   3.184   8.659  0.2604  0.0753 -0.1101
 6029SOL    HW129549   1.308   3.276   8.650 -0.6591 -0.1482  0.1114
 6029SOL    HW229550   1.251   3.161   8.702  1.9495 -1.2734  2.4125
 6030SOL     OW29551   4.531   3.150   8.123  0.0861  0.8996  0.3022
 6030SOL    HW129552   4.465   3.084   8.101  0.1772  1.7560 -2.4654
 6030SOL    HW229553   4.602   3.140   8.060 -0.3032 -0.8425  0.1430
 6031SOL     OW29554   1.526   1.835  11.367  0.2040 -0.3397 -0.4742
 6031SOL    HW129555   1.545   1.763  11.307  0.4779 -0.4297 -0.2790
 6031SOL    HW229556   1.475   1.889  11.306 -1.3946 -2.0421 -0.6469
 6032SOL     OW29557   0.913   1.828   8.439 -0.0440 -0.5186  0.0852
 6032SOL    HW129558   0.945   1.910   8.403 -0.2140 -0.8396 -0.7983
 6032SOL    HW229559   0.912   1.848   8.532  0.3489 -1.8670  0.3794
 6033SOL     OW29560   3.001   4.320   1.977  0.1860  0.1032 -0.0844
 6033SOL    HW129561   3.036   4.369   1.903  0.9846 -0.8219 -0.3061
 6033SOL    HW229562   2.986   4.236   1.934  1.1045  0.2902 -0.7553
 6034SOL     OW29563   1.610   2.449   6.513  0.1361 -0.3665 -0.4861
 6034SOL    HW129564   1.527   2.422   6.472 -0.1863 -0.7115  0.4061
 6034SOL    HW229565   1.607   2.544   6.503 -0.4677 -0.3947 -0.6169
 6035SOL     OW29566   3.570   2.001   4.201 -0.2104 -0.1073  0.0412
 6035SOL    HW129567   3.570   2.065   4.130  2.0354  0.8890  0.9425
 6035SOL    HW229568   3.478   1.977   4.190  0.0937 -1.3445  0.1983
 6036SOL     OW29569   3.719   3.999   2.623  0.1511 -0.1667 -0.3993
 6036SOL    HW129570   3.670   4.080   2.639 -0.2068 -0.8775  2.1182
 6036SOL    HW229571   3.777   4.022   2.550 -1.2030  0.0558 -1.4066
 6037SOL     OW29572   0.571   2.979  16.609 -0.1932  0.0870  0.1245
 6037SOL    HW129573   0.580   2.915  16.539 -0.7395 -0.4801  0.5712
 6037SOL    HW229574   0.618   2.934  16.679 -0.8371 -0.2937  0.3142
 6038SOL     OW29575   4.590   2.782  10.626  0.4915 -0.0687 -0.4129
 6038SOL    HW129576   4.664   2.723  10.639 -0.0866 -0.4233  1.3213
 6038SOL    HW229577   4.631   2.860  10.588 -1.0665  1.0237  0.1251
 6039SOL     OW29578   2.513   3.366   1.125 -0.3405  0.2761 -0.3105
 6039SOL    HW129579   2.532   3.459   1.116 -2.3008  0.7746  0.6917
 6039SOL    HW229580   2.460   3.346   1.048  0.0226 -0.0857 -0.4679
 6040SOL     OW29581   0.379   2.707   3.648  0.5224 -0.6424  0.0534
 6040SOL    HW129582   0.441   2.780   3.649 -2.3243  1.7749  2.9669
 6040SOL    HW229583   0.321   2.722   3.573  0.0219  1.0651  0.7737
 6041SOL     OW29584   1.656   0.189   5.838 -0.1132  0.6319 -0.1920
 6041SOL    HW129585   1.733   0.143   5.806 -1.2246 -0.5479 -1.2049
 6041SOL    HW229586   1.578   0.144   5.804  1.5399 -2.1591 -0.3189
 6042SOL     OW29587   4.289   2.717   6.409  0.2891 -0.8564 -0.2176
 6042SOL    HW129588   4.384   2.708   6.399  0.6561  3.3990 -0.7300
 6042SOL    HW229589   4.284   2.725   6.504 -3.2737  1.6620 -0.6279
 6043SOL     OW29590   0.346   1.377   6.419 -0.3283  0.1633 -0.1249
 6043SOL    HW129591   0.427   1.416   6.388 -0.4145  0.0446 -0.5014
 6043SOL    HW229592   0.344   1.297   6.366 -1.7994 -0.4100  0.7583
 6044SOL     OW29593   1.575   4.453  11.510  0.4474  0.3457  0.3899
 6044SOL    HW129594   1.502   4.500  11.551  1.0075  1.0869  0.5329
 6044SOL    HW229595   1.531   4.403  11.441 -1.7637 -0.1406  2.1388
 6045SOL     OW29596   4.398   0.608  15.202 -0.3278 -0.4228 -0.1218
 6045SOL    HW129597   4.455   0.670  15.155  0.3051  0.0303  1.2544
 6045SOL    HW229598   4.469   0.547  15.224 -0.2543  0.4913  2.1184
 6046SOL     OW29599   0.191   3.484   3.648 -0.1636 -0.3328 -0.0999
 6046SOL    HW129600   0.216   3.529   3.567  2.1776 -0.7872  0.3689
 6046SOL    HW229601   0.211   3.556   3.707 -0.3267  2.1154 -3.0842
 6047SOL     OW29602   4.714   3.010   2.511 -0.0265 -0.2551 -0.2321
 6047SOL    HW129603   4.699   3.003   2.417 -0.6890 -1.5238 -0.0246
 6047SOL    HW229604   0.004   3.105   2.513 -1.3009 -0.0577  0.3886
 6048SOL     OW29605   4.402   0.783   6.341 -0.2352 -0.1773  0.5462
 6048SOL    HW129606   4.421   0.697   6.379  0.8580 -0.2382 -0.1473
 6048SOL    HW229607   4.308   0.778   6.326 -0.0514 -0.9511 -0.3628
 6049SOL     OW29608   3.668   1.305  12.678 -0.0128  0.6945 -0.2170
 6049SOL    HW129609   3.688   1.366  12.748 -1.5338 -0.2488  1.0393
 6049SOL    HW229610   3.681   1.217  12.712 -0.0329  0.4406 -0.8691
 6050SOL     OW29611   1.488   0.163   3.362 -1.0309 -0.6276  0.5892
 6050SOL    HW129612   1.568   0.179   3.312 -1.5927  0.8637  0.1498
 6050SOL    HW229613   1.445   0.249   3.364 -0.1929 -0.1854 -0.5244
 6051SOL     OW29614   3.074   1.363  10.096  0.2135 -0.1805 -0.3185
 6051SOL    HW129615   3.138   1.351  10.026 -1.7360 -0.1826 -2.1207
 6051SOL    HW229616   3.132   1.406  10.158  2.0363 -0.7316 -1.6164
 6052SOL     OW29617   1.967   3.495   3.391  0.0889 -0.4237 -0.4694
 6052SOL    HW129618   1.987   3.460   3.304  0.4901 -0.8563 -0.1983
 6052SOL    HW229619   2.054   3.493   3.430  0.4486 -0.0080 -1.2344
 6053SOL     OW29620   2.425   4.178  13.803 -0.3338 -0.1894  0.1231
 6053SOL    HW129621   2.336   4.154  13.830 -0.5886  2.0941  1.3172
 6053SOL    HW229622   2.446   4.124  13.727  2.5263  2.6968 -1.1603
 6054SOL     OW29623   0.361   4.622   6.433  0.2292  0.2247  0.1943
 6054SOL    HW129624   0.268   4.637   6.415  0.5855  0.6466 -1.3353
 6054SOL    HW229625   0.364   4.527   6.443 -1.3334  0.0910 -0.5609
 6055SOL     OW29626   0.658   4.071   7.238  0.0594  0.2787 -0.4793
 6055SOL    HW129627   0.734   4.020   7.267 -2.0685 -1.4087  2.1439
 6055SOL    HW229628   0.630   4.016   7.165  0.6010  1.4037 -1.5252
 6056SOL     OW29629   3.362   3.493   2.340 -0.3363 -0.0329 -0.4548
 6056SOL    HW129630   3.409   3.425   2.388 -3.2529 -0.5636  1.6560
 6056SOL    HW229631   3.335   3.435   2.269  1.6011  0.5505 -1.6827
 6057SOL     OW29632   1.667   2.849   3.519 -0.0183  0.3813  0.4289
 6057SOL    HW129633   1.626   2.796   3.587  1.0231 -0.8319  0.1212
 6057SOL    HW229634   1.748   2.801   3.500 -0.6996  0.2478 -2.2690
 6058SOL     OW29635   1.547   0.395   2.475  0.4308 -0.2882 -0.1518
 6058SOL    HW129636   1.622   0.335   2.478 -3.6636 -5.2942  2.6411
 6058SOL    HW229637   1.581   0.461   2.414  1.2530 -2.1501 -1.7219
 6059SOL     OW29638   2.780   3.565  16.185 -0.4403 -0.1231 -0.2644
 6059SOL    HW129639   2.693   3.604  16.189 -1.2666 -2.0943  0.6464
 6059SOL    HW229640   2.814   3.577  16.274  0.0051  0.0956 -0.4609
 6060SOL     OW29641   1.980   0.800   7.480 -0.1424  0.8508  0.3372
 6060SOL    HW129642   2.023   0.717   7.498 -0.7978  0.2417 -0.8454
 6060SOL    HW229643   1.983   0.800   7.384 -1.8841  3.6794  0.2801
 6061SOL     OW29644   0.548   0.711   3.490  0.0425 -0.0197  0.4508
 6061SOL    HW129645   0.573   0.747   3.405  0.3391 -0.0491  0.5288
 6061SOL    HW229646   0.454   0.724   3.502  0.1868  2.0247 -0.6101
 6062SOL     OW29647   2.469   3.613   2.034  0.2995  0.0944  0.2017
 6062SOL    HW129648   2.505   3.590   1.948 -1.1110 -0.0142 -0.3601
 6062SOL    HW229649   2.399   3.548   2.033  0.6753 -0.3452  2.1790
 6063SOL     OW29650   1.293   3.915   0.436  0.3364  0.1480  0.4660
 6063SOL    HW129651   1.239   3.880   0.507  0.4310 -1.6662 -0.3392
 6063SOL    HW229652   1.224   3.930   0.370  0.8760 -0.5829 -0.2678
 6064SOL     OW29653   1.905   2.505   7.831  0.0825  0.0237  0.5316
 6064SOL    HW129654   1.903   2.538   7.741  3.2516 -2.4828 -0.4246
 6064SOL    HW229655   1.983   2.452   7.842 -0.5521 -0.5107  2.3909
 6065SOL     OW29656   4.255   1.000   1.792  0.6025 -0.2006 -0.0280
 6065SOL    HW129657   4.205   0.953   1.859  1.5083  1.1015  1.5402
 6065SOL    HW229658   4.208   0.978   1.712  0.1450 -1.2596  0.5259
 6066SOL     OW29659   1.024   4.661   2.897 -0.3348 -0.2925 -0.0184
 6066SOL    HW129660   1.067   4.719   2.833 -2.1920  1.1167  0.0156
 6066SOL    HW229661   0.986   0.010   2.944 -0.1468 -0.6829  0.7458
 6067SOL     OW29662   2.978   1.217   6.072  0.2529 -0.0324  0.1562
 6067SOL    HW129663   3.056   1.174   6.108  1.2586 -0.0172 -2.0250
 6067SOL    HW229664   3.013   1.283   6.013 -0.3126 -0.2244 -0.3909
 6068SOL     OW29665   1.446   0.367   5.184  0.0653  0.3998  0.2519
 6068SOL    HW129666   1.467   0.324   5.101 -0.6900  1.7938 -0.6649
 6068SOL    HW229667   1.400   0.443   5.148 -0.2980 -0.3539 -0.8821
 6069SOL     OW29668   1.778   4.153   6.207  0.2755  0.3880  0.2648
 6069SOL    HW129669   1.779   4.120   6.118  1.0083  0.3942  0.2673
 6069SOL    HW229670   1.834   4.090   6.254 -1.9197 -2.0469 -0.3865
 6070SOL     OW29671   1.254   4.248   5.555 -0.0223 -0.2382  0.6136
 6070SOL    HW129672   1.250   4.308   5.481  1.3931 -0.3594  0.4392
 6070SOL    HW229673   1.343   4.254   5.589 -0.9294  3.0385  2.3380
 6071SOL     OW29674   3.569   3.380   5.530  0.6624  0.0861  0.3057
 6071SOL    HW129675   3.550   3.409   5.619 -2.1638  3.3811 -1.3888
 6071SOL    HW229676   3.549   3.287   5.527  1.9850 -0.2571  2.1997
 6072SOL     OW29677   3.239   0.906   1.330 -0.7732  0.3323 -0.0881
 6072SOL    HW129678   3.315   0.964   1.326 -1.9597  1.9628  0.7440
 6072SOL    HW229679   3.246   0.884   1.237  0.9608 -1.0575  0.3844
 6073SOL     OW29680   3.968   4.125  13.756 -0.3959 -0.1079 -0.4868
 6073SOL    HW129681   4.057   4.114  13.721 -0.9047 -1.9385 -1.1790
 6073SOL    HW229682   3.983   4.182  13.831  2.3530 -0.7218 -0.5508
 6074SOL     OW29683   0.854   2.510   5.171 -0.3357 -0.3042 -0.3613
 6074SOL    HW129684   0.836   2.428   5.126 -0.5635  0.2458 -1.2750
 6074SOL    HW229685   0.795   2.552   5.109  0.3077  2.4164  0.8757
 6075SOL     OW29686   2.138   2.204   7.631  0.3194 -0.0148 -0.4346
 6075SOL    HW129687   2.162   2.214   7.538  1.1159 -0.3756 -0.2735
 6075SOL    HW229688   2.051   2.244   7.633  0.1898 -0.3588  0.3626
 6076SOL     OW29689   4.152   1.956   4.374  0.6685 -0.1213  0.3565
 6076SOL    HW129690   4.240   1.925   4.355  0.4310 -0.9476  0.6075
 6076SOL    HW229691   4.125   2.007   4.297 -0.6420 -0.0857  0.8323
 6077SOL     OW29692   1.108   1.674   4.623  0.3463 -0.6459  0.0401
 6077SOL    HW129693   1.082   1.760   4.591  1.4662 -0.5715 -0.6736
 6077SOL    HW229694   1.041   1.617   4.585  0.3829 -0.9522  0.4222
 6078SOL     OW29695   2.881   2.002   5.322 -0.5421  0.2057  0.0339
 6078SOL    HW129696   2.861   2.082   5.272 -2.5339 -0.3942 -0.1242
 6078SOL    HW229697   2.967   1.980   5.286 -0.8459  0.4413 -0.8301
 6079SOL     OW29698   3.549   2.171   2.068  0.4178  0.2758  0.0289
 6079SOL    HW129699   3.563   2.113   1.993  1.3609  1.5968 -0.8062
 6079SOL    HW229700   3.587   2.251   2.033  0.8781  0.5345  1.1248
 6080SOL     OW29701   3.396   4.276   0.935 -0.3427  0.1110  0.1744
 6080SOL    HW129702   3.445   4.320   0.866 -1.2948  1.0895  0.1143
 6080SOL    HW229703   3.467   4.236   0.985  1.0948 -1.4108 -3.0285
 6081SOL     OW29704   1.963   4.499   2.663 -0.0832  0.0512 -0.3943
 6081SOL    HW129705   1.949   4.455   2.747 -0.5170  0.4116 -0.2764
 6081SOL    HW229706   1.960   4.432   2.594 -1.8381 -0.6493  0.3442
 6082SOL     OW29707   2.585   1.928   6.220 -0.4278  0.1259  0.0254
 6082SOL    HW129708   2.572   2.017   6.187 -1.5281  0.3215  0.9779
 6082SOL    HW229709   2.524   1.921   6.294  0.4698  0.7642  0.8203
 6083SOL     OW29710   3.816   4.263   7.179  0.1158  0.4451  0.4714
 6083SOL    HW129711   3.858   4.295   7.099 -1.0566  0.3979 -0.1685
 6083SOL    HW229712   3.725   4.265   7.148 -0.8598  0.8894  3.3481
 6084SOL     OW29713   0.735   2.892   0.813  0.0210 -0.6134  0.2424
 6084SOL    HW129714   0.733   2.972   0.761  0.8774 -0.3515  0.6108
 6084SOL    HW229715   0.643   2.877   0.832 -0.2132 -0.0931 -0.5083
 6085SOL     OW29716   2.356   1.822  12.089  0.3323  0.6421  0.0205
 6085SOL    HW129717   2.322   1.816  11.999 -2.9960  1.6101  1.2516
 6085SOL    HW229718   2.401   1.907  12.095  0.2900  0.5835  1.0042
 6086SOL     OW29719   2.732   2.972   5.318 -0.5429 -0.1508 -0.3630
 6086SOL    HW129720   2.770   3.037   5.378  3.9318 -2.4634 -0.7170
 6086SOL    HW229721   2.796   2.906   5.344  1.0306  1.4186 -0.2456
 6087SOL     OW29722   2.246   4.264   3.293 -0.1176  0.7001 -1.1191
 6087SOL    HW129723   2.228   4.220   3.376 -0.3434  4.2339  0.6774
 6087SOL    HW229724   2.335   4.297   3.303  0.0206 -0.1231  0.3261
 6088SOL     OW29725   0.402   3.841  13.035 -0.5435 -0.4688 -0.6286
 6088SOL    HW129726   0.430   3.932  13.026  3.0093 -1.5931 -1.1648
 6088SOL    HW229727   0.376   3.818  12.946  1.7328  0.3439 -1.5099
 6089SOL     OW29728   0.851   3.910   4.170 -0.7467  0.3577 -0.2055
 6089SOL    HW129729   0.775   3.906   4.112  0.2784 -0.9943 -1.4475
 6089SOL    HW229730   0.920   3.909   4.104  0.7950 -1.0721  1.4219
 6090SOL     OW29731   3.708   0.179  17.428  0.2826 -0.0017 -0.1328
 6090SOL    HW129732   3.647   0.112  17.397 -1.3241  1.3512  0.1035
 6090SOL    HW229733   3.650   0.227  17.487  2.7498  0.9905  1.4735
 6091SOL     OW29734   4.577   0.985  15.932 -0.0368 -0.3329  0.0072
 6091SOL    HW129735   4.646   0.940  15.883 -0.6597 -1.8671  0.5440
 6091SOL    HW229736   4.584   1.074  15.899  1.5784 -1.0242 -1.5474
 6092SOL     OW29737   4.042   1.495   2.621  0.1523  0.1330 -0.0894
 6092SOL    HW129738   3.961   1.535   2.591 -0.3640 -0.8436 -0.0129
 6092SOL    HW229739   4.075   1.465   2.536 -1.8221 -0.6187 -0.5964
 6093SOL     OW29740   0.663   2.417   6.977 -0.3058  0.0955 -0.0461
 6093SOL    HW129741   0.637   2.425   7.068  0.3294 -1.0031  0.2359
 6093SOL    HW229742   0.613   2.343   6.943 -1.4627  0.7226  0.3082
 6094SOL     OW29743   2.379   0.141   6.321 -0.1741 -0.1574 -0.1234
 6094SOL    HW129744   2.405   0.184   6.402 -0.9465  0.2412 -0.0828
 6094SOL    HW229745   2.412   0.206   6.259 -1.5023  1.6794  1.0764
 6095SOL     OW29746   4.150   3.792   5.147 -0.1821 -0.6816 -0.4627
 6095SOL    HW129747   4.230   3.756   5.185 -0.4805  1.1488  1.8899
 6095SOL    HW229748   4.176   3.884   5.161  0.8971 -1.3772  2.1752
 6096SOL     OW29749   1.888   3.952   9.499  0.5341 -0.0695  0.0651
 6096SOL    HW129750   1.810   3.909   9.534 -0.1993  1.3153  0.1558
 6096SOL    HW229751   1.949   3.929   9.569 -2.2076 -1.6713  1.9053
 6097SOL     OW29752   4.592   3.309   6.626 -0.8854 -0.2689  0.2964
 6097SOL    HW129753   4.500   3.300   6.601 -0.5954  1.8121 -1.4709
 6097SOL    HW229754   4.580   3.315   6.721 -1.5532 -0.0234  0.1966
 6098SOL     OW29755   0.312   1.740  14.572  0.0515 -0.7024 -0.0024
 6098SOL    HW129756   0.220   1.756  14.551  0.1528 -1.4603 -1.0421
 6098SOL    HW229757   0.344   1.828  14.593 -1.6177 -0.1880  0.4058
 6099SOL     OW29758   1.853   0.561  13.336  0.5879  0.5978 -0.0521
 6099SOL    HW129759   1.913   0.546  13.409 -0.5392 -0.9193  0.5826
 6099SOL    HW229760   1.780   0.605  13.378 -0.5443 -2.1725  0.9005
 6100SOL     OW29761   0.264   3.509  10.640  0.0931  0.9429 -0.6062
 6100SOL    HW129762   0.216   3.584  10.604 -0.1286  0.9264 -0.3431
 6100SOL    HW229763   0.231   3.494  10.728  0.8401 -1.6878 -0.7868
 6101SOL     OW29764   2.120   4.128   8.309 -0.8961 -0.5456  0.4723
 6101SOL    HW129765   2.076   4.093   8.232  0.8280 -0.1628 -0.6794
 6101SOL    HW229766   2.125   4.045   8.356 -0.1725 -1.0636 -0.5070
 6102SOL     OW29767   2.910   4.416   6.538 -0.4251  0.1146  0.1831
 6102SOL    HW129768   2.886   4.443   6.449  1.6515 -0.6024 -0.5853
 6102SOL    HW229769   2.966   4.339   6.526  0.8996  1.0696  0.2570
 6103SOL     OW29770   4.006   2.156  10.024  0.1843 -0.6201  0.3942
 6103SOL    HW129771   3.936   2.132  10.085  0.2300 -0.4916  0.4950
 6103SOL    HW229772   3.966   2.230   9.979  2.0088 -0.5871 -1.1694
 6104SOL     OW29773   1.878   4.609   9.006  0.2236 -0.1308  0.2367
 6104SOL    HW129774   1.935   4.685   8.992 -0.1880 -0.3093 -2.4966
 6104SOL    HW229775   1.906   4.571   9.089 -0.4445 -0.9864  0.0731
 6105SOL     OW29776   0.017   0.152  12.240  0.1487 -0.3389 -0.1608
 6105SOL    HW129777   0.047   0.082  12.298  2.0702  1.7930  1.4339
 6105SOL    HW229778   0.024   0.106  12.157 -1.9956  1.1613 -1.1786
 6106SOL     OW29779   1.347   1.460   0.081 -0.1892  0.5178 -0.0540
 6106SOL    HW129780   1.265   1.458   0.032  0.1860  2.6209 -0.7825
 6106SOL    HW229781   1.408   1.455   0.007  1.2009  1.8645  1.0087
 6107SOL     OW29782   0.357   4.194  10.762  0.0852  0.3776  0.4131
 6107SOL    HW129783   0.377   4.103  10.739  1.3968  0.9551 -0.7924
 6107SOL    HW229784   0.336   4.185  10.854  0.0468  1.5717  0.5227
 6108SOL     OW29785   1.130   0.395   6.267 -0.0232 -0.4132  0.3139
 6108SOL    HW129786   1.166   0.339   6.335 -0.6300 -0.8211  0.3036
 6108SOL    HW229787   1.041   0.392   6.304  0.1386  0.9333  0.8329
 6109SOL     OW29788   4.361   4.236   1.686  0.3144 -0.1309 -0.9105
 6109SOL    HW129789   4.328   4.322   1.711  0.8993 -0.0106 -0.5293
 6109SOL    HW229790   4.286   4.199   1.640 -0.6759 -0.8156  1.2664
 6110SOL     OW29791   4.138   2.395  14.684  0.3079  0.5653  0.1681
 6110SOL    HW129792   4.073   2.372  14.751 -0.6684 -1.2413 -1.3791
 6110SOL    HW229793   4.220   2.363  14.720 -1.3963 -1.6386  2.1547
 6111SOL     OW29794   1.636   1.736  14.082  0.2202  0.0668 -0.0349
 6111SOL    HW129795   1.587   1.788  14.019 -2.7227 -1.6643  0.8136
 6111SOL    HW229796   1.628   1.779  14.167  1.1778 -0.0000  0.0882
 6112SOL     OW29797   3.059   2.366   3.642 -0.2230 -0.5361  0.1340
 6112SOL    HW129798   3.143   2.385   3.685 -0.5273  3.5398 -1.1231
 6112SOL    HW229799   3.016   2.311   3.707 -2.6805  1.9633  0.6296
 6113SOL     OW29800   0.166   0.584   6.563  0.2493  0.2527 -0.0064
 6113SOL    HW129801   0.254   0.563   6.595 -0.0742  0.2519  0.8947
 6113SOL    HW229802   0.124   0.503   6.533  1.0347 -0.7922  1.6736
 6114SOL     OW29803   3.295   0.276  17.472  0.4723  0.1651 -0.3297
 6114SOL    HW129804   3.290   0.204  17.535 -0.4768  0.3255 -0.2168
 6114SOL    HW229805   3.260   0.346  17.527  0.5811 -1.8962  2.3681
 6115SOL     OW29806   4.191   4.510   0.787  0.6496 -0.4053 -0.3498
 6115SOL    HW129807   4.140   4.582   0.823  0.4380 -1.1491  0.8627
 6115SOL    HW229808   4.262   4.529   0.848 -0.4217  1.4168  0.3059
 6116SOL     OW29809   3.525   2.651   6.507  0.4090 -0.1906 -0.7984
 6116SOL    HW129810   3.525   2.746   6.502  0.2355 -0.0632  1.3479
 6116SOL    HW229811   3.469   2.643   6.585  0.0764 -1.1235 -1.1378
 6117SOL     OW29812   0.147   0.255   0.548  0.4059 -0.2127 -0.5376
 6117SOL    HW129813   0.065   0.278   0.591  0.7245  0.4816 -0.2999
 6117SOL    HW229814   0.207   0.299   0.608 -1.9368  3.4237 -0.8477
 6118SOL     OW29815   3.727   3.207  11.336  0.6473 -0.3514 -0.2558
 6118SOL    HW129816   3.719   3.252  11.420  1.0193 -1.7949  0.5443
 6118SOL    HW229817   3.815   3.235  11.311 -0.5627  2.7465 -1.1122
 6119SOL     OW29818   2.980   4.263   7.448  0.1205 -0.4590  0.3834
 6119SOL    HW129819   2.948   4.227   7.365  2.8760  1.3951 -1.4925
 6119SOL    HW229820   2.937   4.206   7.511 -2.2775  1.3576  0.3900
 6120SOL     OW29821   0.946   2.375   9.057 -0.0317 -0.8545  0.2063
 6120SOL    HW129822   0.889   2.305   9.090 -1.6953  0.2971 -0.1997
 6120SOL    HW229823   1.027   2.328   9.038  0.9967  0.5935  1.0476
 6121SOL     OW29824   0.580   1.040   4.440 -0.0330  0.4198  0.1378
 6121SOL    HW129825   0.598   0.955   4.480 -0.0513  1.9354  3.3089
 6121SOL    HW229826   0.623   1.106   4.494  0.3047  0.4062 -0.1172
 6122SOL     OW29827   4.412   3.413   5.596 -0.3276  0.1393  0.1383
 6122SOL    HW129828   4.356   3.396   5.671  0.0884 -0.5832  0.2862
 6122SOL    HW229829   4.383   3.338   5.543 -0.4559  0.2476  0.0553
 6123SOL     OW29830   4.578   2.118   4.689 -0.4297 -0.1108 -0.5199
 6123SOL    HW129831   4.484   2.136   4.701 -0.2102  2.2594 -2.4595
 6123SOL    HW229832   4.603   2.207   4.712  0.0405 -0.4070  0.1159
 6124SOL     OW29833   4.155   0.402  15.139 -0.0261  0.4295  0.5165
 6124SOL    HW129834   4.179   0.398  15.232  1.9157 -2.6527 -0.1125
 6124SOL    HW229835   4.112   0.318  15.120 -2.5940  2.0394 -0.7480
 6125SOL     OW29836   1.489   3.469  10.432  0.8628 -0.0106 -0.0499
 6125SOL    HW129837   1.447   3.436  10.512  1.0085  1.9699  0.8233
 6125SOL    HW229838   1.567   3.414  10.443  2.2552  1.5352 -2.2218
 6126SOL     OW29839   2.763   4.564   6.018  0.0395  0.0361 -0.0869
 6126SOL    HW129840   2.713   4.584   5.939 -0.8719 -0.5326  0.3385
 6126SOL    HW229841   2.850   4.587   5.985 -0.2421  0.1223 -0.7768
 6127SOL     OW29842   4.077   2.791   2.347  0.2117 -0.6723 -0.0254
 6127SOL    HW129843   4.087   2.841   2.428  0.3840  1.3194 -1.2806
 6127SOL    HW229844   4.167   2.805   2.318 -1.3065  2.9785 -2.9820
 6128SOL     OW29845   4.390   1.840  11.103 -0.3428  0.4441 -0.4720
 6128SOL    HW129846   4.454   1.778  11.137  0.1784  1.3779  0.2451
 6128SOL    HW229847   4.454   1.911  11.097  1.0642 -0.4597  4.1845
 6129SOL     OW29848   1.125   0.614   2.441  0.6987  0.1947 -0.0642
 6129SOL    HW129849   1.086   0.542   2.390  0.2623 -0.0570  0.6192
 6129SOL    HW229850   1.078   0.688   2.402  0.9520 -0.2464 -1.2204
 6130SOL     OW29851   1.488   2.683   1.114 -0.4963  0.3600  0.2110
 6130SOL    HW129852   1.448   2.758   1.157 -1.9881 -1.2600  1.6317
 6130SOL    HW229853   1.574   2.688   1.156  0.0409  0.2928 -0.8614
 6131SOL     OW29854   1.503   2.642  13.278  0.3861  0.4537 -0.2293
 6131SOL    HW129855   1.437   2.702  13.311  1.3327  0.6525  1.3117
 6131SOL    HW229856   1.445   2.566  13.279  0.0702  0.7057  0.4914
 6132SOL     OW29857   1.524   4.164  14.596  0.3303 -0.2020 -0.9048
 6132SOL    HW129858   1.452   4.227  14.603 -0.4817 -1.1250 -0.8983
 6132SOL    HW229859   1.515   4.156  14.501 -1.9241  0.5239 -0.7450
 6133SOL     OW29860   4.590   2.786  13.310 -0.2706  0.3362 -0.5655
 6133SOL    HW129861   4.638   2.707  13.282 -0.3175  1.2585 -3.2333
 6133SOL    HW229862   4.589   2.791  13.405 -2.1085 -0.1690 -0.5494
 6134SOL     OW29863   2.133   1.612   0.467  0.2902  0.3360  0.0833
 6134SOL    HW129864   2.082   1.580   0.541 -0.4402 -0.6243 -0.8361
 6134SOL    HW229865   2.093   1.698   0.455 -0.6326 -0.4610 -2.6907
 6135SOL     OW29866   3.725   1.903   7.036  0.6370  0.1019  0.3176
 6135SOL    HW129867   3.717   1.953   7.117  1.8130  0.3361  0.2899
 6135SOL    HW229868   3.802   1.931   6.986  1.7449  0.6818  2.3403
 6136SOL     OW29869   1.348   3.738  17.632  0.2931  0.7414  0.2773
 6136SOL    HW129870   1.318   3.809  17.690 -3.8104 -0.2266 -0.6734
 6136SOL    HW229871   1.281   3.725  17.565  1.6213  1.1272 -1.1002
 6137SOL     OW29872   4.170   3.830   4.693  0.2679  0.0253 -0.1930
 6137SOL    HW129873   4.147   3.908   4.743  0.4337  0.7118 -1.1873
 6137SOL    HW229874   4.101   3.845   4.629 -1.5149 -1.1228  1.4768
 6138SOL     OW29875   3.235   1.359  10.331  0.1477 -0.1702 -0.3068
 6138SOL    HW129876   3.320   1.396  10.354  0.5259 -2.2344  1.7154
 6138SOL    HW229877   3.249   1.270  10.299 -1.8658 -0.9032  0.8181
 6139SOL     OW29878   1.445   2.514  12.370 -0.2238 -0.7425 -0.1041
 6139SOL    HW129879   1.425   2.557  12.453 -2.7226  2.0478 -2.1734
 6139SOL    HW229880   1.459   2.591  12.316  0.2270 -0.3135  0.6189
 6140SOL     OW29881   0.307   3.967  16.559 -0.4356 -1.0551  0.6145
 6140SOL    HW129882   0.303   4.045  16.503 -3.1901 -0.9643  0.9404
 6140SOL    HW229883   0.291   4.001  16.647 -1.4089  3.3707 -1.2680
 6141SOL     OW29884   0.415   4.220  16.467 -0.2445 -0.2862  0.6805
 6141SOL    HW129885   0.421   4.304  16.422 -3.1049  0.3906  1.5252
 6141SOL    HW229886   0.484   4.240  16.530  0.2849  2.2269 -0.6735
 6142SOL     OW29887   2.727   3.137   8.233  0.1027 -0.1253  0.5010
 6142SOL    HW129888   2.781   3.139   8.154  0.5305 -2.2166  0.7552
 6142SOL    HW229889   2.739   3.229   8.257 -0.4692  0.0927 -0.0522
 6143SOL     OW29890   3.507   4.261  12.755 -0.0835  0.4456 -1.0078
 6143SOL    HW129891   3.434   4.234  12.810 -0.1438 -0.8323 -1.7168
 6143SOL    HW229892   3.465   4.287  12.674 -0.5308  3.3274  0.1750
 6144SOL     OW29893   4.078   0.236   8.828 -0.0576 -0.1032  0.4205
 6144SOL    HW129894   4.054   0.328   8.816  1.6956  0.3920  0.6746
 6144SOL    HW229895   4.111   0.215   8.740 -0.4765 -3.9745  1.2090
 6145SOL     OW29896   2.732   0.461   0.250  0.0141 -0.1808 -0.1401
 6145SOL    HW129897   2.762   0.428   0.166 -3.0143 -1.0714 -0.8601
 6145SOL    HW229898   2.642   0.429   0.255 -0.4644  1.4291  1.8251
 6146SOL     OW29899   0.739   2.655   8.200  0.1140 -0.3466 -0.7997
 6146SOL    HW129900   0.834   2.653   8.199  0.1886  2.4022  1.6230
 6146SOL    HW229901   0.722   2.671   8.293 -2.0902 -1.8664 -0.9230
 6147SOL     OW29902   1.630   0.436  12.268  0.0859 -0.2598 -0.3892
 6147SOL    HW129903   1.721   0.459  12.253 -0.2273  2.3686  1.7183
 6147SOL    HW229904   1.635   0.420  12.362  0.2495  1.3774 -0.1232
 6148SOL     OW29905   3.291   1.323   3.514 -0.0850 -0.0754 -0.3127
 6148SOL    HW129906   3.336   1.244   3.483 -0.3634 -0.5222  0.4190
 6148SOL    HW229907   3.284   1.371   3.432  0.1096  1.7897  0.7578
 6149SOL     OW29908   2.121   2.144   2.717  0.0916  0.0461 -0.3098
 6149SOL    HW129909   2.210   2.111   2.707  0.4898  0.9767  0.1601
 6149SOL    HW229910   2.081   2.069   2.761 -1.4448  1.2829  0.4143
 6150SOL     OW29911   2.056   1.159   0.544  0.4845  0.7777 -0.4575
 6150SOL    HW129912   2.051   1.123   0.456 -1.7266 -0.5060  0.1925
 6150SOL    HW229913   2.125   1.223   0.530 -0.5767  2.4330  1.7864
 6151SOL     OW29914   3.667   1.582  10.160 -0.1294  0.4039  0.6044
 6151SOL    HW129915   3.747   1.536  10.134  0.2641  1.4694 -0.0863
 6151SOL    HW229916   3.608   1.535  10.101  1.8696 -1.6428  0.2458
 6152SOL     OW29917   4.104   1.756   6.424  0.2344  0.4822 -0.5936
 6152SOL    HW129918   4.190   1.796   6.413  0.5075  0.2908  0.7911
 6152SOL    HW229919   4.082   1.772   6.332  0.8024 -2.0270 -1.1718
 6153SOL     OW29920   2.236   2.826  10.483 -0.3710  0.0948 -0.4287
 6153SOL    HW129921   2.325   2.855  10.462  0.4018 -1.6546  0.4146
 6153SOL    HW229922   2.241   2.819  10.578 -0.3014  0.4334 -0.4057
 6154SOL     OW29923   3.473   2.026  17.474 -0.4073 -0.2143 -0.4315
 6154SOL    HW129924   3.499   2.117  17.483  0.9293 -0.6748  0.4131
 6154SOL    HW229925   3.525   1.979  17.539 -2.3889 -2.7904 -0.7112
 6155SOL     OW29926   2.173   0.855   5.976 -0.5078 -0.2562  1.1353
 6155SOL    HW129927   2.202   0.888   5.891 -1.1955 -0.2199  0.9157
 6155SOL    HW229928   2.249   0.797   5.984 -0.9587 -1.0291 -0.2106
 6156SOL     OW29929   3.707   1.076  13.981 -0.0509  0.1908 -0.7618
 6156SOL    HW129930   3.790   1.114  14.013 -0.5194  0.9494 -0.4443
 6156SOL    HW229931   3.652   1.103  14.054  2.2314  1.8338  0.3748
 6157SOL     OW29932   3.560   2.333   2.992  0.2382 -0.0412 -0.1585
 6157SOL    HW129933   3.557   2.246   2.952 -0.1348  0.1537 -0.5491
 6157SOL    HW229934   3.652   2.353   2.975  0.2669  0.4771  0.5894
 6158SOL     OW29935   2.308   0.042   7.484 -0.2004 -0.0340  0.1262
 6158SOL    HW129936   2.227   4.719   7.502 -0.0832  0.7623  2.6706
 6158SOL    HW229937   2.376   4.701   7.471  1.2389  1.5883 -0.5797
 6159SOL     OW29938   2.169   1.122   0.246 -0.5161 -0.0721  0.0427
 6159SOL    HW129939   2.118   1.174   0.185  0.7554 -2.3941 -3.0177
 6159SOL    HW229940   2.192   1.041   0.200 -1.3691  0.2233 -0.8827
 6160SOL     OW29941   0.163   2.746   3.450 -0.2468 -0.0765 -0.3476
 6160SOL    HW129942   0.110   2.809   3.401 -1.0103  0.8288  1.6138
 6160SOL    HW229943   0.194   2.691   3.379 -2.1636 -0.7685 -0.6409
 6161SOL     OW29944   3.435   1.750   2.993 -0.2214  0.1086 -0.5305
 6161SOL    HW129945   3.364   1.700   3.032  1.1594 -1.9766 -0.6680
 6161SOL    HW229946   3.474   1.676   2.946  0.5050  0.6819 -0.8271
 6162SOL     OW29947   2.078   0.165   9.795  0.5364  0.0767  0.3645
 6162SOL    HW129948   2.101   0.077   9.826  0.6069 -0.2983 -0.7811
 6162SOL    HW229949   2.135   0.224   9.844 -0.4521 -0.0158  1.6559
 6163SOL     OW29950   3.011   0.972   0.271  0.4876  0.2738  0.4318
 6163SOL    HW129951   2.923   1.002   0.290  0.6331  0.7302  0.3827
 6163SOL    HW229952   2.982   0.904   0.211  2.0380  0.1523 -0.1941
 6164SOL     OW29953   4.419   1.260   0.811  0.2028 -0.9990  0.1672
 6164SOL    HW129954   4.512   1.263   0.831 -0.2426 -0.9776  2.1742
 6164SOL    HW229955   4.385   1.318   0.879 -1.9998 -0.4163 -1.4066
 6165SOL     OW29956   3.058   1.895  16.030  0.4698 -0.1652 -0.1040
 6165SOL    HW129957   3.056   1.802  16.052  1.0675  0.0402  0.8527
 6165SOL    HW229958   3.075   1.903  15.936  0.0050  3.6184  0.1448
 6166SOL     OW29959   0.154   3.323   6.263 -0.6530  0.6200  0.5982
 6166SOL    HW129960   0.249   3.314   6.270 -0.8411 -0.5704  1.6467
 6166SOL    HW229961   0.152   3.349   6.171  1.7976  0.9660  0.6361
 6167SOL     OW29962   2.002   1.067   6.271  0.3743 -0.3965 -0.4512
 6167SOL    HW129963   2.065   1.077   6.199  1.5282  0.6173  0.6855
 6167SOL    HW229964   1.921   1.075   6.221  0.9457 -0.1936 -1.3617
 6168SOL     OW29965   2.054   1.387  16.318 -0.4910 -0.1669 -0.0219
 6168SOL    HW129966   1.965   1.371  16.350  0.1593  0.3265  2.0032
 6168SOL    HW229967   2.078   1.473  16.351  0.7846 -1.0176  1.2802
 6169SOL     OW29968   1.735   1.578  17.122  0.7191 -0.3548  0.2243
 6169SOL    HW129969   1.830   1.589  17.121  0.2166  4.0038  0.4667
 6169SOL    HW229970   1.723   1.582  17.217 -2.6088  0.8400 -0.2508
 6170SOL     OW29971   1.146   2.805  12.414  0.0660  0.1557  0.2495
 6170SOL    HW129972   1.158   2.870  12.483  0.1845 -1.2779  1.5571
 6170SOL    HW229973   1.236   2.800  12.380 -0.4603 -0.0066 -1.1495
 6171SOL     OW29974   3.921   1.132  13.377 -0.0157  0.2963  1.1782
 6171SOL    HW129975   4.001   1.120  13.427  1.5352 -0.4891 -1.4589
 6171SOL    HW229976   3.930   1.047  13.334  2.8776  1.7940 -1.2572
 6172SOL     OW29977   1.970   0.089  10.128 -0.1399 -0.3597  0.0369
 6172SOL    HW129978   1.950   0.031  10.202  1.3394 -0.9253 -0.0075
 6172SOL    HW229979   2.066   0.088  10.126 -0.2424 -1.9681 -2.4836
 6173SOL     OW29980   3.710   2.819  17.063  0.0119 -0.5938  0.0421
 6173SOL    HW129981   3.700   2.735  17.107 -1.3468 -1.1345 -1.2978
 6173SOL    HW229982   3.693   2.776  16.979  1.0187  1.1927 -1.0682
 6174SOL     OW29983   3.244   0.394  16.655  0.0840 -0.2872  0.3801
 6174SOL    HW129984   3.229   0.312  16.610  0.6124 -1.0865  1.6366
 6174SOL    HW229985   3.163   0.442  16.641 -0.5063 -1.5619 -0.4905
 6175SOL     OW29986   0.609   2.022   3.170 -0.0041 -0.0213 -0.2377
 6175SOL    HW129987   0.651   2.051   3.251  0.8863 -2.1537  0.0706
 6175SOL    HW229988   0.678   2.033   3.105  0.5828 -1.4523  0.1495
 6176SOL     OW29989   0.512   3.590   7.526 -0.0273 -0.2215  0.1230
 6176SOL    HW129990   0.567   3.554   7.596 -1.1923 -2.7275 -0.2621
 6176SOL    HW229991   0.458   3.513   7.509 -0.7997 -0.0745  1.9007
 6177SOL     OW29992   3.357   3.900   7.342  0.0852 -0.2917 -0.6083
 6177SOL    HW129993   3.268   3.868   7.326  0.4696 -2.2404  1.0575
 6177SOL    HW229994   3.341   3.934   7.431 -2.1559  1.4956 -1.6924
 6178SOL     OW29995   0.815   1.070   6.682 -0.5173 -0.4839  0.2468
 6178SOL    HW129996   0.767   0.996   6.718 -0.2916  0.6568  2.8736
 6178SOL    HW229997   0.764   1.104   6.609 -1.9122 -1.3882  0.8127
 6179SOL     OW29998   0.879   4.267   4.362  0.4075 -0.1544 -0.3891
 6179SOL    HW129999   0.922   4.233   4.284  2.1848  0.3823  0.3324
 6179SOL    HW230000   0.830   4.192   4.393 -1.5131  1.4865  0.5361
 6180SOL     OW30001   3.066   3.500   8.378 -0.3296 -0.1245 -0.1257
 6180SOL    HW130002   3.121   3.577   8.364 -0.1004 -0.4185 -0.8569
 6180SOL    HW230003   3.128   3.430   8.361  0.3216  0.1631  1.0507
 6181SOL     OW30004   1.645   4.589   2.923  0.1913  0.3792  0.4604
 6181SOL    HW130005   1.639   4.643   2.844  0.6446 -1.5012 -0.8750
 6181SOL    HW230006   1.578   4.631   2.976 -0.0217  0.2509  0.2930
 6182SOL     OW30007   0.021   2.210  13.900  0.4506 -0.1901  0.3888
 6182SOL    HW130008   4.691   2.141  13.863  0.1014 -0.9291  2.3128
 6182SOL    HW230009   4.680   2.272  13.929  2.0499  1.5364  0.3619
 6183SOL     OW30010   3.202   1.181   9.703 -0.0152  0.1749  0.3887
 6183SOL    HW130011   3.128   1.179   9.642  0.1830 -0.1763  0.1599
 6183SOL    HW230012   3.232   1.091   9.694  0.0285  0.2855 -0.5845
 6184SOL     OW30013   1.577   1.526   0.714 -0.4599 -0.0456 -0.0601
 6184SOL    HW130014   1.609   1.582   0.784 -0.0798  2.1927 -2.0392
 6184SOL    HW230015   1.663   1.513   0.675  0.1925  0.8665  1.1061
 6185SOL     OW30016   1.884   0.333  16.678 -0.1308 -0.5223  0.3537
 6185SOL    HW130017   1.811   0.270  16.680 -0.2224 -0.4207  0.2399
 6185SOL    HW230018   1.950   0.280  16.633  0.5707 -0.3512  1.2070
 6186SOL     OW30019   2.443   0.507   2.477  0.4147 -0.1463  0.1140
 6186SOL    HW130020   2.521   0.484   2.427 -0.0785  0.4392 -0.9328
 6186SOL    HW230021   2.389   0.429   2.461  0.1727 -0.2163  1.2984
 6187SOL     OW30022   4.651   2.165  10.335  0.0388 -0.0522 -0.1433
 6187SOL    HW130023   4.601   2.235  10.377 -0.8253 -1.1528  0.6689
 6187SOL    HW230024   4.716   2.158  10.405  1.9426 -0.6092 -1.9610
 6188SOL     OW30025   2.212   4.403  16.610  0.0676  0.5437  0.8719
 6188SOL    HW130026   2.294   4.443  16.580 -1.1334  0.5592 -2.4106
 6188SOL    HW230027   2.240   4.319  16.646  3.6337  0.8463 -1.2189
 6189SOL     OW30028   4.199   1.674   2.801 -0.1226 -0.0280  0.5221
 6189SOL    HW130029   4.190   1.615   2.726  1.0856  1.0898 -0.5017
 6189SOL    HW230030   4.204   1.763   2.765 -2.7158  0.4004  1.2012
 6190SOL     OW30031   0.106   0.666  12.195 -0.2617  0.9197 -0.0098
 6190SOL    HW130032   0.070   0.721  12.265  0.4959  0.3146  0.8523
 6190SOL    HW230033   0.127   0.581  12.234  0.2244  0.1896 -1.8597
 6191SOL     OW30034   0.097   1.742   7.938 -0.1005  0.2993  0.1425
 6191SOL    HW130035   0.189   1.750   7.914 -1.0298 -0.9923 -3.7574
 6191SOL    HW230036   0.052   1.779   7.862  0.4614 -1.2568 -0.9473
 6192SOL     OW30037   3.358   3.352   8.815  0.4898  0.3455  0.1574
 6192SOL    HW130038   3.363   3.316   8.904  2.0339  2.0748  0.7562
 6192SOL    HW230039   3.283   3.411   8.823 -1.1718 -1.3723 -2.8738
 6193SOL     OW30040   4.554   0.648  16.132  0.8666 -0.0386 -0.2381
 6193SOL    HW130041   4.576   0.723  16.188 -0.0115  0.1398 -0.1420
 6193SOL    HW230042   4.551   0.585  16.204  1.1474  0.1783 -0.0373
 6194SOL     OW30043   0.466   2.164  11.559 -0.3277 -0.2510  0.2236
 6194SOL    HW130044   0.434   2.213  11.483  1.2709  1.6046  0.7626
 6194SOL    HW230045   0.520   2.230  11.601  2.8205 -1.1139 -2.4851
 6195SOL     OW30046   0.457   1.209   8.679  0.1048  0.0723 -0.5073
 6195SOL    HW130047   0.545   1.249   8.677 -0.7515  2.0221  0.8030
 6195SOL    HW230048   0.464   1.150   8.605  3.8284  0.8905 -0.8352
 6196SOL     OW30049   1.379   4.147   3.002 -0.3496 -0.3647 -0.4431
 6196SOL    HW130050   1.450   4.093   2.967 -0.0694 -0.5812  0.4480
 6196SOL    HW230051   1.302   4.096   2.979 -0.8253  1.0101 -1.8414
 6197SOL     OW30052   4.474   2.652   6.824  0.3464  0.3439  0.6420
 6197SOL    HW130053   4.552   2.674   6.774  0.4598  0.8338  1.0282
 6197SOL    HW230054   4.515   2.621   6.906  0.0805  1.9028  1.3646
 6198SOL     OW30055   0.925   3.486   7.863 -0.4577 -0.2337  0.2421
 6198SOL    HW130056   0.970   3.409   7.828  0.5382  0.9387 -1.0227
 6198SOL    HW230057   0.838   3.486   7.822 -0.6632  1.5804  0.6824
 6199SOL     OW30058   2.867   4.028   9.856 -0.1638 -0.1270 -0.2090
 6199SOL    HW130059   2.893   4.038   9.948  0.8985 -0.0298 -0.5234
 6199SOL    HW230060   2.931   3.966   9.819  0.1113  1.7764 -2.8781
 6200SOL     OW30061   3.629   2.870   4.157  0.1772 -0.1527  0.2195
 6200SOL    HW130062   3.595   2.782   4.138  1.7477 -0.4665 -1.1107
 6200SOL    HW230063   3.649   2.905   4.070  1.2124 -1.4766 -0.0645
 6201SOL     OW30064   2.237   1.984   7.796  0.2241  0.1556  0.3660
 6201SOL    HW130065   2.187   2.056   7.758  0.9613  0.9594  0.9280
 6201SOL    HW230066   2.184   1.912   7.761  0.5547 -1.9049  4.0826
 6202SOL     OW30067   0.506   1.972   2.418  0.2155  0.3210  0.0557
 6202SOL    HW130068   0.535   1.982   2.508 -2.0703 -0.3349  0.8848
 6202SOL    HW230069   0.587   1.962   2.368 -1.2459 -0.1176 -2.2739
 6203SOL     OW30070   1.319   3.326   4.415 -0.4711 -0.5351 -0.0666
 6203SOL    HW130071   1.230   3.357   4.434  0.0001  1.4382 -1.1356
 6203SOL    HW230072   1.361   3.336   4.500  0.3881 -2.5144 -0.2528
 6204SOL     OW30073   2.952   3.133   2.277  0.2194  0.4157 -0.1344
 6204SOL    HW130074   2.875   3.083   2.247  0.7537  1.1346 -2.6695
 6204SOL    HW230075   2.946   3.211   2.223 -0.4325  0.8456  0.5527
 6205SOL     OW30076   3.409   0.220   4.368 -0.2679 -0.1921  0.2149
 6205SOL    HW130077   3.369   0.280   4.305  1.2515  0.9296  0.3465
 6205SOL    HW230078   3.391   0.267   4.449  0.7528  2.1970 -0.9637
 6206SOL     OW30079   1.456   3.613   6.419 -0.0238  0.4419  0.4000
 6206SOL    HW130080   1.533   3.573   6.460 -1.2953  0.0530  2.4124
 6206SOL    HW230081   1.506   3.667   6.358 -1.5468 -2.3165 -3.3167
 6207SOL     OW30082   0.268   0.394   2.925 -0.5094  0.3803 -0.6139
 6207SOL    HW130083   0.305   0.354   3.004 -2.7758 -0.6992 -0.0973
 6207SOL    HW230084   0.262   0.485   2.953  0.9320  0.7081 -1.3576
 6208SOL     OW30085   3.875   0.352  13.431  0.2775 -0.5376  0.1624
 6208SOL    HW130086   3.881   0.388  13.519  0.1292 -0.4335  0.1300
 6208SOL    HW230087   3.909   0.429  13.385 -1.5970  0.4433  0.4250
 6209SOL     OW30088   2.104   1.992  12.505 -0.0410  0.9711  0.2176
 6209SOL    HW130089   2.140   2.024  12.422  0.3926 -3.0149 -1.1187
 6209SOL    HW230090   2.015   2.026  12.502  0.2738  1.9062  1.6646
 6210SOL     OW30091   0.427   2.039   7.978  0.1436  0.1492 -0.0727
 6210SOL    HW130092   0.512   2.050   7.935  0.7028 -0.7278  0.8072
 6210SOL    HW230093   0.452   2.009   8.065  1.3670 -0.7600 -0.7350
 6211SOL     OW30094   3.215   1.084   0.021 -0.0819  0.1585 -0.5573
 6211SOL    HW130095   3.181   1.170  17.696 -0.0803  0.1542 -0.5733
 6211SOL    HW230096   3.143   1.070   0.081 -0.5491  0.1858 -1.1116
 6212SOL     OW30097   1.910   2.530  17.086  0.3250  0.6731  0.2391
 6212SOL    HW130098   1.984   2.473  17.108  0.1691 -0.5107 -2.2583
 6212SOL    HW230099   1.898   2.558  17.177 -1.3573 -0.9438  0.5157
 6213SOL     OW30100   0.789   0.246  14.778  0.1496  0.2834  0.2023
 6213SOL    HW130101   0.752   0.180  14.720 -0.6672  0.5706  0.3906
 6213SOL    HW230102   0.730   0.320  14.766  2.7290  2.3015  0.0682
 6214SOL     OW30103   4.423   3.747   6.843  0.0180 -0.0376 -0.3620
 6214SOL    HW130104   4.365   3.705   6.906  0.5862  0.5975  0.5876
 6214SOL    HW230105   4.378   3.831   6.852  0.0058  0.0198 -0.9216
 6215SOL     OW30106   4.201   4.310   2.239 -0.2462 -0.8223 -0.3383
 6215SOL    HW130107   4.204   4.234   2.180 -0.4720 -0.6393 -0.5869
 6215SOL    HW230108   4.287   4.346   2.218 -1.0541 -0.6986 -3.5079
 6216SOL     OW30109   0.631   2.539  17.083  0.1737  0.1166 -0.0853
 6216SOL    HW130110   0.628   2.445  17.099 -0.6350  0.0810 -0.4383
 6216SOL    HW230111   0.666   2.528  16.995  1.5553 -1.0676  0.6158
 6217SOL     OW30112   0.620   2.631   2.714  0.5590 -0.1045  0.1548
 6217SOL    HW130113   0.570   2.559   2.677  0.0197  0.2994  0.0913
 6217SOL    HW230114   0.562   2.681   2.771  0.6687  0.7094 -0.4307
 6218SOL     OW30115   4.643   0.489  11.336  0.1557 -0.6521  0.1890
 6218SOL    HW130116   4.590   0.555  11.292  2.7264 -1.7534 -4.5942
 6218SOL    HW230117   4.705   0.475  11.264  1.5277  1.6073  0.9401
 6219SOL     OW30118   3.396   0.289   3.908 -1.0398 -0.1111 -0.1336
 6219SOL    HW130119   3.403   0.334   3.993 -1.9010  1.0361 -0.6595
 6219SOL    HW230120   3.490   0.276   3.901 -0.9466  0.4189  0.0656
 6220SOL     OW30121   3.158   2.152   5.920  0.5973  0.1183 -0.1207
 6220SOL    HW130122   3.198   2.239   5.927  0.9085 -0.0898  0.6498
 6220SOL    HW230123   3.121   2.166   5.833 -0.9350  3.1299  1.0265
 6221SOL     OW30124   2.459   0.447   1.716  0.7414 -0.1495  0.2541
 6221SOL    HW130125   2.450   0.353   1.730 -1.8571  0.0536 -0.1315
 6221SOL    HW230126   2.463   0.447   1.620 -2.5054  1.7255  0.1449
 6222SOL     OW30127   0.139   3.865   8.115 -0.2426  0.0874  0.5468
 6222SOL    HW130128   0.174   3.804   8.050  0.4767 -0.9457  1.8828
 6222SOL    HW230129   0.159   3.948   8.073 -0.0459  0.7482  1.9678
 6223SOL     OW30130   3.959   1.586   1.388  0.8890  0.3950  0.1994
 6223SOL    HW130131   3.950   1.671   1.346  1.7023  0.4654  0.1731
 6223SOL    HW230132   4.042   1.555   1.354  0.5406 -0.0555 -0.2456
 6224SOL     OW30133   1.049   1.609   5.405  0.4482 -0.3285 -0.0529
 6224SOL    HW130134   0.986   1.679   5.390  1.7186  0.5747 -1.1855
 6224SOL    HW230135   1.021   1.550   5.336  1.2973 -0.0928 -0.5990
 6225SOL     OW30136   2.184   0.374   2.973 -0.1327 -0.0576 -0.6230
 6225SOL    HW130137   2.205   0.302   2.913  2.3429  0.5706 -0.5094
 6225SOL    HW230138   2.155   0.333   3.054  2.0052 -1.5506 -0.5971
 6226SOL     OW30139   1.950   1.140  14.413  0.0222 -0.3374 -0.4146
 6226SOL    HW130140   2.012   1.130  14.341 -0.7483 -0.4922 -1.0571
 6226SOL    HW230141   1.872   1.154  14.359 -0.4486 -0.4046  0.2428
 6227SOL     OW30142   3.799   0.285  16.699  0.2202  0.1603 -0.1023
 6227SOL    HW130143   3.742   0.226  16.747 -0.1083 -0.1554 -0.8725
 6227SOL    HW230144   3.770   0.267  16.609  0.0492  1.3865 -0.2984
 6228SOL     OW30145   2.796   1.227   6.823 -0.2620 -0.1753 -0.2179
 6228SOL    HW130146   2.810   1.196   6.733  0.7140 -0.3535 -0.0017
 6228SOL    HW230147   2.746   1.305   6.797 -0.8291 -0.2361  0.6827
 6229SOL     OW30148   0.759   2.410   9.455 -0.3094  0.3964 -0.1095
 6229SOL    HW130149   0.725   2.451   9.534  1.3430 -0.7718  1.2052
 6229SOL    HW230150   0.686   2.353   9.430  0.2066 -0.3176  0.0185
 6230SOL     OW30151   3.942   1.245  15.399  0.4077 -0.1079  0.2603
 6230SOL    HW130152   3.850   1.241  15.426 -0.4490 -1.1364 -2.8716
 6230SOL    HW230153   3.982   1.293  15.472 -0.3284  1.0349 -0.0978
 6231SOL     OW30154   2.295   2.192   3.864  0.1074 -0.2683  0.9814
 6231SOL    HW130155   2.234   2.121   3.845  0.3117 -0.7348  2.0552
 6231SOL    HW230156   2.373   2.139   3.881  0.9935  0.7024 -0.0800
 6232SOL     OW30157   1.918   4.152   7.631 -0.4083  0.1388  0.1128
 6232SOL    HW130158   1.992   4.138   7.691 -0.4017  1.2162  0.3542
 6232SOL    HW230159   1.858   4.205   7.683 -1.0576 -1.0739  0.6089
 6233SOL     OW30160   4.125   2.906   9.020  0.0296  0.2266  0.4297
 6233SOL    HW130161   4.140   2.812   9.013 -1.0506  0.1783 -1.0097
 6233SOL    HW230162   4.186   2.939   8.953  1.6815  1.1513  2.3711
 6234SOL     OW30163   2.852   0.443  10.694  0.0668  0.0876 -0.3828
 6234SOL    HW130164   2.803   0.362  10.680  0.1842 -0.2195  0.9681
 6234SOL    HW230165   2.778   0.503  10.702  1.2732  1.4465  0.4865
 6235SOL     OW30166   1.029   3.911   3.484  0.5297  0.0822  0.4602
 6235SOL    HW130167   0.944   3.914   3.440  1.0680  1.0068 -0.5134
 6235SOL    HW230168   1.032   3.820   3.512  2.1152 -0.2934 -0.9540
 6236SOL     OW30169   3.751   3.083   7.814 -0.1283  0.0066 -0.6193
 6236SOL    HW130170   3.739   3.057   7.905  2.2225  2.4521  0.4013
 6236SOL    HW230171   3.784   3.171   7.832  0.3003 -0.6779  1.9858
 6237SOL     OW30172   4.531   2.376  13.999 -0.0162  0.1255 -0.2309
 6237SOL    HW130173   4.485   2.300  14.032 -0.8060 -0.0612 -1.7231
 6237SOL    HW230174   4.556   2.404  14.087 -1.8248  0.7927  0.0888
 6238SOL     OW30175   4.212   1.517   1.314 -0.2420 -0.0585 -0.4270
 6238SOL    HW130176   4.244   1.450   1.376  3.3317  1.5734 -0.5129
 6238SOL    HW230177   4.248   1.589   1.365  0.2373 -1.8014  1.7172
 6239SOL     OW30178   2.194   4.449  17.243  0.1967 -0.3044 -0.6445
 6239SOL    HW130179   2.191   4.365  17.197 -1.2388  0.5661 -2.1261
 6239SOL    HW230180   2.246   4.512  17.192 -0.5354  0.0936 -0.8926
 6240SOL     OW30181   0.046   0.097   1.433 -0.1249 -0.0323 -0.5201
 6240SOL    HW130182   0.039   0.191   1.444  0.6310 -0.1242  0.6656
 6240SOL    HW230183   4.704   0.089   1.364 -1.7336 -0.0395  1.0325
 6241SOL     OW30184   4.399   0.493   3.528  0.7625  0.2097 -0.3573
 6241SOL    HW130185   4.422   0.409   3.489 -1.8867  1.0510 -3.7731
 6241SOL    HW230186   4.310   0.467   3.553  1.8337 -2.3106  0.8748
 6242SOL     OW30187   3.494   0.467   5.902  0.2416 -0.0035  0.7956
 6242SOL    HW130188   3.578   0.497   5.870  0.0226  0.1101  0.3273
 6242SOL    HW230189   3.474   0.390   5.848 -1.5375  2.1330 -1.5435
 6243SOL     OW30190   0.312   3.104   7.393 -0.4120  0.0131 -0.2420
 6243SOL    HW130191   0.292   3.083   7.302  0.3318  1.7922 -0.8132
 6243SOL    HW230192   0.264   3.035   7.441 -0.5641  0.3683  0.1194
 6244SOL     OW30193   2.903   0.317   2.100 -0.4434  0.1601  0.3179
 6244SOL    HW130194   2.835   0.324   2.033  1.5443 -0.6533 -1.7902
 6244SOL    HW230195   2.861   0.256   2.160 -0.3204 -0.6507 -0.4173
 6245SOL     OW30196   2.348   0.662   2.264  0.1930  0.3199 -0.2686
 6245SOL    HW130197   2.258   0.658   2.230  0.7897 -1.7110 -1.6547
 6245SOL    HW230198   2.355   0.619   2.349 -1.2944 -1.4374 -1.0073
 6246SOL     OW30199   0.201   2.058   4.243 -0.8879  0.4035  0.0765
 6246SOL    HW130200   0.274   2.016   4.196 -1.3654 -3.7310  2.9982
 6246SOL    HW230201   0.138   1.991   4.269 -0.5175 -0.3981 -1.1044
 6247SOL     OW30202   4.588   3.734  14.186 -0.0919 -0.7992  0.4836
 6247SOL    HW130203   4.546   3.800  14.131 -0.2127 -0.2346  1.2527
 6247SOL    HW230204   4.604   3.667  14.120  0.1760 -2.0110  1.7691
 6248SOL     OW30205   2.314   4.600   1.936  0.1582 -0.2366  0.2178
 6248SOL    HW130206   2.289   4.521   1.887 -1.4999  0.5740 -0.2491
 6248SOL    HW230207   2.407   4.614   1.921  0.0619 -0.1644 -0.3249
 6249SOL     OW30208   2.127   4.139   2.930  0.5738 -0.5644  0.2877
 6249SOL    HW130209   2.098   4.223   2.894 -1.3943 -0.9926  0.9162
 6249SOL    HW230210   2.127   4.082   2.853 -1.6634 -1.0420  0.6560
 6250SOL     OW30211   4.041   3.348   9.347  0.0507 -0.4954 -0.1786
 6250SOL    HW130212   4.094   3.427   9.362  0.2955 -0.4755 -1.1306
 6250SOL    HW230213   3.954   3.383   9.331  1.2796  3.7850  2.3735
 6251SOL     OW30214   3.543   2.716   0.941  0.2108 -0.4715  0.0081
 6251SOL    HW130215   3.552   2.696   1.034  0.1162  0.0323  0.1266
 6251SOL    HW230216   3.453   2.692   0.922  1.1013 -2.2703 -2.0257
 6252SOL     OW30217   4.283   2.998   5.875 -0.2206 -0.6826 -0.0805
 6252SOL    HW130218   4.354   3.042   5.828  1.0258 -1.6479  0.8772
 6252SOL    HW230219   4.331   2.929   5.921  3.2131  3.5677  2.7207
 6253SOL     OW30220   2.937   2.915   5.058  0.0791  0.0421 -0.4146
 6253SOL    HW130221   2.861   2.917   5.115  0.3436  0.0951 -0.0667
 6253SOL    HW230222   3.006   2.934   5.121 -0.9139  3.3063 -0.2857
 6254SOL     OW30223   1.088   0.861   1.805 -0.1388  0.4291  0.8203
 6254SOL    HW130224   1.063   0.852   1.713  1.4979 -0.4173  0.4674
 6254SOL    HW230225   1.115   0.770   1.821 -0.7805 -0.2315 -1.8511
 6255SOL     OW30226   2.505   4.690   4.056  0.0461 -0.1291 -0.3126
 6255SOL    HW130227   2.498   4.680   4.151 -1.7179 -0.3928 -0.4685
 6255SOL    HW230228   2.573   4.627   4.034  1.8067  0.7908  2.4475
 6256SOL     OW30229   0.504   4.558   9.242 -0.1355  0.3011 -0.2526
 6256SOL    HW130230   0.561   4.549   9.165  0.0855 -0.9615  0.0617
 6256SOL    HW230231   0.544   4.631   9.290  0.1164  0.6968 -1.0596
 6257SOL     OW30232   0.316   3.137   8.357 -0.7179 -0.0328  0.1532
 6257SOL    HW130233   0.232   3.176   8.334 -0.3230  1.4752  1.2755
 6257SOL    HW230234   0.351   3.197   8.423  0.7524 -1.8679  1.0521
 6258SOL     OW30235   1.825   2.151   8.549 -0.7111 -0.1916 -0.4045
 6258SOL    HW130236   1.773   2.230   8.558 -0.2484 -0.2142  2.6151
 6258SOL    HW230237   1.831   2.118   8.639  0.7215  0.0754 -0.4039
 6259SOL     OW30238   2.502   1.044   7.129 -0.0028  0.0526 -0.0061
 6259SOL    HW130239   2.595   1.036   7.148 -0.0790  0.9347  0.7536
 6259SOL    HW230240   2.494   1.097   7.050 -0.2909  1.1252  0.7407
 6260SOL     OW30241   3.711   2.650  11.796 -0.0648 -0.3594  0.8972
 6260SOL    HW130242   3.657   2.727  11.811 -0.1467 -0.1490 -0.5085
 6260SOL    HW230243   3.671   2.589  11.858  0.6484 -1.5114  0.2231
 6261SOL     OW30244   0.475   4.239   4.087  0.7039 -0.0173 -0.5598
 6261SOL    HW130245   0.422   4.318   4.086  0.1645 -0.4174 -2.1098
 6261SOL    HW230246   0.518   4.249   4.002  2.1325  0.6786  0.2299
 6262SOL     OW30247   3.760   3.972   7.477  0.3679  0.2935  0.4555
 6262SOL    HW130248   3.836   3.998   7.425  0.0596  1.4117  0.5763
 6262SOL    HW230249   3.738   3.887   7.438 -0.3925  0.1124  1.2863
 6263SOL     OW30250   2.149   2.118   6.107  0.0003  0.2613 -0.6265
 6263SOL    HW130251   2.242   2.124   6.132 -0.0076  0.4554 -0.6396
 6263SOL    HW230252   2.108   2.203   6.123 -1.9285 -0.7913 -0.1028
 6264SOL     OW30253   3.207   0.213   5.199 -0.1723 -0.4034 -0.1315
 6264SOL    HW130254   3.236   0.146   5.260 -0.8713  0.0249  0.6699
 6264SOL    HW230255   3.131   0.172   5.158  0.0198 -0.1782 -0.7112
 6265SOL     OW30256   0.852   3.261   2.895  0.8424  0.1907  1.0111
 6265SOL    HW130257   0.898   3.233   2.816 -0.4040 -0.6847  0.6187
 6265SOL    HW230258   0.810   3.346   2.883  0.0105 -0.3112  0.4684
 6266SOL     OW30259   3.915   1.899   7.440 -1.2198  0.0921 -0.0256
 6266SOL    HW130260   3.896   1.868   7.528  0.3252  0.1819  0.3437
 6266SOL    HW230261   3.902   1.824   7.382 -0.4027 -1.4212  1.7587
 6267SOL     OW30262   1.015   4.486  14.666  0.8606 -0.3949 -0.0973
 6267SOL    HW130263   0.985   4.573  14.640  1.4755 -0.4875 -1.0916
 6267SOL    HW230264   0.946   4.424  14.645  0.3671  0.4384 -0.9580
 6268SOL     OW30265   4.238   3.487   8.798 -0.5772 -0.7340  0.2087
 6268SOL    HW130266   4.158   3.529   8.767 -1.3000 -2.7749 -0.6951
 6268SOL    HW230267   4.287   3.564   8.828 -1.9121  1.0446 -2.1566
 6269SOL     OW30268   4.189   3.310   2.269 -0.4997 -0.3557 -0.1149
 6269SOL    HW130269   4.100   3.293   2.297 -1.7039  2.1418 -2.4698
 6269SOL    HW230270   4.172   3.377   2.203 -0.8335  0.3254  0.6718
 6270SOL     OW30271   2.563   0.019   2.940 -0.4982 -0.8588  0.5875
 6270SOL    HW130272   2.512   4.672   2.902  0.7839 -1.3054 -0.2903
 6270SOL    HW230273   2.628   0.046   2.875  2.3948 -2.9430  2.6190
 6271SOL     OW30274   2.766   4.225   7.256 -0.1918 -0.1303 -0.5467
 6271SOL    HW130275   2.702   4.184   7.314 -0.0931 -1.4333 -1.3534
 6271SOL    HW230276   2.709   4.253   7.184 -1.4863 -0.8955  0.1828
 6272SOL     OW30277   1.405   1.280   4.542  0.1253  0.0212 -0.0245
 6272SOL    HW130278   1.463   1.206   4.560 -0.5786 -0.5744 -0.2245
 6272SOL    HW230279   1.366   1.294   4.628  0.9709  0.1344  0.3419
 6273SOL     OW30280   1.454   0.829   0.043 -0.8048 -0.7030 -0.5865
 6273SOL    HW130281   1.391   0.766   0.010 -1.1850  0.3889 -1.9686
 6273SOL    HW230282   1.467   0.804   0.135  0.3060  0.7750 -0.3334
 6274SOL     OW30283   4.377   4.465   3.414  0.4444  0.0350 -0.7043
 6274SOL    HW130284   4.356   4.555   3.392 -0.4067  0.0312  0.0816
 6274SOL    HW230285   4.454   4.453   3.358 -0.0529 -1.8987 -0.9637
 6275SOL     OW30286   3.741   3.554   3.639 -0.1854  0.4982  0.4285
 6275SOL    HW130287   3.658   3.520   3.673  0.5677 -1.7405  0.0090
 6275SOL    HW230288   3.739   3.644   3.670 -2.9410  0.0076  1.6921
 6276SOL     OW30289   0.414   3.701   0.859  0.1652 -0.0071  0.4208
 6276SOL    HW130290   0.372   3.767   0.914  1.5832 -0.2585  1.8241
 6276SOL    HW230291   0.350   3.682   0.791  2.6847  0.5237 -2.1164
 6277SOL     OW30292   0.086   0.190   4.928 -0.0037 -0.0677 -0.1587
 6277SOL    HW130293   0.162   0.210   4.984  0.7600  0.1131 -1.2607
 6277SOL    HW230294   0.092   0.095   4.922  1.3845 -0.1328  1.9207
 6278SOL     OW30295   2.151   4.494   6.925 -0.5698 -0.1211  0.1924
 6278SOL    HW130296   2.126   4.562   6.987  0.4571 -1.2416  1.8318
 6278SOL    HW230297   2.074   4.437   6.934  0.8656 -2.2949 -0.9937
 6279SOL     OW30298   3.406   2.473   5.196  0.0783 -0.0589 -0.5032
 6279SOL    HW130299   3.441   2.470   5.286 -0.2040  0.9133 -0.3669
 6279SOL    HW230300   3.399   2.379   5.181  0.0768 -0.3254  1.1187
 6280SOL     OW30301   3.707   4.641   5.851 -0.4786 -0.0295 -0.4514
 6280SOL    HW130302   3.761   4.661   5.928 -1.0871  0.4802 -0.1614
 6280SOL    HW230303   3.659   4.567   5.887 -2.1045  1.1165 -0.3119
 6281SOL     OW30304   1.093   0.376  13.757  0.0366 -0.3015  0.1615
 6281SOL    HW130305   1.101   0.464  13.794  3.0230  0.4606 -2.3321
 6281SOL    HW230306   1.034   0.329  13.815 -1.2011 -0.1433 -0.9731
 6282SOL     OW30307   2.764   4.672   9.756 -0.2050  0.4452 -0.1663
 6282SOL    HW130308   2.803   0.024   9.715 -0.0184  1.4769  1.9805
 6282SOL    HW230309   2.793   4.676   9.847 -0.3233  2.0641 -0.2077
 6283SOL     OW30310   3.796   2.353  10.327 -0.2988  0.1832 -0.0679
 6283SOL    HW130311   3.810   2.448  10.329 -1.3053  0.2633  3.1369
 6283SOL    HW230312   3.702   2.344  10.308 -0.6623  1.0067  1.3092
 6284SOL     OW30313   2.576   1.380   7.542  0.0481  0.0477 -0.4240
 6284SOL    HW130314   2.589   1.473   7.562 -1.0746  0.1311 -0.0751
 6284SOL    HW230315   2.606   1.338   7.623 -0.3754  0.4628 -0.0501
 6285SOL     OW30316   2.642   0.413   8.617  0.5211 -0.1075  0.2417
 6285SOL    HW130317   2.720   0.422   8.563  1.3601 -1.4857  1.2273
 6285SOL    HW230318   2.678   0.342   8.670 -2.3180  0.0538  2.4232
 6286SOL     OW30319   0.896   0.043   6.058  0.0007 -0.3972  0.1359
 6286SOL    HW130320   0.899   0.129   6.014  0.3954 -0.7983 -0.6315
 6286SOL    HW230321   0.965   4.712   6.023 -0.4742 -1.9457  1.7316
 6287SOL     OW30322   2.053   1.341   2.542  0.8960  0.2371 -0.0176
 6287SOL    HW130323   1.988   1.292   2.594  0.0682  0.7772 -0.5595
 6287SOL    HW230324   2.125   1.336   2.605  1.0161  2.6465  0.0078
 6288SOL     OW30325   1.211   2.469   5.468  0.1192  1.0717 -0.2765
 6288SOL    HW130326   1.195   2.541   5.407  1.5951  2.3693  0.8727
 6288SOL    HW230327   1.307   2.465   5.464 -0.0084 -2.6690  0.2681
 6289SOL     OW30328   2.188   0.185   7.121  0.5868  0.6101  0.0700
 6289SOL    HW130329   2.229   0.207   7.037  0.0375  1.2364 -0.0328
 6289SOL    HW230330   2.121   0.252   7.131  1.2998  1.3611 -0.1379
 6290SOL     OW30331   4.378   1.775   5.187  0.0491  0.0696  0.2497
 6290SOL    HW130332   4.293   1.796   5.149 -0.0529 -0.4983  0.1614
 6290SOL    HW230333   4.394   1.682   5.172  0.2318  0.3557 -1.3782
 6291SOL     OW30334   0.551   3.179  13.280  0.1642  0.6841 -0.0361
 6291SOL    HW130335   0.490   3.152  13.349 -0.7226  1.7911 -0.3835
 6291SOL    HW230336   0.536   3.273  13.285  0.4582  0.8054 -1.3594
 6292SOL     OW30337   1.687   1.614   7.757 -0.4813  0.2675 -0.1893
 6292SOL    HW130338   1.683   1.530   7.802  0.4398 -0.0351 -0.6822
 6292SOL    HW230339   1.753   1.660   7.809 -1.1230  1.0227 -0.0283
 6293SOL     OW30340   3.731   4.663  13.457 -0.1362 -0.3173 -0.8958
 6293SOL    HW130341   3.761   4.653  13.547  2.0063 -2.8362 -1.8751
 6293SOL    HW230342   3.791   0.006  13.428  0.1283  0.0179  0.4602
 6294SOL     OW30343   3.918   2.982   1.418  0.9254  0.5273  0.3236
 6294SOL    HW130344   3.858   2.909   1.403 -0.9146  2.3281 -0.9629
 6294SOL    HW230345   3.924   3.006   1.325  0.1407  1.3376  0.4943
 6295SOL     OW30346   1.464   0.015   1.083 -0.0880 -0.1061 -0.0964
 6295SOL    HW130347   1.507   0.100   1.079 -0.7113  0.2020 -0.2221
 6295SOL    HW230348   1.394   0.023   1.018 -1.5474 -0.8357  1.3979
 6296SOL     OW30349   3.153   2.948   6.193  0.1303  0.3868 -0.1614
 6296SOL    HW130350   3.226   2.886   6.200 -0.6478 -0.5192 -0.0075
 6296SOL    HW230351   3.103   2.906   6.122 -1.6398 -0.5597  1.6425
 6297SOL     OW30352   2.618   3.832   5.918 -1.1120 -0.0864 -0.1430
 6297SOL    HW130353   2.656   3.917   5.938  0.9628 -1.0331 -0.0223
 6297SOL    HW230354   2.691   3.774   5.895  0.4980  1.5770  0.8355
 6298SOL     OW30355   3.007   0.691   3.231  0.4334 -0.3520  1.1789
 6298SOL    HW130356   3.072   0.726   3.170 -0.5497 -1.5195 -0.5433
 6298SOL    HW230357   2.947   0.641   3.175 -0.2169  0.0916  1.4809
 6299SOL     OW30358   3.553   2.339   7.646 -0.4714  0.2242 -0.0041
 6299SOL    HW130359   3.642   2.306   7.630  0.1086  1.2910  0.9936
 6299SOL    HW230360   3.568   2.433   7.633 -1.4188  0.0322 -2.4768
 6300SOL     OW30361   2.328   4.348   5.366 -0.5304  0.3252  0.1557
 6300SOL    HW130362   2.347   4.314   5.453 -0.7919  0.3671  0.2314
 6300SOL    HW230363   2.323   4.441   5.389  1.8599  0.6128 -0.5618
 6301SOL     OW30364   0.278   0.240   5.144  0.5971 -0.3172 -0.4482
 6301SOL    HW130365   0.279   0.335   5.139  0.9739 -0.3833 -1.5887
 6301SOL    HW230366   0.371   0.225   5.159  0.1986 -1.5490  0.7900
 6302SOL     OW30367   3.294   2.079   8.082 -0.0392  0.1848  0.8623
 6302SOL    HW130368   3.240   2.159   8.083 -0.0310  0.2014 -0.4693
 6302SOL    HW230369   3.276   2.053   8.172 -0.5686  0.2411  0.7759
 6303SOL     OW30370   3.086   3.718  11.475  0.4382  0.3735 -0.3998
 6303SOL    HW130371   3.080   3.743  11.567  0.0464  1.7971 -0.8184
 6303SOL    HW230372   3.053   3.628  11.467  2.1315 -0.1856 -1.2205
 6304SOL     OW30373   2.940   3.793   5.185  0.3981  0.2977 -0.0810
 6304SOL    HW130374   2.962   3.853   5.114 -0.1673 -0.4640 -0.9022
 6304SOL    HW230375   2.847   3.779   5.171 -0.0917  2.3398  1.1016
 6305SOL     OW30376   0.320   2.869   3.885  0.1598  0.4136  0.8538
 6305SOL    HW130377   0.282   2.898   3.802  0.7194  0.1342  0.4926
 6305SOL    HW230378   0.360   2.783   3.869  1.2653  1.0178  0.3027
 6306SOL     OW30379   1.982   4.210   1.762 -0.0853 -0.3934  0.1962
 6306SOL    HW130380   1.958   4.242   1.675  0.3244  1.1631  0.6433
 6306SOL    HW230381   1.908   4.152   1.779 -0.5848  0.4833  0.9895
 6307SOL     OW30382   3.413   1.682   0.679 -0.4192  0.0940  0.0395
 6307SOL    HW130383   3.330   1.655   0.640 -1.0914  1.0306  0.8150
 6307SOL    HW230384   3.449   1.731   0.605 -2.3841 -0.6064 -1.3786
 6308SOL     OW30385   0.247   1.679   2.899  0.1815  0.1266  0.0929
 6308SOL    HW130386   0.310   1.610   2.879 -0.1285  0.2004 -1.1478
 6308SOL    HW230387   0.293   1.758   2.868 -0.0279 -0.2375 -1.1296
 6309SOL     OW30388   1.057   3.893   0.909  0.0586 -0.6668  0.0965
 6309SOL    HW130389   1.013   3.817   0.946  1.7363 -1.0646  1.3204
 6309SOL    HW230390   1.133   3.902   0.967  0.5332  0.0544 -0.6297
 6310SOL     OW30391   2.195   2.384   6.831 -0.5113  0.2614  0.9101
 6310SOL    HW130392   2.279   2.418   6.800 -0.8061 -1.3970 -1.6445
 6310SOL    HW230393   2.179   2.309   6.774  1.7828  0.1573  0.4086
 6311SOL     OW30394   3.441   0.628   1.616  0.0136  0.5499 -1.0371
 6311SOL    HW130395   3.430   0.620   1.521  1.6916 -2.8815 -0.9459
 6311SOL    HW230396   3.453   0.535   1.636  0.5647  0.9978  0.7467
 6312SOL     OW30397   1.274   4.719   6.154  0.1392  0.1032 -0.5857
 6312SOL    HW130398   1.244   4.685   6.070  1.1231 -1.7633 -0.1716
 6312SOL    HW230399   1.298   0.085   6.132  2.7585  0.3262  3.1688
 6313SOL     OW30400   4.461   2.049   9.896  0.1356  0.2694  0.0093
 6313SOL    HW130401   4.491   2.136   9.923  2.9555  0.1739 -2.8499
 6313SOL    HW230402   4.396   2.032   9.964  0.3542  0.6031  0.3034
 6314SOL     OW30403   0.637   1.070   2.561 -0.4787  0.4297 -0.1236
 6314SOL    HW130404   0.661   0.981   2.537 -1.7582  0.4203 -1.3480
 6314SOL    HW230405   0.699   1.130   2.520  1.2998 -0.6620  0.9723
 6315SOL     OW30406   2.188   4.668   2.162 -0.0818 -0.3121 -0.3066
 6315SOL    HW130407   2.240   4.640   2.086 -0.3408  1.5219 -1.1529
 6315SOL    HW230408   2.099   4.643   2.136 -2.1667  1.6633  5.0633
 6316SOL     OW30409   3.913   3.519  14.237  0.0962 -0.5126 -0.0327
 6316SOL    HW130410   3.975   3.567  14.292  1.0472 -0.1350 -1.4424
 6316SOL    HW230411   3.963   3.522  14.156  1.7602 -1.3697  0.9502
 6317SOL     OW30412   2.205   4.425   7.735  0.3150 -0.5753  0.0231
 6317SOL    HW130413   2.178   4.515   7.753 -0.5452 -0.9552  0.6248
 6317SOL    HW230414   2.136   4.371   7.772 -0.8889  1.8464  1.2559
 6318SOL     OW30415   4.248   2.204   5.314 -0.4521  0.3912 -0.1075
 6318SOL    HW130416   4.318   2.265   5.337  0.0624 -0.5496  0.8397
 6318SOL    HW230417   4.197   2.201   5.395 -0.1455 -1.4065  0.0200
 6319SOL     OW30418   1.232   2.550   1.673  0.3825 -0.0221 -0.2888
 6319SOL    HW130419   1.156   2.558   1.616 -0.0146 -1.6577  0.0128
 6319SOL    HW230420   1.231   2.627   1.729  1.2100  0.7621 -1.3580
 6320SOL     OW30421   4.294   0.607   1.765 -0.1236 -0.0147  0.5448
 6320SOL    HW130422   4.261   0.533   1.714  0.2597 -0.3042  0.7154
 6320SOL    HW230423   4.380   0.605   1.722 -2.0680 -1.4716 -3.2501
 6321SOL     OW30424   1.158   0.151   6.446  0.1573  0.4320 -0.6801
 6321SOL    HW130425   1.133   0.062   6.421 -1.6471  0.5098  0.8271
 6321SOL    HW230426   1.115   0.153   6.532 -1.7210 -0.5199 -1.5870
 6322SOL     OW30427   3.748   1.548   7.546  0.0350  0.2624  0.0169
 6322SOL    HW130428   3.822   1.511   7.499 -0.4993 -1.3425  0.4283
 6322SOL    HW230429   3.692   1.560   7.469  1.2008 -3.0850 -1.3798
 6323SOL     OW30430   1.204   2.625   1.096  0.5401  0.3665 -0.7116
 6323SOL    HW130431   1.294   2.611   1.067 -0.4496 -2.9000 -2.2261
 6323SOL    HW230432   1.183   2.538   1.131  2.0086 -0.6571 -2.3613
 6324SOL     OW30433   3.935   4.338   2.487 -0.0740 -1.0880  0.4802
 6324SOL    HW130434   3.852   4.365   2.447  0.2741 -0.6041  0.0778
 6324SOL    HW230435   3.942   4.252   2.446  2.5070 -1.7599  2.3741
 6325SOL     OW30436   4.623   3.422   0.452  0.8697 -0.3517  0.0018
 6325SOL    HW130437   4.640   3.332   0.423  0.9180 -0.0117 -1.0208
 6325SOL    HW230438   4.536   3.418   0.492 -0.0599  1.5193 -1.8509
 6326SOL     OW30439   4.522   4.542  12.649  0.4704 -0.0976 -0.2612
 6326SOL    HW130440   4.525   4.590  12.566 -0.2217  1.2944  0.5105
 6326SOL    HW230441   4.603   4.491  12.644  2.9809  3.7270  1.9836
 6327SOL     OW30442   3.202   3.591   8.066  0.0814  0.5146 -0.5933
 6327SOL    HW130443   3.204   3.611   8.159 -0.7127 -1.1791 -0.2015
 6327SOL    HW230444   3.232   3.673   8.028  0.2674  0.5080 -0.4614
 6328SOL     OW30445   3.473   3.033   8.860 -0.3099  0.3905  0.3916
 6328SOL    HW130446   3.561   3.007   8.889  0.8100  2.6549 -0.9153
 6328SOL    HW230447   3.472   3.110   8.917 -0.7259 -0.0678  0.9958
 6329SOL     OW30448   1.442   1.333   5.287 -0.0255 -0.2441 -0.2715
 6329SOL    HW130449   1.465   1.285   5.367  0.6931  2.2302  0.9875
 6329SOL    HW230450   1.416   1.416   5.326 -3.5293 -0.3159 -2.4503
 6330SOL     OW30451   0.629   0.286   6.952 -0.3534  0.3829 -0.1297
 6330SOL    HW130452   0.723   0.269   6.965 -0.7691 -1.0745  1.0510
 6330SOL    HW230453   0.618   0.364   7.005 -1.4403  0.7143 -0.8632
 6331SOL     OW30454   2.243   1.336   0.480  0.0421  0.5939 -0.2775
 6331SOL    HW130455   2.307   1.350   0.410  0.7880  0.2063  0.3244
 6331SOL    HW230456   2.209   1.425   0.478  1.4018  1.1451  1.4376
 6332SOL     OW30457   3.607   0.534  16.914  0.3567  0.2128  0.6170
 6332SOL    HW130458   3.515   0.508  16.906  1.1460 -2.7930  1.3567
 6332SOL    HW230459   3.628   0.463  16.975 -0.3746 -1.1347 -0.6959
 6333SOL     OW30460   1.072   1.613   5.058 -0.4566  0.2201 -0.1440
 6333SOL    HW130461   1.015   1.583   4.988 -1.0045 -1.0108  0.8294
 6333SOL    HW230462   1.138   1.543   5.064 -2.5470 -1.7595 -0.3517
 6334SOL     OW30463   1.166   1.477  14.558  0.0979  0.0678  0.1405
 6334SOL    HW130464   1.261   1.477  14.553  0.0822  0.4939 -0.1710
 6334SOL    HW230465   1.141   1.482  14.650  1.7532  1.9410  0.4941
 6335SOL     OW30466   3.007   1.803  12.370 -0.9746  0.3209 -0.6565
 6335SOL    HW130467   3.070   1.744  12.328 -0.6010 -0.4012  0.9210
 6335SOL    HW230468   3.069   1.872  12.396 -2.4746  0.3794  2.7115
 6336SOL     OW30469   2.184   3.673  15.077 -0.1080  0.5390 -0.0010
 6336SOL    HW130470   2.156   3.600  15.132 -0.0015  1.8303  1.7616
 6336SOL    HW230471   2.145   3.740  15.133 -0.6504  0.3357 -0.1389
 6337SOL     OW30472   1.757   2.278  11.498 -0.1000 -0.0631 -0.1786
 6337SOL    HW130473   1.770   2.307  11.589  0.4356 -2.7714  0.6214
 6337SOL    HW230474   1.759   2.366  11.461 -2.4860  0.3836  0.7181
 6338SOL     OW30475   2.430   0.163   8.880  0.6701  0.2370  0.0145
 6338SOL    HW130476   2.458   0.131   8.794  0.9913 -0.0884  0.2422
 6338SOL    HW230477   2.493   0.228   8.909  0.2973  0.6495 -0.0900
 6339SOL     OW30478   2.798   0.086   8.199 -0.3955 -0.3508 -0.6348
 6339SOL    HW130479   2.767   0.131   8.121 -0.8450 -1.5449 -1.1361
 6339SOL    HW230480   2.715   0.053   8.235 -1.5906  3.1640 -0.1378
 6340SOL     OW30481   4.342   4.569   8.160  0.5836 -0.0052 -0.6460
 6340SOL    HW130482   4.340   4.653   8.206 -1.0109 -1.1461  1.3405
 6340SOL    HW230483   4.297   4.514   8.224  3.6235 -0.8448  0.7645
 6341SOL     OW30484   0.718   3.628   2.454 -0.6123 -0.3038  0.0431
 6341SOL    HW130485   0.749   3.705   2.502 -0.5849 -1.1374  1.3668
 6341SOL    HW230486   0.805   3.591   2.440 -1.5169 -2.4308  0.1510
 6342SOL     OW30487   3.306   1.218   6.390 -0.2290  0.1654 -0.3963
 6342SOL    HW130488   3.371   1.194   6.457  0.6362  1.8377 -0.6428
 6342SOL    HW230489   3.255   1.291   6.425  0.8386  1.7792 -2.2130
 6343SOL     OW30490   1.167   3.380   2.513  0.2032 -0.0005 -0.3181
 6343SOL    HW130491   1.259   3.404   2.501 -0.3993  2.2410 -0.4317
 6343SOL    HW230492   1.126   3.446   2.569 -0.3495 -0.1019 -0.6035
 6344SOL     OW30493   1.090   1.195   4.631 -0.3562  0.5600  0.0976
 6344SOL    HW130494   1.105   1.267   4.691  0.9269  0.4652 -0.1190
 6344SOL    HW230495   1.139   1.121   4.668  1.1782  1.3649 -0.3441
 6345SOL     OW30496   3.950   0.839   6.661 -0.7171 -0.3578  0.4863
 6345SOL    HW130497   3.984   0.798   6.740 -0.1186  2.1912  1.5637
 6345SOL    HW230498   3.987   0.924   6.686  1.8037 -1.5047  0.6466
 6346SOL     OW30499   3.591   2.434   0.820  0.3945 -0.0664  0.1350
 6346SOL    HW130500   3.686   2.429   0.827  0.2685 -1.5389  0.9366
 6346SOL    HW230501   3.559   2.444   0.910 -0.3343 -1.4629  0.0440
 6347SOL     OW30502   3.144   0.285   3.351 -0.0190 -0.1070 -0.2053
 6347SOL    HW130503   3.121   0.269   3.260  0.5770 -0.7134 -0.2495
 6347SOL    HW230504   3.170   0.376   3.338 -1.1574  0.4536  1.4726
 6348SOL     OW30505   3.184   2.942   4.758  0.0990  0.1637 -0.1551
 6348SOL    HW130506   3.249   2.894   4.706 -2.1290 -0.3477 -2.4372
 6348SOL    HW230507   3.245   2.969   4.827 -0.5826  0.4974  0.3094
 6349SOL     OW30508   2.574   3.417   2.284 -0.5864 -0.0611 -0.1696
 6349SOL    HW130509   2.504   3.477   2.307  0.2141  0.0250  1.9982
 6349SOL    HW230510   2.524   3.363   2.223 -0.5318 -0.4539  0.1261
 6350SOL     OW30511   3.812   0.419   4.864  0.7572  0.1989 -0.7965
 6350SOL    HW130512   3.880   0.486   4.868 -0.1542  1.1145 -0.5170
 6350SOL    HW230513   3.754   0.443   4.936  1.4630 -0.6859  0.0768
 6351SOL     OW30514   2.318   0.253  14.065 -0.2675  0.5820  0.5784
 6351SOL    HW130515   2.247   0.236  14.127 -0.6748  0.4951  0.0847
 6351SOL    HW230516   2.387   0.251  14.132  0.3381  0.8674 -0.0315
 6352SOL     OW30517   0.809   3.001   2.557 -0.0773  0.1707 -0.1154
 6352SOL    HW130518   0.810   3.040   2.644  1.4878  1.7941 -0.8703
 6352SOL    HW230519   0.807   2.911   2.589  1.3134  0.7675  1.7006
 6353SOL     OW30520   1.262   4.219   0.730  0.2763 -0.7954  0.1151
 6353SOL    HW130521   1.316   4.168   0.791  0.7967 -0.1047  0.2286
 6353SOL    HW230522   1.195   4.257   0.787  2.5210 -0.1446  2.3147
 6354SOL     OW30523   2.682   1.306   8.776  0.3507  0.3562 -0.1690
 6354SOL    HW130524   2.610   1.368   8.773 -0.5879 -0.7752 -0.7282
 6354SOL    HW230525   2.639   1.227   8.807  1.6652 -0.8278 -1.3439
 6355SOL     OW30526   0.256   2.396   2.760  0.5214  0.1261  0.0916
 6355SOL    HW130527   0.281   2.356   2.843 -3.8709  0.8214  1.7157
 6355SOL    HW230528   0.307   2.477   2.767 -2.0356  1.7512 -0.2121
 6356SOL     OW30529   2.103   2.766   4.616  0.1935  0.2350  0.5616
 6356SOL    HW130530   2.124   2.852   4.652  1.3521 -0.5140  1.6612
 6356SOL    HW230531   2.109   2.709   4.692  2.0784  0.1005  0.3083
 6357SOL     OW30532   4.301   0.074   4.964  0.6237 -0.1795  0.1407
 6357SOL    HW130533   4.384   0.109   4.934  0.1134  0.6828 -0.2454
 6357SOL    HW230534   4.281   0.003   4.903 -3.0966 -0.2819  1.4384
 6358SOL     OW30535   1.078   3.548  11.944  0.2959 -0.0036 -0.6530
 6358SOL    HW130536   1.028   3.619  11.904  1.6400  2.2526  1.6976
 6358SOL    HW230537   1.160   3.551  11.894 -1.4188 -0.4009 -3.4862
 6359SOL     OW30538   1.814   0.930   5.458  0.6580 -0.1546  0.6776
 6359SOL    HW130539   1.724   0.912   5.430  0.6973  0.4609  0.1382
 6359SOL    HW230540   1.851   0.936   5.370  0.2360  2.0779  0.6602
 6360SOL     OW30541   1.248   2.602   6.879  0.0339 -0.1625 -0.0010
 6360SOL    HW130542   1.216   2.670   6.820 -1.5296  0.9251  2.0871
 6360SOL    HW230543   1.253   2.652   6.961  0.3093 -1.0308  0.5205
 6361SOL     OW30544   1.393   1.252   7.975  0.3984 -0.1685  0.3399
 6361SOL    HW130545   1.302   1.224   7.962  1.2135 -2.0454 -1.2379
 6361SOL    HW230546   1.414   1.224   8.064 -1.3548 -0.4187  0.6867
 6362SOL     OW30547   2.441   2.365   5.670 -0.5511  0.5096 -0.2388
 6362SOL    HW130548   2.373   2.344   5.607  0.9233  0.1804 -1.7335
 6362SOL    HW230549   2.401   2.441   5.712  0.6974 -0.0369  1.9482
 6363SOL     OW30550   1.538   1.088   3.184 -0.3622  0.5079 -0.1345
 6363SOL    HW130551   1.486   1.092   3.104  1.0162 -3.4829 -1.2631
 6363SOL    HW230552   1.513   1.173   3.219 -0.4506  0.4567 -0.0724
 6364SOL     OW30553   2.251   4.166   9.412  0.4165  0.2200 -0.4480
 6364SOL    HW130554   2.221   4.182   9.501 -1.0627 -0.7880 -0.7562
 6364SOL    HW230555   2.273   4.256   9.389 -1.5280  1.4354  2.5031
 6365SOL     OW30556   0.476   0.965  11.905  0.1064 -0.6177  0.5599
 6365SOL    HW130557   0.383   0.975  11.926  0.0559 -1.4440  0.7593
 6365SOL    HW230558   0.505   0.998  11.990  1.7818  3.0232 -1.4118
 6366SOL     OW30559   3.346   3.499  13.463 -0.3847 -0.2462  0.2163
 6366SOL    HW130560   3.379   3.573  13.513 -1.1528  0.8832 -0.9319
 6366SOL    HW230561   3.251   3.505  13.472 -0.0045  3.5236  1.4508
 6367SOL     OW30562   4.476   4.148   3.386  0.1276  0.4277  0.3653
 6367SOL    HW130563   4.520   4.126   3.303 -0.6294 -0.0103  0.0728
 6367SOL    HW230564   4.384   4.135   3.364 -0.0249  0.5122  0.9659
 6368SOL     OW30565   2.622   3.389   9.904  0.1238  0.3124  0.1893
 6368SOL    HW130566   2.716   3.380   9.889  0.4060  1.5924  1.1610
 6368SOL    HW230567   2.590   3.335   9.832  2.2525 -0.3924 -0.2286
 6369SOL     OW30568   3.387   2.224   7.135  0.3218 -0.5056  0.0478
 6369SOL    HW130569   3.439   2.184   7.066 -1.0691 -1.7567 -0.2817
 6369SOL    HW230570   3.310   2.168   7.138  0.4948 -0.6108  2.5717
 6370SOL     OW30571   2.231   2.462   7.182  0.3182  0.1985  0.3331
 6370SOL    HW130572   2.157   2.515   7.151  1.3179  2.0595  1.1565
 6370SOL    HW230573   2.293   2.485   7.113 -0.1939 -1.0435 -0.5232
 6371SOL     OW30574   0.693   1.863   5.737  0.0145 -0.2002 -0.0196
 6371SOL    HW130575   0.712   1.938   5.682 -0.8248 -0.0908 -0.1507
 6371SOL    HW230576   0.613   1.897   5.777 -0.9716  0.2919 -2.4037
 6372SOL     OW30577   4.571   0.516   6.029 -0.2755  0.4740  0.5515
 6372SOL    HW130578   4.597   0.604   6.004  1.5777 -0.6589 -1.5423
 6372SOL    HW230579   4.493   0.539   6.079 -0.4838  0.6855  0.1248
 6373SOL     OW30580   3.907   4.719   7.948 -0.1540  0.2647  0.3114
 6373SOL    HW130581   3.883   4.647   7.890 -1.2752 -1.0978  2.4385
 6373SOL    HW230582   3.991   4.684   7.979  0.1637  2.1280  1.6084
 6374SOL     OW30583   1.417   4.705   3.079  0.1596  0.2446 -0.3936
 6374SOL    HW130584   1.342   0.017   3.126  0.7998 -1.2292  1.8034
 6374SOL    HW230585   1.381   4.647   3.012 -0.2317  0.6808 -0.5610
 6375SOL     OW30586   2.970   1.794   8.586  0.1242 -0.9639  0.0775
 6375SOL    HW130587   2.952   1.772   8.495 -0.1664  0.7548 -0.2853
 6375SOL    HW230588   2.980   1.706   8.622  0.4473  0.3429  3.2191
 6376SOL     OW30589   1.782   0.750   7.940  0.4088  0.1398  0.7688
 6376SOL    HW130590   1.810   0.675   7.887 -1.0572 -0.0053  0.2096
 6376SOL    HW230591   1.819   0.735   8.027  0.7825 -1.8170  0.2664
 6377SOL     OW30592   1.560   4.017   5.366  0.1032  0.0453  0.1494
 6377SOL    HW130593   1.559   3.943   5.427  2.4281 -0.8332 -0.8914
 6377SOL    HW230594   1.526   4.087   5.422  2.2004 -0.0053  1.4947
 6378SOL     OW30595   1.293   2.495   8.632  0.2186  0.3507  0.1364
 6378SOL    HW130596   1.355   2.462   8.696 -2.0121 -0.1523  2.0397
 6378SOL    HW230597   1.351   2.520   8.560  0.5071 -1.0372 -0.1167
 6379SOL     OW30598   4.213   4.498  14.174  0.1678 -0.1798  0.0239
 6379SOL    HW130599   4.189   4.511  14.082 -0.2750  0.2062  0.1934
 6379SOL    HW230600   4.262   4.416  14.172  0.2425 -0.0656 -2.3707
 6380SOL     OW30601   1.252   2.413  12.902  0.2413  0.0056 -0.5550
 6380SOL    HW130602   1.306   2.334  12.904 -0.2857 -0.3682 -1.2037
 6380SOL    HW230603   1.323   2.476  12.903  0.8890 -0.7163 -0.7251
 6381SOL     OW30604   2.387   4.231   3.038 -0.2562 -0.6208  0.1887
 6381SOL    HW130605   2.319   4.197   2.979  0.8907 -0.7800 -1.0235
 6381SOL    HW230606   2.331   4.243   3.115 -0.3110  2.3622 -0.3110
 6382SOL     OW30607   2.794   3.371   8.676 -0.0461  0.1001 -0.0559
 6382SOL    HW130608   2.886   3.387   8.693 -0.8863  0.2382  4.3977
 6382SOL    HW230609   2.783   3.276   8.687 -1.0843  0.1802 -0.4066
 6383SOL     OW30610   0.581   4.115   1.014 -0.2332 -0.1101  0.0169
 6383SOL    HW130611   0.657   4.079   0.968  1.1689  0.1950  2.0478
 6383SOL    HW230612   0.608   4.080   1.099 -2.4074 -0.6116  0.4776
 6384SOL     OW30613   0.372   1.525   1.455  0.0578  0.1664 -0.4111
 6384SOL    HW130614   0.307   1.551   1.520 -1.5267  1.2591 -2.4281
 6384SOL    HW230615   0.338   1.540   1.367  1.1738  0.0709 -0.8621
 6385SOL     OW30616   3.590   0.974   6.176 -0.2709  0.2226  0.6215
 6385SOL    HW130617   3.681   0.998   6.162 -0.0833 -0.5642  0.4842
 6385SOL    HW230618   3.557   1.001   6.090 -0.0376 -0.4278  0.3270
 6386SOL     OW30619   2.997   0.024   5.094  0.0174  0.0207 -0.1171
 6386SOL    HW130620   2.971   4.657   5.106  1.0262 -0.1263  0.8759
 6386SOL    HW230621   3.057   0.008   5.021  2.0962  0.9166  1.3943
 6387SOL     OW30622   4.658   2.424   9.333  0.4020 -0.0249  0.0042
 6387SOL    HW130623   4.646   2.407   9.426  1.9095 -0.3301  0.1425
 6387SOL    HW230624   4.617   2.346   9.295  0.2836  0.1962 -0.3267
 6388SOL     OW30625   2.952   1.042   5.799 -1.0351 -0.2634  0.0579
 6388SOL    HW130626   2.949   1.136   5.778 -0.4875  0.0758  1.4979
 6388SOL    HW230627   2.869   1.033   5.846 -0.7214  0.9424  0.8539
 6389SOL     OW30628   1.395   2.363   7.953 -0.3498 -0.3066 -0.3323
 6389SOL    HW130629   1.466   2.352   8.017  0.6992 -0.9241 -1.5984
 6389SOL    HW230630   1.444   2.379   7.872 -0.5495  0.9719 -0.1914
 6390SOL     OW30631   3.650   4.051   8.551 -0.7051 -0.2331  0.1048
 6390SOL    HW130632   3.638   4.137   8.511  1.5309 -0.6733 -1.5121
 6390SOL    HW230633   3.557   4.027   8.558 -0.7823 -0.7888 -3.0586
 6391SOL     OW30634   3.017   3.192  15.954 -0.0557 -0.1418 -0.5025
 6391SOL    HW130635   3.049   3.127  15.892  0.1618 -1.2696  0.7703
 6391SOL    HW230636   3.049   3.154  16.036  1.9556  0.0849 -1.2038
 6392SOL     OW30637   4.027   3.334  17.159 -0.5611 -0.0541 -0.2813
 6392SOL    HW130638   4.036   3.419  17.203  1.1569  0.9544 -2.6095
 6392SOL    HW230639   3.958   3.351  17.095 -0.1898  0.2000 -0.6135
 6393SOL     OW30640   0.193   4.542  12.477 -0.2921 -0.3248 -0.5795
 6393SOL    HW130641   0.278   4.543  12.521 -0.3775 -0.8884 -0.4092
 6393SOL    HW230642   0.206   4.617  12.420 -1.7244 -1.1811 -2.0109
 6394SOL     OW30643   2.592   0.480   6.643  0.1349  0.0430 -0.6483
 6394SOL    HW130644   2.625   0.393   6.623 -2.3719 -1.5729  2.2176
 6394SOL    HW230645   2.666   0.537   6.623  0.3058  0.1267  0.2411
 6395SOL     OW30646   3.339   0.498  11.056  0.2346  0.2673 -0.2284
 6395SOL    HW130647   3.411   0.505  11.119  1.6203 -0.8353 -1.7029
 6395SOL    HW230648   3.280   0.565  11.091 -1.0895  0.4344 -2.7687
 6396SOL     OW30649   0.250   3.000   2.171  0.4940 -0.8296  0.1551
 6396SOL    HW130650   0.198   3.080   2.175  0.5927 -0.7960  0.8901
 6396SOL    HW230651   0.229   2.960   2.087  1.4255  1.2042 -1.0518
 6397SOL     OW30652   4.397   3.951   4.388  0.0283  0.0703  0.0303
 6397SOL    HW130653   4.389   3.859   4.366 -0.1858  0.7213 -2.5826
 6397SOL    HW230654   4.430   3.991   4.307  1.0280 -0.1583  0.3203
 6398SOL     OW30655   3.303   4.614   1.500  0.1338 -0.3811  0.5917
 6398SOL    HW130656   3.235   4.547   1.500 -0.2037 -0.0275  3.3385
 6398SOL    HW230657   3.244   4.689   1.490 -1.9511 -2.4784 -3.1118
 6399SOL     OW30658   1.455   1.813   8.997 -0.6387  0.1575  0.4955
 6399SOL    HW130659   1.511   1.818   8.920 -0.7009  2.6856  0.6233
 6399SOL    HW230660   1.403   1.736   8.973 -0.7144  0.8747 -1.6326
 6400SOL     OW30661   3.667   1.898   3.410 -0.0600 -1.0316 -0.3873
 6400SOL    HW130662   3.627   1.940   3.334 -0.6524 -1.7464 -0.4717
 6400SOL    HW230663   3.645   1.807   3.390 -0.9588 -0.8831 -0.0619
 6401SOL     OW30664   0.616   2.097  11.831  0.3704  0.0212 -0.0998
 6401SOL    HW130665   0.657   2.028  11.884 -1.3509 -1.1659 -0.2826
 6401SOL    HW230666   0.675   2.109  11.758  0.5820 -0.5656 -0.0285
 6402SOL     OW30667   1.618   1.346   6.186  0.7431  0.4610 -0.3490
 6402SOL    HW130668   1.638   1.401   6.262 -0.5973 -0.3645  0.5965
 6402SOL    HW230669   1.673   1.389   6.120  0.2302  0.7121 -0.6099
 6403SOL     OW30670   1.368   2.758   8.129 -0.2620 -0.4232 -0.5374
 6403SOL    HW130671   1.398   2.803   8.050 -0.3214 -1.3382 -1.0822
 6403SOL    HW230672   1.448   2.766   8.182 -1.3204 -0.9811  1.1407
 6404SOL     OW30673   1.303   1.583  16.023  0.0585  0.1468 -0.4206
 6404SOL    HW130674   1.227   1.551  15.973 -0.1113 -0.2785  0.1143
 6404SOL    HW230675   1.342   1.496  16.027 -0.4262 -0.2095 -3.4237
 6405SOL     OW30676   1.755   3.193   6.966 -0.1005  0.3189  0.0487
 6405SOL    HW130677   1.802   3.277   6.967  1.0650 -0.3516  1.9142
 6405SOL    HW230678   1.786   3.149   6.888 -0.4332  1.1397 -0.5410
 6406SOL     OW30679   0.367   2.944   6.347  0.4774  0.4679  0.3837
 6406SOL    HW130680   0.375   3.004   6.421  1.2115  0.1709  0.5466
 6406SOL    HW230681   0.457   2.942   6.315 -0.4859  0.3800 -2.3399
 6407SOL     OW30682   0.542   4.033   3.581  0.1067  0.0169 -0.5276
 6407SOL    HW130683   0.567   3.946   3.549  0.4665 -0.9174  2.3199
 6407SOL    HW230684   0.609   4.040   3.649 -1.2960  1.0588  0.7339
 6408SOL     OW30685   0.308   0.512   3.907 -0.7372 -0.1960 -0.3789
 6408SOL    HW130686   0.266   0.497   3.992 -0.0523 -2.3508 -0.4246
 6408SOL    HW230687   0.389   0.467   3.928  0.4007  1.8146 -0.4483
 6409SOL     OW30688   4.506   3.095   7.332 -0.2318  0.0917  0.2828
 6409SOL    HW130689   4.458   3.018   7.300  0.1413  0.9526 -2.3173
 6409SOL    HW230690   4.432   3.154   7.346 -0.1643  0.4600 -0.9750
 6410SOL     OW30691   3.426   0.237   5.819 -0.0293 -0.0431  0.6564
 6410SOL    HW130692   3.441   0.173   5.888 -1.0203  3.2366  3.8599
 6410SOL    HW230693   3.333   0.228   5.796 -0.3995  0.9729  1.7655
 6411SOL     OW30694   1.517   0.605   4.383 -0.2048  0.0376 -0.3040
 6411SOL    HW130695   1.592   0.585   4.327  1.2926 -0.0520  1.7332
 6411SOL    HW230696   1.445   0.564   4.336 -0.8840 -0.0250  0.8030
 6412SOL     OW30697   1.557   4.587   3.309  0.0848  0.0381  0.3398
 6412SOL    HW130698   1.524   4.676   3.304 -0.4072 -0.2034 -0.7004
 6412SOL    HW230699   1.541   4.555   3.220  2.2857 -0.0176 -0.0529
 6413SOL     OW30700   1.632   1.295  13.895  0.9631 -0.3800 -0.1167
 6413SOL    HW130701   1.630   1.334  13.807  1.3354 -0.2120 -0.0545
 6413SOL    HW230702   1.665   1.206  13.885  1.9597 -0.0314  0.0326
 6414SOL     OW30703   1.877   2.459  10.092  0.3266 -1.2158 -0.2898
 6414SOL    HW130704   1.954   2.446  10.148 -0.0064 -0.5950  0.3023
 6414SOL    HW230705   1.807   2.412  10.137  2.4138 -1.8904  2.2067
 6415SOL     OW30706   2.374   3.449  10.003  0.2579  0.2083 -0.2660
 6415SOL    HW130707   2.450   3.408   9.964  0.4145  1.1465 -0.9299
 6415SOL    HW230708   2.410   3.476  10.088  0.5223 -0.4234 -0.1825
 6416SOL     OW30709   2.032   0.526  14.845 -0.1677  0.4464 -0.6804
 6416SOL    HW130710   2.121   0.538  14.812  0.8909  1.0567  2.4323
 6416SOL    HW230711   2.022   0.431  14.840  2.1450  0.1213  1.0945
 6417SOL     OW30712   2.409   4.522   2.852  0.4757 -0.2172 -0.7329
 6417SOL    HW130713   2.443   4.444   2.895  1.0875  1.6138  2.1095
 6417SOL    HW230714   2.479   4.534   2.788 -1.9816  0.1741 -3.3607
 6418SOL     OW30715   0.151   1.430  11.365 -0.3103 -0.6564  0.0246
 6418SOL    HW130716   0.094   1.387  11.429  0.4618 -1.7275 -0.0272
 6418SOL    HW230717   0.112   1.518  11.367 -1.6867 -1.3069  1.6231
 6419SOL     OW30718   2.838   2.366   6.073  0.2328 -0.4116 -0.2944
 6419SOL    HW130719   2.862   2.313   5.997  2.1039  0.8888 -0.6260
 6419SOL    HW230720   2.762   2.321   6.110  1.2233 -1.6317  0.2755
 6420SOL     OW30721   2.450   3.092   1.142 -0.2471  0.1294 -0.0967
 6420SOL    HW130722   2.476   3.182   1.120 -2.2113  0.4240 -1.2042
 6420SOL    HW230723   2.506   3.046   1.080  1.8721  0.4832  1.5848
 6421SOL     OW30724   1.154   3.915   4.118 -0.0079 -0.5831 -0.5906
 6421SOL    HW130725   1.226   3.905   4.055  0.9465 -0.6326  0.4955
 6421SOL    HW230726   1.176   3.846   4.180  0.2884 -0.0119 -0.0499
 6422SOL     OW30727   0.688   0.828   2.931  0.3032 -0.1619 -0.2361
 6422SOL    HW130728   0.652   0.917   2.936  2.0572  0.6091 -1.0431
 6422SOL    HW230729   0.736   0.822   3.014  0.8412 -0.8132 -0.5897
 6423SOL     OW30730   0.899   0.522   2.633  0.2485  0.4144  0.2713
 6423SOL    HW130731   0.833   0.584   2.666 -1.0709  0.0375 -1.7098
 6423SOL    HW230732   0.983   0.564   2.613  1.2546 -2.1870 -0.8499
 6424SOL     OW30733   0.859   1.628  12.803  0.6612  0.5180 -0.1436
 6424SOL    HW130734   0.941   1.595  12.768  0.7220  1.3658 -0.7993
 6424SOL    HW230735   0.807   1.549  12.788  1.7466 -0.2388  0.0815
 6425SOL     OW30736   1.828   2.495   5.510 -0.1536 -0.4006  0.0437
 6425SOL    HW130737   1.891   2.537   5.569  1.0213 -2.5474  0.3048
 6425SOL    HW230738   1.793   2.579   5.480 -0.5404  0.2858  2.4150
 6426SOL     OW30739   0.555   0.218   5.123  0.3618 -0.2998  0.1942
 6426SOL    HW130740   0.582   0.164   5.048  1.4337  2.7857 -1.6419
 6426SOL    HW230741   0.583   0.300   5.083  0.8219 -1.3429 -1.6109
 6427SOL     OW30742   0.553   3.006  10.428  0.0256  0.1364 -0.2650
 6427SOL    HW130743   0.616   3.079  10.429 -0.1960  0.2802  2.1413
 6427SOL    HW230744   0.618   2.946  10.464  1.5234 -0.3469 -3.7515
 6428SOL     OW30745   3.272   4.163   9.998  0.2360 -0.0520  0.2967
 6428SOL    HW130746   3.250   4.180   9.907 -0.3566  0.0134  0.4506
 6428SOL    HW230747   3.201   4.105  10.025 -0.0044 -0.1662 -0.5873
 6429SOL     OW30748   2.764   4.404  15.743  0.5728  0.1324  0.5648
 6429SOL    HW130749   2.785   4.316  15.710  0.2860  0.8382 -1.5208
 6429SOL    HW230750   2.831   4.461  15.706  0.6419  0.5398  1.3344
 6430SOL     OW30751   2.284   3.282  10.415 -0.2139  0.2340  0.0138
 6430SOL    HW130752   2.205   3.324  10.448 -1.7525 -1.7440 -1.2138
 6430SOL    HW230753   2.343   3.277  10.490  1.0767  0.1106 -0.9909
 6431SOL     OW30754   3.568   3.152   7.293 -0.5826  0.0847  0.5299
 6431SOL    HW130755   3.604   3.175   7.379 -0.2887 -2.6256  1.1417
 6431SOL    HW230756   3.498   3.217   7.296  0.1567  0.8658  0.9461
 6432SOL     OW30757   2.052   0.159   8.635 -0.3778  0.2153  0.3663
 6432SOL    HW130758   1.965   0.178   8.599  0.2004 -0.1966 -1.2550
 6432SOL    HW230759   2.029   0.155   8.728 -2.1017 -0.9930 -0.1039
 6433SOL     OW30760   2.864   1.045   3.122 -0.1044 -0.3663 -0.4541
 6433SOL    HW130761   2.836   0.992   3.197  1.7818  0.7954  1.0792
 6433SOL    HW230762   2.893   1.124   3.167 -1.1180  0.5004 -1.3026
 6434SOL     OW30763   3.021   2.004   0.797  0.5782  0.2832 -0.0709
 6434SOL    HW130764   3.067   2.078   0.756  0.1096  0.7424  0.2343
 6434SOL    HW230765   2.930   2.030   0.782  1.0504  2.0857  0.1916
 6435SOL     OW30766   2.502   3.851   7.297  0.1341  0.5179 -0.5107
 6435SOL    HW130767   2.593   3.823   7.288  0.5170  1.2319  1.2267
 6435SOL    HW230768   2.453   3.776   7.330  0.2338  0.9521  0.6242
 6436SOL     OW30769   1.480   0.618  12.086  0.1410  0.3357 -0.2901
 6436SOL    HW130770   1.500   0.538  12.037 -1.6128  0.4919 -1.2726
 6436SOL    HW230771   1.506   0.588  12.173 -0.6921  1.0037  0.1944
 6437SOL     OW30772   1.137   3.365   2.216 -0.1828 -0.2766  0.0494
 6437SOL    HW130773   1.072   3.434   2.207  1.8612  1.4948 -1.1024
 6437SOL    HW230774   1.138   3.361   2.311 -1.7427 -0.6710  0.0590
 6438SOL     OW30775   2.437   4.620   7.108 -0.0388  0.3670 -0.2866
 6438SOL    HW130776   2.371   4.672   7.155  0.9851  0.8570  0.6099
 6438SOL    HW230777   2.462   4.556   7.174 -0.3069 -0.5454 -1.0697
 6439SOL     OW30778   2.379   0.336   5.518  0.1632 -0.0847  0.1645
 6439SOL    HW130779   2.460   0.335   5.569  0.8394 -2.1231 -0.9385
 6439SOL    HW230780   2.339   0.420   5.541 -0.3984  0.2610 -2.0360
 6440SOL     OW30781   0.520   1.255   2.710  0.5311  0.0159  0.1820
 6440SOL    HW130782   0.567   1.184   2.666 -0.3356 -0.2685 -0.2794
 6440SOL    HW230783   0.464   1.275   2.635  0.9879 -1.0127 -0.4412
 6441SOL     OW30784   4.350   2.968   8.041  0.1107  0.1477 -0.5173
 6441SOL    HW130785   4.264   3.008   8.029  0.6190  0.5290 -2.9911
 6441SOL    HW230786   4.320   2.885   8.078  3.6092  0.2445  2.4720
 6442SOL     OW30787   2.480   3.328  11.422 -0.1962 -0.0014  0.2161
 6442SOL    HW130788   2.507   3.420  11.424 -1.2492  0.3212  0.0267
 6442SOL    HW230789   2.444   3.325  11.511 -1.0419  2.4804 -0.0533
 6443SOL     OW30790   0.784   1.975   3.639 -0.8681 -0.8147  0.2792
 6443SOL    HW130791   0.757   2.067   3.647  0.0811 -0.4968 -0.1945
 6443SOL    HW230792   0.728   1.950   3.565  0.8204 -0.3209 -1.1500
 6444SOL     OW30793   4.258   2.171  16.465  0.2831  0.3251 -0.7194
 6444SOL    HW130794   4.307   2.233  16.519 -0.9963  0.3267  0.4507
 6444SOL    HW230795   4.335   2.131  16.426  1.3796  0.5983  1.1853
 6445SOL     OW30796   3.617   1.503   2.926 -0.6562 -0.6492 -0.4392
 6445SOL    HW130797   3.538   1.451   2.911  0.9681 -3.2203 -0.1175
 6445SOL    HW230798   3.680   1.432   2.937 -0.7816 -0.4285  1.6424
 6446SOL     OW30799   4.275   4.569   6.762  0.4744 -0.2705 -0.4790
 6446SOL    HW130800   4.288   4.479   6.792  1.4422  0.9608  2.7950
 6446SOL    HW230801   4.180   4.570   6.754  0.5508 -0.6471 -1.4109
 6447SOL     OW30802   0.785   4.422   2.032  0.2495 -0.2630  0.2317
 6447SOL    HW130803   0.837   4.500   2.052  0.4707 -0.2509 -0.3969
 6447SOL    HW230804   0.700   4.458   2.008  0.2581 -1.6098 -1.8021
 6448SOL     OW30805   4.164   4.288   3.478 -0.2660  0.3662  0.8644
 6448SOL    HW130806   4.115   4.365   3.507  0.3389  1.5848 -1.3563
 6448SOL    HW230807   4.246   4.323   3.444  0.0132 -0.6217  0.5318
 6449SOL     OW30808   1.114   2.002   5.704 -0.4969 -0.8942 -0.1691
 6449SOL    HW130809   1.098   2.095   5.693 -0.8229 -0.9149  0.1266
 6449SOL    HW230810   1.199   1.992   5.662 -0.9194 -0.2981 -1.1699
 6450SOL     OW30811   3.316   1.413   3.253 -0.3379  0.0283 -1.1579
 6450SOL    HW130812   3.410   1.403   3.237 -0.0413  1.3951 -0.3014
 6450SOL    HW230813   3.295   1.487   3.195 -1.1318 -0.7714 -1.8852
 6451SOL     OW30814   1.393   0.112   2.015 -0.0266  0.4198  0.1100
 6451SOL    HW130815   1.451   0.152   2.080  0.9968 -2.7336  1.1253
 6451SOL    HW230816   1.326   0.067   2.067  0.4951 -0.2426  0.2139
 6452SOL     OW30817   4.025   0.681   4.206 -0.1877 -0.1218 -0.2963
 6452SOL    HW130818   4.110   0.670   4.247  0.2664  0.2313 -1.1298
 6452SOL    HW230819   4.041   0.755   4.146 -1.0358  1.5236  1.4930
 6453SOL     OW30820   4.580   0.784   5.300 -0.5997 -0.2276 -0.4341
 6453SOL    HW130821   4.541   0.783   5.212 -1.5433  0.1798 -0.0201
 6453SOL    HW230822   4.507   0.760   5.356 -2.1775  1.1640 -1.8883
 6454SOL     OW30823   1.394   0.949   6.438 -0.0259 -0.0373 -0.6858
 6454SOL    HW130824   1.377   1.023   6.496  0.4796 -1.1957  0.9436
 6454SOL    HW230825   1.464   0.984   6.384  1.3250 -2.2140 -0.3578
 6455SOL     OW30826   1.097   0.851   1.026  0.6973  0.0117 -0.0891
 6455SOL    HW130827   1.147   0.840   1.107  0.8554  0.1922 -0.1622
 6455SOL    HW230828   1.009   0.866   1.059  0.3257 -1.7077 -0.3124
 6456SOL     OW30829   3.935   2.200   7.189 -0.4961 -0.0691  0.1253
 6456SOL    HW130830   3.984   2.261   7.245  0.6999  0.7901 -1.8372
 6456SOL    HW230831   3.893   2.255   7.123 -1.6297 -0.7868  0.2503
 6457SOL     OW30832   1.683   3.763  10.386  0.4035 -0.2670 -0.0617
 6457SOL    HW130833   1.733   3.784  10.307  0.3783 -1.8572 -0.4887
 6457SOL    HW230834   1.717   3.678  10.414 -1.6307 -0.8251  0.7261
 6458SOL     OW30835   3.822   3.725   6.962  0.2024  0.0793  0.2592
 6458SOL    HW130836   3.791   3.783   6.892 -0.1456 -1.0517 -0.5313
 6458SOL    HW230837   3.907   3.717   6.919 -0.7093 -3.2214 -0.9975
 6459SOL     OW30838   1.382   1.664   6.432  0.3623 -0.2523 -0.6205
 6459SOL    HW130839   1.307   1.653   6.374  0.1866 -0.8458 -0.2836
 6459SOL    HW230840   1.424   1.734   6.382  0.4307 -0.5038 -0.9193
 6460SOL     OW30841   1.632   1.855   4.634  0.2541  0.2478  0.0969
 6460SOL    HW130842   1.545   1.821   4.649  0.2554 -0.1094 -0.6810
 6460SOL    HW230843   1.620   1.896   4.548  0.8704 -0.0548 -0.1367
 6461SOL     OW30844   1.981   1.890   4.036  0.2972  0.3295  0.5071
 6461SOL    HW130845   1.898   1.916   3.994  0.2962  2.0674  1.6222
 6461SOL    HW230846   1.972   1.794   4.033  1.1479  0.3209 -1.7556
 6462SOL     OW30847   0.009   2.752   6.326  0.2553  0.2255  0.1270
 6462SOL    HW130848   0.010   2.815   6.398  2.5427 -0.0772  0.3566
 6462SOL    HW230849   4.662   2.696   6.354 -1.7385  1.0992 -3.1816
 6463SOL     OW30850   3.384   4.218   3.609  0.3921  0.1674 -0.2555
 6463SOL    HW130851   3.351   4.173   3.531 -1.2051 -0.7148  0.9264
 6463SOL    HW230852   3.472   4.245   3.583  1.2517  0.3406  2.8852
 6464SOL     OW30853   3.387   3.919   4.840  0.2829  0.1067 -0.3645
 6464SOL    HW130854   3.381   4.004   4.796 -0.2766  0.9224  1.2939
 6464SOL    HW230855   3.399   3.859   4.766  2.5423  0.1560 -0.0303
 6465SOL     OW30856   4.502   0.214   4.679  0.0490 -0.1449 -0.1731
 6465SOL    HW130857   4.562   0.250   4.613 -0.2679  1.4985  0.4340
 6465SOL    HW230858   4.492   0.123   4.651  0.6153 -0.2067 -0.1804
 6466SOL     OW30859   1.596   0.277   1.052  0.1032  0.0151 -0.3967
 6466SOL    HW130860   1.574   0.320   1.134 -0.9048 -3.0360  0.9253
 6466SOL    HW230861   1.691   0.284   1.062  0.4230  0.0400 -3.4930
 6467SOL     OW30862   1.374   1.674  12.532  0.0762 -0.1598  0.4170
 6467SOL    HW130863   1.456   1.723  12.537  0.7018 -1.1905  0.2057
 6467SOL    HW230864   1.408   1.585  12.538  0.3111 -0.1749 -1.1157
 6468SOL     OW30865   3.214   1.319   7.705  0.6848  0.1848  0.6016
 6468SOL    HW130866   3.291   1.320   7.649 -0.5583 -3.4611 -1.2240
 6468SOL    HW230867   3.270   1.300   7.780  1.5711  0.9448  0.1242
 6469SOL     OW30868   4.697   1.892   4.800 -0.0724  0.5967  0.2083
 6469SOL    HW130869   4.656   1.965   4.755 -0.7759  0.4014  0.5203
 6469SOL    HW230870   4.645   1.879   4.879  0.5044 -0.1838  0.4613
 6470SOL     OW30871   3.149   1.235  13.779  0.4125 -0.3475  0.2909
 6470SOL    HW130872   3.201   1.165  13.820 -0.8429 -0.5036  1.6292
 6470SOL    HW230873   3.092   1.243  13.855 -0.6102  2.1165 -0.7583
 6471SOL     OW30874   1.120   0.952   6.193 -0.5684  0.5759  0.0386
 6471SOL    HW130875   1.079   0.913   6.270 -0.8633 -1.6232 -1.2359
 6471SOL    HW230876   1.157   0.873   6.154  2.4323  1.0988  1.8202
 6472SOL     OW30877   1.429   1.583   7.640 -0.1275  0.0325 -0.0246
 6472SOL    HW130878   1.357   1.645   7.633  2.3897  2.7634 -1.6347
 6472SOL    HW230879   1.503   1.636   7.668  0.3105 -0.3325 -0.4909
 6473SOL     OW30880   3.044   0.077   9.321 -0.3736 -0.6462  0.1626
 6473SOL    HW130881   3.073   0.104   9.233  0.6522  0.7413  0.9362
 6473SOL    HW230882   2.957   0.116   9.331 -0.8272 -1.2756 -1.2570
 6474SOL     OW30883   3.554   4.462  10.108  0.0664  0.3815 -0.2994
 6474SOL    HW130884   3.491   4.426  10.171 -1.2909  0.5400 -1.5430
 6474SOL    HW230885   3.571   4.381  10.060 -0.2349 -0.1386  0.4592
 6475SOL     OW30886   4.150   0.977   7.887  0.5013 -0.2329 -0.1247
 6475SOL    HW130887   4.122   0.967   7.978 -1.5150 -1.4184 -0.8633
 6475SOL    HW230888   4.215   1.043   7.910 -0.3402  0.5408  0.0802
 6476SOL     OW30889   4.445   3.816   4.629  0.2882 -0.3001 -0.5397
 6476SOL    HW130890   4.356   3.814   4.664  0.7075 -0.0666  0.5269
 6476SOL    HW230891   4.432   3.839   4.537 -0.2215  1.3512 -0.0580
 6477SOL     OW30892   1.464   3.547   2.593  0.9713  0.0361  0.3211
 6477SOL    HW130893   1.516   3.519   2.518 -0.2879 -1.7025  0.0896
 6477SOL    HW230894   1.420   3.625   2.562  0.3030 -0.4499  0.0423
 6478SOL     OW30895   3.115   0.874   7.183  0.3753  0.5969  0.5598
 6478SOL    HW130896   3.026   0.848   7.210  0.7495 -0.3630  0.8898
 6478SOL    HW230897   3.128   0.800   7.123 -1.7475 -0.1878  1.0579
 6479SOL     OW30898   1.215   3.677   4.270 -0.3921 -0.1013 -0.3190
 6479SOL    HW130899   1.249   3.594   4.238  1.3910  0.3706  0.3542
 6479SOL    HW230900   1.144   3.654   4.329 -1.1150 -0.2636 -1.2554
 6480SOL     OW30901   2.412   0.202  12.585 -0.2703  0.3963 -0.1437
 6480SOL    HW130902   2.471   0.275  12.604 -0.0396 -0.7650  3.5515
 6480SOL    HW230903   2.417   0.146  12.662  1.2676  1.3046  0.4089
 6481SOL     OW30904   2.740   2.482   6.443  0.2194 -0.3235  0.1860
 6481SOL    HW130905   2.798   2.552   6.474 -0.9947  0.9933 -0.5238
 6481SOL    HW230906   2.717   2.519   6.358  2.2832 -0.6642 -0.5183
 6482SOL     OW30907   4.274   2.622  16.756  0.6259 -0.1768  0.3834
 6482SOL    HW130908   4.326   2.607  16.677 -0.3155 -1.4605  0.0019
 6482SOL    HW230909   4.310   2.710  16.771 -0.6292  0.9997 -3.4855
 6483SOL     OW30910   1.533   2.514   8.791 -0.0467  0.1035  0.0286
 6483SOL    HW130911   1.555   2.469   8.872 -0.4691  0.2900  0.2494
 6483SOL    HW230912   1.534   2.607   8.817 -0.4113  0.2644 -0.5299
 6484SOL     OW30913   2.326   2.138  11.513 -0.1233  0.3840  0.4983
 6484SOL    HW130914   2.347   2.145  11.420 -0.8027  0.9975  0.3855
 6484SOL    HW230915   2.365   2.055  11.539  3.1409  2.4336  2.0910
 6485SOL     OW30916   0.105   3.687   4.330 -0.1817  0.4754 -0.2308
 6485SOL    HW130917   0.068   3.700   4.417  0.1740  1.5086 -0.2422
 6485SOL    HW230918   0.160   3.765   4.326  1.9156 -0.9975 -0.2209
 6486SOL     OW30919   2.924   3.485   8.049 -0.1139  0.4625  0.4427
 6486SOL    HW130920   2.983   3.410   8.044 -1.8534 -0.9364  0.6894
 6486SOL    HW230921   2.980   3.562   8.040 -0.2401  0.5689  0.5596
 6487SOL     OW30922   0.296   4.336   0.942  0.0327 -0.1072 -0.1421
 6487SOL    HW130923   0.270   4.306   0.855  0.1028 -1.0330  0.1595
 6487SOL    HW230924   0.352   4.407   0.910 -0.1823  0.4849  0.7756
 6488SOL     OW30925   0.910   2.756   2.025 -0.5074  0.1528 -0.1606
 6488SOL    HW130926   0.999   2.757   2.059 -0.4015  1.5846 -0.4800
 6488SOL    HW230927   0.909   2.684   1.962  1.5134 -1.9125  2.1379
 6489SOL     OW30928   4.710   4.663   1.007 -0.4541 -0.0449  0.0379
 6489SOL    HW130929   0.034   4.597   1.055 -2.3063 -1.5136 -0.1073
 6489SOL    HW230930   0.013   4.644   0.918  0.6691  0.1816  0.3430
 6490SOL     OW30931   2.481   1.828   5.935  0.2404 -0.2589 -0.1463
 6490SOL    HW130932   2.463   1.734   5.940  2.0226 -0.4882  1.9407
 6490SOL    HW230933   2.503   1.847   6.027  1.5889 -3.8784  0.2719
 6491SOL     OW30934   3.296   1.676  17.600  0.0499 -0.0139  0.3932
 6491SOL    HW130935   3.323   1.704  17.687 -0.3129  2.6316 -0.3588
 6491SOL    HW230936   3.203   1.673  17.620 -0.1549  2.2797 -0.2522
 6492SOL     OW30937   1.237   4.516   2.254 -0.6594  0.0480 -0.3052
 6492SOL    HW130938   1.191   4.588   2.297 -1.3034 -0.6320  0.1350
 6492SOL    HW230939   1.164   4.455   2.241 -1.4631  1.2469 -1.4987
 6493SOL     OW30940   2.066   4.356   8.433 -0.4588  0.3124 -0.1687
 6493SOL    HW130941   2.120   4.347   8.512 -1.2490  2.8000  0.6414
 6493SOL    HW230942   2.095   4.274   8.392 -1.1576 -1.1733  2.2926
 6494SOL     OW30943   3.258   4.438   3.715  0.3367  0.0590 -0.5763
 6494SOL    HW130944   3.294   4.358   3.677  2.8118  1.3529 -0.9252
 6494SOL    HW230945   3.165   4.422   3.702 -0.5931  2.0086  3.5661
 6495SOL     OW30946   4.601   2.959   7.059  0.5093  0.4908 -0.5230
 6495SOL    HW130947   4.654   2.882   7.038  0.2267  0.2007 -0.1595
 6495SOL    HW230948   4.552   2.919   7.130  1.9188 -1.4828 -0.6741
 6496SOL     OW30949   2.204   0.687   7.799 -0.3016 -0.0678 -0.2028
 6496SOL    HW130950   2.242   0.647   7.877 -2.6397 -1.6496  0.1056
 6496SOL    HW230951   2.197   0.617   7.734 -0.1066 -0.8270  0.5908
 6497SOL     OW30952   2.226   3.783   8.422 -0.1126  0.4603 -0.1306
 6497SOL    HW130953   2.134   3.810   8.416 -0.1427  0.7946  1.9459
 6497SOL    HW230954   2.259   3.786   8.332  2.7323 -2.1234  0.8397
 6498SOL     OW30955   3.534   4.088   1.117 -0.0714  0.0497 -0.1254
 6498SOL    HW130956   3.606   4.029   1.094  1.0618  0.8231  1.3926
 6498SOL    HW230957   3.514   4.053   1.205  1.5374 -0.6288 -0.0312
 6499SOL     OW30958   2.758   3.764   1.476 -0.5881  0.0802  0.2739
 6499SOL    HW130959   2.840   3.779   1.523 -1.6357 -0.1670  2.1538
 6499SOL    HW230960   2.792   3.800   1.394  0.4875 -1.2287  0.1582
 6500SOL     OW30961   1.905   2.312   7.132  0.2632  0.6192  0.9549
 6500SOL    HW130962   1.891   2.356   7.216 -0.5036  1.6021  0.3101
 6500SOL    HW230963   1.818   2.321   7.093  0.6428 -1.1748 -0.2933
 6501SOL     OW30964   1.515   4.514   2.284  0.2711  0.3456 -0.2299
 6501SOL    HW130965   1.520   4.558   2.368  1.4323  0.6165 -0.4370
 6501SOL    HW230966   1.424   4.520   2.257  0.1596 -0.7399 -0.1030
 6502SOL     OW30967   3.393   3.264  13.230  0.6554 -0.9894  0.3741
 6502SOL    HW130968   3.421   3.185  13.183 -0.0334 -1.1171  0.1755
 6502SOL    HW230969   3.470   3.306  13.269 -0.1675 -1.0834  2.1090
 6503SOL     OW30970   2.474   4.325   3.999 -0.0144 -0.0187  0.1194
 6503SOL    HW130971   2.493   4.298   4.089 -0.4480  2.6496  1.0175
 6503SOL    HW230972   2.493   4.244   3.951 -1.0799 -1.4822  2.1575
 6504SOL     OW30973   3.561   0.638   5.247  0.2989 -0.5463 -0.0342
 6504SOL    HW130974   3.548   0.723   5.289  0.5922 -1.3107  1.6026
 6504SOL    HW230975   3.601   0.588   5.318  2.1598  0.1767 -0.5606
 6505SOL     OW30976   4.259   4.253   2.519 -0.2831  0.1152 -0.5025
 6505SOL    HW130977   4.222   4.288   2.437  0.3128 -1.2938 -1.3703
 6505SOL    HW230978   4.192   4.190   2.547  0.2291 -1.0846 -1.9795
 6506SOL     OW30979   2.757   4.027  10.288 -0.4191 -0.0579  0.2532
 6506SOL    HW130980   2.803   4.023  10.372 -2.9575 -1.3159  1.5743
 6506SOL    HW230981   2.665   4.030  10.313 -0.6829 -1.1264 -0.6146
 6507SOL     OW30982   4.315   1.786  17.059  0.8779  0.2720  0.3544
 6507SOL    HW130983   4.319   1.858  16.996  2.1246  1.4911  1.8243
 6507SOL    HW230984   4.226   1.751  17.056  1.2211 -0.6670  1.0916
 6508SOL     OW30985   0.174   0.953  14.435 -0.2322  0.7048 -0.0604
 6508SOL    HW130986   0.254   0.982  14.391 -1.5506  2.3449 -1.4077
 6508SOL    HW230987   0.207   0.921  14.519  0.0305  2.0095  0.3381
 6509SOL     OW30988   2.542   4.678   7.570  0.4695 -0.0155 -0.1743
 6509SOL    HW130989   2.568   4.610   7.632 -2.1955 -2.1494 -1.3830
 6509SOL    HW230990   2.500   0.014   7.630 -1.0987  0.3236 -1.6265
 6510SOL     OW30991   3.740   1.832  13.860  0.1488  0.1074  0.2674
 6510SOL    HW130992   3.789   1.813  13.940 -0.9824 -0.2239  0.8816
 6510SOL    HW230993   3.650   1.809  13.883 -0.2780  0.0571 -1.4877
 6511SOL     OW30994   2.294   0.886   8.825 -0.1917 -0.1268  0.0482
 6511SOL    HW130995   2.215   0.852   8.783  0.0743  0.0198 -0.5730
 6511SOL    HW230996   2.358   0.884   8.754  0.6686  2.1603  0.7451
 6512SOL     OW30997   2.536   1.075   8.740 -0.1443  0.4872 -1.0084
 6512SOL    HW130998   2.453   1.116   8.716 -1.0598 -1.3605 -1.0082
 6512SOL    HW230999   2.578   1.071   8.654  0.4148  0.8380 -0.7511
 6513SOL     OW31000   0.288   2.803   8.113 -0.0106  0.0849  0.2022
 6513SOL    HW131001   0.342   2.724   8.123  2.3267  1.9558  2.6356
 6513SOL    HW231002   0.349   2.868   8.150  2.3868 -2.2673  0.4000
 6514SOL     OW31003   4.103   0.727   2.683 -0.2928 -0.0748  0.2888
 6514SOL    HW131004   4.102   0.763   2.594 -0.5609  0.2007  0.4034
 6514SOL    HW231005   4.131   0.636   2.673  2.2611  0.8262 -0.8398
 6515SOL     OW31006   3.623   0.790   3.698 -0.0500  0.1967 -0.2160
 6515SOL    HW131007   3.608   0.883   3.713  1.3910  0.4598 -0.3433
 6515SOL    HW231008   3.688   0.767   3.764 -0.5354  0.3428  0.3093
 6516SOL     OW31009   2.221   2.163   6.680 -0.1103 -0.0685 -0.0062
 6516SOL    HW131010   2.203   2.083   6.728  1.4674 -2.0872 -2.7824
 6516SOL    HW231011   2.203   2.131   6.592  3.0282 -1.4928 -0.1241
 6517SOL     OW31012   0.927   0.023   7.114  0.1377  0.0588 -0.2319
 6517SOL    HW131013   1.013   0.027   7.155 -1.0078  1.0898  2.0844
 6517SOL    HW231014   0.872   0.043   7.190  0.5854 -0.4519  0.2192
 6518SOL     OW31015   1.927   1.842   4.561 -0.0342 -0.2323  0.6307
 6518SOL    HW131016   1.944   1.935   4.572 -0.9994  0.2131 -1.8106
 6518SOL    HW231017   1.887   1.825   4.647  1.3260 -1.0449  1.1046
 6519SOL     OW31018   3.359   2.487   7.772 -0.1183  0.2446  0.2106
 6519SOL    HW131019   3.405   2.412   7.735 -2.1188 -0.5366 -0.6831
 6519SOL    HW231020   3.270   2.464   7.743 -1.2325  2.5942  1.7109
 6520SOL     OW31021   3.720   1.864  11.988 -0.0682  0.0659  0.1676
 6520SOL    HW131022   3.774   1.917  11.929 -0.5700  1.3768  0.8911
 6520SOL    HW231023   3.782   1.805  12.030  0.6926  1.3429  0.8172
 6521SOL     OW31024   4.632   0.121   1.210 -0.1044 -0.5061  0.3022
 6521SOL    HW131025   4.642   0.038   1.164 -1.9612 -0.4710 -0.1629
 6521SOL    HW231026   4.692   0.182   1.166 -0.7601 -1.3207 -1.7551
 6522SOL     OW31027   0.968   2.220   2.371 -0.2189  0.5749  0.0708
 6522SOL    HW131028   0.935   2.215   2.282 -0.8056  0.9711  0.2669
 6522SOL    HW231029   1.012   2.305   2.360  0.8276 -0.1772 -1.5459
 6523SOL     OW31030   4.502   1.232   2.563 -0.3693 -0.1632 -0.5022
 6523SOL    HW131031   4.495   1.324   2.590 -0.6537 -0.9545  2.2043
 6523SOL    HW231032   4.480   1.233   2.470 -2.2778  0.0539 -0.0519
 6524SOL     OW31033   3.486   0.627   4.595 -0.4255 -0.4700 -0.4435
 6524SOL    HW131034   3.451   0.693   4.655  0.7188 -1.2501  1.0693
 6524SOL    HW231035   3.447   0.643   4.509 -0.9511 -1.5148 -0.3972
 6525SOL     OW31036   1.949   4.101   5.656  0.4589  0.1144 -0.6135
 6525SOL    HW131037   1.954   4.159   5.733  2.0525 -0.2209 -0.4597
 6525SOL    HW231038   1.889   4.031   5.682 -0.7294  1.1081 -0.6761
 6526SOL     OW31039   2.737   3.083   6.176 -0.0337  0.0094 -0.2780
 6526SOL    HW131040   2.784   3.013   6.222  0.1820  0.2353 -0.1566
 6526SOL    HW231041   2.781   3.159   6.215 -1.2512  0.5979 -0.0589
 6527SOL     OW31042   2.895   1.980  17.612  0.2109 -0.2418 -0.1541
 6527SOL    HW131043   2.807   2.011  17.589 -0.0580 -1.1617 -0.3712
 6527SOL    HW231044   2.905   1.992   0.005 -2.9154 -0.7761  0.2494
 6528SOL     OW31045   0.968   0.478   2.275  0.3489  0.7365  0.0729
 6528SOL    HW131046   0.884   0.433   2.285  0.5410  0.1894 -0.9083
 6528SOL    HW231047   0.997   0.424   2.202 -1.6449 -2.2786  1.4945
 6529SOL     OW31048   3.521   1.662  12.796  0.3203  0.4173 -0.2707
 6529SOL    HW131049   3.495   1.642  12.706 -0.3766 -1.1904  0.2814
 6529SOL    HW231050   3.527   1.757  12.800 -0.3549  0.3635  2.0707
 6530SOL     OW31051   1.897   3.266   8.070 -0.5038 -0.5909 -0.7582
 6530SOL    HW131052   1.910   3.183   8.116  0.9824 -0.8598 -1.6691
 6530SOL    HW231053   1.811   3.292   8.103 -0.8941 -0.6348 -1.7505
 6531SOL     OW31054   3.503   3.157   7.664  0.0704  0.1537 -0.8515
 6531SOL    HW131055   3.589   3.127   7.696  0.3474 -1.3830 -3.0865
 6531SOL    HW231056   3.484   3.101   7.589  2.1517  2.5552 -3.1848
 6532SOL     OW31057   4.212   2.614   3.257  0.1150 -0.2110 -0.0759
 6532SOL    HW131058   4.230   2.603   3.350  0.1857 -1.0851 -0.1936
 6532SOL    HW231059   4.189   2.707   3.250  2.4235  0.3658  0.1665
 6533SOL     OW31060   4.399   2.027  12.734 -0.1257  0.1352  0.0211
 6533SOL    HW131061   4.325   2.030  12.794 -0.3210  0.6259 -0.2481
 6533SOL    HW231062   4.435   2.116  12.739 -0.7485  0.5918 -4.3947
 6534SOL     OW31063   4.570   4.128   4.687 -0.4115 -0.4574 -0.0282
 6534SOL    HW131064   4.517   4.056   4.653  0.8084 -0.6817 -1.4680
 6534SOL    HW231065   4.596   4.089   4.771 -0.9272 -0.7018  0.0168
 6535SOL     OW31066   3.398   3.443   5.011 -1.2255 -0.0013  0.1527
 6535SOL    HW131067   3.342   3.436   4.934 -2.2096  0.7720  0.8077
 6535SOL    HW231068   3.482   3.482   4.985 -2.5294  0.8106 -2.8959
 6536SOL     OW31069   1.637   4.406   7.958  0.8556 -0.7459  0.8586
 6536SOL    HW131070   1.658   4.320   7.995 -1.3262 -1.1088  1.2491
 6536SOL    HW231071   1.585   4.453   8.023 -0.2159  0.6797 -1.0404
 6537SOL     OW31072   0.077   0.242  11.788 -0.6174 -0.6985  0.0742
 6537SOL    HW131073   0.083   0.269  11.697 -0.9469  2.0503  0.8635
 6537SOL    HW231074   0.148   0.294  11.826 -2.1082  0.3288  1.4470
 6538SOL     OW31075   3.398   2.963  15.094  0.1499  0.4654  0.2868
 6538SOL    HW131076   3.381   3.054  15.072 -0.0712  0.3258 -0.1148
 6538SOL    HW231077   3.444   2.978  15.177 -0.3061 -0.0021  0.6204
 6539SOL     OW31078   1.983   3.571   5.852  0.2889 -0.5209 -0.5806
 6539SOL    HW131079   2.012   3.611   5.769  0.8626 -0.8387 -0.5339
 6539SOL    HW231080   2.062   3.542   5.898  0.2713  2.0710  1.0965
 6540SOL     OW31081   2.034   0.923   6.700 -0.8539  0.1692  0.2693
 6540SOL    HW131082   2.127   0.903   6.691 -0.3003  2.0901  1.7309
 6540SOL    HW231083   2.025   0.993   6.634  0.2704  0.6988  0.6798
 6541SOL     OW31084   2.740   3.259  16.200 -0.4785 -0.1146 -0.6037
 6541SOL    HW131085   2.785   3.188  16.247 -2.0211 -2.1261 -2.1862
 6541SOL    HW231086   2.741   3.231  16.108  0.6581 -0.0759 -0.6008
 6542SOL     OW31087   4.011   3.721   1.587 -0.0150 -0.5006 -0.0106
 6542SOL    HW131088   3.973   3.770   1.514  0.3548  2.0339  1.4755
 6542SOL    HW231089   3.939   3.658   1.594  1.9424 -2.5091  1.9566
 6543SOL     OW31090   1.484   0.228  12.175  0.2444  0.0400 -0.0332
 6543SOL    HW131091   1.551   0.293  12.196  0.3299  0.1083 -0.5277
 6543SOL    HW231092   1.464   0.260  12.087  1.9283 -0.9961 -0.8005
 6544SOL     OW31093   0.897   0.385  16.067 -0.2185 -0.0493 -0.0679
 6544SOL    HW131094   0.975   0.433  16.038  1.4732 -2.2537  0.8295
 6544SOL    HW231095   0.828   0.403  16.003  0.6652 -0.6041 -1.1775
 6545SOL     OW31096   1.161   2.819   7.975  0.1969 -0.4125 -0.6222
 6545SOL    HW131097   1.233   2.786   8.029 -1.0688 -0.3020  1.1476
 6545SOL    HW231098   1.119   2.865   8.048 -0.7370  1.0238 -2.0404
 6546SOL     OW31099   2.195   4.707   4.142  0.0901  0.4690  0.5334
 6546SOL    HW131100   2.239   0.067   4.143  0.5536  0.2320 -1.1123
 6546SOL    HW231101   2.179   4.691   4.235  1.1288 -0.9065  0.4738
 6547SOL     OW31102   2.299   0.930   6.209 -0.3694 -0.9257  0.0027
 6547SOL    HW131103   2.387   0.967   6.211 -1.4804  1.7027  0.4287
 6547SOL    HW231104   2.256   0.977   6.137 -2.0144 -2.5243 -0.0661
 6548SOL     OW31105   4.517   4.234   3.868 -0.1823 -0.1926  0.7579
 6548SOL    HW131106   4.455   4.260   3.937 -2.3565 -0.4394 -1.1260
 6548SOL    HW231107   4.495   4.297   3.800  0.5143  0.0877  0.7913
 6549SOL     OW31108   3.523   1.895  11.334 -0.2610 -0.0879 -0.0362
 6549SOL    HW131109   3.552   1.957  11.266 -1.4063 -1.1343 -1.4778
 6549SOL    HW231110   3.557   1.944  11.409 -0.6314  0.0840  0.0189
 6550SOL     OW31111   3.256   2.187   7.581  0.0500  0.0801  0.2754
 6550SOL    HW131112   3.230   2.112   7.528  1.3211 -0.9911  1.1781
 6550SOL    HW231113   3.241   2.261   7.523 -0.6433  0.5322  1.0189
 6551SOL     OW31114   2.065   3.619   1.892  0.1261 -0.8164 -0.1635
 6551SOL    HW131115   2.030   3.667   1.967  1.3446 -1.2117  0.6731
 6551SOL    HW231116   2.035   3.685   1.830 -1.5610 -2.4104 -1.0466
 6552SOL     OW31117   2.522   3.439   7.650  0.1220 -0.2164  0.5058
 6552SOL    HW131118   2.455   3.452   7.718 -1.3063  2.0244 -1.3186
 6552SOL    HW231119   2.591   3.393   7.697  0.3597 -0.2326  0.1357
 6553SOL     OW31120   2.035   2.951  13.375 -0.0009 -0.2705  0.5827
 6553SOL    HW131121   2.033   2.872  13.430  1.2967 -0.4081  0.4275
 6553SOL    HW231122   2.101   2.916  13.316  1.0242  1.5349  0.6714
 6554SOL     OW31123   1.509   2.412   3.018 -0.1858 -0.1468 -0.1990
 6554SOL    HW131124   1.521   2.438   2.927  2.3381  1.0918  0.4802
 6554SOL    HW231125   1.571   2.460   3.073 -0.4534 -0.2903  0.2320
 6555SOL     OW31126   2.064   4.451  13.502  0.3644 -0.1117  0.4743
 6555SOL    HW131127   2.141   4.508  13.494  1.0893 -0.9901  1.2689
 6555SOL    HW231128   2.002   4.515  13.537 -0.6259 -0.8092  0.0062
 6556SOL     OW31129   4.380   0.949   2.353 -0.0690  0.3795  0.1823
 6556SOL    HW131130   4.337   0.874   2.312  0.7732 -0.2467  0.4527
 6556SOL    HW231131   4.454   0.959   2.292 -0.8106  1.6921 -0.4956
 6557SOL     OW31132   2.000   2.569   5.762  0.2832 -0.4158 -0.1039
 6557SOL    HW131133   2.019   2.475   5.767  2.4875  0.0958  1.0719
 6557SOL    HW231134   2.091   2.588   5.741  0.6239 -2.0119 -0.1140
 6558SOL     OW31135   0.140   0.860   7.302 -0.2714 -0.2863 -0.1329
 6558SOL    HW131136   0.079   0.846   7.374 -0.3951  1.1516  0.0440
 6558SOL    HW231137   0.081   0.903   7.239  1.0198 -0.8172 -1.7080
 6559SOL     OW31138   1.492   3.567   9.189 -0.2787 -0.0518 -0.1309
 6559SOL    HW131139   1.517   3.544   9.099  0.8607  0.5343  0.0376
 6559SOL    HW231140   1.467   3.659   9.179  0.7568  0.3231  0.7025
 6560SOL     OW31141   4.414   3.382   7.372 -0.1597 -0.6081  0.1541
 6560SOL    HW131142   4.460   3.394   7.455  1.4938  1.6159 -1.1004
 6560SOL    HW231143   4.477   3.395   7.302 -1.3485  0.6621 -0.6643
 6561SOL     OW31144   0.197   4.288   4.384 -0.2224 -0.1041  0.1695
 6561SOL    HW131145   0.105   4.264   4.378  0.2396 -1.6971 -0.5226
 6561SOL    HW231146   0.210   4.291   4.479 -0.4503  1.1819  0.1605
 6562SOL     OW31147   0.850   4.231   2.608 -0.1914 -0.3075  0.0797
 6562SOL    HW131148   0.806   4.288   2.544  2.6433  0.3909 -1.2384
 6562SOL    HW231149   0.918   4.288   2.644 -0.0520 -1.4194  1.5779
 6563SOL     OW31150   3.041   3.095   4.581 -0.4661 -0.3915 -0.4822
 6563SOL    HW131151   2.985   3.126   4.652  0.0825  0.1778 -0.2904
 6563SOL    HW231152   3.091   3.025   4.624 -1.6190 -1.2622 -0.5651
 6564SOL     OW31153   3.883   4.386   3.213 -0.1901  0.2866  0.2190
 6564SOL    HW131154   3.914   4.327   3.282  1.5860 -0.1662 -0.9671
 6564SOL    HW231155   3.912   4.342   3.134 -0.1152  0.2577  0.2626
 6565SOL     OW31156   3.058   3.859  13.511 -0.3886 -0.0244  0.3739
 6565SOL    HW131157   3.124   3.861  13.580  0.1951  1.5168 -0.2380
 6565SOL    HW231158   3.045   3.766  13.489 -1.2371  0.1994 -0.0590
 6566SOL     OW31159   4.390   0.131   1.913 -0.2953 -0.0394 -0.3311
 6566SOL    HW131160   4.414   0.042   1.938  3.4361  1.0761 -0.0138
 6566SOL    HW231161   4.308   0.121   1.864 -0.4815 -0.4042  0.0614
 6567SOL     OW31162   3.953   3.508   5.575 -0.6864  0.2832  0.2489
 6567SOL    HW131163   3.884   3.543   5.519 -1.1916 -0.7484  0.2145
 6567SOL    HW231164   3.970   3.430   5.521  0.1126  0.3666  0.3760
 6568SOL     OW31165   0.569   2.580   5.799  0.0469 -0.6012 -0.7742
 6568SOL    HW131166   0.523   2.546   5.723  0.8513  2.6977 -2.7509
 6568SOL    HW231167   0.658   2.590   5.764  1.0897 -0.2793  1.9639
 6569SOL     OW31168   3.404   4.270  10.620  0.0326 -0.2409  0.4244
 6569SOL    HW131169   3.330   4.318  10.656 -1.2909 -2.5558  0.7834
 6569SOL    HW231170   3.421   4.217  10.698  2.0720 -1.3289 -0.7782
 6570SOL     OW31171   2.309   0.878   6.684  0.0920 -0.0884  0.0032
 6570SOL    HW131172   2.352   0.845   6.762  0.3244 -1.1891 -0.5873
 6570SOL    HW231173   2.373   0.943   6.655  0.9010 -1.5999 -1.6466
 6571SOL     OW31174   4.281   4.355  11.038 -0.0565  0.3651  0.5934
 6571SOL    HW131175   4.294   4.437  10.992  0.6280 -0.3258 -0.4418
 6571SOL    HW231176   4.194   4.359  11.076 -1.2327 -0.7986 -1.9930
 6572SOL     OW31177   2.835   0.954   0.704 -0.0713  0.4896  0.3157
 6572SOL    HW131178   2.886   0.929   0.780 -0.3345 -0.3880  0.2012
 6572SOL    HW231179   2.875   0.897   0.639  0.6838  0.5644  0.7264
 6573SOL     OW31180   0.357   0.181   7.792 -0.2716  0.5143 -0.0769
 6573SOL    HW131181   0.418   0.119   7.833  0.2858  1.5926  0.7117
 6573SOL    HW231182   0.301   0.206   7.865 -2.5652 -1.4173 -1.1569
 6574SOL     OW31183   3.072   4.716   4.657 -0.4121  0.2463 -0.4822
 6574SOL    HW131184   3.100   4.626   4.677  1.3639  0.6681 -1.1571
 6574SOL    HW231185   3.152   0.026   4.620 -0.5534  1.0687  0.0032
 6575SOL     OW31186   1.276   0.035   4.013 -0.0726  0.1951 -0.5642
 6575SOL    HW131187   1.300   0.034   3.921  3.0669  0.1841  0.2685
 6575SOL    HW231188   1.187   0.003   3.998 -0.5800  1.0904  0.5636
 6576SOL     OW31189   2.070   3.048   8.537  0.1886 -0.0100 -0.0552
 6576SOL    HW131190   2.074   2.972   8.480  0.4960  0.0469 -0.1083
 6576SOL    HW231191   2.160   3.046   8.569 -0.0764 -1.1166  0.6013
 6577SOL     OW31192   3.408   3.347   7.424  0.3309  0.6553  0.0382
 6577SOL    HW131193   3.337   3.411   7.430 -0.0946  0.2197 -0.2657
 6577SOL    HW231194   3.456   3.370   7.503  2.3684 -1.8356 -0.4828
 6578SOL     OW31195   3.763   2.355   1.948 -0.6333 -0.0525  0.3422
 6578SOL    HW131196   3.833   2.294   1.928  0.3096  1.5623 -1.2704
 6578SOL    HW231197   3.741   2.383   1.859  0.8224  0.9549  0.3036
 6579SOL     OW31198   4.646   2.906  12.835 -0.5750 -0.0467 -0.2375
 6579SOL    HW131199   4.553   2.894  12.815 -0.2907 -2.4430 -0.1184
 6579SOL    HW231200   4.648   2.901  12.930 -0.0644 -0.7731 -0.2806
 6580SOL     OW31201   0.779   0.050   3.995  0.1258  0.5517  0.4995
 6580SOL    HW131202   0.790   4.680   3.996  0.5616  0.5749 -1.3532
 6580SOL    HW231203   0.772   0.060   4.090  0.1049  1.2620  0.4264
 6581SOL     OW31204   3.519   2.585   6.235  0.6189  0.0046  0.2735
 6581SOL    HW131205   3.523   2.593   6.330  0.1709  1.7110  0.1563
 6581SOL    HW231206   3.605   2.612   6.204  0.4423 -1.2284 -1.2534
 6582SOL     OW31207   0.561   4.464   1.880  0.2543  0.0264 -0.2042
 6582SOL    HW131208   0.584   4.397   1.816  4.5993  1.2710  0.1085
 6582SOL    HW231209   0.465   4.465   1.875  0.2309 -0.2409  0.1596
 6583SOL     OW31210   2.143   2.743  17.456 -0.1396 -0.1762 -0.0344
 6583SOL    HW131211   2.207   2.678  17.482 -0.1833  0.1058  0.7802
 6583SOL    HW231212   2.207   2.813  17.445 -2.2974  1.3122 -3.3567
 6584SOL     OW31213   4.109   4.515  13.604 -0.4644 -0.0708  0.2389
 6584SOL    HW131214   4.111   4.497  13.510  0.5561  0.3439  0.1787
 6584SOL    HW231215   4.096   4.610  13.602  1.6755  0.1592 -2.8464
 6585SOL     OW31216   0.536   2.524   4.661 -0.2484 -0.2377  0.1995
 6585SOL    HW131217   0.629   2.527   4.639 -0.6681  1.6141 -1.2797
 6585SOL    HW231218   0.517   2.612   4.628  0.6460  0.1007  0.5682
 6586SOL     OW31219   3.256   3.399   4.208  0.1260 -0.4064  0.1309
 6586SOL    HW131220   3.285   3.367   4.123  1.9478 -1.3561  1.1322
 6586SOL    HW231221   3.260   3.494   4.196  2.1626 -0.4575  0.4697
 6587SOL     OW31222   2.034   1.669   0.945  0.0678 -0.6185  0.4170
 6587SOL    HW131223   2.090   1.592   0.939  0.6645  0.0087 -2.3805
 6587SOL    HW231224   2.086   1.728   0.999 -1.2768 -0.2472  1.3194
 6588SOL     OW31225   1.189   4.366   7.703 -0.0873  0.3163  0.3164
 6588SOL    HW131226   1.196   4.273   7.720 -0.9719  0.2284  0.1908
 6588SOL    HW231227   1.262   4.404   7.752  1.4772 -0.0358 -1.7000
 6589SOL     OW31228   1.200   0.707  11.136  0.2672 -0.0215 -0.1135
 6589SOL    HW131229   1.109   0.685  11.118  0.4955  0.3949 -1.8233
 6589SOL    HW231230   1.226   0.769  11.068  2.7939 -0.7479  0.2004
 6590SOL     OW31231   3.572   0.665  12.543 -0.0261  0.1045 -0.0649
 6590SOL    HW131232   3.616   0.626  12.618 -1.6211  0.4476  1.0714
 6590SOL    HW231233   3.481   0.669  12.572 -0.4208 -0.4738 -1.2115
 6591SOL     OW31234   1.179   3.718   1.563 -0.2435 -0.6395  0.1201
 6591SOL    HW131235   1.211   3.739   1.651  0.8682 -0.9792 -0.1956
 6591SOL    HW231236   1.133   3.635   1.579 -3.2320  1.1294  0.6142
 6592SOL     OW31237   3.799   2.727   1.048 -0.6336 -0.7471 -0.3865
 6592SOL    HW131238   3.719   2.704   1.097  0.0474  0.0490  1.1282
 6592SOL    HW231239   3.756   2.713   0.964 -1.6233  1.0750 -0.2041
 6593SOL     OW31240   2.518   0.146   3.196  0.0222 -0.5989  0.3740
 6593SOL    HW131241   2.521   0.122   3.104  0.3466 -0.8636  0.4533
 6593SOL    HW231242   2.579   0.081   3.231 -0.2404  0.2594  2.4234
 6594SOL     OW31243   2.368   0.382   3.917 -0.0657 -0.4844 -0.2772
 6594SOL    HW131244   2.456   0.347   3.924 -0.2564 -0.7369  0.8207
 6594SOL    HW231245   2.344   0.356   3.828 -2.1052 -0.2245  0.1884
 6595SOL     OW31246   2.440   3.892   9.712  0.5193  0.3995 -0.1245
 6595SOL    HW131247   2.461   3.907   9.619 -0.3075  1.2259 -0.1833
 6595SOL    HW231248   2.445   3.797   9.721 -1.4751  0.2851 -0.1096
 6596SOL     OW31249   2.845   3.320   6.391 -0.2046  0.3440  0.0554
 6596SOL    HW131250   2.934   3.286   6.391 -0.2917  0.1396 -2.6197
 6596SOL    HW231251   2.790   3.253   6.433 -0.5610 -0.0355 -1.0177
 6597SOL     OW31252   4.368   4.662   5.950 -0.3734  0.0725 -0.4571
 6597SOL    HW131253   4.435   4.599   5.923 -0.4868 -1.1912  2.2863
 6597SOL    HW231254   4.422   4.695   6.022 -1.2209 -1.5014  0.8860
 6598SOL     OW31255   4.281   2.216   3.028 -0.2654  0.1539 -0.0087
 6598SOL    HW131256   4.295   2.282   2.960  1.0258 -0.0864  0.0280
 6598SOL    HW231257   4.366   2.208   3.072 -0.4906 -0.3736  0.3296
 6599SOL     OW31258   2.411   4.016   4.927 -0.0407 -0.1304  0.5894
 6599SOL    HW131259   2.465   3.972   4.993 -1.8943  0.6708  2.6265
 6599SOL    HW231260   2.425   3.957   4.853  0.4229 -0.0546  0.6153
 6600SOL     OW31261   2.883   3.965  15.993 -0.0602  0.3669  0.0475
 6600SOL    HW131262   2.817   4.029  15.968 -0.2174  1.1509  2.4400
 6600SOL    HW231263   2.872   3.941  16.085  1.6878  1.3250  0.5081
 6601SOL     OW31264   4.175   3.190   2.641  0.0325  0.0808 -0.2615
 6601SOL    HW131265   4.214   3.274   2.618  0.0126  0.4427  0.9948
 6601SOL    HW231266   4.082   3.210   2.651  0.5767  2.0890  0.7658
 6602SOL     OW31267   4.235   1.613   8.017 -0.4900 -0.8242 -0.3193
 6602SOL    HW131268   4.150   1.574   7.995 -0.6321 -1.6765  1.7400
 6602SOL    HW231269   4.277   1.634   7.933  0.7406 -2.2748 -0.0567
 6603SOL     OW31270   0.062   3.156   2.835 -0.2505 -0.5137 -0.3188
 6603SOL    HW131271   0.035   3.067   2.815 -1.5439 -0.3497  0.6531
 6603SOL    HW231272   0.066   3.193   2.747 -2.6362  0.5644  0.0226
 6604SOL     OW31273   2.782   0.757   2.228 -0.8608 -0.1805  0.1632
 6604SOL    HW131274   2.767   0.702   2.305 -1.9942 -0.5606 -0.3366
 6604SOL    HW231275   2.717   0.725   2.166  0.3462 -1.5620 -0.3987
 6605SOL     OW31276   3.935   3.599   4.515  0.0420 -0.0225 -0.6833
 6605SOL    HW131277   3.921   3.684   4.557 -0.9145 -0.1259 -0.8039
 6605SOL    HW231278   4.015   3.617   4.466 -0.2783  0.4257 -1.0437
 6606SOL     OW31279   4.051   1.724   7.202 -0.0932  0.4295 -0.6950
 6606SOL    HW131280   4.127   1.700   7.150  1.3715  0.8307  1.2613
 6606SOL    HW231281   4.056   1.817   7.178  1.3096  0.4994 -0.1570
 6607SOL     OW31282   2.684   0.330  15.530  0.3087  0.0098  0.3552
 6607SOL    HW131283   2.697   0.323  15.625 -0.8051  0.6280  0.5556
 6607SOL    HW231284   2.745   0.401  15.510 -0.9696  0.9391 -0.2977
 6608SOL     OW31285   3.535   1.992   5.387 -0.4164  0.2874 -0.1782
 6608SOL    HW131286   3.589   2.057   5.343  2.1984 -0.1644  2.3457
 6608SOL    HW231287   3.588   1.916   5.410 -1.8049 -0.8165 -0.5936
 6609SOL     OW31288   1.972   0.483   5.959  0.3898 -0.0088  0.1489
 6609SOL    HW131289   1.999   0.392   5.945  0.6498  0.4452 -2.4214
 6609SOL    HW231290   1.891   0.480   5.908 -0.8335 -3.2058  2.2919
 6610SOL     OW31291   2.735   2.911  16.032  0.3513  0.2446 -0.0349
 6610SOL    HW131292   2.754   2.818  16.043 -0.7687  0.1978  1.4566
 6610SOL    HW231293   2.676   2.930  16.105 -0.2016 -2.6955  0.2526
 6611SOL     OW31294   3.064   3.450   9.713 -0.0322  0.2498  0.1913
 6611SOL    HW131295   3.050   3.511   9.785  1.0088  2.2831 -1.3025
 6611SOL    HW231296   3.003   3.383   9.743 -0.8258  0.5044 -0.8056
 6612SOL     OW31297   4.453   0.858   2.624 -0.2658  0.3811 -0.7569
 6612SOL    HW131298   4.512   0.922   2.665  0.2997 -0.2912 -0.5067
 6612SOL    HW231299   4.422   0.907   2.548  1.6505  2.3991 -0.2499
 6613SOL     OW31300   1.791   2.019  11.598 -0.3994  0.2240  0.0292
 6613SOL    HW131301   1.774   2.097  11.547 -0.1893 -0.1055 -0.5404
 6613SOL    HW231302   1.822   2.057  11.681  0.5010  0.4232 -0.4002
 6614SOL     OW31303   1.347   2.354   6.938 -0.5750 -0.7703  0.8021
 6614SOL    HW131304   1.436   2.369   6.905 -0.9068  2.2570  1.2899
 6614SOL    HW231305   1.315   2.441   6.915 -3.8627 -2.5768 -1.4796
 6615SOL     OW31306   3.879   4.651  12.914  0.1924 -0.0226 -0.3859
 6615SOL    HW131307   3.868   0.021  12.912  0.0357 -0.0136  0.8546
 6615SOL    HW231308   3.819   4.631  12.842 -0.4557  1.0271 -0.1508
 6616SOL     OW31309   0.033   0.124  14.103 -0.4120 -0.9861 -0.3779
 6616SOL    HW131310   0.052   0.075  14.023 -0.5041 -1.3680 -0.1693
 6616SOL    HW231311   4.668   0.146  14.082 -0.0263 -1.4799 -2.5248
 6617SOL     OW31312   2.321   1.477   1.012  0.0787  0.2253  0.0153
 6617SOL    HW131313   2.351   1.423   0.939 -1.1758 -1.2742  0.6045
 6617SOL    HW231314   2.268   1.412   1.058 -0.1562 -0.2580 -0.9387
 6618SOL     OW31315   2.501   4.178   3.432 -0.1776 -0.3881 -0.3006
 6618SOL    HW131316   2.418   4.161   3.476  1.1306 -3.4823  0.9512
 6618SOL    HW231317   2.542   4.092   3.423 -0.7682 -0.4814 -2.1551
 6619SOL     OW31318   0.967   1.144   2.778  0.8334 -0.7822 -0.0816
 6619SOL    HW131319   0.930   1.183   2.699 -0.1222  0.3299  0.9021
 6619SOL    HW231320   0.890   1.102   2.816  1.2343 -0.7424  0.7850
 6620SOL     OW31321   4.451   4.511   0.099 -0.1260  0.0619 -0.0927
 6620SOL    HW131322   4.528   4.468   0.061 -1.1284 -0.9630 -0.9703
 6620SOL    HW231323   4.436   4.468   0.183  0.2227 -0.6699 -0.3993
 6621SOL     OW31324   1.044   1.194  17.479 -0.1398 -0.0144  0.1189
 6621SOL    HW131325   1.101   1.128  17.518 -1.0752 -1.0183 -0.2088
 6621SOL    HW231326   0.988   1.133  17.431  0.0734  0.7141 -1.0457
 6622SOL     OW31327   4.163   1.297   4.537  0.2117  0.0449  0.3072
 6622SOL    HW131328   4.194   1.386   4.519  0.5207 -0.2949 -0.8479
 6622SOL    HW231329   4.204   1.288   4.623  0.7429  1.1802  0.1830
 6623SOL     OW31330   0.315   3.578   8.248 -0.2063  0.2139 -0.6300
 6623SOL    HW131331   0.289   3.505   8.191  0.8737  0.1602 -1.0554
 6623SOL    HW231332   0.332   3.651   8.189  3.6916 -1.5187 -1.6500
 6624SOL     OW31333   0.962   1.080   5.658  0.0202 -0.2562  0.3169
 6624SOL    HW131334   0.971   1.045   5.746  0.4707 -3.6541 -1.0781
 6624SOL    HW231335   0.882   1.132   5.660  1.2026  1.6006 -0.9477
 6625SOL     OW31336   2.674   0.158   2.255  0.1760  0.3209  0.1580
 6625SOL    HW131337   2.718   0.073   2.244  1.6555  1.1482 -0.2481
 6625SOL    HW231338   2.589   0.124   2.225  0.5833  1.5094 -2.3693
 6626SOL     OW31339   1.364   2.870   3.870 -0.2470  0.2374  0.1043
 6626SOL    HW131340   1.278   2.830   3.869  0.3943 -1.1322 -0.7315
 6626SOL    HW231341   1.399   2.844   3.785 -1.5167  0.9578 -0.6394
 6627SOL     OW31342   4.158   4.160   5.688  0.6700 -0.0627 -0.0563
 6627SOL    HW131343   4.120   4.095   5.628  0.9573 -0.3503  0.0714
 6627SOL    HW231344   4.212   4.211   5.628  0.3499  0.6801  0.2964
 6628SOL     OW31345   2.103   1.207   5.441  0.2114 -0.2300  0.1067
 6628SOL    HW131346   2.123   1.165   5.357  0.8585 -2.0217  1.1435
 6628SOL    HW231347   2.016   1.232   5.411 -1.8626 -3.7350  3.2543
 6629SOL     OW31348   3.491   1.236   6.200  0.2252  0.2777 -0.8095
 6629SOL    HW131349   3.525   1.162   6.250 -0.6044  0.7852  0.5030
 6629SOL    HW231350   3.427   1.265   6.264  0.5321 -0.1352 -0.3193
 6630SOL     OW31351   1.883   2.158   6.371 -0.0339  0.0638  0.1034
 6630SOL    HW131352   1.835   2.083   6.405  0.3441  0.1485  0.8135
 6630SOL    HW231353   1.870   2.216   6.446 -3.2783 -1.6735  0.8707
 6631SOL     OW31354   2.272   2.113   1.157  0.0820 -0.1751  0.5281
 6631SOL    HW131355   2.262   2.173   1.231 -1.2542  0.5240 -0.2191
 6631SOL    HW231356   2.250   2.160   1.077  1.9687  0.6618  0.4974
 6632SOL     OW31357   2.257   4.176  14.909 -0.3561 -0.0040  0.3953
 6632SOL    HW131358   2.234   4.111  14.843 -0.4241 -0.3063  0.7172
 6632SOL    HW231359   2.352   4.187  14.898 -0.8251  3.7385  0.0228
 6633SOL     OW31360   4.047   2.269   6.862  0.5246  0.5582  0.1256
 6633SOL    HW131361   3.990   2.288   6.788 -0.2377 -0.4940  0.4402
 6633SOL    HW231362   3.988   2.283   6.935 -0.3617 -0.0004 -0.4773
 6634SOL     OW31363   1.580   4.208   6.978  0.1135  0.4344  0.2884
 6634SOL    HW131364   1.592   4.122   6.936 -0.6528  0.6303 -0.3319
 6634SOL    HW231365   1.499   4.217   6.929 -0.6018 -4.0655  0.6232
 6635SOL     OW31366   4.338   4.148   7.526  0.0942 -0.0168 -0.0578
 6635SOL    HW131367   4.428   4.172   7.501  0.0148 -1.3018 -1.5632
 6635SOL    HW231368   4.299   4.235   7.515 -0.5131 -0.0057  2.1626
 6636SOL     OW31369   0.395   2.259  12.147 -0.2034  0.0050 -0.1182
 6636SOL    HW131370   0.406   2.184  12.088 -3.2238 -0.1353 -0.5066
 6636SOL    HW231371   0.404   2.206  12.226  1.2637  1.7905  0.8897
 6637SOL     OW31372   3.802   4.519   7.689 -0.2237 -0.1036  0.2151
 6637SOL    HW131373   3.828   4.429   7.668 -1.5587 -0.7441  1.2791
 6637SOL    HW231374   3.751   4.501   7.768 -1.0685 -1.3679 -0.6044
 6638SOL     OW31375   4.390   4.568   2.462 -0.2825  0.4531 -0.0071
 6638SOL    HW131376   4.304   4.611   2.454  0.6000  2.1694 -0.3183
 6638SOL    HW231377   4.391   4.508   2.388 -0.6351 -0.0585  0.4029
 6639SOL     OW31378   2.911   2.319   0.763 -0.0520 -0.6354 -0.1400
 6639SOL    HW131379   2.826   2.363   0.768 -1.0795 -2.6964  0.3628
 6639SOL    HW231380   2.946   2.323   0.852 -0.9493 -1.6533  0.2575
 6640SOL     OW31381   4.337   2.932   5.356 -0.0532 -0.4450 -0.0562
 6640SOL    HW131382   4.280   2.922   5.279  0.7372 -1.1044 -0.5457
 6640SOL    HW231383   4.308   2.867   5.421 -0.7087  2.0306  2.1726
 6641SOL     OW31384   0.958   1.373  10.489  0.0971  0.3657  0.2556
 6641SOL    HW131385   1.034   1.373  10.547 -0.9626  0.1799  1.6353
 6641SOL    HW231386   0.968   1.291  10.439 -0.0606  1.0938 -0.9644
 6642SOL     OW31387   2.241   3.887  16.008 -0.1204  0.2183  0.3690
 6642SOL    HW131388   2.246   3.921  16.097  2.0715 -0.6770  0.5936
 6642SOL    HW231389   2.250   3.793  16.023 -0.2850  0.2922  0.9180
 6643SOL     OW31390   4.405   0.808   3.143 -0.0373 -0.5114 -0.4033
 6643SOL    HW131391   4.425   0.774   3.231  2.1827  1.2072 -0.2480
 6643SOL    HW231392   4.378   0.726   3.102  1.8899 -1.4597  0.2608
 6644SOL     OW31393   1.327   1.797   6.860  0.2296 -0.5576  0.3120
 6644SOL    HW131394   1.278   1.751   6.929  1.1223 -0.1920  1.1914
 6644SOL    HW231395   1.402   1.834   6.907  0.5849 -2.9724  1.6864
 6645SOL     OW31396   2.460   2.888  15.390 -0.8656  0.1129  0.4994
 6645SOL    HW131397   2.524   2.951  15.424 -1.2000  0.3661  0.6572
 6645SOL    HW231398   2.516   2.847  15.324  1.0235  1.3835  1.3175
 6646SOL     OW31399   0.656   3.788   3.107  0.0801 -0.2293  0.6789
 6646SOL    HW131400   0.741   3.765   3.069  0.1136 -2.2598  1.9992
 6646SOL    HW231401   0.690   3.848   3.174 -2.9813  1.8751  0.2965
 6647SOL     OW31402   3.079   0.603  12.310 -0.3394  0.0443  0.2239
 6647SOL    HW131403   3.063   0.608  12.215 -0.9881  3.5556  0.5145
 6647SOL    HW231404   3.174   0.598  12.323 -0.4958 -1.0394  0.9252
 6648SOL     OW31405   1.934   1.808   8.690  0.5345 -0.2128  0.5077
 6648SOL    HW131406   1.956   1.837   8.778 -0.0436 -2.1133  1.2839
 6648SOL    HW231407   1.990   1.869   8.642  0.5896 -0.7752 -0.1387
 6649SOL     OW31408   1.661   3.927  15.088  0.3469 -0.0871 -0.9725
 6649SOL    HW131409   1.724   3.999  15.087  0.0779  0.1158 -3.3839
 6649SOL    HW231410   1.623   3.937  15.000 -0.6823  0.6093 -0.4420
 6650SOL     OW31411   3.905   2.242   5.992 -0.1862  0.1566 -0.3320
 6650SOL    HW131412   3.923   2.327   5.950  2.8210 -1.3196 -2.0867
 6650SOL    HW231413   3.884   2.284   6.075  1.3776  0.4132 -0.0600
 6651SOL     OW31414   2.259   0.456  13.889 -0.1349 -0.2520  0.2693
 6651SOL    HW131415   2.284   0.390  13.954  0.9758  0.4999  0.5978
 6651SOL    HW231416   2.349   0.463  13.858 -1.3821  1.5339 -2.9241
 6652SOL     OW31417   2.885   3.552   7.487 -0.4807 -0.1173  0.2528
 6652SOL    HW131418   2.820   3.567   7.419 -0.0683  0.3822 -0.0334
 6652SOL    HW231419   2.860   3.616   7.554 -0.1644  0.2132  0.0632
 6653SOL     OW31420   0.520   1.338   5.319 -0.1138 -0.0208 -0.6142
 6653SOL    HW131421   0.614   1.358   5.322 -0.4573  1.5559 -0.0392
 6653SOL    HW231422   0.502   1.369   5.408 -2.1158  0.4711 -1.1847
 6654SOL     OW31423   2.118   3.560   2.184  0.0735  0.0588 -0.1710
 6654SOL    HW131424   2.165   3.561   2.101  1.8973 -2.7456  0.8033
 6654SOL    HW231425   2.038   3.606   2.159 -1.4196 -1.5965  1.5867
 6655SOL     OW31426   3.142   0.862   1.866 -0.0481 -0.3741  0.2544
 6655SOL    HW131427   3.236   0.870   1.849 -0.0710  0.7010  0.6265
 6655SOL    HW231428   3.134   0.913   1.947 -2.7684 -2.3942  1.2752
 6656SOL     OW31429   0.019   1.853   6.188  0.5701 -0.4208  0.2402
 6656SOL    HW131430   0.090   1.818   6.242 -1.0170 -1.6572  1.5238
 6656SOL    HW231431   4.711   1.770   6.154 -1.6577 -0.0914  1.6575
 6657SOL     OW31432   3.176   2.020   2.279  0.6683  0.6603 -0.1718
 6657SOL    HW131433   3.134   2.033   2.194 -0.0544 -2.1896 -0.2677
 6657SOL    HW231434   3.130   2.080   2.338 -1.4711 -0.5012 -0.6351
 6658SOL     OW31435   0.948   1.815   1.570 -0.2505  0.2859 -0.1662
 6658SOL    HW131436   1.043   1.812   1.580 -0.2913 -0.2720  0.0738
 6658SOL    HW231437   0.933   1.801   1.477  2.7695  1.7338 -0.8646
 6659SOL     OW31438   0.483   4.174  12.993  0.7086 -0.2105 -0.4328
 6659SOL    HW131439   0.440   4.200  12.912  2.3573  0.8867 -0.9669
 6659SOL    HW231440   0.497   4.256  13.040 -4.4057  0.5309 -0.2296
 6660SOL     OW31441   1.677   3.305  10.547 -0.4782 -0.3138  0.0435
 6660SOL    HW131442   1.750   3.341  10.496  0.6972 -2.8257 -0.0517
 6660SOL    HW231443   1.689   3.214  10.518  0.8345 -0.5286  1.2867
 6661SOL     OW31444   3.742   3.015   7.140  0.0546  0.0201  0.0992
 6661SOL    HW131445   3.670   3.057   7.186  1.5501  1.2198  1.3507
 6661SOL    HW231446   3.754   2.939   7.196 -0.5994  0.6994  1.1429
 6662SOL     OW31447   0.618   4.312   6.680  0.5340 -0.1370  0.4696
 6662SOL    HW131448   0.547   4.319   6.744  0.4373 -1.5895  0.5268
 6662SOL    HW231449   0.630   4.406   6.671  1.8150 -0.1850  1.7034
 6663SOL     OW31450   1.733   2.920   7.924  0.1548  0.2922 -0.1101
 6663SOL    HW131451   1.640   2.899   7.926 -0.0111  0.9870 -0.7944
 6663SOL    HW231452   1.727   2.981   7.997 -3.3848  3.8993 -3.4777
 6664SOL     OW31453   3.126   0.721   9.170  0.6767 -0.1911  0.0260
 6664SOL    HW131454   3.129   0.678   9.085 -1.0821 -2.0568  0.8997
 6664SOL    HW231455   3.164   0.649   9.221  1.2324 -0.8035 -1.2668
 6665SOL     OW31456   2.402   0.851   8.554  1.2233 -0.1053 -0.1033
 6665SOL    HW131457   2.381   0.879   8.465 -1.8612 -4.0002 -0.5952
 6665SOL    HW231458   2.456   0.775   8.533 -0.2970 -1.3650  0.5565
 6666SOL     OW31459   2.194   1.249   4.980 -0.1910 -0.3387 -0.0121
 6666SOL    HW131460   2.193   1.197   5.060  1.4745 -2.5868 -1.4381
 6666SOL    HW231461   2.245   1.324   5.010 -0.5924 -0.5695  1.2224
 6667SOL     OW31462   2.233   3.937  14.762 -0.2712 -0.5362  0.0304
 6667SOL    HW131463   2.252   3.867  14.699  0.8664 -1.4093  1.3451
 6667SOL    HW231464   2.178   3.993  14.707  0.2909 -1.3248 -1.3236
 6668SOL     OW31465   3.498   4.200   4.013  0.1617  0.2955 -0.8038
 6668SOL    HW131466   3.521   4.291   4.032  1.0482 -0.3305  1.1761
 6668SOL    HW231467   3.438   4.186   4.086  1.1717  1.8816  0.3473
 6669SOL     OW31468   3.304   1.721  11.040 -0.1074  0.1732  0.2979
 6669SOL    HW131469   3.242   1.684  10.978  1.8753 -0.7560 -1.1433
 6669SOL    HW231470   3.367   1.648  11.041  0.1252  0.3766  0.8501
 6670SOL     OW31471   3.767   1.482   2.521 -0.4419  0.0877  0.4182
 6670SOL    HW131472   3.763   1.387   2.509 -1.3225  0.3087 -1.0199
 6670SOL    HW231473   3.776   1.513   2.431 -1.1559  0.3720  0.4395
 6671SOL     OW31474   1.027   1.832   4.840  0.2910  0.0706  0.2039
 6671SOL    HW131475   1.084   1.907   4.825  0.6320  0.0200  1.1979
 6671SOL    HW231476   1.043   1.784   4.759 -0.7059 -0.5529  0.3728
 6672SOL     OW31477   1.248   1.867   2.385 -0.5822  0.5400 -0.0163
 6672SOL    HW131478   1.208   1.812   2.317 -1.4258  3.0730 -1.5923
 6672SOL    HW231479   1.298   1.800   2.431 -1.5170 -0.0327  0.1647
 6673SOL     OW31480   4.419   1.008   6.104 -0.0684 -0.9552  0.6864
 6673SOL    HW131481   4.482   1.022   6.175 -1.0408 -0.6584  1.4898
 6673SOL    HW231482   4.362   0.944   6.146 -1.8182  0.1431 -0.0535
 6674SOL     OW31483   2.924   2.770   8.278 -0.3005  0.7285  0.0864
 6674SOL    HW131484   2.979   2.714   8.333 -2.1859 -0.8186  0.3923
 6674SOL    HW231485   2.934   2.851   8.328 -0.7008 -0.3268  1.8716
 6675SOL     OW31486   2.621   1.345   6.313  0.7940 -0.2352  1.4228
 6675SOL    HW131487   2.623   1.439   6.328  0.5368  0.0759 -0.5202
 6675SOL    HW231488   2.698   1.341   6.257 -2.3775 -0.7331 -2.8429
 6676SOL     OW31489   3.862   3.327  10.046  0.5233  0.2437 -0.4133
 6676SOL    HW131490   3.790   3.289  10.096 -0.5165  0.4766 -1.7397
 6676SOL    HW231491   3.822   3.388   9.984 -2.6657 -0.1784  1.2838
 6677SOL     OW31492   4.504   4.698   4.524 -0.2284 -0.2712  0.5191
 6677SOL    HW131493   4.500   0.006   4.434 -0.0220  0.3023  0.7165
 6677SOL    HW231494   4.471   4.610   4.508 -0.4624 -0.2042  0.6260
 6678SOL     OW31495   3.960   2.649   2.893  0.1287 -0.4488  0.1953
 6678SOL    HW131496   3.910   2.567   2.886 -0.0629 -0.3008 -0.1651
 6678SOL    HW231497   4.042   2.621   2.853  1.0604  2.0994  0.3545
 6679SOL     OW31498   2.329   1.679   4.177 -0.0720 -0.5539  0.2575
 6679SOL    HW131499   2.298   1.741   4.243 -1.1969  2.0847 -2.7041
 6679SOL    HW231500   2.247   1.659   4.131 -0.6977  1.1553  0.6205
 6680SOL     OW31501   2.268   2.014   5.085  0.3241 -0.6401 -0.1869
 6680SOL    HW131502   2.352   1.970   5.101  0.1590 -0.7940  0.2425
 6680SOL    HW231503   2.290   2.080   5.019  0.3520  0.6094  1.0759
 6681SOL     OW31504   3.448   1.299   2.373  0.1509  0.0366 -0.0640
 6681SOL    HW131505   3.507   1.362   2.332 -0.8142 -0.2990 -1.9849
 6681SOL    HW231506   3.480   1.281   2.461 -2.0665  2.5146  1.2472
 6682SOL     OW31507   0.348   2.691   3.117  0.2178 -0.4696  0.4208
 6682SOL    HW131508   0.299   2.635   3.177 -1.9137  1.4617  0.4813
 6682SOL    HW231509   0.431   2.646   3.129  1.7895  1.7164 -2.1344
 6683SOL     OW31510   0.984   3.190   7.127 -0.2070 -0.2846 -0.6213
 6683SOL    HW131511   0.968   3.130   7.200  0.4774 -1.9791 -1.8375
 6683SOL    HW231512   0.984   3.278   7.163 -1.7221 -1.0277  1.1581
 6684SOL     OW31513   3.966   3.813   3.283 -0.4568 -0.2340  0.0844
 6684SOL    HW131514   3.971   3.717   3.284 -2.6088 -0.3504 -0.3450
 6684SOL    HW231515   3.963   3.834   3.377  0.8986  0.3653 -0.0058
 6685SOL     OW31516   2.372   3.585   2.337 -0.1782  0.3339 -0.0987
 6685SOL    HW131517   2.315   3.657   2.364  1.0816  1.2686  0.0211
 6685SOL    HW231518   2.312   3.521   2.298 -2.5216  1.0858  2.2832
 6686SOL     OW31519   1.377   4.256   3.496  0.1696  0.1425  0.4435
 6686SOL    HW131520   1.348   4.165   3.501 -1.4857  0.5272 -2.1100
 6686SOL    HW231521   1.443   4.255   3.426 -0.1550  0.4152  0.1333
 6687SOL     OW31522   0.193   0.472   2.346 -0.3481  0.1001 -0.1867
 6687SOL    HW131523   0.121   0.534   2.352  1.0151  1.8769 -1.8638
 6687SOL    HW231524   0.189   0.448   2.253 -0.2580 -2.5552  0.5081
 6688SOL     OW31525   1.224   0.833   6.708  0.1238 -0.0232 -0.0836
 6688SOL    HW131526   1.177   0.916   6.715 -1.6531 -1.0839  0.5512
 6688SOL    HW231527   1.311   0.872   6.698 -0.5090  0.6566 -2.7398
 6689SOL     OW31528   0.548   0.694   4.175  0.1795 -0.1758 -0.4667
 6689SOL    HW131529   0.469   0.698   4.228 -0.0947  1.4240 -1.0095
 6689SOL    HW231530   0.512   0.721   4.091 -1.0361 -0.7842 -0.1360
 6690SOL     OW31531   4.156   2.004   1.774  0.1832 -0.0741  0.5960
 6690SOL    HW131532   4.251   2.002   1.764  0.2790  1.5737  1.1096
 6690SOL    HW231533   4.163   1.969   1.863  1.6052  1.7954  1.2294
 6691SOL     OW31534   2.759   2.160  16.879 -0.1567 -0.3898 -0.5994
 6691SOL    HW131535   2.702   2.156  16.802 -1.2080 -3.1871  0.3264
 6691SOL    HW231536   2.732   2.235  16.933  0.5113 -0.3131 -0.3763
 6692SOL     OW31537   2.198   0.248  12.096 -0.3907  0.2693 -0.1709
 6692SOL    HW131538   2.201   0.168  12.043 -1.1461  0.6854 -0.8455
 6692SOL    HW231539   2.286   0.242  12.133 -0.6632 -1.8869  0.1122
 6693SOL     OW31540   4.301   4.253   9.054  0.9721  0.3641 -1.1886
 6693SOL    HW131541   4.271   4.263   8.964 -0.3087  0.2340 -0.7682
 6693SOL    HW231542   4.266   4.336   9.084 -1.2972 -1.8462  2.2733
 6694SOL     OW31543   1.592   3.520  14.198  0.1516  0.5586  0.2773
 6694SOL    HW131544   1.577   3.438  14.151 -1.1390  0.9831 -0.0542
 6694SOL    HW231545   1.536   3.572  14.141  1.6190  0.5685 -1.1551
 6695SOL     OW31546   4.053   2.789   6.298  0.4507  0.2010 -0.5650
 6695SOL    HW131547   4.137   2.763   6.335  0.9043  1.3438 -0.8093
 6695SOL    HW231548   4.071   2.793   6.204 -2.0009 -0.2689 -1.0727
 6696SOL     OW31549   1.251   1.168  12.410  0.0546  0.5599 -0.2856
 6696SOL    HW131550   1.322   1.151  12.347  0.5359  0.5100  0.2691
 6696SOL    HW231551   1.307   1.149  12.486 -0.1793 -0.6284 -0.4116
 6697SOL     OW31552   3.160   0.128   7.317 -0.4354  0.1879  0.2610
 6697SOL    HW131553   3.176   0.198   7.253  1.6688  0.3247  0.9210
 6697SOL    HW231554   3.116   0.178   7.385  1.8831  0.8895  1.2465
 6698SOL     OW31555   0.750   3.209   6.298  0.1412 -0.6111  0.4590
 6698SOL    HW131556   0.753   3.131   6.353 -2.1497 -0.1301  1.2679
 6698SOL    HW231557   0.844   3.225   6.289  0.3664 -1.9480  0.4196
 6699SOL     OW31558   4.339   0.771   7.777  0.4062 -0.3517 -0.2208
 6699SOL    HW131559   4.428   0.797   7.755 -0.0627  0.4686 -1.1290
 6699SOL    HW231560   4.311   0.839   7.839  1.2050  1.8713 -2.3088
 6700SOL     OW31561   1.041   1.608  16.185 -0.1056 -0.1692 -0.4624
 6700SOL    HW131562   1.112   1.627  16.124  0.0740 -0.3125 -0.2957
 6700SOL    HW231563   1.090   1.598  16.266 -1.4508 -1.4471  0.1820
 6701SOL     OW31564   3.498   2.992  15.333 -0.3119  0.3906 -0.0487
 6701SOL    HW131565   3.483   3.087  15.342  0.1644  0.2336  2.6021
 6701SOL    HW231566   3.567   2.993  15.400 -0.0550 -2.2513 -0.2793
 6702SOL     OW31567   0.835   1.589   7.346 -0.1663 -0.1370 -0.3572
 6702SOL    HW131568   0.879   1.524   7.292 -1.1152 -1.7845  0.8756
 6702SOL    HW231569   0.753   1.606   7.298 -1.2552 -0.8006  1.2697
 6703SOL     OW31570   4.637   2.502  15.199  0.0747 -0.5490 -0.3966
 6703SOL    HW131571   4.682   2.424  15.231  1.7835 -0.6003 -2.8408
 6703SOL    HW231572   4.713   2.558  15.216  0.1772 -0.9806  0.5015
 6704SOL     OW31573   1.782   1.238   0.638 -0.5424  0.1999 -0.3651
 6704SOL    HW131574   1.719   1.171   0.613  0.3291 -0.4432 -0.8074
 6704SOL    HW231575   1.734   1.263   0.717  2.7106  3.2090  0.6701
 6705SOL     OW31576   4.412   2.950  10.780  0.2943  0.3695  0.5493
 6705SOL    HW131577   4.489   2.914  10.735 -2.8467 -3.2214 -2.0117
 6705SOL    HW231578   4.435   2.926  10.870 -0.9697  0.5698  0.9186
 6706SOL     OW31579   3.157   4.134   9.721 -0.2103  0.0080  0.3384
 6706SOL    HW131580   3.075   4.181   9.709  1.5709  2.7308 -1.1461
 6706SOL    HW231581   3.132   4.050   9.760 -1.0610  0.6417  1.1371
 6707SOL     OW31582   2.598   3.019   7.060  0.6862  0.3423 -0.2653
 6707SOL    HW131583   2.513   2.975   7.053  0.5406  0.4745  0.5734
 6707SOL    HW231584   2.612   3.025   6.966  2.2434 -0.8390 -0.1163
 6708SOL     OW31585   4.358   2.125   8.373 -0.2387  0.1564 -0.2208
 6708SOL    HW131586   4.292   2.066   8.411  0.0342 -2.0954 -3.2438
 6708SOL    HW231587   4.434   2.067   8.372 -0.7734 -0.5651  0.7819
 6709SOL     OW31588   2.400   1.544   3.051 -0.4921 -0.2016  0.1049
 6709SOL    HW131589   2.377   1.588   3.133 -0.7630 -1.9910  0.9880
 6709SOL    HW231590   2.338   1.471   3.046 -2.4552  1.4457  0.2930
 6710SOL     OW31591   3.755   2.160   5.342  0.3838 -0.3954 -0.4641
 6710SOL    HW131592   3.766   2.192   5.253  0.4935  0.1705 -0.2430
 6710SOL    HW231593   3.794   2.229   5.397  1.3511 -1.2865 -0.0087
 6711SOL     OW31594   2.848   3.524   4.582  0.2492 -0.5944 -0.1595
 6711SOL    HW131595   2.862   3.520   4.487  2.6780  0.6120  0.1344
 6711SOL    HW231596   2.938   3.501   4.606 -0.4935 -2.7629  0.4853
 6712SOL     OW31597   3.726   4.577   6.387 -0.1286  0.3744 -1.1231
 6712SOL    HW131598   3.682   4.651   6.344 -1.9076 -1.4889 -2.4832
 6712SOL    HW231599   3.812   4.616   6.405  0.0218  0.0406 -1.1205
 6713SOL     OW31600   1.055   1.981   7.824 -0.4094 -0.1682  0.2205
 6713SOL    HW131601   1.013   2.008   7.906 -2.3258 -0.5698 -0.6470
 6713SOL    HW231602   1.129   2.042   7.822 -1.3612  0.9550 -0.4781
 6714SOL     OW31603   2.199   0.412  10.835  0.5039  0.3969  0.0391
 6714SOL    HW131604   2.279   0.461  10.857 -0.2246  1.1894  0.9376
 6714SOL    HW231605   2.219   0.319  10.845  0.8917  0.4228 -0.4839
 6715SOL     OW31606   2.217   1.288   7.205  0.5102 -0.3141  0.1232
 6715SOL    HW131607   2.162   1.210   7.201  0.8560 -0.6041  1.0652
 6715SOL    HW231608   2.222   1.300   7.299  2.5567 -1.9048  0.2259
 6716SOL     OW31609   4.233   2.797   4.653 -0.4038 -0.0468  0.7715
 6716SOL    HW131610   4.138   2.803   4.652 -0.6082 -3.4978  0.5937
 6716SOL    HW231611   4.265   2.884   4.677  0.8339 -1.2912  3.6790
 6717SOL     OW31612   3.695   3.472   7.643 -0.4106  0.4405  0.3235
 6717SOL    HW131613   3.659   3.559   7.622 -0.2236  0.8184  1.5630
 6717SOL    HW231614   3.716   3.480   7.736  2.0328 -1.0785 -0.1155
 6718SOL     OW31615   4.240   1.431  15.339 -0.3895 -0.0414 -0.2235
 6718SOL    HW131616   4.184   1.439  15.416  0.3795 -1.4993  0.4876
 6718SOL    HW231617   4.190   1.376  15.278  1.9570  1.6686 -3.7138
 6719SOL     OW31618   1.183   1.671   7.460  0.2097 -0.2965 -0.4786
 6719SOL    HW131619   1.131   1.724   7.400  0.0568  1.3371  1.0981
 6719SOL    HW231620   1.126   1.665   7.537 -1.5523  2.4795 -1.5787
 6720SOL     OW31621   2.218   0.808  10.780  0.1154 -0.2514  0.6931
 6720SOL    HW131622   2.155   0.854  10.725  0.9905  1.6013  1.2087
 6720SOL    HW231623   2.173   0.794  10.864  1.1167 -0.5246  1.1838
 6721SOL     OW31624   1.839   0.228   6.598  0.1517 -0.1099  0.7386
 6721SOL    HW131625   1.892   0.280   6.657  0.7384  1.3697 -1.0993
 6721SOL    HW231626   1.772   0.285   6.561  1.7374  1.4451  0.2356
 6722SOL     OW31627   2.749   1.691   3.234 -0.3368 -0.0635  0.4720
 6722SOL    HW131628   2.786   1.612   3.194  0.2387  0.9326 -0.9826
 6722SOL    HW231629   2.819   1.754   3.221 -0.6149  0.1185 -0.1678
 6723SOL     OW31630   2.506   2.580  16.164  0.2885  0.4004 -0.3054
 6723SOL    HW131631   2.467   2.639  16.100 -1.6164 -0.0552  0.4369
 6723SOL    HW231632   2.508   2.497  16.115 -3.8661  0.3647 -0.4484
 6724SOL     OW31633   1.480   0.419   5.563  0.0260 -0.0754 -0.0378
 6724SOL    HW131634   1.412   0.370   5.517  1.5220 -1.2389 -0.9862
 6724SOL    HW231635   1.424   0.458   5.630 -0.1138  1.3700 -0.9926
 6725SOL     OW31636   4.341   3.852   4.089  0.3053 -0.0777 -0.3273
 6725SOL    HW131637   4.316   3.784   4.027 -0.4544 -0.7498  0.7100
 6725SOL    HW231638   4.333   3.800   4.169 -0.2714  0.2729 -0.1553
 6726SOL     OW31639   0.361   1.381   2.506  0.0505  0.5419 -0.3505
 6726SOL    HW131640   0.291   1.431   2.548  2.1945  1.1861  2.4497
 6726SOL    HW231641   0.339   1.378   2.413 -0.6620  0.4491 -0.1767
 6727SOL     OW31642   4.017   4.649   0.136 -0.3295 -0.4510  0.1874
 6727SOL    HW131643   3.947   4.673   0.075 -0.9448 -0.5598  0.8511
 6727SOL    HW231644   3.971   4.660   0.219  2.9218 -1.9533  2.1458
 6728SOL     OW31645   2.518   3.502   4.429  0.1293 -0.7786 -0.5229
 6728SOL    HW131646   2.463   3.424   4.442  0.5742 -0.8026  1.2755
 6728SOL    HW231647   2.604   3.476   4.396  1.0986 -0.7920  1.9625
 6729SOL     OW31648   0.052   1.852   3.949 -0.6116  0.1949  0.2143
 6729SOL    HW131649   0.081   1.915   3.883 -1.1162 -0.4336 -0.6173
 6729SOL    HW231650   0.110   1.783   3.918 -0.1995  0.0035  1.4216
 6730SOL     OW31651   1.474   3.623   5.751 -0.2426  0.6727  0.3060
 6730SOL    HW131652   1.561   3.587   5.741 -0.6236 -0.7976  2.2501
 6730SOL    HW231653   1.464   3.640   5.845 -0.5602 -0.3897  0.4578
 6731SOL     OW31654   2.858   0.127   3.134  0.0712  0.4093  0.4270
 6731SOL    HW131655   2.808   0.078   3.070 -1.0752 -0.7678  2.2043
 6731SOL    HW231656   2.820   0.084   3.211 -0.9578 -0.4889 -0.6016
 6732SOL     OW31657   0.444   2.255   6.549 -0.4895  0.5488 -0.6371
 6732SOL    HW131658   0.439   2.238   6.455  2.3576  3.3039 -1.2554
 6732SOL    HW231659   0.537   2.269   6.565 -0.3704 -0.4242 -0.4752
 6733SOL     OW31660   1.044   4.129   3.856  0.3744 -0.0169  0.2065
 6733SOL    HW131661   0.973   4.174   3.810  0.0044  0.6260  1.4028
 6733SOL    HW231662   1.107   4.198   3.877  1.4304 -0.5512 -1.2068
 6734SOL     OW31663   4.011   4.122   3.645  0.4428 -0.0937  0.8712
 6734SOL    HW131664   4.063   4.182   3.592 -0.3652  0.5068  0.7601
 6734SOL    HW231665   4.021   4.037   3.604  3.3272  0.3621  0.5697
 6735SOL     OW31666   1.902   3.298  16.255 -0.2337 -0.3485 -0.1165
 6735SOL    HW131667   1.826   3.270  16.307 -0.4634  2.6823  1.1754
 6735SOL    HW231668   1.927   3.376  16.304  0.0996  0.4998 -1.6375
 6736SOL     OW31669   2.090   2.517   2.571 -0.4036 -0.4646 -0.1067
 6736SOL    HW131670   2.092   2.604   2.609 -1.0482 -0.9895  1.1425
 6736SOL    HW231671   2.030   2.477   2.634 -1.8506 -3.9828 -3.6847
 6737SOL     OW31672   2.393   2.761   1.023 -0.3053  0.2178  0.4685
 6737SOL    HW131673   2.396   2.667   1.003  1.8684 -0.4015  3.7727
 6737SOL    HW231674   2.485   2.785   1.018 -0.3734  0.3294 -0.3450
 6738SOL     OW31675   3.507   1.921   8.017 -0.1805  0.5654  0.1130
 6738SOL    HW131676   3.431   1.977   8.029 -1.6404 -1.5603  0.6440
 6738SOL    HW231677   3.506   1.860   8.091 -0.3775  2.1298  1.4173
 6739SOL     OW31678   2.701   0.048   6.201 -0.3272  0.1383  0.0427
 6739SOL    HW131679   2.693   4.710   6.130 -0.3732 -1.7905  1.7639
 6739SOL    HW231680   2.786   0.089   6.187  0.2175  0.0212  3.0681
 6740SOL     OW31681   1.712   2.678  13.622 -0.3207 -0.2603 -0.4129
 6740SOL    HW131682   1.754   2.763  13.638  1.5844 -1.7092  2.3643
 6740SOL    HW231683   1.640   2.701  13.564  0.2989  2.4150 -0.1335
 6741SOL     OW31684   0.882   1.141  12.629 -0.3433  0.5614 -0.4290
 6741SOL    HW131685   0.803   1.101  12.664 -0.8467  0.4658 -1.6783
 6741SOL    HW231686   0.924   1.186  12.703 -2.7205 -1.2400  2.0357
 6742SOL     OW31687   3.736   1.207   2.460  0.5195 -0.1842  0.2779
 6742SOL    HW131688   3.699   1.176   2.543  0.7118  0.5366  0.6340
 6742SOL    HW231689   3.828   1.183   2.471  0.9110  0.8908 -0.6447
 6743SOL     OW31690   3.130   0.524   8.617  0.2634 -0.2917 -0.2554
 6743SOL    HW131691   3.201   0.490   8.672 -0.0949  1.3233  1.2252
 6743SOL    HW231692   3.062   0.460   8.635 -0.0339  0.0338 -0.2294
 6744SOL     OW31693   4.110   2.515   2.727  0.5673 -0.0017 -0.0241
 6744SOL    HW131694   4.111   2.420   2.716 -0.9351 -0.1830  1.4613
 6744SOL    HW231695   4.140   2.536   2.639 -0.9219  0.5083 -0.4126
 6745SOL     OW31696   3.379   1.323   4.540  0.2477 -0.1284  0.3267
 6745SOL    HW131697   3.303   1.276   4.506  0.1941 -2.3889  3.6470
 6745SOL    HW231698   3.450   1.288   4.487  0.2055 -0.4180  0.4652
 6746SOL     OW31699   1.938   0.590   8.607  0.2257 -0.0654 -0.1337
 6746SOL    HW131700   1.862   0.597   8.665 -1.2018 -2.1900 -1.7188
 6746SOL    HW231701   1.995   0.537   8.663 -1.0307 -1.7038 -0.4025
 6747SOL     OW31702   2.718   4.339   9.813  0.2699  0.0273 -0.0465
 6747SOL    HW131703   2.795   4.307   9.765  0.5295 -0.0625  0.4252
 6747SOL    HW231704   2.766   4.388   9.880 -1.0120  0.6559  0.4059
 6748SOL     OW31705   2.055   1.644   6.860 -0.2720  0.0267  0.0248
 6748SOL    HW131706   2.138   1.667   6.904 -1.0338 -0.1174  1.5463
 6748SOL    HW231707   2.023   1.580   6.923 -3.7601  0.6146 -1.1953
 6749SOL     OW31708   0.510   2.754   6.723 -0.4326  0.5714  0.6103
 6749SOL    HW131709   0.456   2.688   6.678 -1.1937  0.1917  2.0890
 6749SOL    HW231710   0.551   2.783   6.641 -3.4362 -0.8188 -1.4084
 6750SOL     OW31711   1.474   0.008   5.292 -0.1176 -0.2678  0.2113
 6750SOL    HW131712   1.537   4.709   5.224  0.6572  1.0725  0.4528
 6750SOL    HW231713   1.508   0.093   5.321  1.6909 -0.5918 -0.9921
 6751SOL     OW31714   2.540   1.141  12.930 -0.6720  0.4755 -0.4845
 6751SOL    HW131715   2.512   1.100  12.848 -2.5037 -1.4628  1.1045
 6751SOL    HW231716   2.587   1.218  12.897 -1.4288  0.9251 -0.5255
 6752SOL     OW31717   1.462   2.053   7.996  0.1099  0.3060  0.1386
 6752SOL    HW131718   1.396   2.044   7.928 -1.7798 -1.1340  2.1721
 6752SOL    HW231719   1.502   1.968   7.974 -1.1518  0.0239 -1.0704
 6753SOL     OW31720   1.910   4.640  17.509 -0.6062 -0.5627  0.0062
 6753SOL    HW131721   1.869   4.560  17.542 -0.3292 -1.0032 -0.7305
 6753SOL    HW231722   1.866   4.697  17.572 -1.3978 -1.3269  0.1611
 6754SOL     OW31723   4.646   3.561   5.984  0.6412  0.3727 -0.0128
 6754SOL    HW131724   4.580   3.538   6.050  2.6086 -0.6758  1.5785
 6754SOL    HW231725   4.639   3.656   5.988 -1.3855  0.2027  0.3971
 6755SOL     OW31726   4.200   2.349  11.526  0.3329  0.1540 -0.1521
 6755SOL    HW131727   4.144   2.424  11.543 -1.4892 -1.1999 -0.1871
 6755SOL    HW231728   4.277   2.373  11.578  0.9451 -0.4737 -0.7760
 6756SOL     OW31729   0.978   0.994  14.628 -0.4082  0.2748  0.2136
 6756SOL    HW131730   0.913   0.935  14.666 -1.5173  2.4172  1.6299
 6756SOL    HW231731   1.055   0.937  14.624 -0.0204  0.9795 -2.3969
 6757SOL     OW31732   3.975   4.416  10.061  0.3529 -0.2755 -0.7437
 6757SOL    HW131733   3.923   4.370   9.997 -0.3221  0.1142 -0.4747
 6757SOL    HW231734   3.910   4.408  10.131  0.8645  1.5382 -0.0610
 6758SOL     OW31735   2.419   2.416   5.277 -0.0111 -0.1190  0.6907
 6758SOL    HW131736   2.423   2.386   5.186  0.4687 -0.4751  0.8293
 6758SOL    HW231737   2.355   2.485   5.261 -0.5785 -0.5383  1.1279
 6759SOL     OW31738   3.155   2.084   6.851 -0.1152 -0.1398 -0.7013
 6759SOL    HW131739   3.248   2.069   6.833 -0.1432 -1.2326  0.0512
 6759SOL    HW231740   3.141   2.047   6.938 -0.5792 -2.0976 -1.6105
 6760SOL     OW31741   2.278   2.759   3.105 -0.1756  0.2479 -0.1813
 6760SOL    HW131742   2.371   2.760   3.080 -0.1628 -0.2707 -0.1525
 6760SOL    HW231743   2.240   2.812   3.035 -0.1618 -3.0397 -2.6579
 6761SOL     OW31744   4.091   4.045   2.590  0.5416 -0.3811  0.2157
 6761SOL    HW131745   4.115   3.955   2.614  0.9763 -0.8810 -2.1450
 6761SOL    HW231746   4.060   4.079   2.674  1.0605 -1.4090  0.8199
 6762SOL     OW31747   1.461   1.342  17.018 -0.5131 -0.3048  0.2777
 6762SOL    HW131748   1.473   1.435  17.035 -3.1053 -0.0825  0.8854
 6762SOL    HW231749   1.435   1.339  16.926  2.4556 -1.4178 -0.5452
 6763SOL     OW31750   1.160   0.267   0.305 -0.0875  0.2209 -0.1223
 6763SOL    HW131751   1.193   0.228   0.386 -0.9996 -0.7658 -0.2145
 6763SOL    HW231752   1.103   0.332   0.346  1.0134  0.0693  1.6506
 6764SOL     OW31753   3.592   4.684   6.626 -0.0310 -0.1308  0.6891
 6764SOL    HW131754   3.595   4.624   6.551 -0.3625 -1.0788  1.4303
 6764SOL    HW231755   3.510   0.005   6.608  0.2718  0.3438  0.5482
 6765SOL     OW31756   0.833   4.524   4.832 -0.0892  0.1141 -0.6112
 6765SOL    HW131757   0.848   4.442   4.786  0.6531 -0.0427 -0.0958
 6765SOL    HW231758   0.757   4.545   4.779  0.8515 -2.0262 -2.7837
 6766SOL     OW31759   0.682   0.973   3.912 -0.0378  0.4347 -0.0137
 6766SOL    HW131760   0.681   1.063   3.881 -2.7920  1.3630  2.8068
 6766SOL    HW231761   0.592   0.947   3.894 -0.3311  2.8954 -2.0427
 6767SOL     OW31762   3.901   4.335   5.411 -0.0207  0.0681  0.0593
 6767SOL    HW131763   3.953   4.388   5.472  0.3274  0.0861 -0.2572
 6767SOL    HW231764   3.938   4.356   5.326 -0.4432  0.1845 -0.0993
 6768SOL     OW31765   4.702   2.504  10.951 -0.0128  0.3809 -0.5186
 6768SOL    HW131766   4.702   2.484  11.045 -0.6674 -2.6916 -1.1656
 6768SOL    HW231767   0.012   2.593  10.955  0.5540  0.1790 -1.0110
 6769SOL     OW31768   2.374   3.895   6.028 -0.3262 -0.4338 -0.1007
 6769SOL    HW131769   2.459   3.874   5.991  0.1746 -0.0200  0.8030
 6769SOL    HW231770   2.326   3.910   5.946 -1.6720  0.4326  0.8275
 6770SOL     OW31771   0.970   1.085  13.920  0.4819 -0.2774 -0.5690
 6770SOL    HW131772   0.918   1.017  13.877  1.9153 -0.6488 -1.7046
 6770SOL    HW231773   0.905   1.153  13.935  0.6940  0.3245 -2.4122
 6771SOL     OW31774   3.224   4.326   2.194 -0.1954 -0.4398  0.3915
 6771SOL    HW131775   3.211   4.363   2.107  1.5392 -3.1421 -1.0242
 6771SOL    HW231776   3.165   4.251   2.180 -0.3588 -0.3558  0.6285
 6772SOL     OW31777   4.551   4.152  13.917 -0.6710 -0.0055  0.3808
 6772SOL    HW131778   4.614   4.213  13.956 -0.5283 -0.8079  1.3963
 6772SOL    HW231779   4.597   4.141  13.834 -0.8850 -0.2616  0.2984
 6773SOL     OW31780   4.384   1.725  13.677  0.5253  0.3607  0.5125
 6773SOL    HW131781   4.384   1.816  13.645 -2.0621  0.2866  0.3192
 6773SOL    HW231782   4.382   1.673  13.597 -0.4833 -2.8073  2.5941
 6774SOL     OW31783   4.359   4.702   0.310 -0.4836 -0.8994 -0.5497
 6774SOL    HW131784   4.437   4.713   0.363 -1.2615  1.6677  0.0705
 6774SOL    HW231785   4.392   4.636   0.250 -1.9832 -0.9153 -1.3758
 6775SOL     OW31786   3.704   1.656  16.483 -0.3938  0.2053 -0.2753
 6775SOL    HW131787   3.651   1.729  16.452  2.0472  1.5004 -1.3492
 6775SOL    HW231788   3.773   1.702  16.530 -0.0066 -0.1328 -0.5131
 6776SOL     OW31789   3.029   3.772   9.035  0.1535 -0.9795 -0.2986
 6776SOL    HW131790   3.007   3.858   9.070 -0.2100 -0.8574 -0.8289
 6776SOL    HW231791   2.967   3.767   8.962 -2.2989 -0.1083  1.7649
 6777SOL     OW31792   1.450   3.099  13.857  0.0402 -0.1517 -0.0862
 6777SOL    HW131793   1.545   3.099  13.866  0.3296 -2.2077 -3.0401
 6777SOL    HW231794   1.426   3.011  13.828 -1.9640  0.2841  0.2259
 6778SOL     OW31795   2.900   3.634  16.838  0.3388  0.3784  0.0946
 6778SOL    HW131796   2.839   3.653  16.909 -0.0794 -1.0959  0.1403
 6778SOL    HW231797   2.878   3.545  16.813  1.4603  1.0127 -3.0878
 6779SOL     OW31798   0.048   3.319   8.607 -0.1303 -0.1246 -0.8824
 6779SOL    HW131799   0.070   3.382   8.539  0.0354 -0.4622 -1.1454
 6779SOL    HW231800   0.130   3.281   8.638 -1.3710 -2.7171 -0.7645
 6780SOL     OW31801   1.809   3.055   3.789  0.2819  0.5833 -0.3325
 6780SOL    HW131802   1.838   3.083   3.876  0.5819  0.0211 -0.2537
 6780SOL    HW231803   1.737   3.119   3.786  0.4394  0.7714 -0.0834
 6781SOL     OW31804   3.038   3.775   1.919  0.2500 -0.4645  0.1698
 6781SOL    HW131805   3.077   3.730   1.994 -0.9343 -0.3284  0.8687
 6781SOL    HW231806   2.990   3.698   1.887 -1.0487  0.8959 -1.1250
 6782SOL     OW31807   3.210   0.702   8.417  0.3778  0.0462  0.7965
 6782SOL    HW131808   3.125   0.734   8.386 -0.8287 -0.8618  3.1290
 6782SOL    HW231809   3.203   0.648   8.496  0.9233 -0.0324  0.7942
 6783SOL     OW31810   0.938   2.127   8.404  0.2676 -1.1430  0.5356
 6783SOL    HW131811   0.996   2.171   8.466 -0.2848  1.7041 -0.9227
 6783SOL    HW231812   0.966   2.158   8.317 -0.4771 -1.2651  0.2525
 6784SOL     OW31813   1.229   3.807   9.000 -0.0831  0.4673 -0.3853
 6784SOL    HW131814   1.226   3.818   9.095  1.5730 -2.2370 -0.0196
 6784SOL    HW231815   1.160   3.866   8.971 -2.3821 -2.2822 -0.5810
 6785SOL     OW31816   3.232   3.523   3.611 -0.1774  0.0019 -0.0584
 6785SOL    HW131817   3.193   3.492   3.693  0.8186  2.0135  1.1730
 6785SOL    HW231818   3.149   3.537   3.566 -1.5548 -0.3040  2.3722
 6786SOL     OW31819   1.817   1.253   5.347  0.1998  0.0491 -0.0501
 6786SOL    HW131820   1.745   1.238   5.408 -0.3028  1.0056 -0.3982
 6786SOL    HW231821   1.769   1.232   5.267  0.1216  1.2032 -0.3030
 6787SOL     OW31822   3.904   3.590   5.142  0.2526 -0.4366  0.6998
 6787SOL    HW131823   3.937   3.559   5.058 -0.8271  2.8909 -0.9465
 6787SOL    HW231824   3.965   3.663   5.157 -0.2468 -0.1841  1.4954
 6788SOL     OW31825   2.742   4.034   5.211 -0.3115  0.5000  0.4401
 6788SOL    HW131826   2.676   4.101   5.228  0.2314  1.3006 -0.5561
 6788SOL    HW231827   2.824   4.082   5.225 -0.4856  0.4118  1.7678
 6789SOL     OW31828   0.832   4.250   6.334  0.3787 -0.3915  0.1875
 6789SOL    HW131829   0.896   4.179   6.346  1.0020  0.1718  0.1656
 6789SOL    HW231830   0.755   4.210   6.373  0.7777 -2.2848 -0.9600
 6790SOL     OW31831   1.980   3.348  14.975  0.2245  0.3145  0.1145
 6790SOL    HW131832   2.001   3.403  15.050  0.3173 -0.2904  0.5281
 6790SOL    HW231833   1.919   3.403  14.926 -1.6355 -0.2150  1.8597
 6791SOL     OW31834   1.720   0.647  11.817  0.4249 -0.1663  0.3474
 6791SOL    HW131835   1.744   0.683  11.903  0.2712 -2.1145  1.2104
 6791SOL    HW231836   1.717   0.554  11.841  0.9118 -0.1491  0.4919
 6792SOL     OW31837   1.123   1.763   9.496  0.2085  0.1838  0.1862
 6792SOL    HW131838   1.115   1.857   9.481 -2.4479 -0.2981 -1.4583
 6792SOL    HW231839   1.144   1.720   9.413  3.8389  2.9240 -0.3010
 6793SOL     OW31840   0.315   1.516   4.451 -0.4111  0.6164  0.5487
 6793SOL    HW131841   0.366   1.595   4.435  0.6644  0.0581  1.1580
 6793SOL    HW231842   0.233   1.555   4.422 -0.2620 -1.0060 -2.0582
 6794SOL     OW31843   3.179   0.556   1.641 -0.3813  0.3980 -0.1660
 6794SOL    HW131844   3.142   0.620   1.702 -1.4926  1.4647 -1.9603
 6794SOL    HW231845   3.271   0.582   1.637 -0.2352 -0.1889 -0.7511
 6795SOL     OW31846   1.324   0.371   3.107 -0.0456 -0.3286  0.2948
 6795SOL    HW131847   1.372   0.444   3.067  0.6332 -0.5701  0.6568
 6795SOL    HW231848   1.349   0.383   3.199 -1.0264  2.2754  0.2037
 6796SOL     OW31849   4.320   3.981   6.042 -0.0209  0.1218 -0.2609
 6796SOL    HW131850   4.358   3.930   5.970  1.1050 -1.3210  1.3608
 6796SOL    HW231851   4.340   3.922   6.115 -0.5224 -1.4697 -1.3913
 6797SOL     OW31852   4.344   3.887   3.087 -0.3196  0.7163 -0.1729
 6797SOL    HW131853   4.296   3.957   3.132 -1.2931  0.3266 -0.6219
 6797SOL    HW231854   4.374   3.826   3.154 -1.3878  0.5499  0.1482
 6798SOL     OW31855   2.094   3.763   7.972  0.3607  0.2343 -0.2351
 6798SOL    HW131856   2.026   3.702   8.002  0.8430  0.1224  0.6144
 6798SOL    HW231857   2.076   3.758   7.878  1.0216  1.8483 -0.4410
 6799SOL     OW31858   1.576   3.514   8.098 -0.4835 -0.4914 -0.5790
 6799SOL    HW131859   1.633   3.441   8.074 -0.8637 -0.8152 -0.4850
 6799SOL    HW231860   1.539   3.462   8.170  1.3171 -1.6477 -0.4699
 6800SOL     OW31861   4.137   1.186   7.604 -0.0571 -0.1506  0.0967
 6800SOL    HW131862   4.133   1.110   7.662 -0.2398 -0.6846 -0.6252
 6800SOL    HW231863   4.074   1.161   7.537 -0.9530  1.0036  0.5046
 6801SOL     OW31864   1.301   2.699  14.292 -0.5592  1.0793  0.0753
 6801SOL    HW131865   1.230   2.759  14.270 -0.5659  0.9178 -0.3476
 6801SOL    HW231866   1.311   2.655  14.208 -0.7870  2.0460 -0.4455
 6802SOL     OW31867   0.302   4.311   5.362 -0.1844  0.1956  0.5479
 6802SOL    HW131868   0.347   4.243   5.311 -1.2160 -0.1709  0.1438
 6802SOL    HW231869   0.213   4.310   5.328  0.9417 -0.2131 -2.3575
 6803SOL     OW31870   4.500   1.848   6.588  0.0560 -0.1456 -0.8908
 6803SOL    HW131871   4.470   1.918   6.530 -1.1820  1.5788  1.8002
 6803SOL    HW231872   4.472   1.771   6.539  0.6098  0.0664 -1.5437
 6804SOL     OW31873   0.332   2.430   3.823  0.3119  0.6003  0.9641
 6804SOL    HW131874   0.264   2.372   3.789 -2.0217  3.0122  1.5132
 6804SOL    HW231875   0.340   2.477   3.741 -0.5974 -1.0040 -0.0406
 6805SOL     OW31876   3.357   2.634   8.486 -0.2512 -0.0708 -0.7054
 6805SOL    HW131877   3.385   2.596   8.403 -0.6266 -1.0795 -0.3704
 6805SOL    HW231878   3.309   2.712   8.460  0.9155  0.3628 -1.5476
 6806SOL     OW31879   1.016   3.275  14.542 -0.1057 -0.0553  0.4771
 6806SOL    HW131880   1.048   3.185  14.551  0.1330  0.0331  0.4962
 6806SOL    HW231881   1.040   3.290  14.451  0.3951 -1.0082  0.4512
 6807SOL     OW31882   2.322   4.126   6.421  0.3163  0.0829  0.2610
 6807SOL    HW131883   2.276   4.203   6.387  0.9565  0.3653  0.0333
 6807SOL    HW231884   2.343   4.073   6.344  0.9082  0.1252  0.3935
 6808SOL     OW31885   0.220   2.099  12.917 -0.2229 -0.0593 -0.4529
 6808SOL    HW131886   0.297   2.087  12.973 -0.0143 -1.2476 -0.9957
 6808SOL    HW231887   0.159   2.064  12.981  2.3509 -3.7285 -0.0279
 6809SOL     OW31888   2.247   4.471   6.551 -0.2475  0.2156 -0.8854
 6809SOL    HW131889   2.222   4.559   6.521  0.6707  0.7925  0.0635
 6809SOL    HW231890   2.212   4.413   6.483 -1.7966 -0.1263  0.2051
 6810SOL     OW31891   3.968   1.056   9.131 -0.0429 -0.2080 -0.0403
 6810SOL    HW131892   3.921   1.091   9.207 -0.5673 -2.1550  0.5393
 6810SOL    HW231893   4.057   1.080   9.155  0.3408 -0.2502 -1.4339
 6811SOL     OW31894   1.079   4.612   3.857 -0.0675 -0.0127  0.3308
 6811SOL    HW131895   1.048   4.633   3.769 -2.6814 -1.5097  0.9146
 6811SOL    HW231896   1.146   4.550   3.828  0.0012  0.3052 -0.2017
 6812SOL     OW31897   1.677   1.574  16.845  0.2771  0.2782 -0.4353
 6812SOL    HW131898   1.707   1.656  16.804  1.2092  0.3921  0.4754
 6812SOL    HW231899   1.706   1.589  16.935 -0.6480 -0.9811  0.0679
 6813SOL     OW31900   2.435   0.677   3.721  0.5710  0.4378  0.4614
 6813SOL    HW131901   2.366   0.648   3.781  0.0347 -0.1534 -0.4388
 6813SOL    HW231902   2.497   0.710   3.785 -0.4118  2.3995  0.4021
 6814SOL     OW31903   2.922   3.528  13.051 -0.7864 -0.2464 -0.0616
 6814SOL    HW131904   3.002   3.577  13.071 -1.0844  0.3266 -0.2906
 6814SOL    HW231905   2.867   3.592  13.006 -0.6764  0.1298  0.3353
 6815SOL     OW31906   4.355   3.082   3.122  0.3270  0.1501 -0.3037
 6815SOL    HW131907   4.393   3.162   3.159  0.2426  0.2480 -0.4307
 6815SOL    HW231908   4.359   3.121   3.035 -3.0437  0.0395 -0.5268
 6816SOL     OW31909   3.779   1.518  16.232 -0.5014 -0.3552  0.7785
 6816SOL    HW131910   3.719   1.541  16.161 -1.0895  0.7168  1.6349
 6816SOL    HW231911   3.734   1.517  16.316  0.4078  1.9643  1.2821
 6817SOL     OW31912   4.394   1.679   3.203  0.6207  0.2687  0.2269
 6817SOL    HW131913   4.412   1.767   3.170  1.6285 -0.1171 -0.2181
 6817SOL    HW231914   4.299   1.672   3.189  1.0064 -0.2472 -2.0399
 6818SOL     OW31915   2.737   3.311   1.315 -0.3637  0.3510 -0.3888
 6818SOL    HW131916   2.810   3.250   1.305 -0.3565  0.3434 -0.2832
 6818SOL    HW231917   2.678   3.293   1.241  0.1510  1.9895 -1.2039
 6819SOL     OW31918   0.107   3.781   5.946  0.2625 -0.3264  0.3416
 6819SOL    HW131919   0.060   3.814   6.022 -0.9787  0.6049 -0.8348
 6819SOL    HW231920   0.136   3.860   5.902  2.0960 -1.1854 -0.0147
 6820SOL     OW31921   2.215   0.514   6.749  0.8601  0.3324 -0.7799
 6820SOL    HW131922   2.207   0.581   6.681  0.0650  0.1047 -0.9145
 6820SOL    HW231923   2.280   0.457   6.709  0.7836  2.0107 -3.3206
 6821SOL     OW31924   1.480   4.409  12.993 -0.7605 -0.6757  0.3637
 6821SOL    HW131925   1.517   4.377  12.910 -1.7895  0.5255 -0.5659
 6821SOL    HW231926   1.501   4.334  13.050  0.0128  0.7741  1.9693
 6822SOL     OW31927   3.009   4.539   9.393  0.2102 -0.1626  0.7382
 6822SOL    HW131928   3.054   4.551   9.477 -0.6235  1.5628  0.9208
 6822SOL    HW231929   3.016   4.630   9.364  3.1392 -0.5355  0.2296
 6823SOL     OW31930   4.271   2.118   9.153  0.2613  0.0194  0.1015
 6823SOL    HW131931   4.255   2.133   9.060 -0.9088  0.1213  0.3236
 6823SOL    HW231932   4.186   2.127   9.195 -0.8812 -2.2394 -1.7319
 6824SOL     OW31933   4.263   0.336   6.676 -0.6381 -0.4009 -0.6960
 6824SOL    HW131934   4.234   0.250   6.644 -1.6032 -0.0195 -0.8655
 6824SOL    HW231935   4.225   0.334   6.764  0.9556 -3.9477 -0.1240
 6825SOL     OW31936   4.450   3.559   2.042 -0.1942 -0.3070 -0.2523
 6825SOL    HW131937   4.480   3.619   1.973 -0.6789 -0.7507 -0.8399
 6825SOL    HW231938   4.360   3.544   2.015  0.1868 -2.1660 -0.4527
 6826SOL     OW31939   3.942   3.866  14.449 -0.2037  0.2619 -0.5995
 6826SOL    HW131940   3.963   3.941  14.394 -1.9168  1.7394  0.7710
 6826SOL    HW231941   3.999   3.802  14.405 -1.4247  0.0734 -1.8983
 6827SOL     OW31942   4.086   1.393   5.660 -0.0399  0.0092 -0.1269
 6827SOL    HW131943   4.142   1.423   5.732 -1.1065  0.5435  0.4785
 6827SOL    HW231944   4.134   1.426   5.583 -1.4004  0.5580 -0.7312
 6828SOL     OW31945   1.533   3.820   0.894 -0.4563 -0.6377  0.6722
 6828SOL    HW131946   1.609   3.778   0.934 -0.2320 -1.3876 -0.5401
 6828SOL    HW231947   1.463   3.757   0.911 -0.4568 -0.6673  0.5623
 6829SOL     OW31948   3.543   2.790   3.504 -0.3198 -0.1575 -0.2011
 6829SOL    HW131949   3.518   2.703   3.472 -0.0370 -0.3590  0.1205
 6829SOL    HW231950   3.491   2.795   3.584 -0.0458  0.6788 -0.0758
 6830SOL     OW31951   0.254   0.287   8.033 -0.2069  0.3555  0.5264
 6830SOL    HW131952   0.246   0.381   8.050  2.2895  0.9663 -1.6574
 6830SOL    HW231953   0.193   0.255   8.099  0.2925  0.3712  0.9923
 6831SOL     OW31954   1.018   0.093   6.712  0.3001 -0.5177 -1.1396
 6831SOL    HW131955   0.941   0.088   6.655 -0.6402  1.9925 -0.0893
 6831SOL    HW231956   0.997   0.026   6.777  2.3892 -0.2185 -0.1527
 6832SOL     OW31957   2.327   0.222   5.842 -0.7049 -0.2159  0.0662
 6832SOL    HW131958   2.273   0.251   5.769 -2.1878  0.6912  1.5194
 6832SOL    HW231959   2.365   0.138   5.817 -2.5827 -1.2250  0.6230
 6833SOL     OW31960   0.484   0.872   6.577 -0.5130  0.3596  0.5825
 6833SOL    HW131961   0.525   0.795   6.539  0.4311  0.4620  1.3690
 6833SOL    HW231962   0.499   0.936   6.507 -0.0299  0.3156  0.6417
 6834SOL     OW31963   3.172   3.093   5.596 -0.1684  0.2220  0.6240
 6834SOL    HW131964   3.077   3.100   5.609 -0.2935  3.1693 -1.7461
 6834SOL    HW231965   3.192   3.187   5.606 -2.9043  0.9403 -0.6433
 6835SOL     OW31966   2.997   4.279   3.759 -0.9083  0.2569 -0.0155
 6835SOL    HW131967   2.920   4.284   3.702 -0.9073  3.3641  0.2506
 6835SOL    HW231968   3.040   4.200   3.727 -1.1725  0.1048  0.0031
 6836SOL     OW31969   4.107   0.633   7.926  1.1053 -0.6643 -0.4359
 6836SOL    HW131970   4.139   0.677   7.848  0.7145 -0.2644 -0.3698
 6836SOL    HW231971   4.061   0.709   7.963  0.2194 -2.1744  1.5973
 6837SOL     OW31972   3.443   2.167   6.076  0.0453  0.2514 -0.5972
 6837SOL    HW131973   3.420   2.127   5.992 -2.1419 -1.5981  0.8951
 6837SOL    HW231974   3.395   2.249   6.069 -1.1098 -0.1573  2.3032
 6838SOL     OW31975   0.690   4.536   3.054 -0.3148 -0.6988  0.2895
 6838SOL    HW131976   0.699   4.631   3.058  1.7428 -0.9385  1.1638
 6838SOL    HW231977   0.689   4.515   2.960 -2.0059 -0.4282  0.2378
 6839SOL     OW31978   3.609   2.977  12.866  0.1942  0.3020 -0.2304
 6839SOL    HW131979   3.678   2.926  12.824 -1.0987 -0.7471 -1.0662
 6839SOL    HW231980   3.530   2.935  12.832 -0.8251  1.4159  0.7247
 6840SOL     OW31981   4.669   3.894   6.928  0.7246 -0.2174  0.0094
 6840SOL    HW131982   4.649   3.815   6.978  1.9510 -0.5796 -0.0797
 6840SOL    HW231983   4.678   3.852   6.842  0.7761  0.4175 -0.2957
 6841SOL     OW31984   3.852   4.403  12.577  0.2571  0.4641 -0.1153
 6841SOL    HW131985   3.822   4.483  12.619  1.8164  0.9974 -0.0143
 6841SOL    HW231986   3.945   4.394  12.597 -0.3645 -0.4764  2.3785
 6842SOL     OW31987   2.954   2.536   8.742 -0.3593  0.0052 -0.1995
 6842SOL    HW131988   2.933   2.451   8.780  1.7278  0.5406  2.1819
 6842SOL    HW231989   3.026   2.566   8.798  1.8850 -2.2738 -1.9133
 6843SOL     OW31990   4.285   2.533   6.976  0.0011 -0.2779  0.4413
 6843SOL    HW131991   4.328   2.578   6.904 -1.2593  0.6326  0.2710
 6843SOL    HW231992   4.352   2.481   7.021  1.5800 -0.4873 -2.1538
 6844SOL     OW31993   2.220   3.945   5.769 -0.3722 -0.7343 -0.3771
 6844SOL    HW131994   2.147   3.915   5.715 -1.7263  2.3711 -0.2533
 6844SOL    HW231995   2.284   3.947   5.699  0.0198 -1.1438 -0.0309
 6845SOL     OW31996   0.976   2.185   4.693 -0.1956 -0.8876  0.0768
 6845SOL    HW131997   0.955   2.221   4.606 -2.2098 -1.0946  0.4765
 6845SOL    HW231998   0.999   2.269   4.734 -1.9255  0.0380 -0.8479
 6846SOL     OW31999   1.973   2.029   5.929  0.0469  0.3316 -0.4015
 6846SOL    HW132000   1.972   1.938   5.959  0.5217  1.0406  1.7455
 6846SOL    HW232001   2.033   2.068   5.993 -0.2862  1.7842 -0.9846
 6847SOL     OW32002   1.984   3.239   9.771  0.4697  0.2691  0.8681
 6847SOL    HW132003   1.953   3.201   9.688  1.6307  0.4091  0.3715
 6847SOL    HW232004   1.910   3.293   9.797 -0.9119 -0.2975 -1.8037
 6848SOL     OW32005   2.521   0.668   8.312 -0.1848  0.6921  0.3687
 6848SOL    HW132006   2.441   0.666   8.259 -0.3928 -0.2057  0.7208
 6848SOL    HW232007   2.566   0.741   8.268  0.9677  0.2901  0.8824
 6849SOL     OW32008   1.067   1.520  16.872 -0.3768  0.4191 -0.3278
 6849SOL    HW132009   1.036   1.574  16.799 -2.0244  1.0161  0.8151
 6849SOL    HW232010   1.089   1.438  16.828  0.0395 -0.3283  1.2843
 6850SOL     OW32011   3.151   0.258   5.982  0.5094  0.1087 -0.1488
 6850SOL    HW132012   3.122   0.348   5.969 -0.0199 -0.0859 -0.3077
 6850SOL    HW232013   3.172   0.263   6.075 -0.0890  1.3235 -0.0890
 6851SOL     OW32014   3.805   1.610  17.231  0.7755  0.4162  0.2647
 6851SOL    HW132015   3.721   1.565  17.236  0.9187  0.1114 -0.1232
 6851SOL    HW232016   3.864   1.542  17.198 -0.3405 -0.7955  0.7330
 6852SOL     OW32017   0.121   2.552   2.586  0.3170  0.2303  0.3404
 6852SOL    HW132018   0.184   2.493   2.627  1.6153 -0.4475 -2.6092
 6852SOL    HW232019   0.176   2.589   2.517 -0.0966  0.4787  0.1442
 6853SOL     OW32020   1.149   0.450  16.632  0.7423  0.8625  0.1014
 6853SOL    HW132021   1.061   0.454  16.671 -0.0971 -1.5439 -1.6089
 6853SOL    HW232022   1.159   0.357  16.650  0.0120  0.5894 -0.9237
 6854SOL     OW32023   1.083   2.367  13.093  0.2174 -0.2483  0.7686
 6854SOL    HW132024   1.083   2.272  13.095 -0.4915 -0.2760 -0.4571
 6854SOL    HW232025   1.139   2.387  13.018 -0.5660 -0.8538  0.0242
 6855SOL     OW32026   0.494   4.449  10.448 -0.4364  0.2935 -0.3083
 6855SOL    HW132027   0.503   4.544  10.454 -0.7021  0.0538  3.8913
 6855SOL    HW232028   0.556   4.422  10.380  0.2623  1.7706 -0.2708
 6856SOL     OW32029   1.362   2.921   7.298  0.3336  0.1859  0.1893
 6856SOL    HW132030   1.375   2.903   7.391 -0.8765 -0.6381  0.2067
 6856SOL    HW232031   1.427   2.987   7.275 -1.3162  1.5864 -0.3942
 6857SOL     OW32032   0.123   2.120  11.965  0.0439  1.0350 -0.0611
 6857SOL    HW132033   0.212   2.091  11.982 -0.7283 -0.9187  0.6526
 6857SOL    HW232034   0.135   2.171  11.885  2.2265 -0.4195 -0.6563
 6858SOL     OW32035   1.158   3.438   5.621 -0.1392 -0.2906 -0.0083
 6858SOL    HW132036   1.222   3.495   5.581 -1.0270  0.6755 -0.0489
 6858SOL    HW232037   1.079   3.489   5.601 -0.9248 -1.2498  0.5900
 6859SOL     OW32038   2.852   4.388   5.068 -0.3598 -0.1662 -0.0421
 6859SOL    HW132039   2.804   4.317   5.027 -0.1530 -0.5131  0.3079
 6859SOL    HW232040   2.939   4.347   5.073  1.0890  2.9616  0.7248
 6860SOL     OW32041   3.788   2.362   1.421 -0.4129 -0.1819  0.4115
 6860SOL    HW132042   3.741   2.373   1.339  0.2040 -1.9731 -0.1878
 6860SOL    HW232043   3.791   2.451   1.457  1.2974  0.2877 -0.9430
 6861SOL     OW32044   2.662   1.526   0.153  0.7333  0.3684 -0.4181
 6861SOL    HW132045   2.634   1.618   0.149 -1.5972 -0.4670 -3.3710
 6861SOL    HW232046   2.708   1.527   0.237 -0.0557  2.9729 -0.0160
 6862SOL     OW32047   3.542   4.309   7.099 -0.2860  0.4065  0.1124
 6862SOL    HW132048   3.522   4.338   7.011 -1.2904 -0.7057 -0.0287
 6862SOL    HW232049   3.458   4.275   7.130 -0.2572 -2.1349 -2.7006
 6863SOL     OW32050   0.197   4.368  15.134  0.6761  0.1508 -0.7161
 6863SOL    HW132051   0.176   4.286  15.178 -0.9823  0.1440 -1.5280
 6863SOL    HW232052   0.147   4.367  15.053  1.4459 -0.8501 -1.1827
 6864SOL     OW32053   0.765   0.320   8.716 -0.1257 -0.5370  0.5309
 6864SOL    HW132054   0.787   0.242   8.768  1.2351  0.1971  1.0630
 6864SOL    HW232055   0.779   0.398   8.770  1.0254 -0.2979 -0.1127
 6865SOL     OW32056   3.728   0.270   5.784 -0.1567 -0.1621 -0.0328
 6865SOL    HW132057   3.650   0.233   5.743 -1.6314  2.0344  0.8095
 6865SOL    HW232058   3.719   0.264   5.879  1.4079 -0.6951  0.0880
 6866SOL     OW32059   0.174   4.665   4.904  0.0021 -0.3767  0.4221
 6866SOL    HW132060   0.122   4.587   4.926  0.3048  0.2270  3.3588
 6866SOL    HW232061   0.248   4.658   4.964  0.6394 -1.7804 -0.5464
 6867SOL     OW32062   0.172   0.602   1.749 -0.4407  0.2238  0.0991
 6867SOL    HW132063   0.215   0.601   1.663  0.4797 -0.9988  0.5738
 6867SOL    HW232064   0.194   0.687   1.789  3.6808 -1.0295  0.5323
 6868SOL     OW32065   2.611   2.045   1.081  0.1574  0.0548 -0.3522
 6868SOL    HW132066   2.649   2.036   1.169  1.3258  2.4476 -0.6196
 6868SOL    HW232067   2.560   1.964   1.086  0.4161 -0.2209 -2.1137
 6869SOL     OW32068   3.773   2.552   3.915 -0.7521 -0.6125  0.4275
 6869SOL    HW132069   3.730   2.486   3.860  1.9810 -0.5140 -1.8710
 6869SOL    HW232070   3.701   2.562   3.977  0.4016 -1.0939  1.8573
 6870SOL     OW32071   1.311   3.326   7.088 -0.1055 -0.0988  0.4623
 6870SOL    HW132072   1.222   3.331   7.053  0.3798  0.4247 -0.7033
 6870SOL    HW232073   1.295   3.352   7.178 -0.3045 -1.3212  0.7773
 6871SOL     OW32074   0.693   1.774   8.294  0.1181  0.2485  0.3655
 6871SOL    HW132075   0.761   1.796   8.358  0.6446  6.3177 -2.3960
 6871SOL    HW232076   0.735   1.693   8.263 -0.7975 -0.5171  1.1303
 6872SOL     OW32077   3.914   0.844  15.300 -0.5395  0.0567  0.2114
 6872SOL    HW132078   3.892   0.760  15.261  0.1866  0.4219 -0.9904
 6872SOL    HW232079   3.880   0.906  15.235  1.2685  3.6436  2.6806
 6873SOL     OW32080   3.844   3.260   1.220  0.1893  0.3200 -0.0705
 6873SOL    HW132081   3.925   3.275   1.172  0.5100  2.1622  1.0701
 6873SOL    HW232082   3.829   3.170   1.190  0.4463  0.6013 -1.0151
 6874SOL     OW32083   2.096   0.251   0.939  0.0758 -0.3662 -0.1060
 6874SOL    HW132084   2.073   0.211   0.855  0.2724  1.4148 -0.9964
 6874SOL    HW232085   2.110   0.178   0.999 -0.6495  0.2979  0.8844
 6875SOL     OW32086   4.198   4.126  13.959 -0.4022 -0.1297  0.3257
 6875SOL    HW132087   4.214   4.176  13.879 -2.1245  1.5429  1.0132
 6875SOL    HW232088   4.250   4.172  14.024  1.1571 -0.3850 -0.7513
 6876SOL     OW32089   3.665   2.378  11.961  0.4383  0.4068  0.4849
 6876SOL    HW132090   3.725   2.317  12.004 -1.6693 -1.3961  0.8445
 6876SOL    HW232091   3.601   2.377  12.031  0.4437  1.0410  0.5042
 6877SOL     OW32092   1.436   1.333  16.410 -0.1398 -0.0393  0.4059
 6877SOL    HW132093   1.488   1.268  16.457 -0.0199 -0.0382  0.2745
 6877SOL    HW232094   1.367   1.276  16.375  1.8616 -1.4412 -1.1976
 6878SOL     OW32095   3.328   2.760   6.082  0.4631 -0.1559  0.0061
 6878SOL    HW132096   3.323   2.694   6.013 -2.6665  0.0028  0.0991
 6878SOL    HW232097   3.394   2.720   6.138  1.3346  1.4483  0.1093
 6879SOL     OW32098   1.172   1.274   4.064 -0.1681  0.2039 -0.0502
 6879SOL    HW132099   1.105   1.337   4.037 -1.1171 -0.4353  0.8322
 6879SOL    HW232100   1.164   1.272   4.160 -0.0490  2.7262  0.0106
 6880SOL     OW32101   1.432   0.324  11.638  0.1081  0.0554 -0.3362
 6880SOL    HW132102   1.522   0.294  11.650  0.0860  0.5762  1.1335
 6880SOL    HW232103   1.440   0.299  11.546  1.3240  0.1808 -0.2654
 6881SOL     OW32104   2.005   0.147   4.848 -0.0078 -0.0688  0.3581
 6881SOL    HW132105   1.932   0.209   4.847  0.0889  0.0344 -0.0630
 6881SOL    HW232106   2.041   0.164   4.761 -2.0391 -1.9397 -0.8625
 6882SOL     OW32107   0.859   1.889   1.818  0.2102  0.7840 -0.0793
 6882SOL    HW132108   0.806   1.965   1.794  0.6080  0.5327 -1.6971
 6882SOL    HW232109   0.884   1.855   1.732 -0.2877  0.3416 -0.0542
 6883SOL     OW32110   1.945   1.160   4.628 -0.0858 -0.1208 -0.2744
 6883SOL    HW132111   1.996   1.212   4.567 -0.4195  0.5875  0.0541
 6883SOL    HW232112   1.924   1.216   4.703 -0.8418  1.0299 -1.3393
 6884SOL     OW32113   2.736   3.754   2.375 -0.2675 -0.1511 -0.4135
 6884SOL    HW132114   2.722   3.746   2.469 -0.2157  1.0113 -0.3100
 6884SOL    HW232115   2.646   3.773   2.347  0.0025  1.7154 -0.0021
 6885SOL     OW32116   0.856   1.487   7.623 -0.0203  0.2684 -0.1644
 6885SOL    HW132117   0.813   1.519   7.543 -0.2504 -2.1215 -0.9994
 6885SOL    HW232118   0.944   1.474   7.587  0.6348  0.9134  1.2013
 6886SOL     OW32119   2.076   2.722   3.877 -0.0148  0.2492 -0.2356
 6886SOL    HW132120   2.068   2.808   3.836 -1.9703  0.7243  1.1641
 6886SOL    HW232121   2.122   2.747   3.958  0.2878  0.4865 -0.4821
 6887SOL     OW32122   4.199   2.446   4.446  0.4196  0.5052 -0.5794
 6887SOL    HW132123   4.116   2.401   4.462  1.2231 -0.5780  0.6112
 6887SOL    HW232124   4.248   2.376   4.403 -1.5405 -2.4399  2.0147
 6888SOL     OW32125   2.025   0.517   9.917 -0.1045  0.1606 -0.6520
 6888SOL    HW132126   1.934   0.537   9.940 -0.1159 -0.6972  0.0523
 6888SOL    HW232127   2.020   0.516   9.821 -1.3804  1.9322 -0.6190
 6889SOL     OW32128   3.334   4.197  11.319 -0.0843 -0.3466  0.1964
 6889SOL    HW132129   3.287   4.127  11.363  0.7883 -0.4826  0.9039
 6889SOL    HW232130   3.329   4.263  11.388  0.4051 -2.1484  1.9143
 6890SOL     OW32131   3.745   1.435   0.516  0.3991  0.1161  0.1745
 6890SOL    HW132132   3.791   1.518   0.505  1.1990 -0.2585  0.7187
 6890SOL    HW232133   3.698   1.435   0.433 -1.2376  1.9909  1.1162
 6891SOL     OW32134   4.433   1.597   7.835  0.5684 -0.7211  0.3900
 6891SOL    HW132135   4.503   1.598   7.900  0.1914 -2.5289  0.8323
 6891SOL    HW232136   4.487   1.584   7.757 -1.1219  0.5250 -0.9965
 6892SOL     OW32137   2.927   2.266   6.970 -0.2584 -0.1027  0.5821
 6892SOL    HW132138   2.922   2.303   7.058 -3.3017  0.3553  0.2146
 6892SOL    HW232139   2.995   2.199   6.973  1.3673  1.5537  0.5987
 6893SOL     OW32140   4.477   3.939  14.372 -0.6225  0.5966 -0.4709
 6893SOL    HW132141   4.411   3.899  14.428  0.4498 -0.4419  0.0422
 6893SOL    HW232142   4.509   3.867  14.318  1.6343 -1.0273  3.1068
 6894SOL     OW32143   0.534   3.814   1.194  0.4252  0.3201 -0.7320
 6894SOL    HW132144   0.463   3.876   1.174 -0.6032 -0.5776  0.1071
 6894SOL    HW232145   0.608   3.866   1.224  0.1522  0.2858 -0.0033
 6895SOL     OW32146   2.302   3.438   9.100 -0.1461  0.6052 -0.5358
 6895SOL    HW132147   2.263   3.357   9.132 -0.7712  0.1077 -2.6077
 6895SOL    HW232148   2.382   3.414   9.054  1.2646  0.0122  2.2045
 6896SOL     OW32149   3.746   3.906   1.853 -0.3555 -0.2626 -0.4836
 6896SOL    HW132150   3.684   3.834   1.857 -0.8547  0.0878 -1.7466
 6896SOL    HW232151   3.699   3.983   1.822  0.2283  0.8676  1.4116
 6897SOL     OW32152   2.995   2.731   6.059  0.5294 -0.3376 -0.2108
 6897SOL    HW132153   2.963   2.666   5.998  1.4097 -1.7015  0.7832
 6897SOL    HW232154   3.071   2.691   6.102  0.1641 -0.1299  0.6292
 6898SOL     OW32155   2.539   0.899   4.419 -0.0843  0.2143  0.0749
 6898SOL    HW132156   2.525   0.918   4.512 -2.3317 -1.0836  0.0098
 6898SOL    HW232157   2.630   0.926   4.407 -0.2951  0.9689  0.2015
 6899SOL     OW32158   4.497   3.173   5.785 -0.0538 -0.1248 -0.1101
 6899SOL    HW132159   4.414   3.217   5.767  0.5197  1.3710  0.8893
 6899SOL    HW232160   4.502   3.182   5.880 -1.2450  0.6544 -0.1123
 6900SOL     OW32161   0.571   3.562   7.995 -0.5630 -0.8277  0.3193
 6900SOL    HW132162   0.478   3.543   7.994 -0.5864 -0.6356 -1.5358
 6900SOL    HW232163   0.583   3.559   8.090  1.7939 -0.4447  0.0391
 6901SOL     OW32164   1.881   4.277   2.079  0.3137  0.4820 -0.2745
 6901SOL    HW132165   1.815   4.219   2.040  1.2160 -1.4112  1.0131
 6901SOL    HW232166   1.873   4.242   2.167  0.9719  0.1849 -0.3326
 6902SOL     OW32167   1.941   2.652   8.904 -0.5200 -0.5069  0.1014
 6902SOL    HW132168   1.903   2.603   8.977 -0.9410 -1.0835 -0.5036
 6902SOL    HW232169   2.018   2.597   8.886  0.9596  1.7032 -0.2666
 6903SOL     OW32170   4.608   2.839   1.535 -0.3928 -0.1491 -0.8224
 6903SOL    HW132171   4.646   2.758   1.502  0.4679 -0.4276  0.8728
 6903SOL    HW232172   4.516   2.814   1.525 -0.3656  0.3907 -2.3881
 6904SOL     OW32173   3.685   4.429   2.344  0.2004 -0.2413 -0.0767
 6904SOL    HW132174   3.655   4.509   2.388 -0.9867  0.3183 -1.8539
 6904SOL    HW232175   3.631   4.425   2.265  2.6952  0.2709 -1.8095
 6905SOL     OW32176   0.993   3.180   2.663 -0.0221  0.1938  0.1809
 6905SOL    HW132177   1.049   3.234   2.608 -2.3810  1.0111 -1.4439
 6905SOL    HW232178   1.017   3.095   2.626 -1.1212  0.2531 -0.6706
 6906SOL     OW32179   3.335   2.023  15.344  0.0182  0.0185  0.4124
 6906SOL    HW132180   3.391   2.027  15.267  1.5325  0.8121  1.5582
 6906SOL    HW232181   3.390   2.066  15.410  0.5460 -0.0255 -0.0024
 6907SOL     OW32182   3.157   2.024   3.727  0.3030  0.1417  0.0678
 6907SOL    HW132183   3.168   1.946   3.782  1.3709  1.1638  1.2940
 6907SOL    HW232184   3.186   2.104   3.769 -0.8236  0.6636 -0.1557
 6908SOL     OW32185   1.149   2.359   0.861 -0.1266 -0.0469 -0.2133
 6908SOL    HW132186   1.153   2.306   0.781  0.6184 -0.2801 -0.0172
 6908SOL    HW232187   1.132   2.448   0.830  1.6381  0.4487  0.2379
 6909SOL     OW32188   3.336   1.258  13.040 -0.5246 -0.3604 -0.3144
 6909SOL    HW132189   3.378   1.338  13.009 -3.0218  0.8182 -0.5812
 6909SOL    HW232190   3.415   1.204  13.051 -1.1374 -1.2444 -0.2536
 6910SOL     OW32191   2.948   0.459   3.661  0.1739  0.1811  0.0766
 6910SOL    HW132192   3.027   0.408   3.678 -0.6505 -1.3697 -0.7417
 6910SOL    HW232193   2.921   0.415   3.580 -1.3504 -0.1748  0.7800
 6911SOL     OW32194   2.183   3.369   8.030 -0.3043 -0.3098 -0.0653
 6911SOL    HW132195   2.198   3.347   8.122 -2.1533 -0.5992  0.1599
 6911SOL    HW232196   2.111   3.306   8.024  0.1806 -0.9207  0.4516
 6912SOL     OW32197   2.181   1.944   3.265  0.0582 -0.6829 -0.1299
 6912SOL    HW132198   2.154   2.032   3.291  1.5312  0.4860 -2.5747
 6912SOL    HW232199   2.225   1.916   3.346 -1.3495 -2.3447  0.0675
 6913SOL     OW32200   3.666   2.492   5.069 -0.3494  0.0198  0.0378
 6913SOL    HW132201   3.587   2.534   5.104 -0.7729 -2.9119  2.5759
 6913SOL    HW232202   3.642   2.466   4.980  3.5612 -0.0205 -1.0206
 6914SOL     OW32203   0.295   3.465   3.366 -0.4332 -0.0162  0.2507
 6914SOL    HW132204   0.380   3.458   3.323  1.2386  2.5711  3.0574
 6914SOL    HW232205   0.257   3.392   3.318  0.2759  0.1316 -0.5486
 6915SOL     OW32206   0.881   2.141   4.448  0.1609  0.2151 -0.0505
 6915SOL    HW132207   0.831   2.203   4.395  0.9120 -1.7224 -3.0770
 6915SOL    HW232208   0.925   2.104   4.372  0.7303  2.4458 -0.8058
 6916SOL     OW32209   2.803   3.705   3.881  0.1348  0.5551 -0.2491
 6916SOL    HW132210   2.854   3.657   3.947 -0.1030  0.2992 -0.2517
 6916SOL    HW232211   2.877   3.761   3.858  0.3121  0.8039  0.9303
 6917SOL     OW32212   2.483   4.209   2.304  0.6109  0.0107  0.4059
 6917SOL    HW132213   2.400   4.175   2.270  1.3470 -1.7012  0.2898
 6917SOL    HW232214   2.547   4.161   2.251  1.8223  0.5591  1.3885
 6918SOL     OW32215   1.444   1.632  17.310  0.0948 -0.1119  0.2281
 6918SOL    HW132216   1.481   1.688  17.242  0.2335  1.6313  1.7572
 6918SOL    HW232217   1.443   1.541  17.278  0.3207 -0.6640  1.8012
 6919SOL     OW32218   3.952   0.012   2.576  0.1881  0.6195 -0.0300
 6919SOL    HW132219   3.868   0.042   2.611  1.3978  1.2046  2.3737
 6919SOL    HW232220   3.951   0.055   2.491  1.2005 -0.5634 -0.6290
 6920SOL     OW32221   0.839   1.179   8.272  0.0889 -0.0151 -0.1114
 6920SOL    HW132222   0.806   1.115   8.208 -0.6065 -1.2905  1.5270
 6920SOL    HW232223   0.915   1.218   8.230 -1.2991  0.7727 -1.8893
 6921SOL     OW32224   1.879   2.857   4.117  0.6505  0.1147 -0.0383
 6921SOL    HW132225   1.909   2.780   4.164  1.0485  0.0894 -0.3320
 6921SOL    HW232226   1.967   2.889   4.098  1.8323 -2.2031  1.5890
 6922SOL     OW32227   4.644   4.337   7.724  0.1928 -0.1342  0.2341
 6922SOL    HW132228   4.676   4.392   7.653  1.8880 -1.1257  0.2302
 6922SOL    HW232229   4.555   4.372   7.738 -0.5554 -1.9163 -0.0686
 6923SOL     OW32230   4.568   1.257   3.246 -0.2925 -0.1786  0.2315
 6923SOL    HW132231   4.608   1.236   3.162  2.2463 -0.1770  1.4489
 6923SOL    HW232232   4.542   1.171   3.281 -1.9510  0.2261  0.0222
 6924SOL     OW32233   3.205   0.333   1.848 -0.7032  0.0699 -0.0775
 6924SOL    HW132234   3.180   0.418   1.811 -0.5027  0.6365  1.0957
 6924SOL    HW232235   3.227   0.369   1.934 -2.4915 -0.1225  0.4700
 6925SOL     OW32236   1.065   3.618   8.854 -0.5733 -0.0044 -0.4700
 6925SOL    HW132237   1.076   3.664   8.938  0.5068 -2.4387  0.7433
 6925SOL    HW232238   1.093   3.533   8.888  0.4123  0.2319 -0.6667
 6926SOL     OW32239   2.307   4.337   1.537 -0.4504 -0.0925 -0.2555
 6926SOL    HW132240   2.296   4.420   1.490  1.8335  1.0631  1.2771
 6926SOL    HW232241   2.401   4.317   1.538 -0.5720 -0.6607 -0.6625
 6927SOL     OW32242   4.004   1.748  14.010  0.1777 -0.8605 -0.2677
 6927SOL    HW132243   4.077   1.809  14.001 -0.3859 -0.2591 -0.7183
 6927SOL    HW232244   4.002   1.715  13.920 -3.6354  0.0668 -0.5225
 6928SOL     OW32245   0.467   1.875   9.584 -0.2532  1.1243 -0.7824
 6928SOL    HW132246   0.512   1.850   9.503  0.3236 -0.4365  0.0130
 6928SOL    HW232247   0.439   1.791   9.621  2.2433  0.2625 -0.8073
 6929SOL     OW32248   4.349   3.989   9.032 -0.2402 -0.1035 -0.3235
 6929SOL    HW132249   4.417   4.010   8.968  2.5279 -3.0669  1.6964
 6929SOL    HW232250   4.321   4.077   9.055 -0.1936 -0.1219 -0.1985
 6930SOL     OW32251   1.821   3.350   6.048 -0.8560 -0.0436 -0.4646
 6930SOL    HW132252   1.869   3.316   5.972 -0.8639 -0.4437 -0.2923
 6930SOL    HW232253   1.774   3.273   6.080 -1.5760  0.4320 -0.3805
 6931SOL     OW32254   2.518   1.102   5.119 -0.2271 -0.0859 -0.0914
 6931SOL    HW132255   2.478   1.128   5.202  0.0438 -3.2401  1.0248
 6931SOL    HW232256   2.511   1.179   5.063  0.6205 -0.6775 -1.0103
 6932SOL     OW32257   0.190   0.867   5.260 -0.5104  0.1061 -0.6340
 6932SOL    HW132258   0.145   0.860   5.344  1.0301 -3.4461 -0.1122
 6932SOL    HW232259   0.129   0.813   5.210 -1.6743 -1.8240  2.9492
 6933SOL     OW32260   3.492   3.593   2.096  0.0679 -0.3028  0.0742
 6933SOL    HW132261   3.565   3.649   2.121 -1.4917  1.2789  1.0522
 6933SOL    HW232262   3.452   3.573   2.180  1.2412  1.1031  0.9664
 6934SOL     OW32263   0.889   0.693   1.261  0.5563  0.0408 -0.6434
 6934SOL    HW132264   0.979   0.710   1.290  0.2571  2.3862 -1.0317
 6934SOL    HW232265   0.869   0.773   1.211  1.4511 -1.6476 -3.6863
 6935SOL     OW32266   2.835   3.136   5.516 -0.5321  0.5428  0.2931
 6935SOL    HW132267   2.890   3.213   5.498  0.4295  0.0826  1.2709
 6935SOL    HW232268   2.880   3.097   5.591  0.1118 -1.9377 -1.3844
 6936SOL     OW32269   2.099   3.345   6.795 -0.1333 -0.2826  0.0402
 6936SOL    HW132270   2.019   3.378   6.837 -0.9775 -0.3758 -1.4803
 6936SOL    HW232271   2.158   3.385   6.859  1.7302 -2.8290 -0.1165
 6937SOL     OW32272   0.854   1.767   5.152 -0.1646 -0.5113 -0.5221
 6937SOL    HW132273   0.820   1.806   5.072 -0.4349 -1.1069 -0.7016
 6937SOL    HW232274   0.930   1.721   5.118  1.1265  1.7028 -0.6303
 6938SOL     OW32275   0.592   4.126   4.579  0.0598  0.2234 -0.5263
 6938SOL    HW132276   0.666   4.087   4.532 -0.7443 -0.3672 -1.3194
 6938SOL    HW232277   0.534   4.141   4.504 -0.1865  1.6162 -0.0565
 6939SOL     OW32278   2.744   0.995  15.059 -0.1795 -0.3962  0.0191
 6939SOL    HW132279   2.720   1.088  15.067 -1.2836 -0.4131 -3.2418
 6939SOL    HW232280   2.662   0.966  15.020 -1.0438 -0.8330  2.1393
 6940SOL     OW32281   3.657   0.309   4.045 -0.0760  0.5774 -0.5013
 6940SOL    HW132282   3.683   0.220   4.069 -1.2805  0.2743 -0.3658
 6940SOL    HW232283   3.737   0.361   4.052  2.4449 -3.2800 -0.1726
 6941SOL     OW32284   2.314   3.185   6.178  0.5919  0.3987 -0.1464
 6941SOL    HW132285   2.223   3.212   6.185  0.5919 -0.0295  1.5383
 6941SOL    HW232286   2.344   3.268   6.140  0.4841  0.7083  0.4371
 6942SOL     OW32287   4.441   2.952  16.515 -0.4132  0.1718  0.3435
 6942SOL    HW132288   4.461   2.950  16.422  0.4182 -0.5327  0.5427
 6942SOL    HW232289   4.436   3.048  16.524  2.1592  0.3206 -0.0267
 6943SOL     OW32290   2.159   3.666  16.625 -0.1215 -0.1687 -0.3110
 6943SOL    HW132291   2.126   3.601  16.687  1.4991  0.6924  1.4916
 6943SOL    HW232292   2.109   3.746  16.644 -1.3500 -0.7245 -1.2673
 6944SOL     OW32293   0.718   1.653  11.844  0.0988 -0.2181  0.1015
 6944SOL    HW132294   0.714   1.599  11.765 -1.9246 -0.9540  0.7015
 6944SOL    HW232295   0.814   1.654  11.847  0.0756  0.6213  0.5321
 6945SOL     OW32296   3.087   1.835   3.019  0.3140  0.4097  0.0822
 6945SOL    HW132297   3.106   1.928   3.030 -0.6001  0.6643 -0.3974
 6945SOL    HW232298   3.114   1.817   2.929  2.3939 -0.1990  0.8336
 6946SOL     OW32299   3.208   2.862  14.894 -0.0457 -0.5718  0.5693
 6946SOL    HW132300   3.281   2.887  14.950  0.4406  0.1815 -0.4067
 6946SOL    HW232301   3.168   2.796  14.951  0.8371 -1.7260 -0.1321
 6947SOL     OW32302   0.617   3.347   2.016 -0.4725 -0.4710 -0.1441
 6947SOL    HW132303   0.609   3.253   2.000 -1.6021 -0.2007 -1.1812
 6947SOL    HW232304   0.556   3.371   2.086 -1.3351 -1.6425 -0.5043
 6948SOL     OW32305   2.756   2.806   2.067  0.3607 -0.1126 -0.5648
 6948SOL    HW132306   2.720   2.851   1.990 -0.1483 -1.0717 -0.8885
 6948SOL    HW232307   2.827   2.753   2.031  0.9210  0.6720 -0.6356
 6949SOL     OW32308   0.927   0.473  11.854  0.2435 -0.6077  0.0997
 6949SOL    HW132309   0.851   0.426  11.887 -1.2004 -0.5182 -3.0909
 6949SOL    HW232310   0.937   0.437  11.766  0.3217 -0.1157 -0.0937
 6950SOL     OW32311   1.560   3.823   0.615  0.3182 -0.3377  0.2744
 6950SOL    HW132312   1.540   3.826   0.709  0.0552  2.3788  0.1344
 6950SOL    HW232313   1.504   3.899   0.599  0.4980 -0.2096  0.2519
 6951SOL     OW32314   0.477   3.412   5.188  0.5436 -0.1622 -0.7742
 6951SOL    HW132315   0.469   3.450   5.275  3.3717 -0.9729 -0.1794
 6951SOL    HW232316   0.392   3.407   5.144  0.3240 -3.5667 -0.0116
 6952SOL     OW32317   0.210   1.440  12.682 -0.3040 -0.6030 -0.0225
 6952SOL    HW132318   0.225   1.533  12.666  3.0021 -1.3769 -1.5573
 6952SOL    HW232319   0.232   1.433  12.775  5.8289  1.1702 -1.3381
 6953SOL     OW32320   2.193   2.990   4.351  0.0247 -0.1271  0.2533
 6953SOL    HW132321   2.205   3.069   4.298  1.5574 -1.1801 -0.9728
 6953SOL    HW232322   2.271   2.938   4.330  0.7076  1.6392 -1.5449
 6954SOL     OW32323   2.571   3.658   6.163 -0.1534 -0.0017 -0.3885
 6954SOL    HW132324   2.639   3.716   6.198 -0.8690 -1.0134  2.5946
 6954SOL    HW232325   2.524   3.721   6.108 -0.0241 -1.7447 -2.4747
 6955SOL     OW32326   3.259   0.409   9.646  0.0743 -0.1762 -0.0206
 6955SOL    HW132327   3.196   0.355   9.598 -0.9401 -0.2821  1.4158
 6955SOL    HW232328   3.251   0.365   9.731  0.8280 -0.1810  0.0434
 6956SOL     OW32329   3.956   2.825  13.412 -0.1248  0.0593 -0.1171
 6956SOL    HW132330   4.049   2.844  13.422  0.0866  0.2597 -2.5173
 6956SOL    HW232331   3.930   2.783  13.495 -5.5982 -0.0045 -1.8966
 6957SOL     OW32332   3.603   4.084  16.290 -0.1521  0.1932 -0.4797
 6957SOL    HW132333   3.679   4.025  16.295 -0.2873 -0.0685 -1.5926
 6957SOL    HW232334   3.532   4.038  16.336 -0.5251  0.6184 -0.6294
 6958SOL     OW32335   3.291   1.282   6.745  0.0022  0.3393 -0.1482
 6958SOL    HW132336   3.240   1.277   6.826  2.5055 -1.2319  1.2911
 6958SOL    HW232337   3.225   1.298   6.677  0.7703  0.5665 -0.8390
 6959SOL     OW32338   2.537   2.926  16.194 -0.1506  0.4021  0.3478
 6959SOL    HW132339   2.542   2.861  16.264  0.8097  0.2308  0.1119
 6959SOL    HW232340   2.446   2.925  16.164 -0.5071  0.5134  1.3998
 6960SOL     OW32341   3.636   0.715   6.679  0.3813  0.2099  0.9526
 6960SOL    HW132342   3.656   0.803   6.710 -1.4830  0.8016  0.4663
 6960SOL    HW232343   3.540   0.712   6.682  0.2759 -0.0607 -2.6501
 6961SOL     OW32344   1.283   2.686   1.417 -0.4419  0.3792  0.1830
 6961SOL    HW132345   1.188   2.687   1.407 -0.6736 -0.7097  2.2792
 6961SOL    HW232346   1.303   2.764   1.365 -0.8939 -1.2212 -2.3847
 6962SOL     OW32347   0.348   0.592  11.034 -0.0238  0.0687 -0.2327
 6962SOL    HW132348   0.257   0.602  11.061 -0.4705  0.9206 -1.9713
 6962SOL    HW232349   0.368   0.664  10.972  1.1191 -0.2627 -0.2578
 6963SOL     OW32350   2.098   0.459  13.117  0.1290 -0.2990 -0.0903
 6963SOL    HW132351   2.079   0.518  13.191 -0.4102  2.3094 -2.3052
 6963SOL    HW232352   2.191   0.437  13.128  0.1911  0.0145  0.0342
 6964SOL     OW32353   3.297   3.887  15.719 -0.0985 -0.5883  0.4870
 6964SOL    HW132354   3.314   3.793  15.713  1.1336 -0.3191 -0.1805
 6964SOL    HW232355   3.310   3.925  15.632 -0.0917 -1.2394  0.2037
 6965SOL     OW32356   1.924   0.326   7.062 -0.2355  0.1404  0.6134
 6965SOL    HW132357   1.917   0.421   7.071 -1.6895  0.0094  0.7971
 6965SOL    HW232358   1.922   0.314   6.967  1.2243  0.1490  0.5763
 6966SOL     OW32359   3.314   0.400   4.196 -0.2291  0.1397  0.0706
 6966SOL    HW132360   3.350   0.469   4.141 -1.2614 -0.4388 -1.3180
 6966SOL    HW232361   3.222   0.424   4.196 -0.2390  0.0822 -2.3592
 6967SOL     OW32362   3.750   3.227   3.757  0.6817  0.1976  0.4121
 6967SOL    HW132363   3.716   3.228   3.668  1.4976  0.1978  0.0971
 6967SOL    HW232364   3.782   3.317   3.760  1.2063  0.0606 -1.4854
 6968SOL     OW32365   2.153   4.314   6.338  0.2946 -0.2583  0.0151
 6968SOL    HW132366   2.140   4.306   6.243  1.5587 -1.2941 -0.0760
 6968SOL    HW232367   2.068   4.349   6.362  0.7062  0.1052  0.9288
 6969SOL     OW32368   4.448   4.453   8.785 -0.0687 -0.7489 -0.2938
 6969SOL    HW132369   4.529   4.417   8.819 -0.7725 -1.9136  0.1324
 6969SOL    HW232370   4.410   4.379   8.737 -2.2550  1.6637 -2.3412
 6970SOL     OW32371   1.624   1.171   5.155  0.2386  0.0707 -0.3661
 6970SOL    HW132372   1.592   1.258   5.180  3.2929  1.1443 -0.2478
 6970SOL    HW232373   1.541   1.124   5.153  1.3229 -1.8425 -0.2642
 6971SOL     OW32374   0.362   3.643   4.747  0.1390  0.2127  0.4528
 6971SOL    HW132375   0.286   3.701   4.746  0.1452  0.2192  0.1719
 6971SOL    HW232376   0.411   3.696   4.684 -0.7531 -0.0826 -0.4833
 6972SOL     OW32377   1.208   2.476   6.138 -0.3401 -0.8637  0.4815
 6972SOL    HW132378   1.139   2.507   6.197 -0.9658 -0.5204 -0.4281
 6972SOL    HW232379   1.157   2.484   6.057  1.3979 -1.9897 -0.7168
 6973SOL     OW32380   3.370   0.878   7.657 -0.0797 -0.7744  0.4028
 6973SOL    HW132381   3.325   0.818   7.597 -2.3116  1.8771 -0.6016
 6973SOL    HW232382   3.329   0.853   7.740 -3.2012 -1.1296 -1.2417
 6974SOL     OW32383   4.310   1.742   7.593  0.2003  0.2312 -0.0270
 6974SOL    HW132384   4.216   1.729   7.582  0.3773  0.0267 -1.2715
 6974SOL    HW232385   4.335   1.680   7.662  2.0908  0.6181 -0.3683
 6975SOL     OW32386   4.553   1.617  15.738  0.0224  0.0639 -0.0852
 6975SOL    HW132387   4.569   1.711  15.742 -1.2988  0.2005  2.1399
 6975SOL    HW232388   4.605   1.600  15.660 -0.7036  2.3780 -1.0489
 6976SOL     OW32389   4.677   3.157   7.543 -0.1850 -0.1605 -0.0818
 6976SOL    HW132390   0.022   3.092   7.543 -2.2275 -2.3428  3.3032
 6976SOL    HW232391   4.618   3.126   7.474  0.4296  2.0263 -1.5730
 6977SOL     OW32392   4.152   0.071   1.777  0.0098  0.0297 -0.0673
 6977SOL    HW132393   4.188   0.042   1.693 -0.9118 -0.8651 -0.1521
 6977SOL    HW232394   4.079   0.011   1.786  0.3479 -0.3110  0.4259
 6978SOL     OW32395   4.168   3.754   1.285  0.1223 -0.2370  0.6553
 6978SOL    HW132396   4.103   3.796   1.342  0.1237 -1.5546  1.6245
 6978SOL    HW232397   4.128   3.752   1.198  1.5330 -1.6552  0.0549
 6979SOL     OW32398   2.878   2.044   0.456  0.0577  0.4560  0.0478
 6979SOL    HW132399   2.843   2.043   0.545  1.1825  1.6878  0.4985
 6979SOL    HW232400   2.844   2.129   0.429  0.0295  0.5712  0.4447
 6980SOL     OW32401   3.573   3.990  14.932 -0.9724 -0.0157  0.1311
 6980SOL    HW132402   3.593   4.074  14.973  0.5267 -0.4154  0.2291
 6980SOL    HW232403   3.660   3.964  14.902 -1.0502  1.4846 -1.3997
 6981SOL     OW32404   2.669   3.964   4.006 -0.6927 -0.0349  0.0572
 6981SOL    HW132405   2.732   3.918   4.061 -1.9748 -1.2556  0.5316
 6981SOL    HW232406   2.725   4.035   3.973 -1.9990  0.4395 -1.1698
 6982SOL     OW32407   3.719   2.345  11.510 -0.2533  0.0996 -0.2739
 6982SOL    HW132408   3.743   2.340  11.418  0.8885 -2.1488  0.1327
 6982SOL    HW232409   3.624   2.333  11.506 -0.1328 -0.9701  0.0034
 6983SOL     OW32410   3.304   0.823   5.759  0.0781  0.9278 -0.0994
 6983SOL    HW132411   3.229   0.764   5.771  0.0243  1.2817  1.2196
 6983SOL    HW232412   3.345   0.818   5.845  2.2890 -1.9125 -1.3634
 6984SOL     OW32413   4.207   0.426  13.759 -0.2098 -0.6603  0.1264
 6984SOL    HW132414   4.190   0.432  13.853  0.9090 -1.0865  0.3583
 6984SOL    HW232415   4.302   0.435  13.765 -0.4550 -0.5409  3.8016
 6985SOL     OW32416   0.860   0.992  11.336 -0.7400 -0.1057  0.4714
 6985SOL    HW132417   0.955   0.980  11.332 -0.9264 -1.9289  1.5795
 6985SOL    HW232418   0.852   1.018  11.427 -0.1865 -0.6752  0.6843
 6986SOL     OW32419   1.332   0.975  12.019 -0.1845  0.3103 -0.0211
 6986SOL    HW132420   1.359   1.056  12.063 -1.9276  1.1079 -0.4112
 6986SOL    HW232421   1.337   0.999  11.927 -1.2135  1.3500  0.1860
 6987SOL     OW32422   0.604   4.435   5.559 -0.0917 -0.3698 -0.4153
 6987SOL    HW132423   0.646   4.401   5.638  1.5648 -1.1869 -1.6656
 6987SOL    HW232424   0.683   4.481   5.531  1.4813 -2.1224  1.1247
 6988SOL     OW32425   1.254   0.436   4.214  0.6477  0.0108 -0.1090
 6988SOL    HW132426   1.210   0.411   4.133  1.0167 -0.9923  0.0101
 6988SOL    HW232427   1.326   0.374   4.203  1.5961  0.8165  1.5315
 6989SOL     OW32428   2.066   3.057  14.605  0.2493  0.2236  0.6256
 6989SOL    HW132429   2.138   3.009  14.644 -1.6219 -1.1210  2.4329
 6989SOL    HW232430   2.067   3.009  14.522  0.3499 -1.3195  1.5137
 6990SOL     OW32431   2.249   0.076   9.572  0.2625  0.1259  0.2277
 6990SOL    HW132432   2.182   0.142   9.589 -1.2496 -1.0578 -1.0911
 6990SOL    HW232433   2.292   0.123   9.500 -0.8861  0.3476 -0.3026
 6991SOL     OW32434   3.173   0.058   4.223 -0.2677  0.1905  0.0155
 6991SOL    HW132435   3.253   0.109   4.238  0.3100 -0.2935 -1.4829
 6991SOL    HW232436   3.199   4.703   4.178 -1.3402  1.4186 -2.8128
 6992SOL     OW32437   3.931   4.072   8.647  0.1340  0.0147  0.0779
 6992SOL    HW132438   3.841   4.055   8.619  0.0611 -2.4249  1.8505
 6992SOL    HW232439   3.910   4.094   8.738 -0.4958 -0.3024  0.0084
 6993SOL     OW32440   1.200   4.261  10.663  0.0285 -0.2991  0.0445
 6993SOL    HW132441   1.170   4.177  10.627  0.6699 -0.4099 -0.2163
 6993SOL    HW232442   1.114   4.303  10.667  0.7380  1.2145 -0.7576
 6994SOL     OW32443   0.161   4.068   2.491 -0.2702  0.6257 -0.0513
 6994SOL    HW132444   0.094   4.122   2.532  1.3448  1.9108  0.8992
 6994SOL    HW232445   0.230   4.067   2.558  0.5957 -2.3786 -0.9702
 6995SOL     OW32446   4.310   1.924  16.670 -0.2101  0.4465  0.2983
 6995SOL    HW132447   4.322   1.901  16.578 -0.2205  2.0612 -0.1037
 6995SOL    HW232448   4.247   1.860  16.704 -0.1518  0.7279  0.9389
 6996SOL     OW32449   2.818   2.193   7.833  0.0565  0.1771  0.5515
 6996SOL    HW132450   2.815   2.100   7.852  0.2258  0.2728  1.0665
 6996SOL    HW232451   2.736   2.199   7.786  0.7030  0.9285 -0.4794
 6997SOL     OW32452   2.550   1.223   6.913  0.0275  0.3907 -0.1860
 6997SOL    HW132453   2.640   1.218   6.880 -1.0168 -0.6876 -2.9281
 6997SOL    HW232454   2.522   1.289   6.849  0.5884  0.3784 -0.4475
 6998SOL     OW32455   0.858   0.687   1.614  1.0549  0.0249  0.0574
 6998SOL    HW132456   0.805   0.729   1.547  0.5341  1.3852  1.3193
 6998SOL    HW232457   0.861   0.592   1.602  1.5233  0.0714 -0.1957
 6999SOL     OW32458   0.374   3.137   6.066 -0.6189  0.2894  1.0645
 6999SOL    HW132459   0.387   3.133   6.161 -0.3525  0.5408  1.0390
 6999SOL    HW232460   0.379   3.044   6.043 -2.1736  0.3584  0.4475
 7000SOL     OW32461   3.042   4.445   4.218  0.3940 -0.2959 -0.2975
 7000SOL    HW132462   3.109   4.447   4.150 -1.1917  0.0628 -1.8341
 7000SOL    HW232463   2.966   4.462   4.162 -1.9874 -2.1891  2.3328
 7001SOL     OW32464   3.410   2.109  10.506  0.4364  0.2199 -0.0789
 7001SOL    HW132465   3.319   2.122  10.530  0.7793 -1.5379  2.1857
 7001SOL    HW232466   3.441   2.097  10.596 -0.2135  0.3608  0.1645
 7002SOL     OW32467   4.467   4.341  12.853 -0.9535  0.0873  0.6389
 7002SOL    HW132468   4.521   4.268  12.821 -1.0004  1.3482 -2.2936
 7002SOL    HW232469   4.492   4.410  12.792 -1.4542  0.7551  1.2019
 7003SOL     OW32470   2.407   1.441   8.567  0.1211  0.2469 -0.4877
 7003SOL    HW132471   2.480   1.503   8.558  0.9787 -0.7648 -0.5520
 7003SOL    HW232472   2.342   1.501   8.604  0.2099 -0.6481  1.1234
 7004SOL     OW32473   4.337   3.851   2.823 -0.5023 -0.0679 -0.0834
 7004SOL    HW132474   4.418   3.818   2.782 -0.2534 -0.0994  0.4321
 7004SOL    HW232475   4.359   3.854   2.916  0.8426  0.4892 -0.4240
 7005SOL     OW32476   3.243   1.849   6.406 -0.5770 -0.2717  0.2752
 7005SOL    HW132477   3.236   1.908   6.330  0.8486 -1.5319 -0.8489
 7005SOL    HW232478   3.318   1.798   6.374 -0.1529  0.3473  0.2746
 7006SOL     OW32479   4.592   2.195  12.541 -0.5085 -0.2752 -0.1167
 7006SOL    HW132480   4.565   2.244  12.619 -0.9764 -0.3471 -0.2362
 7006SOL    HW232481   4.627   2.266  12.488 -1.0832 -0.8948 -1.3099
 7007SOL     OW32482   1.859   2.389   8.806 -0.5072 -0.0756 -0.0651
 7007SOL    HW132483   1.905   2.435   8.736  1.1560 -2.0356 -0.2763
 7007SOL    HW232484   1.797   2.458   8.830 -0.4078 -0.0998  0.2595
 7008SOL     OW32485   3.243   4.251   1.154 -0.1447 -0.2137 -0.0737
 7008SOL    HW132486   3.292   4.322   1.195 -0.3523 -1.2523  1.9654
 7008SOL    HW232487   3.278   4.252   1.065  0.7658  0.5346  0.2918
 7009SOL     OW32488   0.027   1.593   5.372 -0.3384  0.1546 -0.0493
 7009SOL    HW132489   0.030   1.520   5.434  0.9701  1.6926  1.6787
 7009SOL    HW232490   0.084   1.658   5.414  1.4989 -0.7086 -1.1992
 7010SOL     OW32491   3.849   4.638  15.459 -0.4554  0.3317  0.2177
 7010SOL    HW132492   3.877   4.546  15.455  1.1537  0.7306  2.2616
 7010SOL    HW232493   3.843   4.660  15.552  1.1362 -1.1489  0.6755
 7011SOL     OW32494   4.662   4.387   3.024 -0.7512  0.0400  0.0999
 7011SOL    HW132495   4.657   4.421   3.113 -0.5565 -1.9159  0.8661
 7011SOL    HW232496   4.575   4.411   2.995 -0.4011  0.2704 -0.7512
 7012SOL     OW32497   2.793   3.868  16.268  0.4538 -0.2468 -0.0835
 7012SOL    HW132498   2.775   3.845  16.359 -0.9605  2.0277  0.2122
 7012SOL    HW232499   2.812   3.781  16.233 -1.5597 -0.9592  0.6101
 7013SOL     OW32500   1.113   1.767   4.250  0.6025  0.2875 -0.2243
 7013SOL    HW132501   1.076   1.686   4.284  1.5200 -0.6730 -1.4687
 7013SOL    HW232502   1.049   1.832   4.277  2.1833  1.8310 -0.2018
 7014SOL     OW32503   0.405   3.506   6.230  0.1048  0.1617 -0.1079
 7014SOL    HW132504   0.333   3.537   6.285  0.8418 -0.1287  1.0005
 7014SOL    HW232505   0.392   3.557   6.150  0.1851 -1.8235 -1.4023
 7015SOL     OW32506   4.405   3.846   1.431 -0.1158  0.1449  0.1683
 7015SOL    HW132507   4.449   3.900   1.497 -0.0104 -0.8904  0.9520
 7015SOL    HW232508   4.329   3.899   1.405  1.9291  3.0417  0.1427
 7016SOL     OW32509   2.060   3.966   2.727  0.5079 -0.0016 -0.1963
 7016SOL    HW132510   2.076   4.018   2.648 -0.9544 -0.1946 -0.6033
 7016SOL    HW232511   2.024   3.888   2.685  1.6872 -0.4545 -0.3849
 7017SOL     OW32512   3.690   2.579   7.615  0.1021 -0.1324 -0.0115
 7017SOL    HW132513   3.667   2.669   7.640  1.1852  0.6529 -1.7779
 7017SOL    HW232514   3.752   2.602   7.545 -0.2042  2.0026  0.4115
 7018SOL     OW32515   2.085   3.992  15.475 -0.4894  0.1862  0.3207
 7018SOL    HW132516   2.120   4.078  15.499 -2.9069  0.9124  1.2497
 7018SOL    HW232517   2.017   3.988  15.541  1.4332  1.1780  2.3737
 7019SOL     OW32518   0.067   4.477   2.787 -0.5287 -0.2112  0.8047
 7019SOL    HW132519   0.114   4.553   2.820  2.5847 -1.0259 -1.7880
 7019SOL    HW232520   0.010   4.453   2.861  1.3739 -3.5519  1.2015
 7020SOL     OW32521   1.582   4.356   3.764  0.8809 -0.1487  0.4212
 7020SOL    HW132522   1.645   4.402   3.819  1.2485  0.7916 -0.7900
 7020SOL    HW232523   1.578   4.411   3.685 -2.0434  1.9632  2.0019
 7021SOL     OW32524   4.674   0.511  15.934 -0.2137  0.1323  0.2354
 7021SOL    HW132525   0.040   0.522  15.961  0.6484 -0.4952 -2.3756
 7021SOL    HW232526   4.629   0.560  16.003 -1.5212  0.2682 -0.7071
 7022SOL     OW32527   3.682   0.660   0.251  0.4917  0.3027 -0.1287
 7022SOL    HW132528   3.686   0.670   0.346  1.8659  1.2409 -0.2836
 7022SOL    HW232529   3.615   0.723   0.223 -1.1725 -2.4783 -2.5108
 7023SOL     OW32530   4.567   1.582  13.340  0.2901 -0.0946  0.5585
 7023SOL    HW132531   4.599   1.537  13.262 -0.7675 -0.9206  0.5941
 7023SOL    HW232532   4.610   1.663  13.312  0.1636 -0.0466  0.5019
 7024SOL     OW32533   0.810   0.126   6.537  0.2649 -0.3856 -0.0485
 7024SOL    HW132534   0.802   0.059   6.468  1.2662 -0.2505 -0.2892
 7024SOL    HW232535   0.719   0.131   6.566  0.0897  0.4539 -0.7314
 7025SOL     OW32536   1.375   0.187   9.212 -0.7380 -0.0561  0.8025
 7025SOL    HW132537   1.286   0.158   9.190 -0.1177 -1.4112  0.0730
 7025SOL    HW232538   1.388   0.152   9.300 -2.0234 -0.7400  0.7242
 7026SOL     OW32539   0.718   0.710   7.192  0.2693 -0.1042  0.1043
 7026SOL    HW132540   0.710   0.800   7.162 -0.5678 -0.1487  0.1887
 7026SOL    HW232541   0.765   0.726   7.274 -1.3172 -0.3747  1.0673
 7027SOL     OW32542   4.009   0.183   5.680  0.1441 -0.0397 -0.2814
 7027SOL    HW132543   4.035   0.147   5.765 -1.4584 -1.3265 -0.3183
 7027SOL    HW232544   3.918   0.210   5.695 -0.1558 -1.5121  0.5557
 7028SOL     OW32545   4.608   1.325   8.283  0.0531  0.2803 -0.4095
 7028SOL    HW132546   4.544   1.307   8.352  0.2436 -1.9116 -0.7968
 7028SOL    HW232547   4.548   1.353   8.213 -1.4498 -0.2430  0.6604
 7029SOL     OW32548   2.892   2.645  11.834  0.4366  0.5308 -0.4254
 7029SOL    HW132549   2.798   2.662  11.837  0.7311  2.1399 -0.4364
 7029SOL    HW232550   2.901   2.651  11.929  2.4445 -1.8205 -0.4649
 7030SOL     OW32551   4.217   2.290   5.989  0.5567 -0.3074  0.4797
 7030SOL    HW132552   4.272   2.344   6.046  0.9222 -1.8662  1.6157
 7030SOL    HW232553   4.141   2.260   6.038  0.9213  1.7656  2.3325
 7031SOL     OW32554   1.797   0.792   2.855  0.3114  0.1274 -0.1839
 7031SOL    HW132555   1.857   0.816   2.783 -0.0237  0.0789 -0.4793
 7031SOL    HW232556   1.722   0.822   2.803 -0.6902 -0.9905  0.6458
 7032SOL     OW32557   1.008   3.723   5.343 -0.0047  0.0439 -0.1468
 7032SOL    HW132558   1.044   3.807   5.373 -1.7011  0.1332  1.6274
 7032SOL    HW232559   0.981   3.683   5.426 -3.3404  0.7965 -0.8517
 7033SOL     OW32560   2.100   1.425  14.799 -0.1269 -0.1275 -0.4886
 7033SOL    HW132561   2.107   1.335  14.766 -0.8971 -0.3411 -0.0712
 7033SOL    HW232562   2.126   1.431  14.891 -1.9847  0.8815 -0.0489
 7034SOL     OW32563   1.334   1.076  17.104 -0.2167 -0.2284  0.0081
 7034SOL    HW132564   1.386   1.155  17.089  1.2192 -1.4494 -1.3835
 7034SOL    HW232565   1.393   1.029  17.163  0.2010 -1.6525 -1.5460
 7035SOL     OW32566   0.202   2.523   3.283 -0.0247  0.1608  0.3936
 7035SOL    HW132567   0.111   2.506   3.260  0.0669 -0.3534  0.4125
 7035SOL    HW232568   0.220   2.433   3.309  2.6873  0.1494 -1.5408
 7036SOL     OW32569   1.660   0.065   7.987  0.8232  0.3356  0.5409
 7036SOL    HW132570   1.692   0.123   7.918  2.5262 -2.2340 -0.8178
 7036SOL    HW232571   1.745   0.038   8.021  0.4100  0.1856  1.4449
 7037SOL     OW32572   4.556   2.629   6.486  0.0473 -0.1147 -0.2696
 7037SOL    HW132573   4.606   2.648   6.564  2.3297 -0.1260 -1.7317
 7037SOL    HW232574   4.527   2.539   6.502  0.1441 -0.1957 -0.5545
 7038SOL     OW32575   1.833   0.653   2.520 -0.5757 -0.0806  0.3202
 7038SOL    HW132576   1.873   0.566   2.514 -0.4093  0.0389 -0.2324
 7038SOL    HW232577   1.890   0.693   2.586 -1.1510 -0.3216  0.9666
 7039SOL     OW32578   4.412   2.878  16.784 -0.2712 -0.2440  0.1222
 7039SOL    HW132579   4.400   2.917  16.697 -3.1690 -0.6567  0.3258
 7039SOL    HW232580   4.504   2.853  16.777 -0.3329 -0.5861  0.5459
 7040SOL     OW32581   4.235   0.462   5.345  0.5419  0.2902  0.6687
 7040SOL    HW132582   4.248   0.546   5.302  1.1880 -1.4292 -2.4903
 7040SOL    HW232583   4.265   0.391   5.288  2.0288  1.3316  0.1616
 7041SOL     OW32584   0.980   4.559  10.471 -0.0787 -0.2320 -0.0315
 7041SOL    HW132585   0.960   4.650  10.452  0.4824 -0.1056 -0.0219
 7041SOL    HW232586   0.974   4.524  10.382  1.5832 -1.1736  0.2111
 7042SOL     OW32587   3.756   1.285   5.218  0.2445 -0.0796  0.5774
 7042SOL    HW132588   3.806   1.210   5.186 -1.9937 -1.2343 -0.2496
 7042SOL    HW232589   3.785   1.359   5.164  0.2218  0.0742  0.7782
 7043SOL     OW32590   1.270   1.283  16.021 -0.0193 -0.5781  0.1152
 7043SOL    HW132591   1.192   1.243  15.984 -0.4098  0.5063 -0.2380
 7043SOL    HW232592   1.271   1.237  16.105 -0.8574  0.8635  0.9086
 7044SOL     OW32593   4.546   0.869   6.963  0.2028  0.3710 -0.2155
 7044SOL    HW132594   4.470   0.892   7.016  0.3993  1.2322 -0.2963
 7044SOL    HW232595   4.615   0.878   7.030 -1.3071  1.1026  1.2448
 7045SOL     OW32596   2.630   4.363  12.736  0.4420  0.1912  0.6359
 7045SOL    HW132597   2.650   4.411  12.816  1.3822  0.7483  0.0735
 7045SOL    HW232598   2.536   4.362  12.752  0.5003  1.5263  1.0435
 7046SOL     OW32599   2.181   0.582  16.353  0.3473 -0.2628 -0.0025
 7046SOL    HW132600   2.091   0.549  16.351  0.8312 -1.6103  0.8003
 7046SOL    HW232601   2.227   0.498  16.351  1.2983  0.2652 -0.4703
 7047SOL     OW32602   0.043   1.985  13.100 -0.5579  0.2767 -0.7897
 7047SOL    HW132603   0.020   1.906  13.149  1.5635 -0.1649 -0.4867
 7047SOL    HW232604   0.088   2.038  13.166  2.6946 -0.1644 -2.6561
 7048SOL     OW32605   4.133   2.172   4.571  0.5200  0.2851  0.0309
 7048SOL    HW132606   4.052   2.127   4.548 -0.7817  3.9139 -2.4341
 7048SOL    HW232607   4.186   2.105   4.527  1.2154  1.2401 -0.5837
 7049SOL     OW32608   1.544   0.204   8.778  0.7370  0.2175 -0.5872
 7049SOL    HW132609   1.637   0.227   8.780  0.6416  0.4744  1.3977
 7049SOL    HW232610   1.537   0.187   8.872  0.2919  1.6126 -0.3695
 7050SOL     OW32611   4.430   0.707   5.719  0.4626  0.3032 -0.3928
 7050SOL    HW132612   4.519   0.677   5.700  0.0160 -1.1100 -0.2630
 7050SOL    HW232613   4.383   0.710   5.635 -2.2418  0.0985  1.0983
 7051SOL     OW32614   4.493   2.389   7.256 -0.1610 -0.3446  0.1857
 7051SOL    HW132615   4.419   2.329   7.247 -2.2837  2.1669  0.9010
 7051SOL    HW232616   4.439   2.450   7.306 -0.1429 -1.1077  1.1416
 7052SOL     OW32617   1.034   3.847   2.660 -0.4076  0.3504 -0.0423
 7052SOL    HW132618   1.045   3.802   2.576  0.1375  1.3824 -0.5235
 7052SOL    HW232619   1.115   3.897   2.657  0.8068 -1.6007 -0.2700
 7053SOL     OW32620   2.890   2.233  10.349  0.4307  0.9305  0.0458
 7053SOL    HW132621   2.945   2.304  10.382 -2.3350  2.3587  1.5902
 7053SOL    HW232622   2.913   2.247  10.257  0.2568 -0.9651 -0.2845
 7054SOL     OW32623   3.898   1.471   6.110  0.0566 -0.3397 -0.0827
 7054SOL    HW132624   3.822   1.414   6.093 -1.6279  1.6578  0.7258
 7054SOL    HW232625   3.955   1.466   6.034  1.8396 -0.2706  1.2396
 7055SOL     OW32626   2.390   3.484   2.801  0.5670 -0.3182  0.3422
 7055SOL    HW132627   2.471   3.530   2.824  1.2490 -1.6667  0.6495
 7055SOL    HW232628   2.335   3.557   2.830  0.8217  0.2123 -0.5323
 7056SOL     OW32629   2.558   1.225   5.657 -0.2536  0.2419 -0.9211
 7056SOL    HW132630   2.585   1.160   5.722  0.1722 -0.4562 -1.7991
 7056SOL    HW232631   2.505   1.283   5.711 -1.4061 -1.3032 -0.4109
 7057SOL     OW32632   1.073   0.300  10.349 -0.0348  0.0559 -0.3157
 7057SOL    HW132633   1.143   0.325  10.409  0.0178 -0.2856 -0.2372
 7057SOL    HW232634   1.054   0.212  10.382 -1.2003  1.0501  1.6714
 7058SOL     OW32635   1.806   1.082   3.982  0.1089 -0.2663  0.0776
 7058SOL    HW132636   1.715   1.112   3.981 -0.2676 -1.3871  0.6010
 7058SOL    HW232637   1.800   1.024   3.907  0.4332  1.2002 -1.0921
 7059SOL     OW32638   1.280   4.663   7.062 -0.2153  0.7969  0.0511
 7059SOL    HW132639   1.221   4.688   7.133  0.0695  1.3148  0.1079
 7059SOL    HW232640   1.329   4.592   7.102 -0.0201  0.9008 -0.0026
 7060SOL     OW32641   2.638   2.347   3.788 -0.8861 -0.2515  0.3051
 7060SOL    HW132642   2.633   2.414   3.857  0.9686  0.1088  0.0876
 7060SOL    HW232643   2.573   2.374   3.723  0.6582  1.8958 -0.3161
 7061SOL     OW32644   1.597   3.599  13.360 -0.1714  0.0248 -0.3872
 7061SOL    HW132645   1.527   3.567  13.417  0.0159 -1.0605 -0.7758
 7061SOL    HW232646   1.588   3.542  13.283  1.1494 -0.6670 -0.0294
 7062SOL     OW32647   0.119   4.594  10.463  0.3091 -0.5816  0.2407
 7062SOL    HW132648   0.150   4.510  10.497  1.0966 -0.2395  0.3874
 7062SOL    HW232649   0.128   4.646  10.543 -0.1306  0.8959 -0.6756
 7063SOL     OW32650   4.696   2.550  10.167  0.0689  0.7431 -0.4627
 7063SOL    HW132651   4.697   2.639  10.130  1.3460  0.2609 -1.5826
 7063SOL    HW232652   0.040   2.552  10.234  0.2369  0.8927 -0.6397
 7064SOL     OW32653   3.357   0.486   7.814  0.0203  0.4236  0.2404
 7064SOL    HW132654   3.399   0.478   7.900 -0.5472 -0.3888  0.4447
 7064SOL    HW232655   3.274   0.521   7.846  0.5056  0.6475  1.2668
 7065SOL     OW32656   4.535   2.245  14.466 -0.1049  0.2399 -0.3646
 7065SOL    HW132657   4.450   2.201  14.464  1.0649 -2.0208 -0.7521
 7065SOL    HW232658   4.588   2.170  14.439 -2.5993 -2.1424  1.3019
 7066SOL     OW32659   1.802   1.575  17.403 -0.4423 -0.0203 -0.2798
 7066SOL    HW132660   1.890   1.601  17.431  0.0221 -1.5536 -0.3258
 7066SOL    HW232661   1.759   1.576  17.489  1.4267  2.2334  0.6368
 7067SOL     OW32662   0.234   3.071   8.899 -0.0052  0.2304 -0.6197
 7067SOL    HW132663   0.149   3.057   8.857 -2.5856  4.9030  3.0971
 7067SOL    HW232664   0.208   3.134   8.966  1.6771 -0.3801  0.5941
 7068SOL     OW32665   3.464   1.711   1.220  0.2386  0.1451  0.4653
 7068SOL    HW132666   3.379   1.743   1.190  1.2260  1.6122 -0.8093
 7068SOL    HW232667   3.511   1.794   1.224 -0.6380  0.6815 -0.5993
 7069SOL     OW32668   1.265   1.158  13.697 -0.1949 -0.5010  0.2834
 7069SOL    HW132669   1.342   1.134  13.647 -0.8012  0.0749 -0.9260
 7069SOL    HW232670   1.194   1.128  13.640  1.9594 -0.3970 -2.4362
 7070SOL     OW32671   1.425   1.897   9.509  0.4888  0.1611 -0.1348
 7070SOL    HW132672   1.481   1.934   9.577 -1.1665 -2.1231  2.4810
 7070SOL    HW232673   1.398   1.817   9.554  1.1440  1.3188  2.3098
 7071SOL     OW32674   2.369   4.328   8.890 -0.1820 -0.2128  0.0651
 7071SOL    HW132675   2.423   4.259   8.929 -0.2321  0.1267  0.7280
 7071SOL    HW232676   2.435   4.369   8.835 -1.0933 -0.4436 -1.2032
 7072SOL     OW32677   0.261   1.303   6.661 -0.5289 -0.1639 -0.6027
 7072SOL    HW132678   0.290   1.330   6.574 -1.7453 -0.7963 -1.2059
 7072SOL    HW232679   0.267   1.208   6.653 -0.5842 -0.2264  0.1234
 7073SOL     OW32680   3.092   3.140   8.620  0.0509 -0.0575  0.2737
 7073SOL    HW132681   3.047   3.225   8.627  0.9191  0.4343 -0.0964
 7073SOL    HW232682   3.181   3.164   8.594  0.8885 -2.3305  1.0588
 7074SOL     OW32683   4.108   4.682   4.495  0.1641  0.4022 -0.4971
 7074SOL    HW132684   4.173   0.020   4.464 -0.3568  0.4152 -1.5782
 7074SOL    HW232685   4.045   0.025   4.518 -1.4314 -0.4820 -2.2820
 7075SOL     OW32686   3.086   4.429   1.745 -0.0839 -0.0016 -0.2984
 7075SOL    HW132687   3.125   4.402   1.662  0.2531 -0.6533  0.0841
 7075SOL    HW232688   3.121   4.518   1.756  2.0622 -0.5450 -2.7685
 7076SOL     OW32689   4.083   1.192   7.112 -0.1831  0.0747  0.0723
 7076SOL    HW132690   4.077   1.286   7.093 -2.0426  0.0853  0.6795
 7076SOL    HW232691   4.172   1.189   7.149 -1.0045  1.0097  2.0995
 7077SOL     OW32692   2.047   2.840   7.490  0.5223 -0.0853  0.2783
 7077SOL    HW132693   1.957   2.866   7.468  1.0414 -0.4688 -2.3490
 7077SOL    HW232694   2.067   2.908   7.554 -1.0905 -1.2514  2.0115
 7078SOL     OW32695   4.648   1.288   3.618  0.2317 -0.3816  0.5279
 7078SOL    HW132696   4.678   1.229   3.687 -0.1287 -0.9113  0.2300
 7078SOL    HW232697   4.688   1.372   3.639  1.2149 -1.0785  1.4396
 7079SOL     OW32698   1.048   1.554  12.487  0.3608 -0.1839  0.3504
 7079SOL    HW132699   1.074   1.472  12.446  0.5308  0.1588 -0.2425
 7079SOL    HW232700   1.056   1.532  12.579  0.3880  1.2493  0.6970
 7080SOL     OW32701   3.648   1.480  11.863 -0.3504 -0.4511  0.1506
 7080SOL    HW132702   3.691   1.560  11.833 -1.1180  0.5300  1.6343
 7080SOL    HW232703   3.587   1.465  11.792  0.3508 -0.2201 -0.5038
 7081SOL     OW32704   2.972   3.767   6.831  0.0465  0.3650 -0.0728
 7081SOL    HW132705   2.963   3.834   6.899  1.4018  0.3694  0.0993
 7081SOL    HW232706   3.034   3.710   6.875  0.2453  0.0626 -0.7506
 7082SOL     OW32707   3.803   2.650  15.012  0.0352  0.0657  0.2861
 7082SOL    HW132708   3.745   2.600  14.953 -0.6876  0.9656  0.2345
 7082SOL    HW232709   3.745   2.661  15.087 -2.0621  0.1605 -1.3506
 7083SOL     OW32710   1.598   1.570   1.831  0.0325 -0.0035 -0.3346
 7083SOL    HW132711   1.649   1.647   1.806 -1.7021  1.0362 -0.6685
 7083SOL    HW232712   1.531   1.601   1.892 -0.1188 -0.5362 -0.2313
 7084SOL     OW32713   3.802   2.368   7.785  0.1546  0.1472  0.2175
 7084SOL    HW132714   3.833   2.340   7.699  1.0340 -2.1393  1.2938
 7084SOL    HW232715   3.726   2.420   7.760  0.0112 -0.0504  0.2413
 7085SOL     OW32716   1.499   0.654   7.743  0.0863 -0.0688 -0.3535
 7085SOL    HW132717   1.544   0.596   7.804  0.3251 -0.3127 -0.7638
 7085SOL    HW232718   1.503   0.598   7.665 -1.2405  0.6643 -0.9533
 7086SOL     OW32719   2.592   1.154   2.067 -0.2392  0.4103 -0.1333
 7086SOL    HW132720   2.647   1.170   1.990  0.8735 -0.1632  0.5522
 7086SOL    HW232721   2.578   1.060   2.061 -0.9224  0.4446  1.0147
 7087SOL     OW32722   0.529   4.400  13.135 -0.1691 -0.5097 -0.3481
 7087SOL    HW132723   0.578   4.482  13.134 -1.8344  0.4779 -1.2211
 7087SOL    HW232724   0.556   4.366  13.220  0.7482 -0.9703 -0.8275
 7088SOL     OW32725   2.744   4.065   2.836 -0.1750  0.5679 -0.3141
 7088SOL    HW132726   2.792   4.127   2.780  0.4110  1.0727  0.7447
 7088SOL    HW232727   2.683   4.036   2.769  2.8198  0.5199 -3.0206
 7089SOL     OW32728   1.040   0.754   4.161 -0.2979 -0.5577  0.0640
 7089SOL    HW132729   1.022   0.662   4.140  4.1346 -1.3259 -0.2415
 7089SOL    HW232730   0.951   0.790   4.155  0.2713  0.8711  0.2486
 7090SOL     OW32731   0.051   2.979  10.218  0.5641 -0.1062  0.0636
 7090SOL    HW132732   0.129   3.000  10.271 -0.2222 -1.2846  1.6966
 7090SOL    HW232733   0.018   3.068  10.208 -1.2483 -0.7525  0.4467
 7091SOL     OW32734   0.242   0.599   9.037  0.3824  0.6130 -0.8644
 7091SOL    HW132735   0.264   0.600   8.944 -1.0638 -1.0252 -1.2209
 7091SOL    HW232736   0.316   0.553   9.076 -0.3021  1.5083  1.5496
 7092SOL     OW32737   0.484   0.638  14.081 -0.0838 -0.1167  0.5336
 7092SOL    HW132738   0.456   0.729  14.089 -0.2179  0.0744 -2.2848
 7092SOL    HW232739   0.579   0.650  14.071 -0.0999 -0.4284  0.0342
 7093SOL     OW32740   4.161   1.280  13.742  0.2267 -0.1233  0.4047
 7093SOL    HW132741   4.136   1.370  13.764  0.7705  0.0626  0.2520
 7093SOL    HW232742   4.182   1.240  13.826  3.1426  0.0611 -0.2318
 7094SOL     OW32743   4.705   2.627   8.247  0.2533 -0.4388  1.2670
 7094SOL    HW132744   4.610   2.633   8.239  0.4141  0.9359  0.3725
 7094SOL    HW232745   0.001   2.568   8.174  1.0418  0.6138  0.6549
 7095SOL     OW32746   3.700   0.511  10.837 -0.2294  0.4273  0.0580
 7095SOL    HW132747   3.705   0.487  10.929 -1.2196 -1.4835 -0.3773
 7095SOL    HW232748   3.647   0.590  10.830 -0.7376  0.0181 -0.7353
 7096SOL     OW32749   1.555   4.483  13.769 -0.3440  0.0694 -0.1425
 7096SOL    HW132750   1.648   4.461  13.770 -0.4620 -0.4051  0.2896
 7096SOL    HW232751   1.559   4.574  13.801 -0.2574 -0.1462  0.4567
 7097SOL     OW32752   3.725   0.158  15.283 -0.6238 -0.2379 -0.0189
 7097SOL    HW132753   3.672   0.087  15.246 -2.2755  0.0409  1.8269
 7097SOL    HW232754   3.783   0.100  15.332 -1.3710 -0.5185  0.5326
 7098SOL     OW32755   3.802   0.273  10.030  0.1254 -0.3540  0.0511
 7098SOL    HW132756   3.818   0.335   9.959 -0.5333 -3.2602 -2.6448
 7098SOL    HW232757   3.777   0.195   9.979  0.7653 -0.4448 -0.1268
 7099SOL     OW32758   4.630   2.284   3.851  0.5668  0.3084 -0.4718
 7099SOL    HW132759   4.573   2.331   3.913 -0.9975 -1.9964 -0.1703
 7099SOL    HW232760   4.619   2.193   3.877 -1.5594 -0.3163 -3.5245
 7100SOL     OW32761   3.733   4.251  13.741 -0.0078  0.2700  0.3573
 7100SOL    HW132762   3.811   4.195  13.745 -0.5412 -0.6150 -1.9478
 7100SOL    HW232763   3.663   4.187  13.745  0.2521  0.0882  1.9969
 7101SOL     OW32764   2.200   3.093  12.285 -0.7663  0.1625  0.3451
 7101SOL    HW132765   2.285   3.087  12.329 -2.6175 -0.6623  3.8102
 7101SOL    HW232766   2.155   3.025  12.335  0.5891 -1.1583 -0.2171
 7102SOL     OW32767   1.210   0.368   8.983 -0.6712 -0.0378 -0.2705
 7102SOL    HW132768   1.122   0.389   9.013 -0.4982  2.8981 -1.7882
 7102SOL    HW232769   1.267   0.412   9.047 -0.8555  1.5956 -1.2156
 7103SOL     OW32770   0.748   2.774  14.603  0.7079 -0.1246  0.2344
 7103SOL    HW132771   0.745   2.843  14.669 -1.4549 -0.9031  0.9767
 7103SOL    HW232772   0.815   2.720  14.643  0.9337 -0.1440 -0.1696
 7104SOL     OW32773   2.882   4.580   4.009 -0.6027  0.0506  0.2565
 7104SOL    HW132774   2.806   4.530   3.979 -2.8034  3.7900 -0.4936
 7104SOL    HW232775   2.925   4.596   3.925 -0.3697  0.2306  0.4101
 7105SOL     OW32776   2.776   0.022   3.376 -0.3000 -0.0397  0.5782
 7105SOL    HW132777   2.770   4.703   3.460 -0.4388 -1.4250 -0.1702
 7105SOL    HW232778   2.821   0.102   3.404  0.8429 -0.5489  0.1898
 7106SOL     OW32779   2.883   4.004  11.145  0.1153 -0.1615  0.7660
 7106SOL    HW132780   2.916   4.080  11.097  0.2974  0.2324  1.5050
 7106SOL    HW232781   2.820   3.967  11.084 -0.6835  1.4738  0.5866
 7107SOL     OW32782   4.460   0.917   9.509 -0.4951 -0.5832 -0.5254
 7107SOL    HW132783   4.531   0.981   9.507 -1.8852  0.9577 -0.8711
 7107SOL    HW232784   4.410   0.940   9.430  0.0759 -1.6903 -1.2089
 7108SOL     OW32785   3.347   2.760  15.386 -0.1611 -0.1210 -0.5177
 7108SOL    HW132786   3.355   2.835  15.327 -0.2535 -0.8561 -1.4679
 7108SOL    HW232787   3.257   2.735  15.363  0.6445 -0.3591 -3.4344
 7109SOL     OW32788   3.317   0.419   8.795 -1.0263 -0.0803  0.1240
 7109SOL    HW132789   3.342   0.389   8.882 -0.6504  0.5243  0.2244
 7109SOL    HW232790   3.406   0.406   8.760 -2.2198 -1.0121 -2.6259
 7110SOL     OW32791   1.031   2.701   3.548  0.6809  0.1877 -0.1593
 7110SOL    HW132792   0.950   2.748   3.528 -0.1169 -0.6482  1.1413
 7110SOL    HW232793   1.087   2.778   3.556 -0.6049  1.2753 -1.4133
 7111SOL     OW32794   4.447   0.387   8.650  0.5912  0.3209  0.2231
 7111SOL    HW132795   4.419   0.312   8.598 -2.6489  0.7162  1.4064
 7111SOL    HW232796   4.364   0.435   8.653  2.1075  3.0154 -0.6139
 7112SOL     OW32797   4.073   0.613  14.982 -0.3197  0.5051  0.0798
 7112SOL    HW132798   4.092   0.536  15.035 -2.0143  2.3017  3.3278
 7112SOL    HW232799   4.027   0.565  14.913 -0.5455 -1.1995  1.4432
 7113SOL     OW32800   3.936   4.686   1.634 -0.0337  0.2816  0.2029
 7113SOL    HW132801   3.874   4.621   1.665  0.3329  0.0473  0.4507
 7113SOL    HW232802   3.947   4.649   1.547  1.9643  0.8122  0.2256
 7114SOL     OW32803   4.122   4.410  13.170  0.2220 -0.5328 -0.4509
 7114SOL    HW132804   4.057   4.396  13.100  0.5750 -2.2822 -0.4451
 7114SOL    HW232805   4.071   4.468  13.226  0.1596 -0.2396 -0.8147
 7115SOL     OW32806   2.871   1.444   2.219  0.0935  0.0250  0.4768
 7115SOL    HW132807   2.940   1.408   2.275  0.0188  1.0683  1.2327
 7115SOL    HW232808   2.918   1.526   2.206  0.5742 -0.0346  1.8634
 7116SOL     OW32809   0.654   1.367   3.732  0.0749  0.0829 -0.3418
 7116SOL    HW132810   0.729   1.354   3.674  1.1270  2.8233  0.4014
 7116SOL    HW232811   0.689   1.325   3.810 -0.6554  0.5367  0.2236
 7117SOL     OW32812   0.277   3.458  14.617  0.3029 -0.3687 -0.2216
 7117SOL    HW132813   0.251   3.512  14.691  1.0614 -1.9578  1.1952
 7117SOL    HW232814   0.220   3.497  14.551  0.4923  0.9638  0.4168
 7118SOL     OW32815   2.491   4.441  15.861 -0.0268  0.0672  0.2094
 7118SOL    HW132816   2.425   4.384  15.821 -0.5562  0.6440  0.2565
 7118SOL    HW232817   2.573   4.419  15.818 -0.3591 -0.3716 -0.2012
 7119SOL     OW32818   1.147   2.007   0.974 -0.0073  0.1516 -0.6948
 7119SOL    HW132819   1.069   2.057   0.997  0.6618  1.2359 -0.7882
 7119SOL    HW232820   1.147   1.936   1.038 -0.6475  0.8497  0.0785
 7120SOL     OW32821   4.372   1.983   7.711 -0.1306 -0.1237 -0.7505
 7120SOL    HW132822   4.343   1.902   7.670 -0.4605 -1.0043  1.1907
 7120SOL    HW232823   4.321   2.046   7.661 -1.2121  0.3560  0.9533
 7121SOL     OW32824   3.789   1.482  14.116 -0.8606  0.7923  0.1010
 7121SOL    HW132825   3.735   1.561  14.118 -2.4224 -0.2694 -0.7898
 7121SOL    HW232826   3.833   1.487  14.201  0.3016  1.6664 -0.5441
 7122SOL     OW32827   3.764   3.586   8.576  0.4254 -0.1082 -0.7955
 7122SOL    HW132828   3.750   3.676   8.605  0.0590 -0.0976 -0.9984
 7122SOL    HW232829   3.711   3.535   8.637  0.0402 -0.0422 -1.0715
 7123SOL     OW32830   1.494   0.614   5.290  0.1382 -0.3456 -0.1705
 7123SOL    HW132831   1.560   0.552   5.258  1.3492  0.3309  0.9815
 7123SOL    HW232832   1.474   0.573   5.374  0.0007 -0.8341 -0.4425
 7124SOL     OW32833   2.757   4.691  17.239 -0.0207 -0.5550 -0.1204
 7124SOL    HW132834   2.679   4.647  17.205 -0.6307 -0.1083  0.7228
 7124SOL    HW232835   2.724   0.056  17.244  1.4257 -0.0959  1.1886
 7125SOL     OW32836   4.319   1.814   3.937  0.3725  0.1836  0.1713
 7125SOL    HW132837   4.372   1.734   3.931  0.5132  0.2729  0.2024
 7125SOL    HW232838   4.240   1.798   3.885  0.5551 -0.6516  0.1384
 7126SOL     OW32839   1.876   3.923   0.701  0.1886 -0.1927 -0.2960
 7126SOL    HW132840   1.876   3.884   0.614  0.4042 -0.5032 -0.1577
 7126SOL    HW232841   1.826   4.003   0.684 -0.3909 -0.4562  0.1427
 7127SOL     OW32842   0.713   3.695   4.410  0.5949  0.0408 -0.0629
 7127SOL    HW132843   0.668   3.779   4.406  0.0955 -0.3313 -2.2314
 7127SOL    HW232844   0.669   3.641   4.345  1.1137 -1.7770  1.0704
 7128SOL     OW32845   3.708   2.349   0.182  0.1059 -0.0294  0.2672
 7128SOL    HW132846   3.751   2.313   0.105  2.0530 -1.3098  1.9653
 7128SOL    HW232847   3.669   2.270   0.218  0.1760  0.5510  1.6500
 7129SOL     OW32848   1.205   0.876   5.621  0.3522  0.2010 -0.1388
 7129SOL    HW132849   1.224   0.784   5.605  1.2649  0.3950 -0.1605
 7129SOL    HW232850   1.259   0.915   5.552 -0.0378 -1.3787 -1.3349
 7130SOL     OW32851   0.772   0.211   5.543 -0.1014 -0.2343 -0.3149
 7130SOL    HW132852   0.684   0.197   5.509  0.3175 -3.6256  0.0075
 7130SOL    HW232853   0.762   0.295   5.589  0.9375 -0.1460 -0.2479
 7131SOL     OW32854   3.386   2.804   7.113  0.4350 -0.3939  0.2887
 7131SOL    HW132855   3.345   2.839   7.192  1.4884 -0.8344  1.0343
 7131SOL    HW232856   3.376   2.710   7.132 -1.1889 -0.3301 -0.3031
 7132SOL     OW32857   4.698   1.060   3.771  0.8829 -0.2233  0.0036
 7132SOL    HW132858   4.673   0.980   3.725  0.3251  0.0671 -0.2007
 7132SOL    HW232859   0.065   1.046   3.794  1.0668 -2.2207 -1.9335
 7133SOL     OW32860   2.181   0.794  14.420  0.1357  0.1192 -0.5434
 7133SOL    HW132861   2.145   0.784  14.332 -0.1189  1.1025 -0.5422
 7133SOL    HW232862   2.275   0.781  14.409 -0.3237 -1.5111 -2.6839
 7134SOL     OW32863   0.350   0.660   4.408 -0.3448  0.2580  0.5477
 7134SOL    HW132864   0.333   0.573   4.446 -0.9391 -0.7582 -2.0734
 7134SOL    HW232865   0.278   0.705   4.453  1.1327  1.8191  1.3298
 7135SOL     OW32866   1.826   3.485   9.738 -0.0285 -0.4596  0.1087
 7135SOL    HW132867   1.835   3.505   9.644 -1.0826 -0.5339 -0.0161
 7135SOL    HW232868   1.893   3.543   9.773  1.5338  0.2661 -4.0109
 7136SOL     OW32869   1.368   1.811  16.781  0.2209 -0.4816  0.1428
 7136SOL    HW132870   1.372   1.906  16.792  0.8060 -0.5344  0.3978
 7136SOL    HW232871   1.279   1.789  16.754  0.5522 -0.3957 -0.9993
 7137SOL     OW32872   2.468   3.400  16.053 -0.4854  0.5678 -0.2695
 7137SOL    HW132873   2.491   3.358  15.970 -0.6725  0.7103 -0.3916
 7137SOL    HW232874   2.556   3.390  16.089 -0.6886  3.2154  0.9838
 7138SOL     OW32875   4.034   4.126  15.601  0.3559  0.1883 -0.1233
 7138SOL    HW132876   3.943   4.118  15.628  0.2976 -0.0546 -0.3974
 7138SOL    HW232877   4.084   4.133  15.682  1.8965  1.1343 -1.1468
 7139SOL     OW32878   2.943   2.817   5.374  0.0810  0.0189  0.5357
 7139SOL    HW132879   3.017   2.875   5.356  1.5882 -2.5347 -1.5825
 7139SOL    HW232880   2.980   2.768   5.447 -0.3129 -0.4267  0.4363
 7140SOL     OW32881   3.851   1.520   6.396 -0.1922 -0.6140 -0.0116
 7140SOL    HW132882   3.931   1.567   6.374 -0.6771 -0.1739 -0.8443
 7140SOL    HW232883   3.827   1.490   6.308 -2.4705 -1.5344  0.9160
 7141SOL     OW32884   3.398   0.743   8.915  0.0509  0.0885  0.2296
 7141SOL    HW132885   3.324   0.684   8.926  0.0833 -0.0871 -0.4529
 7141SOL    HW232886   3.377   0.800   8.840 -0.3903  1.6221  1.5313
 7142SOL     OW32887   2.835   2.046   9.942  0.3102 -0.0102 -0.7597
 7142SOL    HW132888   2.861   2.103   9.869 -1.0406  1.5909  0.0140
 7142SOL    HW232889   2.893   2.092  10.003  1.1210 -1.5312 -0.3831
 7143SOL     OW32890   1.986   2.393  17.571 -0.2527  0.1891 -0.0366
 7143SOL    HW132891   2.010   2.475  17.614  0.1095 -0.9949  2.0762
 7143SOL    HW232892   2.066   2.342  17.586 -1.4144 -1.4308  0.7140
 7144SOL     OW32893   1.993   3.673  15.525  0.7286 -0.2083 -0.2097
 7144SOL    HW132894   1.940   3.685  15.604  1.5236 -1.2140  0.4761
 7144SOL    HW232895   2.029   3.585  15.513  1.1038  0.3287 -3.1137
 7145SOL     OW32896   1.418   1.559   5.588 -0.2868  0.4343  0.1529
 7145SOL    HW132897   1.365   1.611   5.528  0.1247 -0.9312 -1.4268
 7145SOL    HW232898   1.354   1.488   5.599  0.6846 -0.3420  0.8333
 7146SOL     OW32899   2.588   3.693  16.770  0.4426 -0.0463  0.6724
 7146SOL    HW132900   2.594   3.780  16.811  0.3581 -0.6891  2.0460
 7146SOL    HW232901   2.498   3.665  16.784  0.7822 -0.7178  1.5019
 7147SOL     OW32902   4.333   1.174  17.639 -0.3856  0.0023 -0.5307
 7147SOL    HW132903   4.301   1.111  17.574  0.3439  1.6247 -2.4739
 7147SOL    HW232904   4.285   1.136   0.011  0.2257 -1.7490 -1.0395
 7148SOL     OW32905   0.733   3.576   5.737  0.3443 -0.3931  0.6008
 7148SOL    HW132906   0.735   3.483   5.758 -1.3847  0.0168  2.5362
 7148SOL    HW232907   0.640   3.578   5.712  0.4212 -2.4583  0.1109
 7149SOL     OW32908   0.044   0.708   0.670 -0.0447  0.1172  0.2848
 7149SOL    HW132909   0.019   0.787   0.718 -1.4688 -0.7300  0.9299
 7149SOL    HW232910   4.683   0.674   0.650  0.5595 -0.5629 -1.1513
 7150SOL     OW32911   4.367   4.236  16.748 -0.0586 -0.3850  0.2435
 7150SOL    HW132912   4.428   4.163  16.760  0.4290 -0.0111 -0.0003
 7150SOL    HW232913   4.374   4.263  16.656 -2.0431 -2.6909 -0.6144
 7151SOL     OW32914   1.678   3.638   4.041 -0.1200 -0.4787  0.0078
 7151SOL    HW132915   1.602   3.613   4.094  0.8145  0.2745  1.6684
 7151SOL    HW232916   1.716   3.721   4.069 -2.1655 -0.1496  1.8185
 7152SOL     OW32917   2.765   4.164   4.961 -0.1306 -0.0219  0.4461
 7152SOL    HW132918   2.800   4.076   4.972  0.0862  0.2696  2.1869
 7152SOL    HW232919   2.736   4.162   4.870  1.6033 -0.7086 -0.0759
 7153SOL     OW32920   3.515   4.244   5.283 -0.5939 -0.0112 -0.1202
 7153SOL    HW132921   3.463   4.172   5.318  0.6912 -1.7439 -1.7683
 7153SOL    HW232922   3.598   4.200   5.264  0.0856 -0.2478  3.3057
 7154SOL     OW32923   2.828   0.646   6.439 -0.3588  0.0360 -0.1201
 7154SOL    HW132924   2.897   0.636   6.504  0.8560  1.2027 -1.2286
 7154SOL    HW232925   2.829   0.739   6.418  0.6392 -0.0351 -0.3524
 7155SOL     OW32926   1.273   4.605   7.509  0.2182 -0.1473 -0.1649
 7155SOL    HW132927   1.191   4.563   7.536  0.1294  0.6151  0.7453
 7155SOL    HW232928   1.252   4.632   7.420 -0.9760  1.9933  0.7655
 7156SOL     OW32929   1.927   1.765   7.481  0.0053  0.3997  0.1235
 7156SOL    HW132930   1.834   1.740   7.487 -0.1553  1.1727  0.9838
 7156SOL    HW232931   1.966   1.688   7.440 -0.3053  0.1592  0.2698
 7157SOL     OW32932   1.185   3.029   2.438 -0.5364 -0.0238  0.0441
 7157SOL    HW132933   1.278   3.050   2.429 -0.3132 -1.6468 -1.5493
 7157SOL    HW232934   1.184   2.952   2.381  1.4229 -0.8857  1.1923
 7158SOL     OW32935   1.207   4.431  12.990  0.1094  0.5254 -0.1319
 7158SOL    HW132936   1.211   4.483  12.910 -2.7292  1.3841  0.2986
 7158SOL    HW232937   1.293   4.451  13.028 -0.3477 -0.3272  1.3320
 7159SOL     OW32938   0.923   1.249   6.340  0.6176 -0.6611  1.3083
 7159SOL    HW132939   0.940   1.255   6.246 -0.3253  1.8703  1.3048
 7159SOL    HW232940   0.916   1.155   6.357 -1.1226 -1.1419 -2.2444
 7160SOL     OW32941   3.525   1.077  13.057 -0.2972  0.5741  0.1927
 7160SOL    HW132942   3.506   1.009  12.992  1.3326  0.3156 -0.0253
 7160SOL    HW232943   3.593   1.037  13.110 -0.1880  1.3414  0.6192
 7161SOL     OW32944   0.564   4.242   6.436 -0.3561 -0.2064 -0.6228
 7161SOL    HW132945   0.475   4.277   6.439  0.1125  0.6906  2.1802
 7161SOL    HW232946   0.599   4.257   6.523 -0.7551  0.6440 -0.6121
 7162SOL     OW32947   1.171   0.416   7.542 -0.3924  0.6755 -0.0374
 7162SOL    HW132948   1.235   0.384   7.605 -0.6765  0.9271  0.3828
 7162SOL    HW232949   1.124   0.333   7.535 -1.7820  1.2997  1.9758
 7163SOL     OW32950   3.051   0.301   8.909  0.3030 -1.0130 -0.0235
 7163SOL    HW132951   3.089   0.285   8.823  0.2731  0.0905 -0.2339
 7163SOL    HW232952   3.099   0.237   8.963 -0.5915 -0.6127  1.2451
 7164SOL     OW32953   1.306   1.471   2.840 -0.0018 -0.3454  0.4194
 7164SOL    HW132954   1.212   1.469   2.820  0.3990  1.9013 -1.6898
 7164SOL    HW232955   1.301   1.456   2.934 -2.5188  1.5223  0.5942
 7165SOL     OW32956   4.648   2.675   3.868  0.1000  0.2217 -0.5455
 7165SOL    HW132957   4.603   2.758   3.855 -0.5298 -0.0722 -0.2719
 7165SOL    HW232958   4.660   2.649   3.776 -1.1051 -0.6078 -0.4687
 7166SOL     OW32959   2.949   0.324   4.841 -0.0528 -0.4532  0.6289
 7166SOL    HW132960   2.902   0.260   4.787  0.7479  0.2953 -0.9633
 7166SOL    HW232961   2.892   0.398   4.824 -1.1396 -1.5270 -0.3625
 7167SOL     OW32962   0.639   4.678   5.907  0.4395 -0.0466 -0.3152
 7167SOL    HW132963   0.578   4.613   5.939 -0.0932  0.4309 -0.3495
 7167SOL    HW232964   0.694   4.695   5.983 -1.5294 -0.4457  1.1732
 7168SOL     OW32965   0.228   3.522  15.638  0.0880 -0.1263 -0.2358
 7168SOL    HW132966   0.323   3.516  15.650 -0.2418  0.6007  2.7030
 7168SOL    HW232967   0.212   3.610  15.671  1.3051 -1.4154  3.8124
 7169SOL     OW32968   4.656   4.619  14.985 -0.0456 -0.7631 -0.0447
 7169SOL    HW132969   4.570   4.586  14.957 -0.9956  0.2798  1.6085
 7169SOL    HW232970   4.712   4.544  14.967 -0.6683 -1.5757  1.3824
 7170SOL     OW32971   4.593   4.217   1.984  0.3492 -0.0488  0.0235
 7170SOL    HW132972   4.587   4.305   2.023  0.3966  0.6528 -1.5726
 7170SOL    HW232973   4.615   4.163   2.060 -0.7977  0.9537  1.0777
 7171SOL     OW32974   4.541   0.238   4.955  0.2437 -0.2506  0.0522
 7171SOL    HW132975   4.630   0.208   4.972  0.1929 -0.9418 -0.8722
 7171SOL    HW232976   4.553   0.244   4.860 -3.0682 -1.1057 -0.4215
 7172SOL     OW32977   4.180   1.151   6.295  0.3909 -0.1257  0.3892
 7172SOL    HW132978   4.134   1.199   6.364 -0.8717  1.0745 -1.2833
 7172SOL    HW232979   4.126   1.178   6.221 -0.5545 -1.1299  0.7270
 7173SOL     OW32980   1.109   0.724   7.485 -0.1061  0.3306 -0.1212
 7173SOL    HW132981   1.160   0.643   7.494 -0.1061  0.3848  0.4003
 7173SOL    HW232982   1.068   0.727   7.571 -0.3141  1.6933 -0.2748
 7174SOL     OW32983   0.415   3.000   3.275  0.5033  0.2309  0.1213
 7174SOL    HW132984   0.437   2.949   3.196  0.4743 -1.2683  1.0752
 7174SOL    HW232985   0.453   2.948   3.346  1.9467  0.0635 -0.7560
 7175SOL     OW32986   1.079   0.624  13.841  0.1817 -0.5903  0.0991
 7175SOL    HW132987   1.053   0.699  13.787 -0.0891 -0.0686  0.9540
 7175SOL    HW232988   1.146   0.663  13.896  1.0832 -0.1528 -1.2988
 7176SOL     OW32989   4.085   4.007  14.182  0.6065  0.2514  0.1289
 7176SOL    HW132990   4.087   3.919  14.221  0.0920 -0.1232 -0.6941
 7176SOL    HW232991   4.153   4.003  14.116  1.3556 -1.1570  0.9781
 7177SOL     OW32992   2.468   3.233  11.149 -0.7841  0.4056 -0.1669
 7177SOL    HW132993   2.470   3.265  11.239 -1.8692  3.5207 -1.2522
 7177SOL    HW232994   2.527   3.298  11.111 -1.2557  1.1424  0.3537
 7178SOL     OW32995   0.763   2.609  12.208  0.7456  0.3060 -0.0851
 7178SOL    HW132996   0.777   2.518  12.236  1.2092  0.4741  0.2176
 7178SOL    HW232997   0.802   2.608  12.121  0.2701 -0.4670 -0.2980
 7179SOL     OW32998   3.034   4.153   6.825  0.3128  0.6317  0.1989
 7179SOL    HW132999   3.003   4.177   6.912  0.1621  0.7630  0.1096
 7179SOL    HW233000   2.958   4.149   6.767  0.8756 -0.9642 -0.4433
 7180SOL     OW33001   3.602   0.243  17.686 -0.3923 -0.5078 -0.3377
 7180SOL    HW133002   3.523   0.297  17.695  0.6940  0.9187  0.5267
 7180SOL    HW233003   3.631   0.214   0.071  0.0013  1.0253  0.0461
 7181SOL     OW33004   2.083   2.253   4.829  0.7774 -0.5849  0.0143
 7181SOL    HW133005   2.163   2.210   4.860  2.0715  2.7418  1.2620
 7181SOL    HW233006   2.008   2.195   4.841 -0.9409  1.9129  1.3141
 7182SOL     OW33007   3.636   1.402   3.235  0.3136  0.0388 -0.6334
 7182SOL    HW133008   3.698   1.372   3.168 -0.6247  2.3423 -2.5260
 7182SOL    HW233009   3.690   1.370   3.308  0.9626  0.9476 -0.7180
 7183SOL     OW33010   0.206   2.862  11.224  0.6291 -0.0757  0.9373
 7183SOL    HW133011   0.278   2.912  11.186 -0.4768 -0.3122 -1.4728
 7183SOL    HW233012   0.157   2.931  11.270  1.9372  2.7324 -1.8898
 7184SOL     OW33013   0.727   0.807   2.459 -0.1609 -0.2316  0.3471
 7184SOL    HW133014   0.643   0.786   2.418 -1.8366  1.0448  3.0448
 7184SOL    HW233015   0.723   0.752   2.537 -0.7499 -2.4630 -1.2597
 7185SOL     OW33016   4.166   4.276   4.671 -0.5018  0.1822 -0.1736
 7185SOL    HW133017   4.088   4.329   4.688 -0.6342 -0.1779  0.3543
 7185SOL    HW233018   4.233   4.341   4.690 -1.0233  0.7846 -0.3757
 7186SOL     OW33019   1.855   2.325   6.595  0.3053  0.2713  0.5135
 7186SOL    HW133020   1.875   2.386   6.666 -0.4432  1.3869 -0.2417
 7186SOL    HW233021   1.776   2.364   6.559 -0.1819 -0.0476  1.2541
 7187SOL     OW33022   0.071   2.352   8.905 -0.2294  0.3116 -0.2136
 7187SOL    HW133023   0.091   2.366   8.998 -4.1206 -0.8842  0.7744
 7187SOL    HW233024   0.081   2.257   8.908 -1.5062  0.1985  0.6337
 7188SOL     OW33025   2.565   4.076   6.232  0.0514 -0.2017 -0.5968
 7188SOL    HW133026   2.570   4.025   6.151  0.0582 -2.4358  0.8105
 7188SOL    HW233027   2.565   4.165   6.197  0.2533  0.5002  1.2330
 7189SOL     OW33028   2.315   3.658   4.071 -0.2337 -0.0772 -0.3586
 7189SOL    HW133029   2.344   3.716   4.142 -0.3129 -0.0107 -0.3795
 7189SOL    HW233030   2.373   3.694   4.003  0.0835 -1.3636 -0.7558
 7190SOL     OW33031   4.140   3.157   1.603  0.5644  0.2817 -0.6418
 7190SOL    HW133032   4.203   3.194   1.541 -0.6134  0.5001 -1.6922
 7190SOL    HW233033   4.060   3.200   1.574  0.0855 -1.4219 -1.8930
 7191SOL     OW33034   4.007   3.029   6.639 -0.5385 -0.2893 -0.7285
 7191SOL    HW133035   4.040   3.042   6.550 -0.1765  1.4395 -0.3412
 7191SOL    HW233036   4.023   3.115   6.678  3.2019 -1.7506  0.9214
 7192SOL     OW33037   4.172   3.488   2.040 -0.3896 -0.2554  0.4880
 7192SOL    HW133038   4.098   3.548   2.046 -0.5368 -0.7856  4.0177
 7192SOL    HW233039   4.167   3.478   1.945  1.3429 -0.0730  0.3700
 7193SOL     OW33040   0.005   1.563   8.267  0.2706 -0.6007  0.3393
 7193SOL    HW133041   4.676   1.485   8.268  2.0347 -1.8173 -0.0569
 7193SOL    HW233042   0.029   1.580   8.358 -1.3650 -0.2320  0.6989
 7194SOL     OW33043   1.022   1.898  14.859  0.0205 -0.1272  0.2382
 7194SOL    HW133044   1.033   1.803  14.861  0.2146 -0.1250 -0.6345
 7194SOL    HW233045   0.928   1.901  14.841  0.1338  1.7122 -0.1164
 7195SOL     OW33046   0.050   1.491   5.985  0.1822  0.1761  0.2100
 7195SOL    HW133047   0.020   1.512   6.074 -2.3429 -0.7792 -0.4114
 7195SOL    HW233048   0.017   1.560   5.927 -0.8124  2.1499  3.1165
 7196SOL     OW33049   2.882   3.192   2.535  0.1624  0.2241 -0.3566
 7196SOL    HW133050   2.923   3.183   2.449  0.3530  0.0198 -0.2425
 7196SOL    HW233051   2.790   3.176   2.512 -0.3130  0.4091  1.3907
 7197SOL     OW33052   2.256   4.589   4.991 -0.1376 -0.6952 -1.0450
 7197SOL    HW133053   2.266   4.604   4.897 -0.7407  0.4982 -0.9215
 7197SOL    HW233054   2.230   4.497   4.995  2.8928 -1.4124  2.8692
 7198SOL     OW33055   1.374   1.959  10.959  0.2345 -0.7514  0.0493
 7198SOL    HW133056   1.288   1.997  10.943 -0.0060 -0.5439  1.8239
 7198SOL    HW233057   1.415   2.019  11.022 -1.1152  1.1468 -0.8881
 7199SOL     OW33058   3.096   3.276   5.127  0.1780  0.3582  0.5615
 7199SOL    HW133059   3.142   3.348   5.170  0.7739  0.4045 -0.1633
 7199SOL    HW233060   3.078   3.213   5.197 -0.0029 -1.2958 -0.9769
 7200SOL     OW33061   4.558   2.309  10.846  0.3292  0.0506 -0.3365
 7200SOL    HW133062   4.490   2.329  10.910  0.3086 -0.5888 -0.1636
 7200SOL    HW233063   4.624   2.359  10.894 -0.1686  0.6538 -0.2843
 7201SOL     OW33064   0.513   3.545  15.628  0.0799 -0.9474 -0.2584
 7201SOL    HW133065   0.499   3.451  15.636  1.1793 -0.9547  1.4740
 7201SOL    HW233066   0.603   3.556  15.661 -1.2123  0.0129  2.9215
 7202SOL     OW33067   3.304   0.034   9.615  0.1023  0.1612  0.8745
 7202SOL    HW133068   3.269   0.037   9.704 -2.0337 -0.7740  0.0546
 7202SOL    HW233069   3.370   4.691   9.627  0.9329  0.6243 -1.0798
 7203SOL     OW33070   0.775   0.709  14.926  0.1170 -0.2956 -0.1043
 7203SOL    HW133071   0.775   0.768  14.851 -2.9178 -1.1601 -0.7937
 7203SOL    HW233072   0.682   0.684  14.926 -0.7603  3.0658  2.9901
 7204SOL     OW33073   1.810   3.151   6.476  0.0340  0.0461  0.4441
 7204SOL    HW133074   1.765   3.136   6.394 -0.2265 -1.0069  0.7774
 7204SOL    HW233075   1.903   3.152   6.456 -0.2429 -0.8375 -0.8308
 7205SOL     OW33076   0.795   0.745   3.786 -0.1210 -0.6111 -0.2390
 7205SOL    HW133077   0.780   0.839   3.799 -1.2502 -0.9494  0.8357
 7205SOL    HW233078   0.709   0.706   3.800  0.4110 -0.9874  1.8812
 7206SOL     OW33079   4.053   3.089   9.389  0.3844 -0.3082 -0.0953
 7206SOL    HW133080   3.972   3.086   9.440 -0.2454 -1.0499 -1.1514
 7206SOL    HW233081   4.048   3.181   9.363  1.1071 -0.4177 -0.6453
 7207SOL     OW33082   1.278   0.580   6.783 -0.0975  0.5607  0.2892
 7207SOL    HW133083   1.254   0.672   6.776  0.0362  0.7237  1.8265
 7207SOL    HW233084   1.222   0.540   6.717  0.0400  0.7816  0.0362
 7208SOL     OW33085   1.675   4.137   8.041  0.0873 -0.3709  0.0476
 7208SOL    HW133086   1.633   4.097   8.118 -0.7298 -0.2624 -0.3399
 7208SOL    HW233087   1.687   4.062   7.982 -0.2078 -0.8782  0.6325
 7209SOL     OW33088   2.683   3.309  15.338 -0.1387  0.2804  0.2994
 7209SOL    HW133089   2.753   3.368  15.365  1.8299 -1.6826 -0.5140
 7209SOL    HW233090   2.622   3.372  15.299 -1.6597 -0.5895  1.2713
 7210SOL     OW33091   3.775   3.327  15.497  0.3102  0.1040  0.2443
 7210SOL    HW133092   3.810   3.289  15.417  0.8189  0.5184  0.2675
 7210SOL    HW233093   3.842   3.313  15.565  1.8903  0.9515 -1.1178
 7211SOL     OW33094   4.571   1.906   5.041 -0.4354 -0.2215 -0.6053
 7211SOL    HW133095   4.545   1.995   5.067 -0.0841  0.3100 -2.0463
 7211SOL    HW233096   4.509   1.854   5.092 -1.4570  0.9672 -0.6274
 7212SOL     OW33097   3.102   2.013   7.423 -0.7132 -0.2404 -0.3827
 7212SOL    HW133098   3.023   1.991   7.374 -1.7230  2.2034  0.1174
 7212SOL    HW233099   3.154   1.934   7.409 -1.9160 -0.9969 -0.5604
 7213SOL     OW33100   4.161   1.947   8.483  0.0218  0.8900 -0.0844
 7213SOL    HW133101   4.071   1.979   8.487  0.4732  2.0823  0.4640
 7213SOL    HW233102   4.163   1.914   8.393 -2.6384 -0.2718  0.2836
 7214SOL     OW33103   3.365   3.547   2.730  0.2485  0.0218  0.5215
 7214SOL    HW133104   3.425   3.609   2.688  0.6187 -1.9091 -1.8043
 7214SOL    HW233105   3.425   3.489   2.776  2.6392 -0.7333 -3.6056
 7215SOL     OW33106   0.989   1.543  16.571  0.4323  0.4108  0.4173
 7215SOL    HW133107   0.967   1.464  16.522 -1.2645 -0.5407  2.6723
 7215SOL    HW233108   0.904   1.577  16.601  0.2257 -2.0316  2.6344
 7216SOL     OW33109   2.573   0.390   4.534  0.1258  0.2152  0.3533
 7216SOL    HW133110   2.606   0.363   4.620  0.9242 -1.3929 -0.4451
 7216SOL    HW233111   2.656   0.389   4.485  0.2106 -2.6902  0.5143
 7217SOL     OW33112   3.361   2.881  13.568  0.1965  0.0438 -0.4214
 7217SOL    HW133113   3.347   2.972  13.543  0.5760 -0.3694 -2.1718
 7217SOL    HW233114   3.284   2.839  13.531  0.6828 -2.2399  1.1810
 7218SOL     OW33115   3.742   1.859   4.619  0.1899 -0.1311  0.0058
 7218SOL    HW133116   3.833   1.836   4.601  0.8859  1.5142  1.3981
 7218SOL    HW233117   3.699   1.802   4.556  1.9796 -1.9815  0.4670
 7219SOL     OW33118   0.090   2.111   6.397 -0.1904 -0.0058 -0.1166
 7219SOL    HW133119   0.137   2.031   6.419  0.5103  0.7926  1.2804
 7219SOL    HW233120   0.019   2.072   6.346 -0.7840  1.4184 -0.3777
 7220SOL     OW33121   0.079   1.203  16.207 -0.2398  0.3368  0.5591
 7220SOL    HW133122   0.074   1.265  16.280 -1.1089 -1.1537  1.7625
 7220SOL    HW233123   0.123   1.124  16.238 -2.7476 -0.9352  0.8182
 7221SOL     OW33124   1.265   1.409   5.098 -0.6834 -0.0916  0.2988
 7221SOL    HW133125   1.213   1.331   5.117 -2.3781  0.2789 -2.8437
 7221SOL    HW233126   1.336   1.382   5.156 -0.9364  0.7454  0.9909
 7222SOL     OW33127   4.660   0.700   3.911  0.5836  0.1239 -0.1524
 7222SOL    HW133128   4.677   0.766   3.978 -0.5213 -0.3056  0.5487
 7222SOL    HW233129   0.019   0.701   3.865  0.4233  1.2475 -0.4029
 7223SOL     OW33130   4.302   2.209   7.232 -0.0279 -0.1601 -0.6411
 7223SOL    HW133131   4.287   2.208   7.138 -0.6392 -0.6845 -0.5387
 7223SOL    HW233132   4.343   2.124   7.249  1.4036  1.1071  2.2547
 7224SOL     OW33133   4.171   2.941   9.611  0.2110  0.0289  0.0612
 7224SOL    HW133134   4.263   2.940   9.584  0.0626  0.1566 -0.4432
 7224SOL    HW233135   4.136   3.003   9.548  0.7798  0.7116  0.4159
 7225SOL     OW33136   0.755   1.273  12.075 -0.1388 -0.0095 -0.2651
 7225SOL    HW133137   0.759   1.192  12.025 -3.0616  0.7033 -1.6722
 7225SOL    HW233138   0.755   1.231  12.161 -1.0126  1.5669  0.5019
 7226SOL     OW33139   0.325   2.227  10.105 -0.0158  0.6013  0.1637
 7226SOL    HW133140   0.252   2.284  10.080 -1.2798 -1.2785 -0.4323
 7226SOL    HW233141   0.291   2.142  10.078  1.0315  0.0421  0.6138
 7227SOL     OW33142   0.929   1.061   3.635  0.1272 -0.2510 -0.3612
 7227SOL    HW133143   0.896   1.073   3.724  0.8275  3.2494 -0.5853
 7227SOL    HW233144   0.978   0.979   3.647  2.5896  1.4184  1.0198
 7228SOL     OW33145   0.591   1.900   1.659  0.1838 -0.9288 -0.0101
 7228SOL    HW133146   0.609   1.813   1.623  0.9709 -0.6471 -0.2824
 7228SOL    HW233147   0.625   1.962   1.595 -0.4836 -0.6762 -0.1246
 7229SOL     OW33148   2.420   1.530   2.498 -0.2137  0.3476  0.1349
 7229SOL    HW133149   2.478   1.463   2.460 -1.5123  0.1979 -1.6130
 7229SOL    HW233150   2.409   1.486   2.582 -0.9201  1.5640  0.6617
 7230SOL     OW33151   0.310   4.134   8.417  0.1378  0.3086 -0.1471
 7230SOL    HW133152   0.383   4.185   8.382  0.9151  0.0875  1.1954
 7230SOL    HW233153   0.244   4.203   8.409 -0.4804 -0.7077 -3.7974
 7231SOL     OW33154   4.259   1.423   7.181  0.5844  0.7881 -0.2139
 7231SOL    HW133155   4.308   1.396   7.102 -1.2526 -0.6777 -0.8573
 7231SOL    HW233156   4.302   1.506   7.201 -0.6871  1.0849  1.2750
 7232SOL     OW33157   0.911   0.801   6.894  0.3540  0.5629 -0.2957
 7232SOL    HW133158   0.916   0.711   6.863 -4.3309 -0.0488  0.7304
 7232SOL    HW233159   0.835   0.842   6.852 -0.6459 -0.4583  0.5092
 7233SOL     OW33160   3.276   2.416  15.856 -0.3219  0.1640 -0.1987
 7233SOL    HW133161   3.352   2.397  15.802 -0.2266 -0.0910  0.0265
 7233SOL    HW233162   3.210   2.438  15.790 -0.0649  1.1319 -0.1338
 7234SOL     OW33163   1.522   2.173   4.023  0.3571 -0.2250  0.3615
 7234SOL    HW133164   1.560   2.191   4.110  0.7376 -1.8936  0.5436
 7234SOL    HW233165   1.488   2.256   3.990  0.5128 -0.9098 -1.4790
 7235SOL     OW33166   3.447   0.805   0.223  0.1766 -0.1541 -0.0973
 7235SOL    HW133167   3.386   0.862   0.269 -0.7563  0.2335 -1.8228
 7235SOL    HW233168   3.469   0.855   0.144 -1.0298 -0.4655 -0.6263
 7236SOL     OW33169   3.403   3.495   6.006 -0.4038  0.6098 -0.4521
 7236SOL    HW133170   3.437   3.573   6.049 -0.7328  0.9445 -0.8045
 7236SOL    HW233171   3.312   3.523   5.994 -0.1785  0.3201 -2.7535
 7237SOL     OW33172   3.071   2.214   3.400 -0.4515  0.1275 -0.1749
 7237SOL    HW133173   3.065   2.124   3.433 -2.1639  1.0359  2.0117
 7237SOL    HW233174   3.061   2.262   3.483 -1.1007  0.5068 -0.4780
 7238SOL     OW33175   0.147   3.014   7.171  0.3524  0.3471 -0.1074
 7238SOL    HW133176   0.058   3.025   7.203 -0.4869  2.8915 -3.2263
 7238SOL    HW233177   0.145   3.080   7.102 -1.1802 -0.1094 -0.4975
 7239SOL     OW33178   3.097   3.359   3.031  0.4608  0.0091  0.0354
 7239SOL    HW133179   3.190   3.380   3.041  0.9867 -2.2366 -0.2394
 7239SOL    HW233180   3.094   3.331   2.940  1.0149 -0.3546  0.1308
 7240SOL     OW33181   0.080   1.052   7.019  0.0963  0.1825 -0.5676
 7240SOL    HW133182   0.034   1.069   7.101 -1.0331 -1.7242 -0.8149
 7240SOL    HW233183   0.173   1.063   7.043 -0.2032 -1.5095  1.3300
 7241SOL     OW33184   3.297   2.812   5.657  0.2012 -0.1373  0.0184
 7241SOL    HW133185   3.272   2.902   5.677  0.7908  0.0789 -0.2454
 7241SOL    HW233186   3.328   2.829   5.568  1.3944 -2.0333  0.0807
 7242SOL     OW33187   1.727   1.186   3.372  0.1868 -0.0563  0.5851
 7242SOL    HW133188   1.651   1.242   3.358  0.9485  0.9042  0.3303
 7242SOL    HW233189   1.734   1.134   3.291  0.5267  2.1234 -0.7914
 7243SOL     OW33190   2.721   1.535   0.685 -0.1768  0.3545  0.0306
 7243SOL    HW133191   2.678   1.455   0.654 -0.5214  0.6443 -0.2440
 7243SOL    HW233192   2.794   1.498   0.735  0.8491 -0.3964 -2.0063
 7244SOL     OW33193   2.951   0.211   3.535  0.0845  0.3119 -0.1462
 7244SOL    HW133194   3.003   0.226   3.457  1.5852 -1.1724  0.5638
 7244SOL    HW233195   3.012   0.156   3.585  2.7794  3.4414 -0.0635
 7245SOL     OW33196   2.261   0.380   9.881 -0.4354 -0.0329 -0.3998
 7245SOL    HW133197   2.184   0.413   9.927  0.6406 -0.4263  1.7046
 7245SOL    HW233198   2.312   0.461   9.876 -0.0219 -0.2544  0.1479
 7246SOL     OW33199   0.699   1.473   5.009  0.5112  0.0361  0.0559
 7246SOL    HW133200   0.642   1.545   5.036 -0.8712 -0.8017 -0.5980
 7246SOL    HW233201   0.636   1.405   4.985 -0.8359  2.0101 -1.9997
 7247SOL     OW33202   3.358   4.661   8.942  0.2527  0.1812  0.6350
 7247SOL    HW133203   3.439   4.706   8.918 -0.6153  0.5289 -1.6617
 7247SOL    HW233204   3.398   4.612   9.014  0.5655  1.3720  1.2673
 7248SOL     OW33205   3.268   1.086   2.444 -0.0157  0.3476 -0.2748
 7248SOL    HW133206   3.315   1.030   2.382 -0.5810 -3.1979  2.4676
 7248SOL    HW233207   3.329   1.159   2.445  0.3737  0.0445 -1.3456
 7249SOL     OW33208   2.749   1.546   3.983 -0.1993  0.5372  0.0776
 7249SOL    HW133209   2.817   1.538   3.916 -1.1909  0.5881 -0.9367
 7249SOL    HW233210   2.679   1.518   3.924  0.9845 -0.3334 -0.9157
 7250SOL     OW33211   4.310   3.332   6.538  0.0054  0.2339 -0.5445
 7250SOL    HW133212   4.314   3.420   6.576 -0.1740  0.7460 -1.7141
 7250SOL    HW233213   4.234   3.308   6.591 -0.0907  0.5469 -0.5403
 7251SOL     OW33214   0.369   2.213   1.932  0.1675 -0.2787  0.3372
 7251SOL    HW133215   0.439   2.153   1.906  0.3953  0.4454 -0.7285
 7251SOL    HW233216   0.312   2.156   1.983  0.2698  0.9209  1.7992
 7252SOL     OW33217   0.235   3.676  14.239 -0.2264 -0.2168  1.0267
 7252SOL    HW133218   0.203   3.653  14.151  0.0890  0.0685  0.8371
 7252SOL    HW233219   0.314   3.725  14.214  0.4821 -2.4207 -1.1330
 7253SOL     OW33220   3.802   2.890  14.875  0.3743 -0.4753 -0.3266
 7253SOL    HW133221   3.708   2.877  14.879  0.3363  0.3785  1.5435
 7253SOL    HW233222   3.825   2.811  14.926 -1.4098 -1.3074 -0.8253
 7254SOL     OW33223   1.535   2.416   0.907 -0.1298  0.1221 -0.4237
 7254SOL    HW133224   1.574   2.438   0.822  0.9727 -0.3734 -0.0432
 7254SOL    HW233225   1.496   2.496   0.942  1.9412  1.7769 -1.9072
 7255SOL     OW33226   2.925   1.826   5.829 -0.4279  0.5563 -0.8139
 7255SOL    HW133227   2.992   1.774   5.874  1.0718  2.5154 -0.7909
 7255SOL    HW233228   2.901   1.766   5.758 -0.2353  0.9641 -1.2253
 7256SOL     OW33229   2.290   0.528  15.620 -0.1662 -0.5860 -0.1092
 7256SOL    HW133230   2.222   0.579  15.665 -0.4728  0.3722 -1.6649
 7256SOL    HW233231   2.366   0.585  15.608 -1.5110  1.7963  2.5029
 7257SOL     OW33232   4.474   2.604   2.617  0.0757 -0.3003 -0.5034
 7257SOL    HW133233   4.544   2.595   2.681  2.1346  1.4990 -2.5136
 7257SOL    HW233234   4.468   2.697   2.597  0.7821 -0.3125 -0.7480
 7258SOL     OW33235   1.479   2.693   1.606 -0.5404  0.1224 -0.4824
 7258SOL    HW133236   1.484   2.775   1.558 -1.2276 -0.2196 -1.1330
 7258SOL    HW233237   1.388   2.671   1.587 -1.0725  2.0137 -0.0665
 7259SOL     OW33238   2.819   3.920   1.256  0.0644 -0.3568 -0.3653
 7259SOL    HW133239   2.734   3.943   1.220 -0.1369  1.6381  1.3740
 7259SOL    HW233240   2.866   3.992   1.213  0.0932  0.0258  0.3090
 7260SOL     OW33241   0.633   0.236   6.220 -0.6041  0.7363 -0.7483
 7260SOL    HW133242   0.583   0.203   6.295  0.6460  0.1376 -0.1784
 7260SOL    HW233243   0.580   0.205   6.147 -0.9049 -0.3406 -0.0688
 7261SOL     OW33244   2.520   4.044  12.757  0.5311 -0.0140 -0.4423
 7261SOL    HW133245   2.593   4.034  12.819  0.6936  0.2566 -0.5910
 7261SOL    HW233246   2.459   4.091  12.814  1.7054  1.7291 -0.6306
 7262SOL     OW33247   0.347   0.983   5.056  0.6485  0.2819  0.0770
 7262SOL    HW133248   0.282   0.978   5.126  0.7276  3.2031  0.3299
 7262SOL    HW233249   0.418   1.012   5.114 -0.6491  0.9427  1.3324
 7263SOL     OW33250   3.904   4.072   6.498  0.0133  0.0805  0.2418
 7263SOL    HW133251   3.894   4.066   6.403  0.4231 -2.4085  0.3633
 7263SOL    HW233252   3.863   3.990   6.523 -2.0639  1.4363  1.2785
 7264SOL     OW33253   3.548   1.799  11.712 -0.0055  0.1448  0.1442
 7264SOL    HW133254   3.558   1.847  11.631 -1.7299 -2.1093 -1.4088
 7264SOL    HW233255   3.548   1.707  11.686  3.1429  0.0319  0.6068
 7265SOL     OW33256   4.426   3.860   9.272 -0.4772 -0.4835  0.2080
 7265SOL    HW133257   4.416   3.764   9.268 -0.0029 -0.5911  1.4831
 7265SOL    HW233258   4.388   3.886   9.188  1.5805  0.5864 -0.3769
 7266SOL     OW33259   2.648   1.222   3.585 -0.2891  0.1559 -0.0481
 7266SOL    HW133260   2.586   1.168   3.537  2.1360 -1.4122 -1.3972
 7266SOL    HW233261   2.589   1.251   3.654  1.0778  1.8496  0.4158
 7267SOL     OW33262   2.864   1.054   3.650 -0.3983  0.2275 -0.3606
 7267SOL    HW133263   2.803   1.022   3.716  0.2791 -0.2527  0.0313
 7267SOL    HW233264   2.817   1.131   3.617 -1.2748  0.8234  2.2665
 7268SOL     OW33265   3.460   4.463   4.091  0.1611  0.2655  0.4079
 7268SOL    HW133266   3.463   4.541   4.146 -0.0730  0.3704  0.2733
 7268SOL    HW233267   3.369   4.462   4.062  0.8248  2.4263 -1.7931
 7269SOL     OW33268   4.219   3.131  17.058 -0.2261 -0.5718 -0.2646
 7269SOL    HW133269   4.235   3.182  16.979  0.4543 -1.2554 -0.5709
 7269SOL    HW233270   4.144   3.175  17.097 -0.0762  0.7824 -1.5106
 7270SOL     OW33271   1.048   4.350   5.729 -0.3295 -0.4804  0.0900
 7270SOL    HW133272   1.065   4.442   5.710 -1.5017  0.0924  1.7258
 7270SOL    HW233273   1.095   4.302   5.662  0.8739  0.8759 -0.0451
 7271SOL     OW33274   1.937   1.501   5.189  0.0227  0.4969  0.4763
 7271SOL    HW133275   1.987   1.569   5.233 -1.9644  0.7265  2.4006
 7271SOL    HW233276   1.912   1.429   5.248 -1.4669 -0.7317 -1.6586
 7272SOL     OW33277   1.023   2.904   8.621  0.2209 -0.0927 -0.1114
 7272SOL    HW133278   0.943   2.856   8.645 -0.3786  1.4147  0.9204
 7272SOL    HW233279   1.092   2.847   8.654 -0.5299 -1.4393 -0.8904
 7273SOL     OW33280   4.288   1.467   5.501 -0.8760 -0.5370  0.3426
 7273SOL    HW133281   4.251   1.485   5.415  0.5974  0.6609 -0.0395
 7273SOL    HW233282   4.371   1.422   5.488 -0.6376  0.4695 -1.5405
 7274SOL     OW33283   3.097   4.067   4.360 -0.2751  0.1310 -0.8128
 7274SOL    HW133284   3.052   4.151   4.375 -0.4210 -0.0109 -0.4695
 7274SOL    HW233285   3.017   4.021   4.335  0.7677 -1.0984 -1.8739
 7275SOL     OW33286   0.796   2.268   5.405  0.3602 -0.1817  0.5440
 7275SOL    HW133287   0.880   2.237   5.371  0.3745  0.5443 -0.0798
 7275SOL    HW233288   0.828   2.353   5.436  0.9339 -0.9952  2.2153
 7276SOL     OW33289   4.162   3.920   2.356 -0.9429  0.6438 -0.0345
 7276SOL    HW133290   4.198   3.833   2.377 -0.1886  0.9196 -0.2003
 7276SOL    HW233291   4.151   3.972   2.435  1.7732  0.4142  0.5140
 7277SOL     OW33292   0.248   3.315   5.598 -0.5086  0.3003 -0.4061
 7277SOL    HW133293   0.237   3.240   5.656  0.6921 -0.2281 -0.8715
 7277SOL    HW233294   0.200   3.383   5.646 -1.2838 -0.6654  0.1803
 7278SOL     OW33295   3.186   2.608   7.036 -0.4143  0.3987  0.2877
 7278SOL    HW133296   3.148   2.593   6.950 -0.6471 -1.7937  0.7542
 7278SOL    HW233297   3.108   2.578   7.083 -0.0093  1.5428  1.7153
 7279SOL     OW33298   0.696   1.083   8.044 -0.1455 -0.1488 -0.1005
 7279SOL    HW133299   0.749   1.132   7.982  2.8862 -3.5838 -0.2157
 7279SOL    HW233300   0.624   1.145   8.054  0.5728  0.7250 -0.4142
 7280SOL     OW33301   1.197   4.347  15.385  0.4841  0.7079  0.1835
 7280SOL    HW133302   1.219   4.271  15.440 -0.3419 -0.1804 -0.7079
 7280SOL    HW233303   1.229   4.326  15.297  0.9779 -2.2720  1.0471
 7281SOL     OW33304   2.159   3.641  10.682  0.2946 -0.1669  0.2895
 7281SOL    HW133305   2.209   3.723  10.685 -1.9652  1.2782 -1.8332
 7281SOL    HW233306   2.210   3.590  10.744  2.6815  0.2733 -1.2871
 7282SOL     OW33307   1.940   1.031  16.559  0.7627  0.3711 -0.2239
 7282SOL    HW133308   1.969   0.954  16.608 -2.7791 -0.4750  0.5119
 7282SOL    HW233309   1.925   0.994  16.473 -3.4776 -1.2771  1.2201
 7283SOL     OW33310   2.463   1.589   9.925  0.3107 -0.2227  0.2347
 7283SOL    HW133311   2.520   1.633   9.862  0.1163 -1.6777 -0.9487
 7283SOL    HW233312   2.422   1.668   9.960 -2.7044 -0.8316 -1.8782
 7284SOL     OW33313   1.793   0.135   2.835 -0.7487 -0.0769 -0.1407
 7284SOL    HW133314   1.726   0.203   2.846  0.9810  1.4203  1.1067
 7284SOL    HW233315   1.785   0.086   2.917 -1.4914  0.2801  0.0054
 7285SOL     OW33316   3.147   4.519   9.684 -0.2916  0.7419  0.2955
 7285SOL    HW133317   3.239   4.497   9.667 -0.6987 -0.8928  0.2204
 7285SOL    HW233318   3.161   4.578   9.759  2.1584  2.0598 -1.1910
 7286SOL     OW33319   2.460   3.040   8.118 -0.0755  0.5275  0.1645
 7286SOL    HW133320   2.547   3.062   8.151 -0.4635  0.4825  1.2112
 7286SOL    HW233321   2.472   3.080   8.032 -0.7993 -0.1958 -0.2688
 7287SOL     OW33322   3.399   4.483   1.266  0.2151  0.2240  0.0952
 7287SOL    HW133323   3.402   4.568   1.223 -0.8219 -0.0624 -0.5239
 7287SOL    HW233324   3.386   4.506   1.358 -0.6915 -0.1220  0.0527
 7288SOL     OW33325   2.685   4.549   7.965 -0.1431 -0.3731  0.0052
 7288SOL    HW133326   2.714   4.509   8.047 -1.5285  1.8729  1.5878
 7288SOL    HW233327   2.765   4.547   7.912  0.9773  0.7100  1.6799
 7289SOL     OW33328   2.113   1.123  14.117 -0.5198  0.2036  0.3844
 7289SOL    HW133329   2.180   1.121  14.048  0.6657 -0.0294  1.5569
 7289SOL    HW233330   2.066   1.203  14.093 -2.0178  0.0957  2.9916
 7290SOL     OW33331   0.698   1.322   8.690  0.0854  0.2648  0.2513
 7290SOL    HW133332   0.785   1.319   8.729 -0.4688  1.6036  1.5868
 7290SOL    HW233333   0.721   1.347   8.600 -3.3719  1.2431 -0.3609
 7291SOL     OW33334   4.710   3.083   5.653 -0.3937  0.6760  0.7829
 7291SOL    HW133335   0.050   3.097   5.721  1.6463 -0.6049 -0.8976
 7291SOL    HW233336   4.632   3.099   5.706 -0.9113  1.2259 -0.1596
 7292SOL     OW33337   3.145   0.860  12.575  0.2385 -0.1622 -0.8770
 7292SOL    HW133338   3.087   0.894  12.508  0.6677  1.8177 -0.2412
 7292SOL    HW233339   3.080   0.820  12.632 -1.1638  3.5855  0.1636
 7293SOL     OW33340   0.493   3.786   0.031  0.1173 -0.9688 -0.0359
 7293SOL    HW133341   0.438   3.712   0.053 -1.4261 -0.1068 -1.0028
 7293SOL    HW233342   0.576   3.764   0.073  0.3132  1.7179  1.0304
 7294SOL     OW33343   2.215   2.463   4.312  0.0696 -0.6154  0.9060
 7294SOL    HW133344   2.199   2.549   4.275  1.1210 -0.8894 -0.1924
 7294SOL    HW233345   2.240   2.413   4.235 -0.9320  0.7683 -0.2945
 7295SOL     OW33346   1.721   0.556   3.769  0.1341 -0.4380 -0.1515
 7295SOL    HW133347   1.726   0.650   3.756 -1.1327 -0.3976 -0.4082
 7295SOL    HW233348   1.724   0.541   3.864 -2.2059  1.5726  0.2477
 7296SOL     OW33349   2.406   1.889   1.976 -0.7920  0.1756  0.0989
 7296SOL    HW133350   2.327   1.844   2.007 -1.3049  1.6337  0.8916
 7296SOL    HW233351   2.363   1.964   1.934 -1.5572 -0.0458  0.4791
 7297SOL     OW33352   2.181   0.856   9.753 -0.1860 -0.7362 -0.0708
 7297SOL    HW133353   2.178   0.831   9.661  0.7918  1.3490 -0.6782
 7297SOL    HW233354   2.266   0.900   9.758 -1.1801  1.2165 -0.1714
 7298SOL     OW33355   0.106   2.338   3.060  0.6370 -0.6992 -0.0627
 7298SOL    HW133356   0.197   2.360   3.082  0.5567 -2.2557  1.8691
 7298SOL    HW233357   0.117   2.280   2.985  0.6290 -0.5492 -0.1817
 7299SOL     OW33358   3.827   0.314  15.679  0.5878 -0.0698 -0.2526
 7299SOL    HW133359   3.835   0.364  15.598 -2.2645  1.0803  0.1852
 7299SOL    HW233360   3.876   0.376  15.734  2.9266 -2.0312 -0.0986
 7300SOL     OW33361   3.928   3.019   9.127 -0.5347 -0.6985  0.0376
 7300SOL    HW133362   3.979   3.071   9.188 -0.3177  0.0121 -0.7549
 7300SOL    HW233363   3.994   2.980   9.069  1.6417  1.2328  1.2598
 7301SOL     OW33364   0.582   0.047   2.667 -0.1108  0.6175  0.3604
 7301SOL    HW133365   0.577   0.130   2.715  1.6714  0.0096  1.6122
 7301SOL    HW233366   0.636   0.065   2.590  1.1317  1.8337  1.5154
 7302SOL     OW33367   1.894   0.017   5.318  0.2071 -0.5866  0.2796
 7302SOL    HW133368   1.914   0.031   5.226 -0.5705 -1.0558  0.0390
 7302SOL    HW233369   1.827   0.085   5.326 -1.1539 -2.2663  3.3204
 7303SOL     OW33370   2.579   4.625   1.796  0.2854 -0.2891  0.6260
 7303SOL    HW133371   2.549   4.620   1.705  1.0268  1.9221  0.2651
 7303SOL    HW233372   2.585   4.530   1.806  1.0689 -0.4179 -1.1725
 7304SOL     OW33373   2.939   2.489   0.317  0.3241 -0.3658  0.3556
 7304SOL    HW133374   2.882   2.434   0.370 -0.8717 -0.6668 -1.2473
 7304SOL    HW233375   3.006   2.481   0.385  1.2779 -0.3441 -0.5760
 7305SOL     OW33376   0.295   1.706   3.852  0.4783  0.1822  0.3974
 7305SOL    HW133377   0.314   1.715   3.946  1.4521  1.3271  0.0947
 7305SOL    HW233378   0.380   1.675   3.821 -1.2084 -1.5325 -2.4781
 7306SOL     OW33379   3.858   3.050   0.869 -0.0991 -0.7768 -0.0973
 7306SOL    HW133380   3.901   3.047   0.784 -0.1393  0.2340 -0.1510
 7306SOL    HW233381   3.764   3.063   0.853 -0.1033 -0.9511 -0.2147
 7307SOL     OW33382   0.408   3.278   2.635 -0.0941  0.5650 -0.0179
 7307SOL    HW133383   0.381   3.282   2.727 -0.0738  1.0368 -0.0343
 7307SOL    HW233384   0.503   3.268   2.641  0.1019  1.9780 -0.8446
 7308SOL     OW33385   3.837   0.189   0.284  0.0425  0.0907  0.1937
 7308SOL    HW133386   3.828   0.212   0.377 -0.7187  0.1647  0.0983
 7308SOL    HW233387   3.839   0.273   0.238  0.9250  0.3310  0.6612
 7309SOL     OW33388   1.769   0.873   6.822 -0.0699  0.1359  0.5132
 7309SOL    HW133389   1.853   0.866   6.777  0.2172  1.1484  0.8833
 7309SOL    HW233390   1.802   0.921   6.898  0.4589  0.2411  0.2182
 7310SOL     OW33391   0.143   1.357   1.339  0.4348 -0.0184  0.0817
 7310SOL    HW133392   0.139   1.275   1.289 -0.6974 -0.6047  1.1331
 7310SOL    HW233393   0.233   1.354   1.372 -0.2172  0.2764  1.8537
 7311SOL     OW33394   3.736   4.460   8.693 -0.1550 -0.5552  0.2461
 7311SOL    HW133395   3.652   4.443   8.735 -1.1785 -1.1988 -2.0678
 7311SOL    HW233396   3.801   4.428   8.756 -0.8383  1.7688  2.0800
 7312SOL     OW33397   1.329   1.539   3.384 -0.4307  0.4308  0.1450
 7312SOL    HW133398   1.249   1.562   3.430 -0.3993  0.6972  0.0706
 7312SOL    HW233399   1.347   1.627   3.350  0.7823  0.9247  2.0140
 7313SOL     OW33400   1.700   2.544   4.333  0.4648  0.3603 -0.5040
 7313SOL    HW133401   1.635   2.496   4.385 -1.0366  3.1673  0.1813
 7313SOL    HW233402   1.747   2.469   4.297 -1.7760 -1.2097 -0.2018
 7314SOL     OW33403   1.827   3.264   2.283 -0.3079  0.2702  0.5923
 7314SOL    HW133404   1.879   3.213   2.346  1.3897  0.2150 -0.8396
 7314SOL    HW233405   1.854   3.353   2.307  0.8095 -0.7875  3.3345
 7315SOL     OW33406   0.902   1.216   2.508 -0.5583  0.1949  0.1828
 7315SOL    HW133407   0.993   1.214   2.481 -0.2613 -0.3771  1.1947
 7315SOL    HW233408   0.869   1.262   2.431 -0.8309  0.1699  0.2839
 7316SOL     OW33409   1.495   4.566   8.436  0.0497 -0.5210 -0.0971
 7316SOL    HW133410   1.509   4.544   8.528  0.9084 -1.1983 -0.3866
 7316SOL    HW233411   1.496   4.661   8.425 -0.3143 -0.5002  0.0625
 7317SOL     OW33412   4.005   2.130  15.778 -0.7063  0.1964 -0.0280
 7317SOL    HW133413   3.960   2.053  15.814  0.4758  0.7871  2.6894
 7317SOL    HW233414   4.017   2.186  15.854 -1.0624  0.4072 -0.1284
 7318SOL     OW33415   1.322   3.888   1.767 -0.3527  0.2905  0.4725
 7318SOL    HW133416   1.280   3.805   1.792 -1.3638  0.6497 -0.0346
 7318SOL    HW233417   1.242   3.941   1.771 -0.5611 -0.0083  0.3006
 7319SOL     OW33418   2.074   1.770   5.771  0.0191 -0.0468 -0.1012
 7319SOL    HW133419   2.083   1.825   5.694 -0.0073  1.1799  0.7718
 7319SOL    HW233420   2.097   1.686   5.730 -0.3400 -1.2733  2.1673
 7320SOL     OW33421   2.473   2.091   1.685 -0.2631 -0.0357  0.3767
 7320SOL    HW133422   2.423   2.147   1.744  0.6196  0.5156  0.5846
 7320SOL    HW233423   2.514   2.155   1.628 -0.5315 -0.5629 -0.4163
 7321SOL     OW33424   1.668   1.084   6.566  0.0669 -0.0121  0.0871
 7321SOL    HW133425   1.759   1.063   6.590 -0.1156 -1.5392 -0.6083
 7321SOL    HW233426   1.664   1.171   6.527  2.1080  0.7724  1.5583
 7322SOL     OW33427   2.241   2.655  10.775  0.1005  0.0093 -1.0876
 7322SOL    HW133428   2.208   2.744  10.766  0.8734  0.2025 -2.0411
 7322SOL    HW233429   2.291   2.645  10.856  0.7192 -0.9267 -1.5791
 7323SOL     OW33430   1.900   1.767   3.577  0.1901 -0.3252  0.0310
 7323SOL    HW133431   1.944   1.712   3.642  1.1610  1.6178  1.0104
 7323SOL    HW233432   1.829   1.711   3.545 -0.6987 -0.1138  1.6058
 7324SOL     OW33433   1.889   1.333   4.339  0.5518  0.4638 -0.2271
 7324SOL    HW133434   1.908   1.409   4.395 -3.3041  1.3414 -0.0948
 7324SOL    HW233435   1.801   1.349   4.306  0.1751 -1.4979 -0.1686
 7325SOL     OW33436   3.093   1.681   6.103  0.6225  0.0597  0.3429
 7325SOL    HW133437   3.124   1.771   6.102 -1.6546  0.8069 -1.3626
 7325SOL    HW233438   3.007   1.699   6.140  0.5575  1.8118 -0.6740
 7326SOL     OW33439   0.328   2.593   9.987 -0.5286 -0.0011  0.4243
 7326SOL    HW133440   0.301   2.669  10.040 -2.2523  0.4970 -1.1551
 7326SOL    HW233441   0.251   2.536   9.986 -1.0193  0.7136 -1.8830
 7327SOL     OW33442   2.807   3.674  12.671  0.1541 -0.0305  0.4002
 7327SOL    HW133443   2.735   3.713  12.622 -0.9751 -1.5749  0.8026
 7327SOL    HW233444   2.800   3.584  12.639  0.4385 -0.1457  0.6596
 7328SOL     OW33445   0.972   0.103   5.395 -0.6003 -0.6488 -0.5450
 7328SOL    HW133446   0.927   0.184   5.419 -1.1560 -1.5697  1.4821
 7328SOL    HW233447   0.950   0.103   5.301  0.1110 -0.9808 -0.7100
 7329SOL     OW33448   0.091   1.886   2.757 -0.1455  0.0775 -0.1338
 7329SOL    HW133449   0.099   1.794   2.779 -1.6235  0.8548  3.5919
 7329SOL    HW233450   0.159   1.924   2.812 -0.6868  0.6745  0.1306
 7330SOL     OW33451   3.372   1.268   7.948 -0.1081  0.0842  0.5297
 7330SOL    HW133452   3.386   1.175   7.964  1.0821 -0.0852 -1.4713
 7330SOL    HW233453   3.460   1.294   7.922  0.0439 -1.7767 -0.8624
 7331SOL     OW33454   3.534   2.842  14.885  0.0938 -0.1271 -0.0365
 7331SOL    HW133455   3.466   2.817  14.822 -0.7040 -0.5143  0.9697
 7331SOL    HW233456   3.487   2.850  14.968  1.7411  0.8620  0.7912
 7332SOL     OW33457   0.550   0.027   4.669  0.0161  0.2741  0.3582
 7332SOL    HW133458   0.457   0.007   4.667  0.0263  0.5158 -2.5469
 7332SOL    HW233459   0.560   0.062   4.581  3.0558 -0.9559  0.2109
 7333SOL     OW33460   3.833   1.828   1.262  0.6973 -0.0045  0.1378
 7333SOL    HW133461   3.864   1.918   1.248  1.0297 -0.0364  0.6591
 7333SOL    HW233462   3.742   1.847   1.239  1.3186  0.5401 -1.9043
 7334SOL     OW33463   1.420   4.137   3.770 -0.1626  0.5641 -0.3984
 7334SOL    HW133464   1.378   4.161   3.687  1.8999 -0.7161 -1.8064
 7334SOL    HW233465   1.471   4.218   3.774  0.9855 -0.1688 -0.3019
 7335SOL     OW33466   4.620   0.029   9.008  0.1797  0.2662  0.4009
 7335SOL    HW133467   4.573   0.027   9.092  0.9193 -3.0520  0.7376
 7335SOL    HW233468   4.546   0.013   8.950 -0.1292  2.3132  0.2436
 7336SOL     OW33469   0.844   1.669   5.861  0.3808 -0.0859 -0.2748
 7336SOL    HW133470   0.791   1.732   5.813 -0.8291 -0.5994  0.3739
 7336SOL    HW233471   0.853   1.705   5.949 -0.0954  0.0218 -0.2687
 7337SOL     OW33472   0.044   1.007  14.771  0.3973 -0.2466 -0.1816
 7337SOL    HW133473   0.080   0.985  14.856  0.2042 -0.7717 -0.2384
 7337SOL    HW233474   0.067   1.100  14.767  1.9162 -0.6765 -1.7453
 7338SOL     OW33475   3.118   0.222   8.620  0.2602 -0.2785  0.3979
 7338SOL    HW133476   3.159   0.139   8.644 -2.8058 -1.3482  1.9485
 7338SOL    HW233477   3.144   0.219   8.528 -3.6135 -1.1308 -0.6740
 7339SOL     OW33478   1.754   1.202   6.851  0.2955 -0.3260  0.1889
 7339SOL    HW133479   1.683   1.172   6.795  0.6250 -2.3235  0.8623
 7339SOL    HW233480   1.830   1.201   6.793 -0.2369  1.9464 -0.5723
 7340SOL     OW33481   4.690   4.362   2.264 -0.3451 -0.4025  0.1634
 7340SOL    HW133482   0.026   4.412   2.318 -1.5621  2.3402 -1.0075
 7340SOL    HW233483   4.723   4.274   2.244 -0.9393 -0.5306 -0.2289
 7341SOL     OW33484   1.330   4.104  11.213 -0.3363 -0.3483 -0.0422
 7341SOL    HW133485   1.365   4.021  11.180  1.3889  0.6591 -0.7794
 7341SOL    HW233486   1.288   4.130  11.131  1.0736 -1.6385 -1.1782
 7342SOL     OW33487   2.218   2.897   6.471 -0.2579 -0.2159 -0.0032
 7342SOL    HW133488   2.177   2.984   6.466  0.2894  0.2202  3.1393
 7342SOL    HW233489   2.297   2.918   6.420 -0.1331 -0.5209  0.0697
 7343SOL     OW33490   1.928   1.194   7.225  0.2776  0.5031  0.0376
 7343SOL    HW133491   1.889   1.281   7.215  0.2755  0.1719 -2.8512
 7343SOL    HW233492   1.915   1.185   7.319 -1.5325 -1.6887 -0.4006
 7344SOL     OW33493   2.028   1.465   3.080 -0.4005  0.5745  0.1451
 7344SOL    HW133494   1.978   1.533   3.034 -0.6604  1.2319  1.3924
 7344SOL    HW233495   2.042   1.509   3.164  0.2741  0.2097  0.2252
 7345SOL     OW33496   2.114   3.193  12.065  0.1708 -0.9870 -0.5601
 7345SOL    HW133497   2.188   3.253  12.055 -0.3660  0.2028  2.5268
 7345SOL    HW233498   2.151   3.152  12.144 -0.9970  0.0116  0.5018
 7346SOL     OW33499   0.295   3.873   5.138  0.1806 -0.3729  0.0651
 7346SOL    HW133500   0.373   3.831   5.101 -1.7119 -2.7451 -1.3146
 7346SOL    HW233501   0.242   3.795   5.155 -0.7347  0.0304 -0.8872
 7347SOL     OW33502   1.607   4.488   4.777 -0.0557  0.0310 -0.1666
 7347SOL    HW133503   1.621   4.410   4.832  0.3145  0.7632  0.7853
 7347SOL    HW233504   1.698   4.514   4.782 -0.0384  0.1546 -1.3341
 7348SOL     OW33505   1.422   3.811  13.812  0.2982  0.6084 -0.1890
 7348SOL    HW133506   1.360   3.864  13.862 -1.6623 -1.2956 -0.6259
 7348SOL    HW233507   1.442   3.872  13.741  0.7272  0.8283  0.1152
 7349SOL     OW33508   1.803   2.141   8.849  1.1521  0.0244 -0.3986
 7349SOL    HW133509   1.730   2.157   8.909  0.9296  1.1280 -0.9544
 7349SOL    HW233510   1.831   2.232   8.841 -0.9335  0.8795  2.0688
 7350SOL     OW33511   0.841   1.349   0.300 -0.7462  0.2593 -0.1534
 7350SOL    HW133512   0.755   1.385   0.317 -1.2562 -1.5930  1.2095
 7350SOL    HW233513   0.833   1.264   0.343  0.5867 -0.2388 -0.8759
 7351SOL     OW33514   1.098   2.586   0.051 -0.0433 -0.2729  0.0345
 7351SOL    HW133515   1.053   2.519   0.102  0.0711 -0.8973 -0.6930
 7351SOL    HW233516   1.184   2.597   0.092 -0.8323 -1.2816  1.9445
 7352SOL     OW33517   0.788   1.887  11.548  0.2058 -0.1138  0.5608
 7352SOL    HW133518   0.764   1.819  11.611  1.0640 -1.0850 -0.1745
 7352SOL    HW233519   0.864   1.923  11.593  1.3996 -0.3394 -1.2936
 7353SOL     OW33520   2.401   1.144   4.347 -0.3755  0.0275 -0.8814
 7353SOL    HW133521   2.493   1.170   4.349  0.1496 -1.8342  0.2081
 7353SOL    HW233522   2.398   1.055   4.383 -3.4466  0.8218  0.8860
 7354SOL     OW33523   3.200   4.500   4.006 -0.3489 -0.1296 -0.3477
 7354SOL    HW133524   3.185   4.456   3.922 -1.6936 -1.9136  0.8342
 7354SOL    HW233525   3.201   4.585   3.963  2.1494 -0.2767 -0.6151
 7355SOL     OW33526   0.706   3.721   0.183  0.0414  0.0118  0.0080
 7355SOL    HW133527   0.658   3.669   0.247 -1.8111 -0.4912 -1.7917
 7355SOL    HW233528   0.718   3.800   0.236  0.0671 -0.2117  0.3316
 7356SOL     OW33529   3.054   3.808   3.804  0.2195 -0.6182  0.0273
 7356SOL    HW133530   3.123   3.873   3.790  1.0278 -1.0268  2.2343
 7356SOL    HW233531   3.044   3.776   3.714 -0.6075  0.7533 -0.3645
 7357SOL     OW33532   2.878   1.698   2.909 -0.0495  0.4713 -0.0743
 7357SOL    HW133533   2.923   1.707   2.826  0.2414 -0.6575 -0.0495
 7357SOL    HW233534   2.940   1.745   2.965  0.3345  0.4348 -0.4705
 7358SOL     OW33535   3.814   0.744   6.031  0.3318  0.2277  0.4421
 7358SOL    HW133536   3.879   0.678   6.006  2.5445  2.2580  0.8521
 7358SOL    HW233537   3.785   0.710   6.115  0.8265  2.0467  1.3388
 7359SOL     OW33538   3.128   3.238   7.937  0.4329 -0.4797  0.2365
 7359SOL    HW133539   3.215   3.276   7.925 -0.6821  1.7177 -0.9365
 7359SOL    HW233540   3.083   3.270   7.859 -1.9008  0.0039  1.7856
 7360SOL     OW33541   0.726   1.755   2.808 -0.4572  0.9901 -0.1442
 7360SOL    HW133542   0.811   1.753   2.764  0.2918  2.0817  1.2226
 7360SOL    HW233543   0.695   1.666   2.796 -0.8811  0.6992  2.9810
 7361SOL     OW33544   0.526   4.523  16.830 -0.4254  0.0279 -0.0625
 7361SOL    HW133545   0.563   4.488  16.911 -1.0737 -0.0429  0.2086
 7361SOL    HW233546   0.437   4.548  16.856 -0.5419  0.9541 -1.3160
 7362SOL     OW33547   2.803   1.007   6.151 -0.0770 -0.8386  0.1942
 7362SOL    HW133548   2.870   0.942   6.131  2.6449  2.3348 -0.9984
 7362SOL    HW233549   2.845   1.087   6.117 -0.6781 -1.1208 -1.2372
 7363SOL     OW33550   3.177   3.901  15.996 -0.0023  0.0383  0.2551
 7363SOL    HW133551   3.102   3.950  15.961  0.0159 -0.7304 -0.8633
 7363SOL    HW233552   3.215   3.852  15.924 -1.4236  0.7615 -0.9973
 7364SOL     OW33553   1.679   1.293  16.784 -0.3757  0.1278  0.1409
 7364SOL    HW133554   1.768   1.282  16.750 -0.2328  1.9278 -0.0576
 7364SOL    HW233555   1.679   1.378  16.828 -0.3669  0.7033 -0.9735
 7365SOL     OW33556   3.604   3.198   4.001  0.2494  0.2808 -0.1082
 7365SOL    HW133557   3.653   3.210   3.920 -1.8600 -0.2650 -1.4766
 7365SOL    HW233558   3.524   3.151   3.976  0.1108 -0.1490  1.1164
 7366SOL     OW33559   2.421   1.133   2.396 -0.3515  0.0910 -0.3846
 7366SOL    HW133560   2.483   1.168   2.460 -0.8324  2.5051 -1.2601
 7366SOL    HW233561   2.448   1.041   2.392  1.7962  0.6396  1.2143
 7367SOL     OW33562   2.348   0.123   5.363 -0.0537 -0.3081  0.4656
 7367SOL    HW133563   2.349   0.192   5.430 -0.1732 -1.2404  1.4330
 7367SOL    HW233564   2.347   0.178   5.285  0.8272  0.1202  0.7519
 7368SOL     OW33565   2.402   2.844   4.280  0.0697 -0.5872 -0.5502
 7368SOL    HW133566   2.436   2.890   4.203  3.7640 -1.7944  0.3343
 7368SOL    HW233567   2.481   2.830   4.333  0.4111 -1.4714 -1.2894
 7369SOL     OW33568   3.260   4.720   6.932  0.7162 -0.2392  0.0295
 7369SOL    HW133569   3.186   0.049   6.959  0.8008 -1.0302  1.8758
 7369SOL    HW233570   3.326   0.012   7.000  0.5699  1.7406 -0.3265
 7370SOL     OW33571   2.243   4.078   3.786 -0.5664 -0.8608 -0.2853
 7370SOL    HW133572   2.215   4.121   3.867 -0.5108  0.8626 -1.1873
 7370SOL    HW233573   2.331   4.115   3.781 -0.1913 -1.6769  0.1514
 7371SOL     OW33574   4.448   3.930  13.986  1.2068 -0.2958  0.1721
 7371SOL    HW133575   4.407   3.933  13.899  0.9567 -3.1522  0.2008
 7371SOL    HW233576   4.488   4.017  13.980  0.8472 -0.1357  0.0746
 7372SOL     OW33577   0.559   1.790  16.726 -0.5840  0.4124  0.3334
 7372SOL    HW133578   0.479   1.806  16.775  0.2909  2.3145  1.1293
 7372SOL    HW233579   0.521   1.757  16.644 -0.6679 -0.8255  0.8789
 7373SOL     OW33580   3.232   4.449   5.726  0.0023 -0.2548  0.1142
 7373SOL    HW133581   3.268   4.465   5.638  0.1027  2.5228  0.6653
 7373SOL    HW233582   3.169   4.380   5.706  0.8176 -0.7062 -0.9428
 7374SOL     OW33583   1.993   0.874   9.950  0.4223  0.5123 -0.1375
 7374SOL    HW133584   2.068   0.872   9.890  3.3709 -0.3440  3.6153
 7374SOL    HW233585   1.936   0.808   9.911  1.0884 -0.6092  0.8165
 7375SOL     OW33586   1.563   3.842   7.263 -0.5149 -0.5153  0.2656
 7375SOL    HW133587   1.618   3.829   7.186  1.5710  1.1851  1.4649
 7375SOL    HW233588   1.575   3.935   7.285  1.4532 -0.8096  0.4099
 7376SOL     OW33589   1.902   4.507   4.435  0.0145  0.0755 -0.5689
 7376SOL    HW133590   1.871   4.560   4.508  1.0551 -0.4093  0.2162
 7376SOL    HW233591   1.863   4.542   4.355 -3.0525  1.1165  1.3584
 7377SOL     OW33592   0.893   1.088   4.458 -0.1577 -0.3274  0.4270
 7377SOL    HW133593   0.971   1.112   4.508 -0.7872 -0.8170  1.6563
 7377SOL    HW233594   0.823   1.142   4.494 -0.8885 -0.8980 -0.1492
 7378SOL     OW33595   0.217   1.408   7.070 -0.1327  0.3074 -0.2039
 7378SOL    HW133596   0.219   1.485   7.127 -1.3210  1.0161 -1.1166
 7378SOL    HW233597   0.273   1.347   7.118  0.5035  0.0493 -1.2520
 7379SOL     OW33598   1.025   1.555   4.355  0.0412  0.4317 -0.1153
 7379SOL    HW133599   0.936   1.527   4.336 -0.0231  0.4896  0.1025
 7379SOL    HW233600   1.075   1.474   4.341  0.1025  0.6862 -1.3337
 7380SOL     OW33601   1.197   0.666   6.180 -0.5166  0.0651  0.6892
 7380SOL    HW133602   1.165   0.579   6.203 -3.8763  1.5708  1.8346
 7380SOL    HW233603   1.272   0.663   6.239  0.3930  0.6337 -0.4301
 7381SOL     OW33604   2.558   2.862  16.514  0.2664 -0.1790  0.6165
 7381SOL    HW133605   2.647   2.865  16.547 -0.6250  4.5030  2.5818
 7381SOL    HW233606   2.525   2.949  16.538 -0.5460 -0.6657  1.2491
 7382SOL     OW33607   1.045   4.471   5.408 -0.5869  0.0310  0.3788
 7382SOL    HW133608   1.122   4.469   5.352  0.2840 -1.7400  1.6337
 7382SOL    HW233609   1.085   4.506   5.488  2.1976 -1.6205 -0.3162
 7383SOL     OW33610   4.388   1.850  10.653  0.2056 -0.1014  0.3177
 7383SOL    HW133611   4.377   1.840  10.558  1.2563  0.0752  0.1747
 7383SOL    HW233612   4.453   1.920  10.650 -1.6298  1.5336 -0.9987
 7384SOL     OW33613   3.645   4.065   4.738  0.1828  0.0272 -0.2469
 7384SOL    HW133614   3.619   3.978   4.769 -0.6522  0.6354  0.7717
 7384SOL    HW233615   3.574   4.090   4.679 -0.0761  2.2824  1.0269
 7385SOL     OW33616   3.419   3.151  17.645  0.6307  0.6310 -0.6751
 7385SOL    HW133617   3.504   3.109  17.658 -0.2101 -0.5214  1.2515
 7385SOL    HW233618   3.382   3.089  17.582 -0.7987  1.2611 -0.4630
 7386SOL     OW33619   1.793   0.626   7.302 -0.2139  0.6000  0.1665
 7386SOL    HW133620   1.842   0.692   7.253  0.6931 -0.2355 -0.0254
 7386SOL    HW233621   1.735   0.590   7.235 -1.7908  1.1611  1.2083
 7387SOL     OW33622   0.384   4.214   7.799 -0.1055 -0.0897 -0.0838
 7387SOL    HW133623   0.313   4.278   7.795  0.1886  0.1010 -1.9377
 7387SOL    HW233624   0.460   4.271   7.814  0.8177 -1.6562  1.2212
 7388SOL     OW33625   4.705   4.446   7.489  0.6467  0.3639 -0.4172
 7388SOL    HW133626   4.709   4.460   7.395  1.0487  0.8266 -0.3348
 7388SOL    HW233627   0.065   4.478   7.521  1.5989 -2.2084 -0.4386
 7389SOL     OW33628   1.081   3.273   6.680  0.1304 -0.3714  0.0527
 7389SOL    HW133629   1.020   3.242   6.746 -1.3644  3.8016  0.6678
 7389SOL    HW233630   1.072   3.197   6.623  2.9022  0.5904 -1.6981
 7390SOL     OW33631   1.444   3.879   9.279  0.3948  0.1083  0.3773
 7390SOL    HW133632   1.398   3.851   9.359 -0.6566  0.0401 -0.2546
 7390SOL    HW233633   1.507   3.941   9.316 -2.3203  3.5498 -0.7294
 7391SOL     OW33634   2.273   0.554   4.257  0.2622  0.3074 -0.5312
 7391SOL    HW133635   2.345   0.616   4.253 -0.2095  0.9647  1.2747
 7391SOL    HW233636   2.321   0.479   4.294  0.1752  1.1572  1.3140
 7392SOL     OW33637   2.249   2.307   5.453  0.4694  0.0383 -0.8493
 7392SOL    HW133638   2.327   2.341   5.409  2.5948 -0.3989  2.5654
 7392SOL    HW233639   2.211   2.394   5.464 -1.2287 -0.8071  0.1301
 7393SOL     OW33640   0.096   1.018   8.978 -0.3740  0.4374  0.1146
 7393SOL    HW133641   0.180   1.027   9.024 -0.2810 -0.0836  0.0455
 7393SOL    HW233642   0.110   0.959   8.904  0.3920 -0.3445  0.8880
 7394SOL     OW33643   0.678   2.575   1.689  0.0453 -0.3157  0.0627
 7394SOL    HW133644   0.635   2.491   1.705 -0.6607  0.4784  2.2925
 7394SOL    HW233645   0.718   2.588   1.775 -0.8597 -3.3223  0.9576
 7395SOL     OW33646   3.842   3.775   5.965 -0.5708  0.3161  0.2847
 7395SOL    HW133647   3.856   3.692   5.920 -2.0917  0.6311 -0.7509
 7395SOL    HW233648   3.876   3.826   5.892  1.7772  0.3283  1.3692
 7396SOL     OW33649   2.071   4.021   5.976  0.2126  0.3265 -0.2647
 7396SOL    HW133650   2.133   4.093   5.982  1.6619 -0.7705 -2.1575
 7396SOL    HW233651   2.120   3.964   5.917  1.4486 -0.5012  1.5392
 7397SOL     OW33652   3.531   0.875   8.399 -0.0594  0.0188  0.1833
 7397SOL    HW133653   3.612   0.921   8.380 -0.0678  0.1125  0.3725
 7397SOL    HW233654   3.524   0.888   8.494  1.5147 -0.6660  0.3960
 7398SOL     OW33655   1.715   3.576   5.145 -0.2067 -0.3348  0.2548
 7398SOL    HW133656   1.661   3.497   5.154  0.0503 -0.5629 -0.1845
 7398SOL    HW233657   1.777   3.536   5.084 -0.6761 -1.1581  0.3153
 7399SOL     OW33658   2.010   4.032   3.486 -0.7914  0.0975 -0.7124
 7399SOL    HW133659   1.981   4.093   3.418 -1.9605 -0.0108 -0.3038
 7399SOL    HW233660   1.949   4.045   3.558 -0.6324 -2.4771 -0.1253
 7400SOL     OW33661   1.200   1.145   7.021  0.6219 -0.0317  0.3503
 7400SOL    HW133662   1.259   1.109   6.954 -1.4220 -1.7923 -0.5104
 7400SOL    HW233663   1.252   1.191   7.088 -0.8449  1.3449  0.5317
 7401SOL     OW33664   1.392   4.311   6.819  0.6558 -0.0866  0.4352
 7401SOL    HW133665   1.326   4.246   6.796 -0.5279  0.7703  1.4182
 7401SOL    HW233666   1.335   4.386   6.835  2.8700  1.5179  0.8954
 7402SOL     OW33667   2.092   1.765   5.270  0.6353  0.2127 -0.5376
 7402SOL    HW133668   2.064   1.849   5.233  2.3560  1.1890  0.3446
 7402SOL    HW233669   2.160   1.737   5.208  1.5199 -0.6713  0.8412
 7403SOL     OW33670   3.565   3.707   7.521  0.0945  0.1088 -0.2687
 7403SOL    HW133671   3.555   3.784   7.466  0.6497  0.4379  0.0916
 7403SOL    HW233672   3.565   3.642   7.451 -2.4590 -0.2052  0.0039
 7404SOL     OW33673   0.925   1.316   9.305  0.2073  0.8465  0.1237
 7404SOL    HW133674   1.008   1.363   9.320  0.9635 -0.9342  1.5382
 7404SOL    HW233675   0.940   1.297   9.213 -0.9201 -1.9301  0.5065
 7405SOL     OW33676   1.195   2.138   2.501 -0.1491  0.0185 -0.2260
 7405SOL    HW133677   1.109   2.142   2.460  0.5785  2.7993 -1.5434
 7405SOL    HW233678   1.214   2.053   2.462 -0.1234 -1.1874  2.4272
 7406SOL     OW33679   0.618   3.290   3.659  0.2822  0.1907  0.8813
 7406SOL    HW133680   0.561   3.234   3.606 -0.3058  2.0032 -0.3971
 7406SOL    HW233681   0.568   3.371   3.647  2.6945  1.5156 -0.1072
 7407SOL     OW33682   4.211   0.174   3.335  0.1380 -0.2250 -0.1067
 7407SOL    HW133683   4.215   0.267   3.358 -1.8129  0.1099 -1.2087
 7407SOL    HW233684   4.169   0.186   3.250 -1.3833  0.5935  0.7506
 7408SOL     OW33685   1.307   1.894   0.170 -0.1281 -0.5941 -0.0105
 7408SOL    HW133686   1.252   1.855   0.103  0.8583 -1.3051 -0.3974
 7408SOL    HW233687   1.248   1.966   0.194 -1.7446 -0.7882 -3.4338
 7409SOL     OW33688   3.149   4.165   5.891 -0.0764 -0.1092 -0.0357
 7409SOL    HW133689   3.156   4.234   5.957  0.3559 -1.4988  1.3879
 7409SOL    HW233690   3.242   4.160   5.870  0.4069  2.3434  1.4799
 7410SOL     OW33691   3.762   4.614   4.347  0.2138  0.4675 -0.1050
 7410SOL    HW133692   3.717   4.531   4.362  0.3018  0.5707  0.7506
 7410SOL    HW233693   3.730   4.672   4.416 -1.0375  0.6740 -0.8407
 7411SOL     OW33694   1.425   4.683   4.933  0.4105  0.0231  0.2260
 7411SOL    HW133695   1.509   4.665   4.891  0.6620 -0.0347  0.7474
 7411SOL    HW233696   1.425   0.053   4.942 -0.3252  0.1520 -1.1018
 7412SOL     OW33697   3.753   1.420  12.133 -0.3736 -0.0734 -0.1754
 7412SOL    HW133698   3.732   1.431  12.041 -0.5017 -0.8367 -0.2403
 7412SOL    HW233699   3.769   1.325  12.132  1.1434  0.1949 -0.9304
 7413SOL     OW33700   3.428   3.961   1.772 -0.1783 -0.1034 -0.4279
 7413SOL    HW133701   3.355   3.912   1.735 -1.4331  1.8753 -0.5217
 7413SOL    HW233702   3.396   3.971   1.862 -0.2362  2.4527 -0.7436
 7414SOL     OW33703   4.155   1.043   0.147 -0.1909  0.1728  0.0030
 7414SOL    HW133704   4.072   1.071   0.110 -0.9000  1.0338  2.2595
 7414SOL    HW233705   4.175   1.111   0.212  0.3005 -1.3505  1.4530
 7415SOL     OW33706   2.263   2.858  14.594  0.1322 -0.5112  0.2517
 7415SOL    HW133707   2.295   2.811  14.518  0.0504  1.4302 -0.9772
 7415SOL    HW233708   2.319   2.936  14.601  0.3305 -0.6394  0.0568
 7416SOL     OW33709   1.445   1.364  11.905 -0.3538 -0.0061  0.6018
 7416SOL    HW133710   1.428   1.271  11.885 -1.4764  0.0349  1.3362
 7416SOL    HW233711   1.517   1.393  11.850 -1.0565  2.1569  0.8309
 7417SOL     OW33712   2.777   2.775  10.761 -0.9877 -0.0467 -0.4369
 7417SOL    HW133713   2.696   2.764  10.812 -0.6954 -0.4517 -0.0631
 7417SOL    HW233714   2.802   2.690  10.726  1.8111 -0.3771  2.3225
 7418SOL     OW33715   0.699   0.491   4.064  0.0649 -0.6003  0.5783
 7418SOL    HW133716   0.650   0.556   4.115  1.6053  0.6387  0.4937
 7418SOL    HW233717   0.785   0.500   4.106  0.6473 -3.2939 -0.0113
 7419SOL     OW33718   1.154   1.628   7.042 -0.0471  0.2993  0.6555
 7419SOL    HW133719   1.132   1.577   6.963  0.2702 -0.1198  0.8374
 7419SOL    HW233720   1.147   1.560   7.109 -1.0049  0.8069  1.0596
 7420SOL     OW33721   3.973   2.235   2.928  0.2958  0.6369 -0.0925
 7420SOL    HW133722   3.987   2.285   3.009 -0.8226  0.0900  0.4312
 7420SOL    HW233723   3.946   2.152   2.968  0.7443 -0.5665 -2.3416
 7421SOL     OW33724   2.597   3.612   6.995 -0.1368 -0.4242 -0.4294
 7421SOL    HW133725   2.536   3.587   6.925  2.4619 -0.0855 -2.8159
 7421SOL    HW233726   2.666   3.637   6.933 -0.4906 -0.9401 -1.0306
 7422SOL     OW33727   2.450   3.369   8.330 -0.2450 -0.2313  0.4164
 7422SOL    HW133728   2.395   3.296   8.359 -1.1575 -0.4975 -1.9566
 7422SOL    HW233729   2.493   3.393   8.412 -0.3421 -3.4684  1.4106
 7423SOL     OW33730   0.999   2.799   6.777  0.0248  0.3298 -0.0384
 7423SOL    HW133731   1.032   2.853   6.848 -1.4171 -1.3282  1.8648
 7423SOL    HW233732   0.923   2.768   6.824 -0.1029 -0.1893 -0.5854
 7424SOL     OW33733   4.365   0.964   7.142 -0.8189  0.3801 -0.0977
 7424SOL    HW133734   4.376   1.058   7.151 -1.9787  0.6640 -1.7589
 7424SOL    HW233735   4.299   0.945   7.209 -0.9100 -0.9690 -0.5558
 7425SOL     OW33736   1.855   4.249   4.119  0.0981 -0.3459 -0.0390
 7425SOL    HW133737   1.895   4.185   4.178  0.4725 -0.4036 -0.3549
 7425SOL    HW233738   1.929   4.270   4.061  0.0840 -1.2133 -0.3624
 7426SOL     OW33739   1.443   1.035  12.587  0.2046 -0.0494 -0.5279
 7426SOL    HW133740   1.406   0.975  12.653  1.4066 -0.8196 -0.5606
 7426SOL    HW233741   1.531   0.999  12.593 -0.0219 -0.2122  2.1586
 7427SOL     OW33742   1.738   1.013  17.272  0.5220 -0.4678  0.4892
 7427SOL    HW133743   1.716   1.078  17.205  0.0858 -2.1362 -0.9550
 7427SOL    HW233744   1.660   0.959  17.271  0.4375 -0.3681  2.0545
 7428SOL     OW33745   0.353   2.190   5.551  0.0939 -0.0267 -0.2717
 7428SOL    HW133746   0.266   2.177   5.514  1.1380 -0.5864 -2.5007
 7428SOL    HW233747   0.410   2.131   5.503 -1.6143 -1.9035  0.0425
 7429SOL     OW33748   1.027   3.352   3.771 -0.1545 -0.7546  0.2510
 7429SOL    HW133749   0.996   3.401   3.695 -0.0463  2.2960  2.1662
 7429SOL    HW233750   0.982   3.267   3.769 -1.1540 -0.1953 -1.3753
 7430SOL     OW33751   3.424   0.405   2.156 -0.1077 -0.0136 -0.5379
 7430SOL    HW133752   3.335   0.427   2.184  0.4966  1.5044  0.2234
 7430SOL    HW233753   3.438   0.456   2.076  3.2543  0.1322  0.1112
 7431SOL     OW33754   2.157   4.087  15.863  0.0977  0.3719 -0.3691
 7431SOL    HW133755   2.099   4.064  15.791  0.1723 -1.3971  0.1398
 7431SOL    HW233756   2.169   4.001  15.903  1.3067 -0.5939 -2.8082
 7432SOL     OW33757   3.069   0.671  10.626  0.3024 -0.0616 -0.1734
 7432SOL    HW133758   3.020   0.750  10.647  0.0186 -0.7685  1.8032
 7432SOL    HW233759   3.100   0.688  10.537  1.5084  2.9778  0.8324
 7433SOL     OW33760   2.066   1.180   3.936  0.0231 -0.1262 -0.2492
 7433SOL    HW133761   2.139   1.122   3.957 -0.9060 -1.7425 -1.4755
 7433SOL    HW233762   1.986   1.140   3.971  0.4845 -0.2365  0.6734
 7434SOL     OW33763   1.366   1.967  13.694  0.3331 -0.4849 -0.3028
 7434SOL    HW133764   1.419   2.046  13.705 -4.0052  2.3399  0.0371
 7434SOL    HW233765   1.288   1.992  13.645  0.0410 -0.0060  0.4045
 7435SOL     OW33766   1.492   1.761   7.253 -0.2085  0.0975  0.1323
 7435SOL    HW133767   1.450   1.690   7.204 -0.9002  1.5161 -1.3255
 7435SOL    HW233768   1.520   1.814   7.179 -1.0947 -1.9005 -1.6510
 7436SOL     OW33769   1.435   1.499   7.172 -0.4588  0.1522  0.6972
 7436SOL    HW133770   1.506   1.464   7.226  2.5275  1.6255 -2.2575
 7436SOL    HW233771   1.359   1.454   7.207  0.7091 -2.1584  0.2691
 7437SOL     OW33772   3.042   2.696   5.574 -0.0093 -0.3543  0.5625
 7437SOL    HW133773   3.106   2.723   5.640  0.4974 -4.8495  1.9633
 7437SOL    HW233774   3.081   2.610   5.561 -0.9793 -0.7733  0.3941
 7438SOL     OW33775   3.154   0.291   1.371  0.1924  0.4678  0.2734
 7438SOL    HW133776   3.088   0.351   1.407 -1.4338  0.0227 -1.9883
 7438SOL    HW233777   3.167   0.235   1.448  0.6167  0.4415  0.1845
 7439SOL     OW33778   4.006   1.851   8.976  0.0106  0.7659 -0.2838
 7439SOL    HW133779   3.987   1.793   8.902 -0.7510  0.3254  0.2640
 7439SOL    HW233780   3.961   1.935   8.969  0.1557  0.7970 -0.8926
 7440SOL     OW33781   2.843   1.790   6.222  0.2197 -0.0946  0.0170
 7440SOL    HW133782   2.751   1.814   6.221  0.3601  0.3351 -2.1094
 7440SOL    HW233783   2.866   1.871   6.267 -0.2902 -0.2185  0.5014
 7441SOL     OW33784   0.474   2.251   9.077 -0.7065  0.8323 -0.2955
 7441SOL    HW133785   0.491   2.282   8.988 -2.4301  1.9008 -0.2413
 7441SOL    HW233786   0.402   2.192   9.057  0.0301  0.2087 -1.1021
 7442SOL     OW33787   2.190   3.771   2.436  0.4465 -0.6995  0.2216
 7442SOL    HW133788   2.238   3.804   2.513  4.3441  0.9892 -2.9420
 7442SOL    HW233789   2.101   3.778   2.470 -0.2674  0.6548 -1.9222
 7443SOL     OW33790   4.335   1.058   6.831 -0.2733  0.2846 -0.5027
 7443SOL    HW133791   4.377   1.018   6.755  3.2820  0.8801  1.1280
 7443SOL    HW233792   4.362   0.997   6.900  0.7402 -0.2948 -1.4104
 7444SOL     OW33793   3.858   2.302  11.732 -0.8984  0.1869 -0.1664
 7444SOL    HW133794   3.815   2.343  11.657  3.6964  0.7034 -2.5120
 7444SOL    HW233795   3.816   2.346  11.806 -0.3698 -1.6289  1.2194
 7445SOL     OW33796   2.452   2.477   8.208 -0.0975 -0.0428  0.8454
 7445SOL    HW133797   2.381   2.514   8.260  0.4716  1.9721  0.1929
 7445SOL    HW233798   2.490   2.555   8.168  2.5289 -1.9900 -0.5120
 7446SOL     OW33799   1.138   3.233   8.032 -0.2922  0.2143  0.2680
 7446SOL    HW133800   1.090   3.301   8.079 -0.9169  1.5661 -2.3432
 7446SOL    HW233801   1.103   3.230   7.943  0.9728  0.1465 -0.2208
 7447SOL     OW33802   0.126   2.959   6.049  0.0737 -0.1707  0.5459
 7447SOL    HW133803   0.035   2.939   6.028  0.2525 -1.7430  1.2301
 7447SOL    HW233804   0.104   3.004   6.131 -1.4562  0.4744 -0.2108
 7448SOL     OW33805   3.136   1.529  10.910  0.0424  0.6173  0.7838
 7448SOL    HW133806   3.066   1.513  10.974 -0.4663  3.5927  0.9911
 7448SOL    HW233807   3.092   1.494  10.833 -0.4564  0.9896  0.9000
 7449SOL     OW33808   4.372   0.881   0.069 -0.3286 -0.4813  1.0856
 7449SOL    HW133809   4.346   0.792   0.043 -0.4136 -0.6572  1.7730
 7449SOL    HW233810   4.288   0.905   0.108 -0.9943 -2.3560  0.8309
 7450SOL     OW33811   4.148   1.092  15.640  0.2768  0.6375  0.7093
 7450SOL    HW133812   4.159   1.065  15.731  1.8981  0.2115  0.3869
 7450SOL    HW233813   4.053   1.092  15.623 -0.0257  0.4371  2.3589
 7451SOL     OW33814   0.229   2.457  10.503 -0.0514 -1.0429 -0.4362
 7451SOL    HW133815   0.261   2.373  10.471 -1.7648 -1.9979  0.3920
 7451SOL    HW233816   0.262   2.453  10.593 -0.7832 -0.8483 -0.1593
 7452SOL     OW33817   4.029   0.326   2.489 -0.0118 -0.4076  0.5961
 7452SOL    HW133818   4.015   0.345   2.396 -2.1049 -1.1026  0.7816
 7452SOL    HW233819   3.946   0.337   2.535 -0.5930  0.4611 -0.6592
 7453SOL     OW33820   1.275   4.572   4.265  0.5769  0.2467  0.2843
 7453SOL    HW133821   1.354   4.597   4.314  0.8929 -0.3945  0.1009
 7453SOL    HW233822   1.315   4.547   4.182 -2.3332  0.1982 -1.0977
 7454SOL     OW33823   0.968   3.533  14.631  0.2197 -0.3963 -0.0399
 7454SOL    HW133824   1.056   3.569  14.619  0.5711 -0.9691  0.8109
 7454SOL    HW233825   0.977   3.443  14.598 -0.2506 -0.9134  1.2491
 7455SOL     OW33826   0.035   0.715   5.040  0.1388  0.4527  0.0545
 7455SOL    HW133827   4.690   0.650   5.033  1.2519 -0.9753  2.1257
 7455SOL    HW233828   0.011   0.761   4.959 -0.6731  2.1370  1.2631
 7456SOL     OW33829   3.407   4.179   2.339  0.5660 -0.3369 -0.2699
 7456SOL    HW133830   3.468   4.237   2.385  0.6652  0.4987 -1.4424
 7456SOL    HW233831   3.356   4.227   2.274 -0.2819 -1.1916 -0.2316
 7457SOL     OW33832   4.273   0.161   5.302  0.3154 -0.6153  0.1780
 7457SOL    HW133833   4.236   0.120   5.381  2.0501  0.8762  1.7585
 7457SOL    HW233834   4.364   0.175   5.329 -0.0179  0.8884  0.5131
 7458SOL     OW33835   0.447   0.703   4.957 -0.2691 -0.0311 -0.1582
 7458SOL    HW133836   0.540   0.684   4.971 -0.3786 -1.4584 -1.3260
 7458SOL    HW233837   0.441   0.790   4.997 -2.7990  1.0989 -3.0334
 7459SOL     OW33838   2.832   2.862   2.334 -0.2183 -0.2056  0.4008
 7459SOL    HW133839   2.792   2.837   2.251 -1.5213  0.2165  0.8903
 7459SOL    HW233840   2.752   2.866   2.386  0.6787 -2.7748  1.9335
 7460SOL     OW33841   3.992   2.560   9.827  0.1016 -0.3068  0.5427
 7460SOL    HW133842   4.028   2.573   9.739  0.8203  1.7756  1.1468
 7460SOL    HW233843   4.005   2.648   9.863  3.3809 -1.9465  3.3292
 7461SOL     OW33844   3.325   0.709   3.557 -0.3988  0.1997  0.4768
 7461SOL    HW133845   3.245   0.718   3.506  0.2058  2.2514 -0.0830
 7461SOL    HW233846   3.359   0.634   3.508 -0.2961  1.0972 -0.8277
 7462SOL     OW33847   2.774   0.204   5.476 -0.2948  0.0670  0.5782
 7462SOL    HW133848   2.801   0.196   5.384  1.3971  1.6726  0.9352
 7462SOL    HW233849   2.804   0.121   5.513  0.3753 -0.7882 -1.8460
 7463SOL     OW33850   2.753   0.232   5.880 -0.6015 -0.3661  0.4850
 7463SOL    HW133851   2.797   0.151   5.855 -0.3827 -0.2830  0.5966
 7463SOL    HW233852   2.768   0.242   5.974 -2.2519 -0.0590  0.7188
 7464SOL     OW33853   1.456   3.278  10.853 -0.3099  0.2287  0.7584
 7464SOL    HW133854   1.419   3.356  10.810  0.4777  1.8884  3.0788
 7464SOL    HW233855   1.444   3.208  10.789 -0.5767  0.8784  0.0971
 7465SOL     OW33856   3.889   3.467   8.361  0.7702  0.3169 -0.7243
 7465SOL    HW133857   3.835   3.501   8.432  0.0473 -2.8155  0.2282
 7465SOL    HW233858   3.976   3.504   8.376  1.2351 -0.7825 -0.7216
 7466SOL     OW33859   2.313   1.542   7.781  0.0518 -1.1392  0.1769
 7466SOL    HW133860   2.370   1.611   7.815  0.8867 -1.0628 -1.3770
 7466SOL    HW233861   2.232   1.591   7.768  1.1792  0.5911 -0.2946
 7467SOL     OW33862   3.478   0.394  16.417  0.2421  0.7494 -0.3404
 7467SOL    HW133863   3.544   0.356  16.359 -0.4010 -1.9145  0.7047
 7467SOL    HW233864   3.501   0.352  16.499  0.6499 -1.1700 -1.4529
 7468SOL     OW33865   1.185   2.794   3.150 -0.1653  0.1595  0.3086
 7468SOL    HW133866   1.112   2.854   3.135 -0.5064  0.4113  3.0070
 7468SOL    HW233867   1.254   2.858   3.136 -0.5005 -0.1980 -3.1043
 7469SOL     OW33868   0.539   3.575  15.127  0.1861 -0.1136  0.0503
 7469SOL    HW133869   0.596   3.511  15.085 -1.5115  0.7876 -3.5636
 7469SOL    HW233870   0.522   3.531  15.210  1.2550 -2.0539 -0.7652
 7470SOL     OW33871   1.889   2.748   4.402 -0.1193 -0.5166  0.4473
 7470SOL    HW133872   1.944   2.713   4.472 -1.8196 -0.1161  1.9650
 7470SOL    HW233873   1.832   2.679   4.368 -0.2766  1.4909 -3.3486
 7471SOL     OW33874   4.584   1.049   8.607 -0.3762  0.0249 -0.4284
 7471SOL    HW133875   4.664   1.098   8.624 -0.6178  0.7691 -1.4616
 7471SOL    HW233876   4.590   0.969   8.660 -0.0729  0.4555  0.1854
 7472SOL     OW33877   1.877   0.162   3.413  0.4896  0.1519 -0.1063
 7472SOL    HW133878   1.844   0.081   3.451 -1.3885  0.1592 -1.7287
 7472SOL    HW233879   1.858   0.231   3.477  0.5881 -1.6981  1.9316
 7473SOL     OW33880   1.242   2.629   6.484 -0.2000  0.2630  0.1477
 7473SOL    HW133881   1.182   2.641   6.410 -1.2945  0.7119  1.0980
 7473SOL    HW233882   1.270   2.720   6.495  1.5597 -0.2871  0.1839
 7474SOL     OW33883   4.070   3.706   3.840  0.5732 -0.2929 -0.1146
 7474SOL    HW133884   4.071   3.669   3.928  2.1797  0.5706  0.2242
 7474SOL    HW233885   4.164   3.714   3.830  0.7682 -2.3962 -0.0307
 7475SOL     OW33886   0.240   1.019   6.650  0.1701 -0.1355  0.0880
 7475SOL    HW133887   0.325   0.989   6.618  0.0901 -0.8663  0.5648
 7475SOL    HW233888   0.242   0.965   6.729 -0.5932  1.0046  0.8978
 7476SOL     OW33889   4.179   2.001   7.462 -0.8963  0.4058  0.3884
 7476SOL    HW133890   4.092   1.963   7.450 -0.6289 -0.3415  0.8546
 7476SOL    HW233891   4.210   2.018   7.373 -3.2046 -1.0436 -0.7104
 7477SOL     OW33892   3.713   3.823   5.709 -0.0390  0.6203  0.0143
 7477SOL    HW133893   3.808   3.829   5.699  0.2128 -2.1138  0.6058
 7477SOL    HW233894   3.692   3.873   5.787 -1.2417  0.8294 -0.4375
 7478SOL     OW33895   1.513   1.775   7.960 -0.0092 -0.2035  0.2284
 7478SOL    HW133896   1.527   1.751   7.868  0.2719  0.2959  0.1404
 7478SOL    HW233897   1.483   1.692   7.996 -1.0122 -0.3459 -0.9220
 7479SOL     OW33898   3.618   0.401  17.185  0.1354  0.0654 -0.0289
 7479SOL    HW133899   3.554   0.329  17.182 -1.2708  1.3922 -2.2486
 7479SOL    HW233900   3.708   0.370  17.186 -1.0961 -3.6739 -1.3244
 7480SOL     OW33901   1.634   1.066   4.304 -0.0643  0.1353  0.2132
 7480SOL    HW133902   1.552   1.077   4.256 -0.5648 -1.4034  0.7196
 7480SOL    HW233903   1.664   1.156   4.318  0.3885 -0.3260  2.1294
 7481SOL     OW33904   3.343   2.090   5.545  0.2348  0.0078  0.1969
 7481SOL    HW133905   3.418   2.088   5.484  1.0688 -2.5676  1.3084
 7481SOL    HW233906   3.320   1.997   5.554 -1.2398  0.3553  0.0401
 7482SOL     OW33907   0.307   0.185   6.646  0.2142 -0.0095 -0.1644
 7482SOL    HW133908   0.213   0.187   6.630  0.4095  0.6955 -1.1597
 7482SOL    HW233909   0.318   0.234   6.728  0.6999 -0.9452  0.3451
 7483SOL     OW33910   3.697   3.862   5.091  0.2069 -0.3375  0.0571
 7483SOL    HW133911   3.754   3.786   5.077  2.0141  1.1830 -0.8086
 7483SOL    HW233912   3.617   3.810   5.101 -0.7094  1.2420  0.9163
 7484SOL     OW33913   3.117   1.942   3.472  0.4381  0.3694  0.2790
 7484SOL    HW133914   3.117   1.966   3.565 -2.5133  1.0483  0.1037
 7484SOL    HW233915   3.212   1.950   3.458  0.2362  2.7885  0.2128
 7485SOL     OW33916   0.208   3.738   8.818  0.3178  0.2167  0.2411
 7485SOL    HW133917   0.165   3.743   8.732  1.9192  1.4271 -0.4774
 7485SOL    HW233918   0.291   3.705   8.783 -0.4377  0.3397 -1.6634
 7486SOL     OW33919   4.094   3.851   8.677  0.0875 -0.0414  0.1831
 7486SOL    HW133920   4.041   3.820   8.751 -0.9391 -0.6078 -0.8006
 7486SOL    HW233921   4.039   3.926   8.655  0.8310  1.1789  2.4178
 7487SOL     OW33922   1.338   2.782  13.811  0.1530 -0.4201 -0.3912
 7487SOL    HW133923   1.392   2.718  13.857  0.5797 -0.6619 -1.2479
 7487SOL    HW233924   1.363   2.754  13.723  0.7905  0.7998 -0.6042
 7488SOL     OW33925   1.396   0.626  16.565  0.0582  0.5733  1.1926
 7488SOL    HW133926   1.318   0.600  16.614  1.5061 -1.9259  2.2108
 7488SOL    HW233927   1.439   0.541  16.579  1.6067  1.0865 -0.4675
 7489SOL     OW33928   2.219   0.174   7.733  0.5725  0.0212  0.2815
 7489SOL    HW133929   2.294   0.119   7.757  1.5236  1.8856  1.6135
 7489SOL    HW233930   2.217   0.157   7.638 -1.3152  2.0482 -0.0390
 7490SOL     OW33931   4.110   0.050   5.911  0.1641 -0.0873 -0.3582
 7490SOL    HW133932   4.046   4.711   5.940 -0.7548  1.3047  0.6785
 7490SOL    HW233933   4.193   0.004   5.926  0.2985  0.4395  0.5046
 7491SOL     OW33934   3.325   4.437   5.468  0.0740  0.7165  0.2600
 7491SOL    HW133935   3.363   4.503   5.411  0.3178  0.0512 -0.3506
 7491SOL    HW233936   3.234   4.439   5.438  0.2623  0.0291 -0.3620
 7492SOL     OW33937   3.137   4.713   7.892 -0.5701  0.5478  0.0844
 7492SOL    HW133938   3.230   4.700   7.871 -0.6792  0.9333 -0.6737
 7492SOL    HW233939   3.140   4.722   7.987 -2.2581 -2.6978  0.4222
 7493SOL     OW33940   2.466   2.110  12.747 -0.3166 -0.1492  0.2793
 7493SOL    HW133941   2.489   2.102  12.654 -3.1207 -2.2800 -0.2397
 7493SOL    HW233942   2.422   2.195  12.746  0.4140  0.2342  1.1217
 7494SOL     OW33943   3.702   0.042   4.130  0.2587 -0.3613 -0.2017
 7494SOL    HW133944   3.751   4.703   4.182  1.6741  0.8424 -0.0322
 7494SOL    HW233945   3.616   0.036   4.172  0.8659  0.0863  1.1119
 7495SOL     OW33946   4.413   4.411   5.167  0.1922  0.8344  0.3103
 7495SOL    HW133947   4.416   4.336   5.226 -3.7790 -0.3084 -0.9999
 7495SOL    HW233948   4.452   4.478   5.224 -1.4135  0.8988  1.3464
 7496SOL     OW33949   2.473   0.663   4.844 -0.0495  0.5598  0.2550
 7496SOL    HW133950   2.433   0.630   4.925  0.3029  0.0211  0.2095
 7496SOL    HW233951   2.508   0.749   4.865  0.2649 -0.3036  3.3259
 7497SOL     OW33952   4.680   3.051   4.201  0.4637 -0.0852 -0.1587
 7497SOL    HW133953   4.628   2.971   4.208 -1.4784  1.1777  0.0085
 7497SOL    HW233954   4.725   3.033   4.118  0.9598 -0.9955  0.3075
 7498SOL     OW33955   1.526   2.341   7.725 -0.0300  0.5502  0.1787
 7498SOL    HW133956   1.476   2.355   7.645 -1.1763 -0.1917  0.7646
 7498SOL    HW233957   1.585   2.279   7.682 -0.7580 -1.2942  1.8747
 7499SOL     OW33958   3.210   3.048   4.204 -0.3171 -0.0398 -0.3137
 7499SOL    HW133959   3.277   3.048   4.272  0.1445 -1.2455 -0.7757
 7499SOL    HW233960   3.247   2.995   4.133 -0.8337 -0.5635 -0.1886
 7500SOL     OW33961   2.210   3.779   0.626 -0.5129  0.3006 -0.2643
 7500SOL    HW133962   2.158   3.843   0.576 -2.4857 -1.7204 -0.8373
 7500SOL    HW233963   2.284   3.829   0.659  0.4949 -1.3296 -0.0981
 7501SOL     OW33964   0.955   0.489   3.031 -0.3982 -0.0195 -0.4831
 7501SOL    HW133965   0.888   0.449   2.976 -1.1585  1.9999 -1.0429
 7501SOL    HW233966   1.018   0.522   2.967 -0.1674  1.5024  0.5146
 7502SOL     OW33967   0.131   1.366   7.873  0.0321  0.3297 -0.0228
 7502SOL    HW133968   0.037   1.363   7.890 -0.2656  0.7621 -1.6247
 7502SOL    HW233969   0.129   1.355   7.778  1.9788 -0.2439  0.0038
 7503SOL     OW33970   4.392   3.138   2.237  0.4338 -0.0213 -0.2350
 7503SOL    HW133971   4.339   3.217   2.247  0.2252  0.0716 -2.1086
 7503SOL    HW233972   4.329   3.070   2.261  1.8238 -0.9132  0.8502
 7504SOL     OW33973   2.848   0.842   7.199 -0.4851 -0.1533  0.1269
 7504SOL    HW133974   2.839   0.923   7.149  0.0440 -0.8944 -1.1681
 7504SOL    HW233975   2.781   0.786   7.162 -0.9682  0.4780  0.0472
 7505SOL     OW33976   2.522   1.508   3.452 -0.3728 -0.5707  0.2467
 7505SOL    HW133977   2.463   1.546   3.386 -1.7907 -0.8325  1.3550
 7505SOL    HW233978   2.531   1.418   3.422  3.4488 -0.2365  0.3611
 7506SOL     OW33979   0.346   1.441   9.432  0.0063 -0.0472  0.3094
 7506SOL    HW133980   0.408   1.381   9.390  0.3757 -0.9437  2.1197
 7506SOL    HW233981   0.267   1.421   9.382  0.2126  0.7722 -0.3372
 7507SOL     OW33982   3.146   2.086   4.836 -0.0122 -0.3893 -0.5174
 7507SOL    HW133983   3.129   1.999   4.873 -0.8607  1.1586  2.7223
 7507SOL    HW233984   3.085   2.089   4.762 -0.1957 -0.4685 -0.3697
 7508SOL     OW33985   4.129   0.168   8.572  0.1487  0.9529 -0.2825
 7508SOL    HW133986   4.143   0.074   8.567 -1.9407  0.5498  1.5661
 7508SOL    HW233987   4.074   0.187   8.496 -0.5411  3.7697  0.9298
 7509SOL     OW33988   2.050   0.894   7.755 -0.3118 -0.0719 -0.0060
 7509SOL    HW133989   2.056   0.908   7.660 -0.4167 -0.9273 -0.1401
 7509SOL    HW233990   2.108   0.819   7.769  0.3416  0.2998 -0.7080
 7510SOL     OW33991   1.597   3.668  15.506 -0.4751 -0.4546  0.0514
 7510SOL    HW133992   1.586   3.696  15.415 -1.8980 -0.1931  0.3127
 7510SOL    HW233993   1.665   3.730  15.532  0.0099 -2.0334  2.5639
 7511SOL     OW33994   4.398   3.234   5.147  0.0394  0.0127  0.0391
 7511SOL    HW133995   4.410   3.170   5.077 -1.4372 -1.9281  1.5679
 7511SOL    HW233996   4.303   3.245   5.151 -0.0627 -1.3374  1.4611
 7512SOL     OW33997   4.592   4.591   5.586  0.5697 -0.3236 -0.4119
 7512SOL    HW133998   4.529   4.650   5.627  1.1962 -0.1908  0.3719
 7512SOL    HW233999   4.678   4.618   5.619  0.9328 -1.3386 -0.5386
 7513SOL     OW34000   4.036   3.391   6.341 -0.2687 -0.1252  0.0926
 7513SOL    HW134001   3.981   3.342   6.280 -0.9900  2.7053 -1.4824
 7513SOL    HW234002   4.060   3.320   6.401 -1.3076 -0.0125  0.6361
 7514SOL     OW34003   2.015   2.530   6.980 -0.5570  0.1130 -0.5107
 7514SOL    HW134004   1.986   2.454   7.031 -1.8062 -0.0156 -1.4278
 7514SOL    HW234005   2.069   2.486   6.915 -0.7534  2.9252 -2.5671
 7515SOL     OW34006   3.783   2.330   2.579 -0.3269  0.6329  0.0942
 7515SOL    HW134007   3.744   2.245   2.559 -1.0595  1.0632 -0.3348
 7515SOL    HW234008   3.848   2.327   2.510 -0.2715  2.0501  0.0888
 7516SOL     OW34009   3.981   2.689   3.502  0.7028  0.6026  0.2737
 7516SOL    HW134010   3.956   2.677   3.411 -1.1979  3.4148  0.4207
 7516SOL    HW234011   4.061   2.637   3.510  0.4367  0.4408  1.8330
 7517SOL     OW34012   0.378   3.266   6.829 -0.0324 -0.0457  0.0397
 7517SOL    HW134013   0.324   3.265   6.908 -0.3957  1.3104 -0.1857
 7517SOL    HW234014   0.326   3.311   6.763  0.1419  1.6380  1.0562
 7518SOL     OW34015   0.509   0.134   5.729  0.2510  0.3921  0.0099
 7518SOL    HW134016   0.558   0.209   5.760  1.6334 -0.6506  0.3322
 7518SOL    HW234017   0.511   0.078   5.806  0.7752  0.8985  0.3573
 7519SOL     OW34018   1.880   3.121   4.695 -0.4089 -0.4572  0.5649
 7519SOL    HW134019   1.917   3.069   4.624 -1.6473  1.0099 -1.1715
 7519SOL    HW234020   1.854   3.048   4.752  1.4949 -1.6616 -0.1327
 7520SOL     OW34021   1.808   0.681  13.102 -0.8206  0.0773  0.1553
 7520SOL    HW134022   1.830   0.638  13.185  0.4883 -1.8131 -1.1959
 7520SOL    HW234023   1.831   0.770  13.130 -0.2436  0.1629 -0.5830
 7521SOL     OW34024   4.527   1.029   6.367  0.2246 -0.0531  0.3255
 7521SOL    HW134025   4.477   0.954   6.400 -2.5723  1.2244 -0.9599
 7521SOL    HW234026   4.588   1.062   6.433 -0.1070  0.0118  0.6040
 7522SOL     OW34027   3.663   3.989   7.946  0.0723  0.5092 -0.6669
 7522SOL    HW134028   3.741   3.934   7.936 -0.5004  0.3395 -4.2886
 7522SOL    HW234029   3.635   3.991   7.854 -1.6473 -2.2016 -0.1648
 7523SOL     OW34030   0.675   0.064   3.152 -0.1897 -0.6328  0.4351
 7523SOL    HW134031   0.660   0.056   3.246 -0.0914  1.7044  0.6577
 7523SOL    HW234032   0.599   0.115   3.124 -0.1221 -0.4900  0.5103
 7524SOL     OW34033   0.595   2.709   5.441  0.2016 -0.0559 -0.1398
 7524SOL    HW134034   0.665   2.726   5.504  0.9493  0.5525 -1.1276
 7524SOL    HW234035   0.514   2.708   5.492  1.7121  0.7393  2.2789
 7525SOL     OW34036   0.306   3.790   7.603 -0.3099  0.8706  0.2219
 7525SOL    HW134037   0.305   3.863   7.541 -0.7974  0.9402  0.3093
 7525SOL    HW234038   0.391   3.748   7.594 -0.2932  1.3646 -1.9337
 7526SOL     OW34039   3.506   2.088  16.528  0.3567 -0.6063 -0.1957
 7526SOL    HW134040   3.439   2.155  16.543  1.3236 -0.1079  1.8237
 7526SOL    HW234041   3.580   2.139  16.495  0.9041 -1.0849  0.2895
 7527SOL     OW34042   0.802   1.638  13.494 -0.3103 -0.4560 -0.4874
 7527SOL    HW134043   0.831   1.574  13.559  1.0224  1.3680  0.7147
 7527SOL    HW234044   0.819   1.586  13.415 -2.5252  0.7860 -1.7879
 7528SOL     OW34045   3.728   0.838   4.778  0.0812  0.5261 -0.4033
 7528SOL    HW134046   3.633   0.829   4.783  0.2472 -1.4247 -0.8460
 7528SOL    HW234047   3.740   0.799   4.865  2.1367  0.3958 -0.7300
 7529SOL     OW34048   2.274   1.339  12.868  0.3099  0.3302 -0.1348
 7529SOL    HW134049   2.327   1.317  12.792 -0.5296  3.2571 -1.5900
 7529SOL    HW234050   2.246   1.248  12.876 -1.1972  0.7465 -0.5492
 7530SOL     OW34051   1.314   1.612   0.313  0.1106 -0.1213  0.6963
 7530SOL    HW134052   1.372   1.588   0.240 -1.5491 -1.2405 -0.2298
 7530SOL    HW234053   1.241   1.554   0.292 -1.1910  1.5432  0.6383
 7531SOL     OW34054   0.535   0.829   7.695  0.3163  0.4135 -0.0265
 7531SOL    HW134055   0.485   0.805   7.774  0.9721  1.4178  0.7016
 7531SOL    HW234056   0.594   0.757   7.678 -0.0275  0.2696 -0.5961
 7532SOL     OW34057   0.198   0.625  14.824 -0.4848  0.0728 -0.3883
 7532SOL    HW134058   0.234   0.713  14.835  0.7606 -0.2733 -1.6247
 7532SOL    HW234059   0.255   0.611  14.748  0.0978  1.4472 -0.2098
 7533SOL     OW34060   0.549   0.430  14.702 -0.0349  0.3697  0.2469
 7533SOL    HW134061   0.476   0.369  14.711 -1.3823  1.7786 -1.3256
 7533SOL    HW234062   0.510   0.514  14.724  2.5539  1.1899  1.7380
 7534SOL     OW34063   0.924   0.565   5.006  0.1037 -0.5238 -0.0118
 7534SOL    HW134064   0.949   0.585   4.916  0.1779 -0.6457 -0.0191
 7534SOL    HW234065   0.866   0.489   5.003 -0.2156 -0.2548 -0.5852
 7535SOL     OW34066   1.999   2.227   3.983 -0.0730 -0.4910 -0.1656
 7535SOL    HW134067   2.055   2.261   3.913  0.0662 -0.9664 -0.2856
 7535SOL    HW234068   1.917   2.241   3.936 -1.5833 -0.7500  2.4523
 7536SOL     OW34069   0.314   2.659   4.872  0.4536  0.0386  0.2755
 7536SOL    HW134070   0.363   2.675   4.791  0.6743 -2.0270 -0.0066
 7536SOL    HW234071   0.383   2.691   4.930 -1.0295  1.7594  1.0710
 7537SOL     OW34072   3.270   0.754   7.931  0.2405 -0.5051  0.2338
 7537SOL    HW134073   3.229   0.758   8.017 -1.4506 -0.2272 -0.5916
 7537SOL    HW234074   3.211   0.692   7.887 -2.0827  0.6398  1.7455
 7538SOL     OW34075   1.646   4.620   6.735  0.4886 -0.3369 -0.3291
 7538SOL    HW134076   1.697   4.542   6.711 -0.8657 -1.1092 -0.7546
 7538SOL    HW234077   1.638   4.599   6.828 -0.6057  0.3405 -0.2727
 7539SOL     OW34078   4.722   1.801  10.229 -0.9439  0.0320 -0.7495
 7539SOL    HW134079   4.662   1.765  10.163 -0.5616 -0.6719 -0.7027
 7539SOL    HW234080   4.708   1.894  10.211  2.3752  0.5042 -0.7902
 7540SOL     OW34081   3.427   0.873   1.765 -0.2399  0.0985 -0.0140
 7540SOL    HW134082   3.441   0.783   1.736 -0.1054  0.0033  0.3463
 7540SOL    HW234083   3.432   0.928   1.687 -1.0389 -2.2700 -1.7478
 7541SOL     OW34084   0.017   0.226  15.238 -0.6127  0.5898 -0.3564
 7541SOL    HW134085   4.679   0.294  15.263 -0.7204 -0.2225  1.5976
 7541SOL    HW234086   0.021   0.179  15.321 -0.2399 -0.9222 -1.2360
 7542SOL     OW34087   1.589   3.211   7.909 -0.1776  0.3087 -0.1000
 7542SOL    HW134088   1.530   3.157   7.857 -1.0098 -0.5979  1.7753
 7542SOL    HW234089   1.533   3.233   7.983  1.2369 -1.7056  1.5840
 7543SOL     OW34090   3.849   3.705   4.761  0.5337 -0.0014 -0.0157
 7543SOL    HW134091   3.895   3.635   4.806 -0.3298 -0.8038 -0.3873
 7543SOL    HW234092   3.896   3.778   4.802  2.8294 -0.1472 -2.3801
 7544SOL     OW34093   0.510   4.280   8.314  0.3604 -0.2131 -0.1577
 7544SOL    HW134094   0.530   4.369   8.343 -3.3243  0.8122 -0.7918
 7544SOL    HW234095   0.561   4.268   8.234 -0.6681 -0.1246 -0.8258
 7545SOL     OW34096   1.659   2.506  16.814  0.0975 -0.2697  0.6714
 7545SOL    HW134097   1.660   2.546  16.900  0.7635  2.4969 -0.6115
 7545SOL    HW234098   1.753   2.489  16.800 -0.0925  0.1367 -1.1937
 7546SOL     OW34099   4.149   2.367  14.261 -0.6885 -0.2256 -0.3933
 7546SOL    HW134100   4.118   2.380  14.171 -0.8480 -0.8342 -0.4261
 7546SOL    HW234101   4.235   2.407  14.254 -1.3146  1.0369 -0.9415
 7547SOL     OW34102   2.072   2.011  12.781 -0.1474 -0.1392  0.4587
 7547SOL    HW134103   2.142   1.982  12.841 -0.4945  0.1524  1.0070
 7547SOL    HW234104   2.110   1.985  12.697  1.1410  2.7216  0.1737
 7548SOL     OW34105   1.913   3.705   8.949  0.3761  0.6133 -0.2859
 7548SOL    HW134106   1.950   3.677   9.032 -0.7862  1.1310  0.3981
 7548SOL    HW234107   1.957   3.646   8.888  1.5731 -1.2657  2.4393
 7549SOL     OW34108   2.591   3.758   2.605  0.4321 -0.0024  0.0112
 7549SOL    HW134109   2.600   3.750   2.700  2.1617 -3.1883 -0.4377
 7549SOL    HW234110   2.505   3.799   2.598  1.0432  1.3282  0.2837
 7550SOL     OW34111   0.500   1.933   6.821 -0.7047 -0.7507  0.5417
 7550SOL    HW134112   0.500   1.906   6.730 -1.9537 -0.3637  0.4216
 7550SOL    HW234113   0.533   1.861   6.874 -1.1734 -1.7171 -0.5044
 7551SOL     OW34114   0.634   0.499   0.552 -0.4285 -0.6739 -0.2053
 7551SOL    HW134115   0.717   0.489   0.600 -0.6669 -0.0995  0.3172
 7551SOL    HW234116   0.631   0.441   0.476 -0.8787 -2.1303  0.9046
 7552SOL     OW34117   3.471   0.256   9.804  0.0233  0.0696 -0.2957
 7552SOL    HW134118   3.525   0.328   9.771  0.4186  0.5852  1.4708
 7552SOL    HW234119   3.538   0.191   9.822  0.5376  0.5779 -0.3757
 7553SOL     OW34120   4.067   3.181  13.448 -0.4738 -0.0249 -0.0594
 7553SOL    HW134121   3.979   3.144  13.452 -0.1075 -0.6520  2.2578
 7553SOL    HW234122   4.111   3.099  13.429 -1.6165 -1.0152  1.5901
 7554SOL     OW34123   0.696   0.872   4.762  0.0325  0.1134 -0.0464
 7554SOL    HW134124   0.772   0.823   4.731 -0.7027  0.1398 -1.8733
 7554SOL    HW234125   0.627   0.837   4.706 -0.0469 -0.8655  0.6737
 7555SOL     OW34126   3.286   0.990   2.938  0.6293 -0.2488 -0.5911
 7555SOL    HW134127   3.341   0.954   2.868 -0.7276 -1.0389 -1.2390
 7555SOL    HW234128   3.260   1.072   2.897  3.3425  1.0029  0.1540
 7556SOL     OW34129   2.753   0.140  16.945 -0.1274  0.4308  0.1741
 7556SOL    HW134130   2.673   0.162  16.898 -0.4908  0.6319  0.8823
 7556SOL    HW234131   2.757   0.200  17.020  2.2528  0.0745  0.3365
 7557SOL     OW34132   0.308   3.097  16.196  0.3535  0.6763 -0.1710
 7557SOL    HW134133   0.216   3.125  16.197  0.4236  0.9417 -1.8368
 7557SOL    HW234134   0.326   3.101  16.290  1.0071  1.5247 -0.3284
 7558SOL     OW34135   3.399   2.787   4.622  0.1965 -0.2017  0.2680
 7558SOL    HW134136   3.494   2.790   4.611  0.3712 -0.8819  1.5347
 7558SOL    HW234137   3.369   2.817   4.537  0.1715  1.5730  0.9029
 7559SOL     OW34138   4.303   2.336  10.270  0.2041 -0.0184 -0.5624
 7559SOL    HW134139   4.367   2.317  10.339 -0.6811 -1.1763 -0.0605
 7559SOL    HW234140   4.229   2.376  10.315 -0.0525  0.3089 -1.2711
 7560SOL     OW34141   2.037   3.090   5.566  0.5711  0.5588  0.3994
 7560SOL    HW134142   2.128   3.108   5.591  0.4306  0.6453  0.8595
 7560SOL    HW234143   2.000   3.076   5.654 -3.4652 -1.9708 -1.7125
 7561SOL     OW34144   3.303   2.859   8.280  0.5624  0.0065 -0.0611
 7561SOL    HW134145   3.226   2.913   8.262  1.9222  1.8911 -0.2873
 7561SOL    HW234146   3.296   2.807   8.200 -0.2665 -0.2317  0.1741
 7562SOL     OW34147   0.556   2.266   8.810  0.7624 -0.2399 -0.7190
 7562SOL    HW134148   0.645   2.294   8.789  0.9525  0.1135  0.5749
 7562SOL    HW234149   0.567   2.171   8.807  2.5231 -0.0240 -1.1171
 7563SOL     OW34150   2.707   1.816   5.631 -0.0568  0.0069  0.1508
 7563SOL    HW134151   2.736   1.881   5.695 -1.6371 -0.8227  1.7299
 7563SOL    HW234152   2.618   1.795   5.660 -0.3425  0.0983 -0.6593
 7564SOL     OW34153   0.272   2.902   6.856 -0.6659  0.2568 -0.0604
 7564SOL    HW134154   0.336   2.955   6.904  0.0031 -0.8452  0.2704
 7564SOL    HW234155   0.326   2.852   6.795 -0.3170  0.2489  0.2552
 7565SOL     OW34156   3.540   1.210   2.955  0.2054 -0.3213 -0.5598
 7565SOL    HW134157   3.531   1.126   2.910  1.1128 -0.6776 -0.0835
 7565SOL    HW234158   3.550   1.174   3.043  0.2757 -0.9435 -0.8276
 7566SOL     OW34159   2.898   0.627   2.608  0.4169  0.0572 -0.8765
 7566SOL    HW134160   2.933   0.659   2.691  0.1377 -1.2299 -0.2598
 7566SOL    HW234161   2.974   0.573   2.589 -1.1892 -1.7319 -2.2112
 7567SOL     OW34162   1.302   0.857   7.308 -0.4097  0.2860 -0.0731
 7567SOL    HW134163   1.221   0.842   7.258 -0.8149 -1.3889  1.0556
 7567SOL    HW234164   1.268   0.826   7.392  0.2743 -1.0577 -0.2809
 7568SOL     OW34165   1.468   3.208   6.310 -0.2470  0.1682  0.2466
 7568SOL    HW134166   1.412   3.283   6.289  0.7992  0.8587 -0.0675
 7568SOL    HW234167   1.414   3.136   6.278 -0.7586  0.6111  0.1029
 7569SOL     OW34168   2.588   3.377   3.039 -0.2305 -0.0247 -0.5904
 7569SOL    HW134169   2.528   3.444   3.070 -0.4033 -0.4422 -0.0321
 7569SOL    HW234170   2.670   3.424   3.051 -1.2549  1.4507  0.5616
 7570SOL     OW34171   2.940   0.460  17.450 -0.0790  0.0842  0.4199
 7570SOL    HW134172   2.902   0.434  17.366  1.3177 -2.5278  0.6252
 7570SOL    HW234173   2.948   0.375  17.492 -0.3938 -0.6193 -0.9688
 7571SOL     OW34174   2.244   3.380   4.611 -0.2317  0.1852 -0.4527
 7571SOL    HW134175   2.301   3.311   4.576 -0.0515 -0.2873  0.7942
 7571SOL    HW234176   2.187   3.391   4.535 -0.4472  0.4703 -0.2483
 7572SOL     OW34177   4.126   1.880   0.172 -0.1447 -0.1754 -0.5015
 7572SOL    HW134178   4.160   1.875   0.083  0.4688  2.4482 -0.4057
 7572SOL    HW234179   4.101   1.972   0.173 -0.4664 -0.2694 -0.0760
 7573SOL     OW34180   1.373   3.919   3.957 -0.2412  0.5549 -0.0958
 7573SOL    HW134181   1.442   3.877   4.008  1.7185  4.7419  0.7577
 7573SOL    HW234182   1.414   3.984   3.899 -1.0862  2.0040  0.9318
 7574SOL     OW34183   2.378   3.341   1.404 -0.0018  0.1745 -0.2808
 7574SOL    HW134184   2.375   3.349   1.309 -1.6286 -2.0207 -0.4061
 7574SOL    HW234185   2.384   3.433   1.431  3.6917 -0.1095 -0.1326
 7575SOL     OW34186   4.386   3.249   6.282  0.3846  0.6993 -0.7266
 7575SOL    HW134187   4.364   3.162   6.316  0.4709  1.0595  0.2469
 7575SOL    HW234188   4.375   3.295   6.365  0.7580 -0.7083  0.0981
 7576SOL     OW34189   3.897   4.207   0.307 -0.3060  0.0762 -0.4314
 7576SOL    HW134190   3.971   4.226   0.249 -0.6464  0.8074 -0.6231
 7576SOL    HW234191   3.838   4.260   0.254  0.8617  1.1518 -0.6598
 7577SOL     OW34192   3.064   0.249   9.565  0.2052 -0.1648  0.0609
 7577SOL    HW134193   3.049   0.159   9.595  1.5143  0.2716  2.0452
 7577SOL    HW234194   3.003   0.257   9.492  1.1034  1.9016 -0.4646
 7578SOL     OW34195   3.223   2.829   5.203  0.0326 -0.4278  0.1990
 7578SOL    HW134196   3.192   2.739   5.192 -1.2626  0.1481 -0.8773
 7578SOL    HW234197   3.287   2.841   5.134  1.4166  0.3603  1.6219
 7579SOL     OW34198   0.460   4.081  15.201  0.2517  0.1184 -0.1425
 7579SOL    HW134199   0.461   4.045  15.112  2.1187 -0.0693 -0.0352
 7579SOL    HW234200   0.529   4.033  15.247  1.4251  0.4089 -1.5903
 7580SOL     OW34201   0.875   2.684   9.303 -0.1854 -0.2041 -0.0413
 7580SOL    HW134202   0.818   2.652   9.373  0.3580 -1.2849 -0.0890
 7580SOL    HW234203   0.963   2.699   9.338 -0.8487 -0.1644  1.5986
 7581SOL     OW34204   4.582   4.307   9.885 -0.3324 -0.2958  0.0574
 7581SOL    HW134205   4.580   4.271   9.796  2.8282  0.6248 -0.4092
 7581SOL    HW234206   4.502   4.270   9.921 -0.6811  0.0313 -0.3877
 7582SOL     OW34207   1.601   3.448   3.680 -0.2160  0.2741  0.4152
 7582SOL    HW134208   1.624   3.422   3.591 -1.1699 -0.5945  0.4165
 7582SOL    HW234209   1.654   3.524   3.703 -0.6214  0.9702 -1.0056
 7583SOL     OW34210   0.542   3.963  13.918 -0.2686 -0.3306 -0.7286
 7583SOL    HW134211   0.549   3.930  14.007  2.5148 -0.4591 -0.9873
 7583SOL    HW234212   0.574   3.889  13.866  0.4194 -0.8940  0.5024
 7584SOL     OW34213   0.368   2.291   2.977  0.1564  0.8086 -0.6905
 7584SOL    HW134214   0.450   2.322   3.017  0.1771 -0.6248  0.4015
 7584SOL    HW234215   0.364   2.205   3.018  0.5937  0.9992 -0.2407
 7585SOL     OW34216   2.803   0.684   3.031  0.1800  0.6329 -0.1321
 7585SOL    HW134217   2.780   0.759   2.975 -1.8994 -0.3461 -0.5800
 7585SOL    HW234218   2.733   0.690   3.096 -1.8303 -0.2701 -2.1994
 7586SOL     OW34219   2.581   0.158   1.650 -0.2425 -0.5859 -0.0686
 7586SOL    HW134220   2.654   0.145   1.589 -2.2238  2.2200 -3.0192
 7586SOL    HW234221   2.580   0.089   1.715  0.4459  0.6608  1.2782
 7587SOL     OW34222   2.417   4.684   8.069 -0.5993  0.2616  0.1854
 7587SOL    HW134223   2.500   4.705   8.111 -0.0061 -0.1242 -0.7958
 7587SOL    HW234224   2.396   4.609   8.125  0.2964  0.7330  1.1540
 7588SOL     OW34225   1.303   1.586   8.933  0.3431  0.1288 -0.3824
 7588SOL    HW134226   1.239   1.633   8.880 -0.8590 -0.0251  0.9359
 7588SOL    HW234227   1.260   1.606   9.016 -0.0507 -1.1821 -0.2727
 7589SOL     OW34228   2.839   0.444   5.426 -0.2408 -0.5338 -0.1682
 7589SOL    HW134229   2.934   0.438   5.416 -0.0987 -0.2925  0.9670
 7589SOL    HW234230   2.811   0.354   5.445  0.6253 -0.4052  1.7586
 7590SOL     OW34231   0.344   3.968  17.060 -0.5009  0.2268  0.6379
 7590SOL    HW134232   0.417   3.911  17.035 -0.2354  1.0654 -0.4712
 7590SOL    HW234233   0.315   3.940  17.147 -2.3239  0.8868  0.2368
 7591SOL     OW34234   0.861   1.765  14.636 -0.2819 -0.5898  0.0734
 7591SOL    HW134235   0.847   1.834  14.571 -0.1446 -1.0732 -0.4630
 7591SOL    HW234236   0.775   1.745  14.672 -0.8627  1.3256 -0.2143
 7592SOL     OW34237   1.038   2.288   8.755  0.1983  0.5312  0.8671
 7592SOL    HW134238   1.117   2.337   8.780  0.1995 -0.4926  2.9153
 7592SOL    HW234239   1.050   2.280   8.661  1.1164  1.0311  0.9411
 7593SOL     OW34240   0.969   4.029   1.193 -0.6747 -0.5311 -0.0757
 7593SOL    HW134241   0.997   4.025   1.285 -2.6724 -1.8377  0.4772
 7593SOL    HW234242   1.039   4.078   1.150 -1.8949  1.9357  0.7949
 7594SOL     OW34243   4.663   0.020   0.383  0.0337  0.1425 -0.3378
 7594SOL    HW134244   4.722   0.003   0.311 -0.1157  0.1971 -0.4733
 7594SOL    HW234245   4.643   4.654   0.406  1.5593 -0.3395 -0.9759
 7595SOL     OW34246   4.226   2.949  13.381  0.6658 -0.5399 -0.5949
 7595SOL    HW134247   4.294   2.982  13.440  0.3876 -0.4380 -0.3314
 7595SOL    HW234248   4.271   2.951  13.297 -0.2457 -2.6096 -1.1230
 7596SOL     OW34249   1.661   0.322  17.628  0.4888 -0.1958 -0.1179
 7596SOL    HW134250   1.620   0.401  17.593 -1.4463 -0.9993  0.3456
 7596SOL    HW234251   1.677   0.349   0.017 -0.2825 -0.9214  0.2278
 7597SOL     OW34252   2.633   3.137   2.895  0.6127 -0.6539 -0.1392
 7597SOL    HW134253   2.719   3.144   2.855 -0.4056 -0.1943 -2.3033
 7597SOL    HW234254   2.641   3.218   2.945  0.7217 -0.9937  0.3860
 7598SOL     OW34255   3.754   4.627   7.241 -0.3894  0.5511 -0.4336
 7598SOL    HW134256   3.671   4.587   7.266  0.4210 -0.6071  0.4022
 7598SOL    HW234257   3.816   4.589   7.303 -0.6926  0.7021 -0.0378
 7599SOL     OW34258   3.649   4.126   1.720  0.1954 -0.6201  0.1929
 7599SOL    HW134259   3.672   4.143   1.628  2.3751  0.9794  1.0255
 7599SOL    HW234260   3.564   4.083   1.718 -0.8233  1.3634  0.8820
 7600SOL     OW34261   4.625   1.053   2.713 -0.0536 -0.8591 -0.3182
 7600SOL    HW134262   4.583   1.120   2.659  0.5169 -0.8943 -0.8061
 7600SOL    HW234263   4.712   1.041   2.677  0.3552  0.0908  0.3479
 7601SOL     OW34264   2.655   2.511   1.086 -0.0830 -0.5927 -0.1348
 7601SOL    HW134265   2.573   2.498   1.039 -1.0386  2.1138  0.7841
 7601SOL    HW234266   2.673   2.604   1.069 -1.3002 -0.2553  0.4185
 7602SOL     OW34267   4.319   3.958   0.931  0.0556  0.1307 -0.0075
 7602SOL    HW134268   4.411   3.934   0.930 -0.2145 -1.0498  3.0823
 7602SOL    HW234269   4.291   3.914   0.850  1.4799 -2.1446  0.7552
 7603SOL     OW34270   3.579   1.410   1.807 -0.1412  0.4777  0.5548
 7603SOL    HW134271   3.518   1.453   1.747 -0.6556  0.0485  0.7779
 7603SOL    HW234272   3.658   1.395   1.754 -1.9373 -0.3680 -1.8858
 7604SOL     OW34273   0.688   2.277   5.743  0.0415 -0.2195  0.2382
 7604SOL    HW134274   0.738   2.205   5.780 -0.7302 -0.5661  0.6222
 7604SOL    HW234275   0.661   2.223   5.669  1.1658  0.3658 -0.5968
 7605SOL     OW34276   4.628   4.511   4.989 -0.3932 -0.3738  0.4646
 7605SOL    HW134277   4.623   4.558   4.906 -0.4690 -1.5999 -0.2133
 7605SOL    HW234278   4.536   4.500   5.015 -1.3041  0.4075 -2.4318
 7606SOL     OW34279   0.232   0.889   4.731 -0.5083  0.0409  0.1402
 7606SOL    HW134280   0.255   0.834   4.805 -0.2948  0.7721  0.6206
 7606SOL    HW234281   0.247   0.978   4.764  0.9332  0.7315 -2.3554
 7607SOL     OW34282   3.704   2.222   1.078  0.1351 -0.4497 -0.4516
 7607SOL    HW134283   3.734   2.255   0.993  0.5251 -1.7375 -0.8169
 7607SOL    HW234284   3.694   2.306   1.124  1.1720 -1.7631  2.1559
 7608SOL     OW34285   0.505   0.136  12.274  0.3063 -0.1656 -0.2096
 7608SOL    HW134286   0.562   0.213  12.276  1.5485 -1.1367  1.7696
 7608SOL    HW234287   0.562   0.076  12.322 -0.8900  0.8974  2.5925
 7609SOL     OW34288   1.079   3.120   3.945  0.3833 -0.0109 -0.3613
 7609SOL    HW134289   1.016   3.192   3.941 -0.2678 -0.4196  2.3069
 7609SOL    HW234290   1.113   3.138   4.033 -2.8054 -1.4920  1.1941
 7610SOL     OW34291   0.203   0.757   6.783  0.0114 -0.0273 -0.4528
 7610SOL    HW134292   0.194   0.753   6.687  0.7804 -1.6891 -0.4462
 7610SOL    HW234293   0.133   0.700   6.814  1.1610 -1.1274  0.1065
 7611SOL     OW34294   4.017   2.427   7.342 -0.3880 -0.0216  0.2196
 7611SOL    HW134295   4.035   2.468   7.257 -0.5774  1.2929  0.8235
 7611SOL    HW234296   4.042   2.501   7.396  1.2247 -0.1972 -0.2818
 7612SOL     OW34297   3.717   0.173   7.262  0.2233 -0.3577 -0.4104
 7612SOL    HW134298   3.664   0.142   7.335  0.2560 -1.0628 -0.6905
 7612SOL    HW234299   3.754   0.094   7.223  2.5658  0.4010  0.3206
 7613SOL     OW34300   4.702   2.448   2.355  0.1283  0.1616  0.4330
 7613SOL    HW134301   4.679   2.541   2.349  1.2301  0.4177  0.1512
 7613SOL    HW234302   0.057   2.449   2.408  0.1823  1.0697  0.3392
 7614SOL     OW34303   3.015   2.254  11.403 -0.0589  0.2038 -0.1725
 7614SOL    HW134304   3.004   2.349  11.408 -3.2245 -0.0098 -2.9604
 7614SOL    HW234305   3.021   2.254  11.307 -0.6845 -2.1557 -0.2271
 7615SOL     OW34306   3.306   0.943  13.619  0.4836  0.1166  0.3265
 7615SOL    HW134307   3.390   0.985  13.598 -1.1721  3.6780  0.8708
 7615SOL    HW234308   3.295   0.957  13.713 -0.6442  2.7618 -0.2168
 7616SOL     OW34309   4.720   3.851   9.779 -0.2352 -0.3272 -0.2198
 7616SOL    HW134310   4.678   3.775   9.819  1.4186 -0.2495  1.7126
 7616SOL    HW234311   0.087   3.844   9.806  0.4468 -0.0666 -2.4862
 7617SOL     OW34312   0.509   2.228   4.570  0.0700 -0.0754  0.1459
 7617SOL    HW134313   0.432   2.241   4.626  0.5381 -2.5867  1.4172
 7617SOL    HW234314   0.502   2.296   4.503 -1.9381 -1.1233 -0.7153
 7618SOL     OW34315   2.127   1.718  13.811  0.0168 -0.2998  0.4836
 7618SOL    HW134316   2.153   1.810  13.806 -1.0031 -0.0766 -0.9358
 7618SOL    HW234317   2.038   1.713  13.847 -0.5000  0.6236 -0.6510
 7619SOL     OW34318   4.664   3.854   2.907 -0.3073  0.0075  0.5952
 7619SOL    HW134319   0.003   3.802   2.955  1.7912  1.4980 -0.5763
 7619SOL    HW234320   4.688   3.946   2.917 -0.9751  0.2468  0.0141
 7620SOL     OW34321   2.242   3.071   3.731  0.0180  0.0505  0.1030
 7620SOL    HW134322   2.183   3.144   3.748 -0.5035 -0.4596  0.5185
 7620SOL    HW234323   2.290   3.108   3.658  0.1337 -3.0793 -1.4039
 7621SOL     OW34324   1.025   3.017  16.102 -0.4883  0.1210 -0.2730
 7621SOL    HW134325   1.023   3.033  16.008 -0.7813 -2.2348 -0.6787
 7621SOL    HW234326   0.994   3.103  16.128  0.3018  0.3503 -0.0773
 7622SOL     OW34327   1.700   3.790   2.819 -0.7967 -0.2213 -0.0952
 7622SOL    HW134328   1.748   3.757   2.744  0.4559 -0.2889  0.7441
 7622SOL    HW234329   1.697   3.716   2.879  0.2505 -1.0619 -1.0864
 7623SOL     OW34330   0.481   4.701   5.513  0.1284  0.5768 -0.1839
 7623SOL    HW134331   0.514   0.047   5.458  2.6426 -0.8987 -0.5899
 7623SOL    HW234332   0.502   0.021   5.596  0.5631 -0.7936  0.4539
 7624SOL     OW34333   1.774   2.052   1.859  0.6808  0.3495 -0.6227
 7624SOL    HW134334   1.727   2.080   1.780 -1.7365 -3.5478 -0.5646
 7624SOL    HW234335   1.782   1.961   1.833 -1.7723  0.2825 -1.1976
 7625SOL     OW34336   3.672   3.136   5.287  0.3730 -0.4109  0.0170
 7625SOL    HW134337   3.588   3.173   5.259  0.4276  1.2182  2.0005
 7625SOL    HW234338   3.729   3.210   5.268 -1.8931  1.1375 -0.7886
 7626SOL     OW34339   2.548   0.619  15.991 -0.4153 -0.0444 -0.6451
 7626SOL    HW134340   2.464   0.572  15.991 -0.9452  0.8821 -3.3165
 7626SOL    HW234341   2.521   0.702  16.030  0.2855 -1.0127  1.8660
 7627SOL     OW34342   0.685   3.964  13.055  0.1094  0.5108  0.2927
 7627SOL    HW134343   0.753   3.954  12.989 -0.1035 -0.0788  0.1671
 7627SOL    HW234344   0.627   4.030  13.016 -0.4739  0.7041  1.4833
 7628SOL     OW34345   1.743   4.210   0.283  0.3231  0.0510 -0.2161
 7628SOL    HW134346   1.674   4.151   0.253 -0.2590  0.5097  0.2254
 7628SOL    HW234347   1.752   4.260   0.202  1.6082 -0.2510 -0.2564
 7629SOL     OW34348   3.783   1.136   3.355  0.2122  0.2065  0.1314
 7629SOL    HW134349   3.789   1.057   3.408  0.3318  0.4037  0.4134
 7629SOL    HW234350   3.870   1.134   3.315 -0.2495 -2.4300 -0.7472
 7630SOL     OW34351   2.742   4.506  13.003  0.4749 -0.0945 -0.4912
 7630SOL    HW134352   2.661   4.456  13.008  1.3489 -1.2503  2.4077
 7630SOL    HW234353   2.731   4.543  13.090  0.7759  0.5317 -0.7226
 7631SOL     OW34354   4.351   1.338   3.852  0.6854  0.0638 -0.1704
 7631SOL    HW134355   4.424   1.392   3.823 -0.7088  1.9585 -0.1093
 7631SOL    HW234356   4.389   1.268   3.905 -0.3368  1.3269  2.2242
 7632SOL     OW34357   2.166   2.868   0.666 -0.0601 -0.0948  0.1805
 7632SOL    HW134358   2.238   2.917   0.705 -0.7674  0.8148  0.3151
 7632SOL    HW234359   2.196   2.781   0.693  0.2330 -0.0164  0.1068
 7633SOL     OW34360   0.688   2.590   9.667  0.1009  0.4155  0.3737
 7633SOL    HW134361   0.671   2.558   9.755 -3.1646  1.0392 -0.0251
 7633SOL    HW234362   0.780   2.608   9.682  0.0201  1.4836 -0.3661
 7634SOL     OW34363   1.738   1.140  14.231 -0.5046 -0.2524 -0.0727
 7634SOL    HW134364   1.767   1.129  14.140 -1.3427 -0.1618 -0.3575
 7634SOL    HW234365   1.650   1.177  14.219 -0.2641 -0.0305 -1.1296
 7635SOL     OW34366   0.661   1.512   2.702 -0.5926  0.0622  0.5444
 7635SOL    HW134367   0.717   1.506   2.625  0.0685  1.5615  0.9083
 7635SOL    HW234368   0.618   1.426   2.705 -3.4285  1.4771  0.2310
 7636SOL     OW34369   3.373   1.493  16.830 -0.1462 -0.3912 -0.4464
 7636SOL    HW134370   3.343   1.404  16.812 -1.5791 -0.0512  0.2249
 7636SOL    HW234371   3.421   1.517  16.752 -1.8384  1.5225 -0.9024
 7637SOL     OW34372   3.049   1.927   5.103 -0.0535 -0.0336  0.0611
 7637SOL    HW134373   3.143   1.934   5.118  0.0469 -0.5928 -0.2915
 7637SOL    HW234374   3.037   2.019   5.079 -1.3714 -0.8069 -2.2379
 7638SOL     OW34375   2.984   1.550   6.679  0.7047  0.1942  0.5805
 7638SOL    HW134376   2.972   1.583   6.590 -0.8145 -2.1873 -0.0946
 7638SOL    HW234377   2.982   1.632   6.727 -1.7951 -0.3097  1.3172
 7639SOL     OW34378   4.717   4.136  10.905 -0.3255 -0.1123  0.6485
 7639SOL    HW134379   0.073   4.164  10.948 -0.0666 -1.3474  0.9789
 7639SOL    HW234380   4.645   4.166  10.960  1.1935  0.8161  2.1440
 7640SOL     OW34381   2.004   1.925   8.915 -0.1821  0.6915  0.2588
 7640SOL    HW134382   1.940   1.994   8.898 -2.7528 -1.4682  1.2322
 7640SOL    HW234383   2.012   1.923   9.010  2.3424 -0.2968  0.0465
 7641SOL     OW34384   0.590   4.176  13.745 -0.1245  0.0237  0.1095
 7641SOL    HW134385   0.566   4.112  13.812  0.9169  0.3895  0.8270
 7641SOL    HW234386   0.645   4.245  13.782 -0.8393 -0.5577  2.1987
 7642SOL     OW34387   0.901   1.363  10.117 -0.0575  0.4944  0.2139
 7642SOL    HW134388   0.976   1.312  10.148 -1.5782 -0.7111  1.9294
 7642SOL    HW234389   0.912   1.437  10.177 -0.3323  0.1330  0.7116
 7643SOL     OW34390   2.290   4.232   9.965  0.7128  0.3672 -0.0172
 7643SOL    HW134391   2.269   4.319   9.930  0.0799 -0.3003 -1.2894
 7643SOL    HW234392   2.336   4.263  10.043  0.1922 -1.3670  0.9608
 7644SOL     OW34393   2.367   2.140  10.931 -0.0368 -0.6978  0.2728
 7644SOL    HW134394   2.335   2.218  10.887  0.0020 -0.2821  0.9699
 7644SOL    HW234395   2.316   2.073  10.886  0.3528 -0.2580 -0.8112
 7645SOL     OW34396   2.904   2.547   9.197 -0.0674 -0.1045  0.1696
 7645SOL    HW134397   2.962   2.503   9.134  1.4095  0.2955  1.2722
 7645SOL    HW234398   2.963   2.585   9.262 -0.1352 -0.2194  0.2987
 7646SOL     OW34399   0.257   0.468   7.098  0.1856  0.7846  0.0498
 7646SOL    HW134400   0.247   0.452   7.192  1.2175  2.1500  0.3892
 7646SOL    HW234401   0.240   0.561   7.084  0.5747  0.5190 -2.1643
 7647SOL     OW34402   1.164   0.403   2.088 -0.4486 -0.3564 -0.3795
 7647SOL    HW134403   1.255   0.419   2.112 -0.0940 -1.1086 -1.2434
 7647SOL    HW234404   1.150   0.394   1.994  1.7451 -1.3730 -0.6140
 7648SOL     OW34405   1.376   4.663   3.791 -0.8068  0.1312 -0.0542
 7648SOL    HW134406   1.463   4.645   3.753 -0.2638 -0.2272  1.3427
 7648SOL    HW234407   1.330   4.596   3.740 -0.6221 -1.4261  1.8457
 7649SOL     OW34408   1.812   2.579   2.352 -0.0794 -0.0783 -0.0446
 7649SOL    HW134409   1.834   2.489   2.328  0.1874 -0.2162  0.7196
 7649SOL    HW234410   1.840   2.626   2.274 -4.5831 -1.0381 -2.2693
 7650SOL     OW34411   3.114   4.039   4.035  0.2628  0.7529  0.0381
 7650SOL    HW134412   3.134   4.056   3.943 -0.0805  2.7819  0.3556
 7650SOL    HW234413   3.186   4.082   4.083 -0.2413  1.7052 -0.0732
 7651SOL     OW34414   2.247   0.327  17.210  0.0562 -0.0335 -0.0267
 7651SOL    HW134415   2.333   0.360  17.236 -1.1456  0.8359  2.8070
 7651SOL    HW234416   2.257   0.293  17.121 -0.7364  0.3576 -0.2661
 7652SOL     OW34417   0.350   0.730   6.198  0.4738 -0.1569 -0.4325
 7652SOL    HW134418   0.291   0.679   6.143  1.1277 -3.1163  1.6385
 7652SOL    HW234419   0.335   0.816   6.158 -4.3472 -0.9349 -0.3626
 7653SOL     OW34420   0.204   3.094   4.380  0.3362 -0.1649 -0.1114
 7653SOL    HW134421   0.134   3.105   4.316  0.2538 -0.0960 -0.0107
 7653SOL    HW234422   0.275   3.080   4.317  1.0606 -0.3738  0.7442
 7654SOL     OW34423   1.610   3.818   6.052  0.3593  0.0169 -0.0313
 7654SOL    HW134424   1.662   3.899   6.048 -0.8519  0.7565 -0.8846
 7654SOL    HW234425   1.674   3.748   6.065  0.2727 -0.1811 -0.6658
 7655SOL     OW34426   1.179   2.277   3.316 -1.1479 -0.3519 -0.2138
 7655SOL    HW134427   1.207   2.279   3.224 -0.4035 -0.9950 -0.0034
 7655SOL    HW234428   1.242   2.342   3.347 -0.3570 -1.8679  1.3736
 7656SOL     OW34429   3.653   2.837   7.634  0.3343 -0.1945 -0.2788
 7656SOL    HW134430   3.580   2.862   7.577  0.0659  0.8758  0.5174
 7656SOL    HW234431   3.667   2.912   7.692 -1.7434  0.3619 -0.4789
 7657SOL     OW34432   4.121   1.763   6.693 -0.2002 -0.0839 -0.2031
 7657SOL    HW134433   4.165   1.680   6.709 -2.6311 -1.3204 -0.0559
 7657SOL    HW234434   4.115   1.755   6.597  2.2464  0.7295 -0.4247
 7658SOL     OW34435   2.898   2.300   2.825 -0.0401 -0.6304  0.1896
 7658SOL    HW134436   2.813   2.319   2.785 -1.4180 -1.6905  2.5606
 7658SOL    HW234437   2.880   2.328   2.915  0.0813 -0.1275  0.0596
 7659SOL     OW34438   3.009   3.671  15.590 -0.0143  0.3439 -0.4118
 7659SOL    HW134439   2.978   3.753  15.628  1.2982  0.3007  0.7126
 7659SOL    HW234440   3.048   3.624  15.663 -1.7225 -0.7426 -0.1783
 7660SOL     OW34441   1.781   4.328   6.787  0.3801 -0.5068  0.0944
 7660SOL    HW134442   1.788   4.309   6.880  1.4330  0.3466  0.1906
 7660SOL    HW234443   1.867   4.304   6.753  0.3217 -0.2784 -0.2192
 7661SOL     OW34444   0.365   4.017   0.585 -0.0873  0.3382  0.9539
 7661SOL    HW134445   0.349   3.938   0.636 -3.3039  0.8810  0.7933
 7661SOL    HW234446   0.399   3.987   0.500  0.0312  1.9025  0.4481
 7662SOL     OW34447   1.299   0.201  16.292  0.1332 -0.6096 -0.4017
 7662SOL    HW134448   1.380   0.198  16.342 -0.1449 -0.1938  0.0784
 7662SOL    HW234449   1.253   0.277  16.328 -1.8373 -1.6485 -0.7059
 7663SOL     OW34450   1.980   3.214   0.761 -0.0743  0.1376  0.1694
 7663SOL    HW134451   1.887   3.207   0.740 -0.1263 -0.9089  0.7993
 7663SOL    HW234452   1.989   3.146   0.827  0.4583  1.6275  1.6325
 7664SOL     OW34453   2.328   4.062   8.567 -0.2044 -0.5728 -0.5353
 7664SOL    HW134454   2.268   3.987   8.571 -1.8716  0.8235  0.6355
 7664SOL    HW234455   2.278   4.129   8.613 -1.7667 -1.3736 -1.0649
 7665SOL     OW34456   3.794   4.650  17.618 -0.1383  0.0905  0.0040
 7665SOL    HW134457   3.703   4.621  17.625 -0.2681  0.6750  0.7201
 7665SOL    HW234458   3.844   4.586  17.567  0.7115 -0.9711  2.1952
 7666SOL     OW34459   1.997   2.332   6.194  0.4174 -0.1799  0.3250
 7666SOL    HW134460   1.925   2.378   6.151  2.0247  0.8752 -1.1891
 7666SOL    HW234461   1.946   2.265   6.241 -0.0596  0.7241  1.0919
 7667SOL     OW34462   2.998   3.404  16.286  0.4725  0.2014  0.1760
 7667SOL    HW134463   2.988   3.309  16.282  0.3208  0.1610  1.5123
 7667SOL    HW234464   2.923   3.432  16.234  1.6736  1.5959 -0.8075
 7668SOL     OW34465   2.585   2.275   1.554  0.3375 -0.1124  0.0580
 7668SOL    HW134466   2.598   2.294   1.461  1.9414  0.2403  0.3534
 7668SOL    HW234467   2.615   2.354   1.598 -1.9732 -0.2549  1.8782
 7669SOL     OW34468   1.872   2.118   3.219  0.2386 -0.7725 -0.1125
 7669SOL    HW134469   1.885   2.111   3.125 -0.5753  0.9833 -0.3691
 7669SOL    HW234470   1.954   2.157   3.249 -1.6502  1.8306  1.7404
 7670SOL     OW34471   0.662   3.479   7.758  0.0567  0.8064  0.3003
 7670SOL    HW134472   0.654   3.383   7.758  1.9037  0.6581 -0.1426
 7670SOL    HW234473   0.618   3.494   7.842 -1.3207  0.3274 -0.3395
 7671SOL     OW34474   2.109   0.834  16.339  0.1412  0.1187 -0.0337
 7671SOL    HW134475   2.141   0.744  16.335  2.0954  0.7860  0.4176
 7671SOL    HW234476   2.018   0.821  16.365 -1.1335  1.1683 -3.9350
 7672SOL     OW34477   2.196   3.815   3.775  0.4962  0.2970 -0.5145
 7672SOL    HW134478   2.211   3.909   3.780 -0.4967  0.3024  2.5407
 7672SOL    HW234479   2.149   3.797   3.857  0.6182 -0.4155 -0.5974
 7673SOL     OW34480   4.141   3.575   8.450  0.2204 -0.3787  0.0255
 7673SOL    HW134481   4.185   3.490   8.450  0.0322 -0.4762 -0.1951
 7673SOL    HW234482   4.178   3.609   8.531  3.3487 -0.3929 -1.3836
 7674SOL     OW34483   1.364   3.163   5.146 -0.5989  0.1132  0.3442
 7674SOL    HW134484   1.398   3.142   5.059  1.6826 -2.8260  1.9177
 7674SOL    HW234485   1.419   3.238   5.167  1.7428 -0.8658 -2.1388
 7675SOL     OW34486   1.559   1.152   3.960 -0.5471 -0.4921  0.3099
 7675SOL    HW134487   1.483   1.146   3.903 -0.3250 -0.1093 -0.0245
 7675SOL    HW234488   1.539   1.090   4.030 -1.7021 -0.9580 -0.4369
 7676SOL     OW34489   0.331   3.749   6.980 -0.0804  0.0297  0.1862
 7676SOL    HW134490   0.303   3.827   7.028  0.5246  0.3223  0.0677
 7676SOL    HW234491   0.422   3.775   6.968 -0.6290  1.0903 -1.6126
 7677SOL     OW34492   1.327   2.920   1.301  0.0169  0.6118 -0.1777
 7677SOL    HW134493   1.299   2.958   1.384  0.8822  2.7410 -0.8613
 7677SOL    HW234494   1.405   2.971   1.277  0.4333  1.0496  2.1550
 7678SOL     OW34495   3.534   2.310  10.368 -0.1037 -0.3729 -0.3907
 7678SOL    HW134496   3.481   2.371  10.419 -0.3586 -1.6412  0.8419
 7678SOL    HW234497   3.502   2.224  10.395  1.7494 -0.7059  0.8059
 7679SOL     OW34498   4.532   1.865   8.273  0.4810 -0.6183 -0.0453
 7679SOL    HW134499   4.568   1.856   8.361  0.7941  0.3169 -0.0688
 7679SOL    HW234500   4.447   1.823   8.279  0.9086 -1.8180 -2.6603
 7680SOL     OW34501   0.928   1.356  16.237 -0.3714  0.7048 -0.3602
 7680SOL    HW134502   0.854   1.357  16.298 -1.9473 -0.2534 -2.2518
 7680SOL    HW234503   0.962   1.444  16.251  0.5982  0.1656  0.7299
 7681SOL     OW34504   0.061   1.924   9.633  0.2912 -0.1456 -0.7497
 7681SOL    HW134505   0.114   1.910   9.554  2.4319 -1.2933  0.8837
 7681SOL    HW234506   0.106   1.999   9.671 -0.6714 -0.0734  0.2298
 7682SOL     OW34507   1.651   2.112   9.084  0.4917  0.1447  0.2846
 7682SOL    HW134508   1.566   2.073   9.106  1.1897 -0.8078  1.3269
 7682SOL    HW234509   1.698   2.100   9.167  1.4294  1.8721 -0.0002
 7683SOL     OW34510   1.889   0.906  15.139 -0.0821 -0.2588  0.1799
 7683SOL    HW134511   1.939   0.918  15.058 -1.5938  0.5086 -0.6200
 7683SOL    HW234512   1.798   0.919  15.113  0.2007 -0.6657 -1.0077
 7684SOL     OW34513   1.342   3.501   2.045  0.1764 -0.0940  0.2285
 7684SOL    HW134514   1.268   3.460   2.090  0.8548 -2.2649 -0.6370
 7684SOL    HW234515   1.410   3.441   2.074 -0.0263 -0.4055  0.0576
 7685SOL     OW34516   1.122   1.768   0.424  0.2982 -0.0703 -0.0531
 7685SOL    HW134517   1.192   1.718   0.381 -0.7682  0.5912 -2.5613
 7685SOL    HW234518   1.050   1.705   0.428  0.1087  0.1060 -0.7358
 7686SOL     OW34519   1.076   2.223   6.369 -0.2846 -0.1289  0.0779
 7686SOL    HW134520   1.150   2.278   6.395 -0.3675  0.2978 -0.5658
 7686SOL    HW234521   1.129   2.150   6.338  1.6827  0.6782  1.5959
 7687SOL     OW34522   2.092   2.066  11.960  0.0472 -0.1663  0.3672
 7687SOL    HW134523   2.150   2.092  11.888 -0.3238  1.0079  0.4936
 7687SOL    HW234524   2.095   1.971  11.954 -0.4608 -0.0971 -1.1834
 7688SOL     OW34525   4.670   3.372   3.585  0.3465 -0.2560 -0.2334
 7688SOL    HW134526   0.039   3.389   3.595  0.3972 -1.7803  1.7642
 7688SOL    HW234527   4.674   3.277   3.591 -0.3610 -0.3029 -0.5111
 7689SOL     OW34528   2.085   2.860   8.330  0.3848  0.4903  0.5190
 7689SOL    HW134529   2.082   2.805   8.251  2.0787  0.9864  0.1128
 7689SOL    HW234530   2.178   2.852   8.351  0.0880  0.1179  1.6691
 7690SOL     OW34531   2.061   3.494  15.230 -0.2093 -0.0872  0.4144
 7690SOL    HW134532   1.983   3.540  15.261  1.0455  1.1594  1.6805
 7690SOL    HW234533   2.097   3.473  15.316  0.4869  2.7999  0.8194
 7691SOL     OW34534   3.828   2.202  17.689  0.2263 -0.0410 -0.1011
 7691SOL    HW134535   3.890   2.159  17.629  1.9482  1.7741  0.3677
 7691SOL    HW234536   3.893   2.247   0.041  0.3488 -0.9651  0.5279
 7692SOL     OW34537   2.017   0.557   4.167 -0.0378  0.4124  0.9374
 7692SOL    HW134538   2.111   0.548   4.183  0.2709  0.5112 -0.7538
 7692SOL    HW234539   1.995   0.645   4.137 -0.1686 -1.0095 -3.1381
 7693SOL     OW34540   2.636   2.744   2.649 -0.4842 -0.3274  0.0061
 7693SOL    HW134541   2.585   2.825   2.651  0.9902  0.6205 -0.6862
 7693SOL    HW234542   2.584   2.673   2.687  0.1100  0.4042  2.1823
 7694SOL     OW34543   4.654   3.013  10.484  0.1373 -0.0458  0.1719
 7694SOL    HW134544   0.007   3.032  10.432 -0.8061  2.2817 -0.4051
 7694SOL    HW234545   4.610   3.097  10.496  0.2272 -0.0828  0.7923
 7695SOL     OW34546   2.474   1.481   4.579  0.1506  0.4553  0.1762
 7695SOL    HW134547   2.560   1.496   4.539  1.4442 -0.1750  2.7185
 7695SOL    HW234548   2.439   1.438   4.501 -1.2934 -0.0041  1.0802
 7696SOL     OW34549   4.534   2.331   1.400  0.2658 -0.2727  0.1245
 7696SOL    HW134550   4.487   2.405   1.438 -0.3279 -0.6156  0.0642
 7696SOL    HW234551   4.480   2.263   1.440 -0.3155  0.3537  0.4013
 7697SOL     OW34552   3.611   3.981  10.605  0.9680 -0.1369 -0.4524
 7697SOL    HW134553   3.620   3.906  10.664  0.3085  0.3796  0.3070
 7697SOL    HW234554   3.567   4.045  10.662  0.5568 -0.1339 -0.7697
 7698SOL     OW34555   2.062   1.385  14.033 -0.1207  0.0033  0.7450
 7698SOL    HW134556   2.059   1.446  13.959  2.3916  0.8355  1.3615
 7698SOL    HW234557   2.113   1.427  14.102  1.0021  0.2057 -0.2072
 7699SOL     OW34558   1.679   4.527   5.910 -0.1099  0.0630  0.0534
 7699SOL    HW134559   1.678   4.570   5.995 -2.0648 -0.2899  0.2279
 7699SOL    HW234560   1.584   4.512   5.903  0.3151 -2.4355 -0.6362
 7700SOL     OW34561   4.406   1.350   2.289 -0.1315  0.5041 -0.1707
 7700SOL    HW134562   4.371   1.262   2.275  2.7615 -0.4800 -1.0739
 7700SOL    HW234563   4.369   1.388   2.209 -1.5277 -1.6021 -0.5233
 7701SOL     OW34564   1.646   2.457   0.620  0.5872  0.5720  0.1492
 7701SOL    HW134565   1.730   2.452   0.575 -0.5879 -1.0410 -1.9200
 7701SOL    HW234566   1.609   2.379   0.577  1.3200 -0.0538  0.6446
 7702SOL     OW34567   0.296   1.124   4.072 -0.2239  0.7575 -0.7846
 7702SOL    HW134568   0.385   1.126   4.037 -0.6866 -0.1043 -2.0070
 7702SOL    HW234569   0.312   1.156   4.161  2.4906 -0.4144 -0.8635
 7703SOL     OW34570   0.144   3.179   9.639 -0.0938  0.2076  0.0063
 7703SOL    HW134571   0.102   3.124   9.705 -0.4206  0.5282  0.0671
 7703SOL    HW234572   0.236   3.180   9.666  0.4743  1.6050 -1.9335
 7704SOL     OW34573   2.502   2.224   0.883  0.2121 -0.6553 -0.2039
 7704SOL    HW134574   2.542   2.181   0.959 -0.2187  1.0869  0.9965
 7704SOL    HW234575   2.444   2.154   0.851 -1.3870  0.4329  0.3078
 7705SOL     OW34576   2.108   3.527  11.646  0.2613  0.1263  0.0734
 7705SOL    HW134577   2.045   3.591  11.611  1.0151  1.3281  0.9037
 7705SOL    HW234578   2.105   3.463  11.575 -0.9488 -0.7379  0.8860
 7706SOL     OW34579   2.018   3.095  10.229 -0.5833 -0.0169 -0.3344
 7706SOL    HW134580   2.058   3.013  10.256  1.2329  0.5385 -1.2857
 7706SOL    HW234581   2.066   3.115  10.148 -1.7860  1.1646 -0.7603
 7707SOL     OW34582   3.361   0.001   6.094 -0.2922 -0.6363 -0.1033
 7707SOL    HW134583   3.340   0.002   6.001  0.6709 -0.4330 -0.3117
 7707SOL    HW234584   3.377   4.632   6.107 -0.6542 -0.4211  1.8969
 7708SOL     OW34585   3.091   0.671   4.439  0.5446  0.2754  0.5418
 7708SOL    HW134586   3.027   0.722   4.390 -0.9429 -0.7248  1.4409
 7708SOL    HW234587   3.163   0.666   4.377 -1.0012  0.8279 -1.3091
 7709SOL     OW34588   1.740   3.903   5.709  0.3054 -0.1241  0.2844
 7709SOL    HW134589   1.772   3.814   5.695 -0.2365 -0.6219  2.1587
 7709SOL    HW234590   1.670   3.898   5.645 -0.5602 -1.4991  1.3395
 7710SOL     OW34591   3.933   4.367  12.925 -0.2911  0.2945 -0.6984
 7710SOL    HW134592   4.023   4.380  12.894 -0.6722 -0.5000 -2.1496
 7710SOL    HW234593   3.913   4.455  12.957 -1.7281  0.3403 -1.7723
 7711SOL     OW34594   2.743   1.966   6.494  0.0769  0.1410 -0.4601
 7711SOL    HW134595   2.811   2.000   6.553  1.4623 -1.4972 -1.1353
 7711SOL    HW234596   2.759   2.025   6.420  0.0777  1.3461  0.5047
 7712SOL     OW34597   1.182   1.759  12.704  0.0571 -0.0565  0.4460
 7712SOL    HW134598   1.229   1.747  12.621  0.6268  1.1379  0.5937
 7712SOL    HW234599   1.129   1.680  12.706  0.7489 -0.5570 -0.7206
 7713SOL     OW34600   4.650   3.194   5.405 -0.6106 -0.3584 -0.0517
 7713SOL    HW134601   4.639   3.151   5.490 -1.0632 -0.4562 -0.1600
 7713SOL    HW234602   4.684   3.129   5.344 -0.8181  0.9015 -1.5152
 7714SOL     OW34603   0.608   1.783  14.104  0.7503  0.1245  0.3060
 7714SOL    HW134604   0.651   1.698  14.097 -0.8330 -0.5261 -1.4912
 7714SOL    HW234605   0.546   1.781  14.031 -0.1585  0.9751  1.0502
 7715SOL     OW34606   2.650   4.569   3.225  0.0813 -0.3725 -0.2858
 7715SOL    HW134607   2.664   4.636   3.293 -3.3896 -0.4737  0.5380
 7715SOL    HW234608   2.735   4.581   3.184  0.1945 -0.5845 -0.1140
 7716SOL     OW34609   3.945   2.991  15.496  0.2297  0.2231  0.4262
 7716SOL    HW134610   3.903   3.041  15.426 -1.5662 -0.3600  1.1065
 7716SOL    HW234611   4.035   3.000  15.464 -0.0506  1.2034 -0.0925
 7717SOL     OW34612   0.100   3.534   8.432 -0.2792 -0.4813 -0.0369
 7717SOL    HW134613   0.181   3.553   8.384 -1.5571  0.1706 -1.9360
 7717SOL    HW234614   0.106   3.597   8.503 -1.2883 -1.5230  0.9819
 7718SOL     OW34615   2.599   2.884   4.473  0.3160  0.6684  0.4043
 7718SOL    HW134616   2.638   2.967   4.498 -0.7186  0.9996  0.9436
 7718SOL    HW234617   2.670   2.839   4.428  1.0199 -1.7018  3.8563
 7719SOL     OW34618   4.414   4.376   3.681  0.3195  0.0294  0.5002
 7719SOL    HW134619   4.406   4.386   3.586 -0.6730 -0.0578  0.5727
 7719SOL    HW234620   4.382   4.462   3.707 -2.0276 -1.2103  1.7201
 7720SOL     OW34621   3.813   4.542  13.715  0.1638  0.2096 -0.0821
 7720SOL    HW134622   3.895   4.560  13.759  0.6835 -2.1133 -0.1265
 7720SOL    HW234623   3.798   4.447  13.714  0.1563  0.2260 -4.2706
 7721SOL     OW34624   3.487   4.211   5.584 -0.4310 -0.3279  0.4253
 7721SOL    HW134625   3.416   4.263   5.545 -0.6450  0.7300  2.2629
 7721SOL    HW234626   3.531   4.168   5.510 -3.3594 -0.4817 -1.2409
 7722SOL     OW34627   2.452   1.517   2.068  0.3996  0.2887 -0.5135
 7722SOL    HW134628   2.490   1.478   1.989 -1.1416  0.6886 -1.4435
 7722SOL    HW234629   2.409   1.443   2.110  0.6334 -0.3723 -1.4140
 7723SOL     OW34630   1.636   4.455  15.921  0.0996 -0.1068 -0.3159
 7723SOL    HW134631   1.672   4.371  15.893  1.8792  1.0083 -1.3758
 7723SOL    HW234632   1.575   4.433  15.991 -1.7315 -0.7032 -2.0990
 7724SOL     OW34633   2.959   0.305  15.652  0.4718  0.2680  0.4162
 7724SOL    HW134634   3.050   0.298  15.623  0.6065  1.9209  0.4310
 7724SOL    HW234635   2.944   0.399  15.663 -1.4470  0.0936 -0.6343
 7725SOL     OW34636   3.546   1.705   7.804 -0.2899 -0.2898  0.2855
 7725SOL    HW134637   3.474   1.650   7.837 -0.4274 -0.0131  0.4496
 7725SOL    HW234638   3.559   1.782   7.860 -1.3331 -1.3332  1.9496
 7726SOL     OW34639   1.790   0.792   4.860  0.3856  0.4759 -0.9568
 7726SOL    HW134640   1.831   0.770   4.777 -0.1693 -3.6476 -0.1178
 7726SOL    HW234641   1.728   0.860   4.832 -0.9079 -0.3497 -0.0744
 7727SOL     OW34642   0.760   0.210   2.513 -0.0025 -0.0267  0.3643
 7727SOL    HW134643   0.748   0.256   2.597  0.1355  1.9995 -0.7196
 7727SOL    HW234644   0.848   0.228   2.481  0.0685  0.0434  0.5960
 7728SOL     OW34645   4.391   0.571   6.932  0.4859  0.1805 -0.1352
 7728SOL    HW134646   4.451   0.644   6.919  2.3894 -1.6402 -1.5210
 7728SOL    HW234647   4.353   0.563   6.844  0.7768 -1.7989 -0.0789
 7729SOL     OW34648   1.041   4.192   8.116 -0.5687  0.1397  0.1729
 7729SOL    HW134649   0.988   4.112   8.123  1.7889 -1.3912  0.7064
 7729SOL    HW234650   1.132   4.162   8.125 -0.1186  1.4350 -0.0927
 7730SOL     OW34651   3.788   2.414   2.834  0.3092 -0.1893 -0.2322
 7730SOL    HW134652   3.849   2.344   2.853  1.8494  1.0502 -0.6487
 7730SOL    HW234653   3.759   2.387   2.747 -0.4704 -0.6784  0.1783
 7731SOL     OW34654   0.048   3.184  16.195  0.0522  0.6630  0.1451
 7731SOL    HW134655   4.712   3.237  16.145 -0.2789  0.0404 -0.1071
 7731SOL    HW234656   0.057   3.255  16.259 -0.9654  1.3982 -0.5342
 7732SOL     OW34657   2.455   2.914   5.693 -0.2520  0.3073 -0.0863
 7732SOL    HW134658   2.402   2.852   5.643  0.9532 -0.3539 -0.5436
 7732SOL    HW234659   2.514   2.857   5.742 -0.0724 -0.2835 -0.9888
 7733SOL     OW34660   3.605   0.052   6.252 -0.2962 -0.4930 -0.1149
 7733SOL    HW134661   3.521   0.055   6.206  0.0900 -0.1177 -0.7857
 7733SOL    HW234662   3.671   0.057   6.184 -1.1689 -2.3779 -1.0869
 7734SOL     OW34663   1.148   0.642   9.195 -0.0607 -0.0570  0.9307
 7734SOL    HW134664   1.092   0.602   9.128  0.1938  1.0279  0.0616
 7734SOL    HW234665   1.227   0.589   9.193 -0.3943 -0.5312  0.0732
 7735SOL     OW34666   1.874   3.461   2.642 -0.2543  0.0754  0.4507
 7735SOL    HW134667   1.925   3.453   2.562 -0.6469  3.3152 -0.1109
 7735SOL    HW234668   1.801   3.399   2.640 -0.7734  0.8943 -6.1369
 7736SOL     OW34669   2.176   2.123  13.755  0.0563 -0.2253 -0.3434
 7736SOL    HW134670   2.244   2.063  13.785 -1.0581 -0.8077  1.0197
 7736SOL    HW234671   2.125   2.136  13.836  0.7972  0.2409  0.0507
 7737SOL     OW34672   1.341   1.439   6.626 -0.5164  0.0868 -0.2647
 7737SOL    HW134673   1.248   1.422   6.615  0.0084 -1.7118 -1.9427
 7737SOL    HW234674   1.379   1.480   6.548  1.5630 -0.5976  0.3646
 7738SOL     OW34675   0.262   2.451   7.720  0.0558 -0.0136  0.6023
 7738SOL    HW134676   0.169   2.430   7.710  0.2526 -0.0162 -1.2591
 7738SOL    HW234677   0.282   2.414   7.806 -0.5354  0.0667  0.7731
 7739SOL     OW34678   3.159   2.370   9.402 -0.0843  0.0333  0.3028
 7739SOL    HW134679   3.186   2.390   9.492 -2.1595 -3.4903  1.7042
 7739SOL    HW234680   3.115   2.455   9.394  0.5272  0.2134 -1.0803
 7740SOL     OW34681   2.645   2.503   5.808 -1.0832  0.4707  0.4238
 7740SOL    HW134682   2.569   2.462   5.767 -0.7656 -0.3894  0.7015
 7740SOL    HW234683   2.704   2.431   5.827 -0.2716  1.7657  2.8145
 7741SOL     OW34684   0.889   2.399   7.752  0.3418 -0.5043 -0.0529
 7741SOL    HW134685   0.966   2.450   7.776 -2.3712  1.4739  4.5267
 7741SOL    HW234686   0.904   2.373   7.661 -0.3202 -0.5641 -0.1439
 7742SOL     OW34687   4.694   3.950   3.611 -0.1098  0.6444 -0.3171
 7742SOL    HW134688   4.697   4.044   3.594  1.0714  0.7259  0.2998
 7742SOL    HW234689   4.724   3.917   3.527 -1.1440 -0.9588 -0.0429
 7743SOL     OW34690   2.211   4.388   1.787 -0.4049 -0.7015  0.1903
 7743SOL    HW134691   2.238   4.380   1.695  1.3180  0.0563  0.6208
 7743SOL    HW234692   2.123   4.350   1.789 -1.1468  1.0952  0.9461
 7744SOL     OW34693   2.477   3.351   5.425  0.1392 -0.3477  0.1656
 7744SOL    HW134694   2.506   3.260   5.419  0.0851 -0.2496 -1.7706
 7744SOL    HW234695   2.557   3.402   5.411 -1.0110  1.4404  0.1701
 7745SOL     OW34696   3.545   0.721  10.880  0.5569  0.1763  0.4940
 7745SOL    HW134697   3.582   0.809  10.877  1.3228 -0.2007 -1.3048
 7745SOL    HW234698   3.514   0.725  10.970 -1.7998  0.1972 -0.3006
 7746SOL     OW34699   2.196   0.688   3.552  0.2584 -0.5250 -0.0888
 7746SOL    HW134700   2.177   0.602   3.514  0.5652 -0.0455 -1.3312
 7746SOL    HW234701   2.288   0.668   3.567  0.2918 -1.5900 -1.7160
 7747SOL     OW34702   1.734   4.176   5.229  0.3592 -0.0481 -0.7882
 7747SOL    HW134703   1.787   4.226   5.292  0.1761 -2.1531  1.0494
 7747SOL    HW234704   1.678   4.118   5.281 -0.9217  1.7312 -0.1737
 7748SOL     OW34705   2.757   1.468   7.334  0.3779  0.1097  0.0829
 7748SOL    HW134706   2.699   1.441   7.405 -0.3699  1.7207  0.0854
 7748SOL    HW234707   2.711   1.533   7.281 -0.6629 -2.7261 -2.5340
 7749SOL     OW34708   4.155   2.910   3.848  0.2519 -0.3416  0.5254
 7749SOL    HW134709   4.099   2.981   3.877 -0.7836 -1.1802  0.5864
 7749SOL    HW234710   4.095   2.842   3.815  2.2211 -1.7658 -0.1473
 7750SOL     OW34711   1.623   1.109   7.126  0.8683  0.1231 -0.4936
 7750SOL    HW134712   1.589   1.021   7.115  1.7299 -0.3670  0.7503
 7750SOL    HW234713   1.716   1.089   7.133  0.6153 -1.3518 -1.3459
 7751SOL     OW34714   3.946   3.482   4.889 -0.5743 -0.2356 -0.0701
 7751SOL    HW134715   4.028   3.509   4.848 -1.2649  0.7898 -0.7949
 7751SOL    HW234716   3.928   3.398   4.848 -1.1829 -1.1838  2.1105
 7752SOL     OW34717   3.362   2.766   2.284  0.1876 -0.7073 -0.1689
 7752SOL    HW134718   3.403   2.744   2.200 -0.2528 -1.0266 -0.2988
 7752SOL    HW234719   3.298   2.830   2.252  0.1108 -1.5492 -1.7101
 7753SOL     OW34720   4.579   3.407   7.588 -0.1862 -0.0108 -0.4598
 7753SOL    HW134721   4.621   3.328   7.553  0.3400 -0.1887  0.5963
 7753SOL    HW234722   4.655   3.451   7.625  0.5953 -0.9858 -0.9109
 7754SOL     OW34723   3.010   0.097   2.563 -0.0527  0.3649 -0.1760
 7754SOL    HW134724   3.033   0.160   2.631  0.5469  0.5851 -0.5788
 7754SOL    HW234725   2.945   0.039   2.603  0.1428 -0.3565 -0.8994
 7755SOL     OW34726   0.281   0.653   2.989 -0.1361 -0.0172 -0.0043
 7755SOL    HW134727   0.280   0.716   3.061 -0.0191  0.4571 -0.4215
 7755SOL    HW234728   0.268   0.716   2.919 -0.9417 -0.4984 -0.2850
 7756SOL     OW34729   2.056   4.676   7.110  0.2953  0.2590  0.2779
 7756SOL    HW134730   2.120   0.020   7.128  0.9939  0.2283 -2.1276
 7756SOL    HW234731   1.976   0.003   7.121 -1.1517 -1.4726 -2.3786
 7757SOL     OW34732   1.192   1.754  17.672  0.0567 -0.1986 -0.8259
 7757SOL    HW134733   1.139   1.689  17.625 -2.2873  0.6193  0.6523
 7757SOL    HW234734   1.268   1.717  17.627 -0.3202 -0.2474 -1.4269
 7758SOL     OW34735   0.132   4.206   6.578 -0.5258  0.1397  0.8332
 7758SOL    HW134736   0.103   4.148   6.507  1.8199  0.2481 -0.1840
 7758SOL    HW234737   0.157   4.151   6.652 -2.6525 -2.3124 -0.2376
 7759SOL     OW34738   0.059   0.541   7.478  0.2233 -0.0524 -0.5672
 7759SOL    HW134739   0.016   0.467   7.434  0.6649 -2.4761  3.0919
 7759SOL    HW234740   0.069   0.488   7.558  1.0086 -1.1759 -1.4033
 7760SOL     OW34741   0.147   0.443   4.802  0.4072  0.1640 -0.7424
 7760SOL    HW134742   0.182   0.475   4.885 -2.5108  1.6095 -0.0705
 7760SOL    HW234743   0.090   0.376   4.840  1.4567 -0.9755 -1.1936
 7761SOL     OW34744   3.120   3.070  16.196  0.0568 -0.1615  0.6751
 7761SOL    HW134745   3.046   3.085  16.255  0.1839  1.5241  0.4110
 7761SOL    HW234746   3.107   2.976  16.189 -0.4743 -0.1783  1.8269
 7762SOL     OW34747   0.440   3.675   5.751  0.0480  0.2178  0.6212
 7762SOL    HW134748   0.455   3.716   5.666  0.6390 -0.4929  0.3821
 7762SOL    HW234749   0.363   3.621   5.737  0.1842 -0.1810  1.3843
 7763SOL     OW34750   4.339   3.337  10.715 -0.2867 -0.8510 -0.3199
 7763SOL    HW134751   4.351   3.429  10.737 -0.0761 -0.5521 -1.6740
 7763SOL    HW234752   4.337   3.301  10.804  0.0764  3.3917  1.3930
 7764SOL     OW34753   4.704   3.969  14.523 -0.0022  0.0893  0.2215
 7764SOL    HW134754   0.031   4.002  14.449  1.2084  0.4120  1.2037
 7764SOL    HW234755   4.614   3.972  14.491  0.5917  0.4106 -1.4286
 7765SOL     OW34756   3.245   3.803   6.597 -0.2562 -0.5861  0.2570
 7765SOL    HW134757   3.221   3.711   6.603 -2.0211 -0.1497 -0.0470
 7765SOL    HW234758   3.183   3.835   6.531  0.0773  0.3877  0.4042
 7766SOL     OW34759   1.192   0.294   7.802 -0.2277 -0.3284 -0.0908
 7766SOL    HW134760   1.232   0.328   7.882 -1.1387  1.3334 -0.3184
 7766SOL    HW234761   1.229   0.206   7.798  2.5463  0.9084 -2.2123
 7767SOL     OW34762   2.678   1.769   5.358 -0.0093  0.8295 -0.5449
 7767SOL    HW134763   2.744   1.835   5.336  0.5517  1.2050  2.2295
 7767SOL    HW234764   2.694   1.775   5.452  0.1006 -2.9970 -0.3253
 7768SOL     OW34765   0.202   1.295  10.997  0.0643  0.0508  0.2303
 7768SOL    HW134766   0.111   1.285  10.970  0.1157  1.5272 -0.4712
 7768SOL    HW234767   0.196   1.294  11.092 -1.0231 -0.4672  0.1502
 7769SOL     OW34768   4.175   1.042  17.449  0.3426  0.1036 -0.8791
 7769SOL    HW134769   4.177   0.949  17.429 -1.9529 -0.1107 -0.1323
 7769SOL    HW234770   4.151   1.084  17.366  1.5528 -0.9974 -1.7655
 7770SOL     OW34771   4.601   2.098  12.110  0.6434  0.2006  0.5625
 7770SOL    HW134772   4.679   2.103  12.054  2.1749  0.6201  2.7479
 7770SOL    HW234773   4.625   2.045  12.185 -3.8785  0.1223  1.9702
 7771SOL     OW34774   3.130   3.479  10.076 -0.6520  0.3591  0.0888
 7771SOL    HW134775   3.099   3.458  10.165 -1.5307 -1.3840 -0.6319
 7771SOL    HW234776   3.136   3.575  10.083 -0.1924  0.2646  1.0209
 7772SOL     OW34777   3.460   0.344   1.676  0.3227 -0.3927 -0.0201
 7772SOL    HW134778   3.386   0.322   1.732 -0.8729  1.8773 -0.6957
 7772SOL    HW234779   3.531   0.318   1.735 -0.6012  2.9493  2.5859
 7773SOL     OW34780   1.187   3.327  17.340  0.5153  0.4202  0.0858
 7773SOL    HW134781   1.141   3.243  17.338  1.6124 -0.1997  0.8755
 7773SOL    HW234782   1.171   3.360  17.428 -4.2804 -1.3554 -0.1473
 7774SOL     OW34783   4.708   1.404   4.352  0.1228  0.1157 -0.0492
 7774SOL    HW134784   0.010   1.354   4.275  1.7853 -2.3596  2.1660
 7774SOL    HW234785   4.695   1.488   4.308  2.7304  0.9092  0.6779
 7775SOL     OW34786   3.884   1.476   4.440 -0.1544  0.2689 -0.0407
 7775SOL    HW134787   3.914   1.404   4.385  1.3610 -0.9823  2.3788
 7775SOL    HW234788   3.962   1.512   4.482  0.1297 -0.6753  0.2332
 7776SOL     OW34789   2.991   1.170   7.611  0.5357  0.4946 -0.8876
 7776SOL    HW134790   3.043   1.199   7.535  2.1981 -0.7703 -0.2176
 7776SOL    HW234791   3.054   1.200   7.676 -1.2807  1.2213  0.5355
 7777SOL     OW34792   1.313   2.589  16.063 -0.2655 -0.2829 -0.1322
 7777SOL    HW134793   1.329   2.582  16.158  1.2437  0.4085 -0.3395
 7777SOL    HW234794   1.266   2.672  16.062  1.1120  0.5088 -0.0473
 7778SOL     OW34795   2.811   4.650   2.199  0.0018 -0.5360  0.2498
 7778SOL    HW134796   2.791   4.561   2.170 -1.1215 -0.0835 -0.3549
 7778SOL    HW234797   2.904   4.642   2.219  0.9325  1.5767 -3.1935
 7779SOL     OW34798   1.312   1.648   5.329 -0.3307  0.6778 -0.2795
 7779SOL    HW134799   1.216   1.643   5.331 -0.2096 -1.8993 -1.0751
 7779SOL    HW234800   1.325   1.742   5.346  1.2466 -0.0153  2.2754
 7780SOL     OW34801   4.327   3.006   4.797 -0.6666  0.1843  0.2603
 7780SOL    HW134802   4.375   2.956   4.863 -1.6761  0.6172  1.3188
 7780SOL    HW234803   4.389   3.075   4.771 -0.2623 -0.6348 -0.9714
 7781SOL     OW34804   0.683   0.373   2.307 -0.5191  0.2340  0.0696
 7781SOL    HW134805   0.626   0.435   2.354 -1.6792  0.3796 -1.5167
 7781SOL    HW234806   0.686   0.296   2.364  0.3394 -0.2299 -0.6156
 7782SOL     OW34807   4.582   1.511   3.313 -0.4570  0.2462  0.0073
 7782SOL    HW134808   4.519   1.552   3.255 -0.2459  0.3682 -0.1351
 7782SOL    HW234809   4.569   1.417   3.297  0.5497  0.2219 -0.6338
 7783SOL     OW34810   1.822   4.604   5.556  0.5685  0.2590 -0.5460
 7783SOL    HW134811   1.834   4.653   5.474 -1.0623  2.6962  0.6776
 7783SOL    HW234812   1.742   4.555   5.535  1.5746 -1.8393  0.5954
 7784SOL     OW34813   1.878   1.167   2.681  0.5438  0.2717 -0.1741
 7784SOL    HW134814   1.839   1.085   2.650  2.2176 -1.4637  2.3194
 7784SOL    HW234815   1.832   1.186   2.762  0.2256 -2.3809  0.2520
 7785SOL     OW34816   1.145   1.275  16.758  0.6201  0.0634  0.1422
 7785SOL    HW134817   1.108   1.254  16.673  2.3022  1.5869 -0.9803
 7785SOL    HW234818   1.239   1.279  16.740  0.5653  0.4694 -0.0479
 7786SOL     OW34819   1.954   0.802   7.164  0.0065  0.5319  0.4888
 7786SOL    HW134820   1.954   0.743   7.088 -1.9274 -1.4885  2.0532
 7786SOL    HW234821   1.943   0.888   7.123  0.4291 -0.4798 -1.7433
 7787SOL     OW34822   3.777   3.655   1.170  0.0305  0.3350  0.3875
 7787SOL    HW134823   3.721   3.599   1.223 -0.2598  1.4162  1.2253
 7787SOL    HW234824   3.804   3.598   1.098  0.8116  0.4281  0.6087
 7788SOL     OW34825   2.106   1.072   5.190  0.3941  0.7421 -0.5559
 7788SOL    HW134826   2.025   1.021   5.198  0.5514  0.3656 -1.3707
 7788SOL    HW234827   2.172   1.004   5.178 -1.1767 -0.7823 -0.5585
 7789SOL     OW34828   2.883   3.923  15.704 -0.0814 -0.1125  0.4199
 7789SOL    HW134829   2.880   3.945  15.797  2.1002  1.0725  0.1934
 7789SOL    HW234830   2.802   3.970  15.683  0.5529  1.2952  1.1441
 7790SOL     OW34831   3.168   1.421   4.728  0.7181  0.6884  0.4958
 7790SOL    HW134832   3.087   1.371   4.722  0.6819  1.0687 -2.0772
 7790SOL    HW234833   3.227   1.355   4.765  1.1895 -0.5196 -2.4314
 7791SOL     OW34834   1.163   1.528  17.115 -0.2066  0.0929  0.3398
 7791SOL    HW134835   1.136   1.506  17.026  0.4922  0.9814 -0.0829
 7791SOL    HW234836   1.247   1.572  17.103  0.1121 -1.2952 -2.5041
 7792SOL     OW34837   2.360   2.663   6.441 -0.2793 -0.3485 -0.0525
 7792SOL    HW134838   2.290   2.728   6.441 -0.8204 -0.9314  1.4758
 7792SOL    HW234839   2.338   2.608   6.366 -0.1636 -1.1157  0.4717
 7793SOL     OW34840   1.811   1.412   2.078 -0.0943 -0.3524  0.2778
 7793SOL    HW134841   1.736   1.395   2.021 -0.8977  1.7865  0.6997
 7793SOL    HW234842   1.847   1.324   2.087  1.2720  0.3315  1.5060
 7794SOL     OW34843   3.615   0.704  13.935  0.4466  0.3930 -0.5292
 7794SOL    HW134844   3.706   0.680  13.914 -0.5146 -3.3327 -0.3770
 7794SOL    HW234845   3.621   0.785  13.884  0.3714 -0.1180 -1.3559
 7795SOL     OW34846   0.631   4.472   6.285 -0.3160 -0.6985  0.2662
 7795SOL    HW134847   0.627   4.419   6.365 -1.6687 -0.0829  0.5940
 7795SOL    HW234848   0.671   4.405   6.230 -1.3627 -0.2602 -1.0100
 7796SOL     OW34849   3.011   0.475   7.595  0.1224 -0.5211 -0.1099
 7796SOL    HW134850   3.034   0.471   7.502  0.3124 -1.0390 -0.0401
 7796SOL    HW234851   3.057   0.394   7.619  1.2162 -0.3325 -1.5535
 7797SOL     OW34852   3.959   4.387  15.492 -0.6678 -0.0025 -0.1404
 7797SOL    HW134853   3.970   4.291  15.494 -2.6267 -0.2207  0.0743
 7797SOL    HW234854   4.038   4.418  15.535 -1.7449  1.9007  0.4396
 7798SOL     OW34855   1.573   4.142  16.823 -0.4259  0.1143  0.1290
 7798SOL    HW134856   1.533   4.106  16.902 -0.0416  1.4585  0.9373
 7798SOL    HW234857   1.507   4.130  16.755  0.6443 -0.9138 -0.7306
 7799SOL     OW34858   4.202   1.837   5.463  0.1813  0.0893  0.2440
 7799SOL    HW134859   4.286   1.874   5.491 -0.2755  1.4053 -0.0992
 7799SOL    HW234860   4.220   1.747   5.437 -1.0476  0.1620 -0.8354
 7800SOL     OW34861   3.650   3.813   8.932  0.4292 -0.1895 -0.4394
 7800SOL    HW134862   3.582   3.873   8.961  0.7606  0.3949 -0.8852
 7800SOL    HW234863   3.604   3.737   8.968  0.9546  0.2476  1.1608
 7801SOL     OW34864   2.525   1.611   7.248  0.2995  0.1463  0.2643
 7801SOL    HW134865   2.506   1.529   7.203  0.2594  0.6576 -0.6560
 7801SOL    HW234866   2.438   1.645   7.269 -0.0755  0.4900 -1.8634
 7802SOL     OW34867   0.114   0.655  14.535  0.1694  0.0712 -0.5732
 7802SOL    HW134868   0.106   0.559  14.533 -1.0348  0.1640 -0.4968
 7802SOL    HW234869   0.195   0.662  14.484 -0.7251 -1.6748 -2.2638
 7803SOL     OW34870   3.618   0.516   2.303  0.1005 -0.4823  0.6613
 7803SOL    HW134871   3.660   0.519   2.217 -2.3935 -0.9636 -0.5878
 7803SOL    HW234872   3.541   0.465   2.275  0.5218 -0.1926 -1.0424
 7804SOL     OW34873   4.229   1.179   2.649 -0.0589  0.0409 -0.5421
 7804SOL    HW134874   4.302   1.183   2.587  1.1508 -1.1199  0.8313
 7804SOL    HW234875   4.245   1.097   2.696 -2.1615 -0.4454 -0.6705
 7805SOL     OW34876   2.067   3.066   4.012 -0.0226 -0.0390 -0.3240
 7805SOL    HW134877   2.066   3.112   3.928 -0.1461  1.6047  0.5569
 7805SOL    HW234878   2.120   3.126   4.065  0.2646 -0.9538  0.4318
 7806SOL     OW34879   2.831   0.475   7.803 -0.1023 -0.0766 -0.1253
 7806SOL    HW134880   2.738   0.464   7.787 -0.0896 -0.1963 -0.1159
 7806SOL    HW234881   2.865   0.480   7.713  0.5563 -0.2683  0.1107
 7807SOL     OW34882   0.546   0.543  15.016  0.1726  0.3233  0.4243
 7807SOL    HW134883   0.500   0.607  14.961  1.8971  0.2798 -1.0540
 7807SOL    HW234884   0.483   0.475  15.040 -1.4141  0.2468 -4.0045
 7808SOL     OW34885   2.059   1.619   2.633  0.0265  0.7965  0.0385
 7808SOL    HW134886   2.086   1.543   2.581  0.4711 -1.4091  3.5242
 7808SOL    HW234887   1.985   1.590   2.686  1.2795 -1.7310  0.4122
 7809SOL     OW34888   2.243   4.047   1.533  0.0476 -0.4213  0.5233
 7809SOL    HW134889   2.264   3.981   1.467  3.7849 -0.8777  2.1582
 7809SOL    HW234890   2.271   4.124   1.485  0.7985 -0.6723  0.5517
 7810SOL     OW34891   1.934   3.164   2.969 -0.4494  1.0119  0.4023
 7810SOL    HW134892   2.019   3.204   2.948 -1.0275  2.0267 -0.0224
 7810SOL    HW234893   1.968   3.114   3.043 -1.5274  1.6364  1.3200
 7811SOL     OW34894   1.200   0.007  14.623 -0.0433 -0.1388 -0.2522
 7811SOL    HW134895   1.215   4.660  14.563  1.7812 -0.7695  0.9627
 7811SOL    HW234896   1.107   0.028  14.617 -0.2510 -0.6540  1.1949
 7812SOL     OW34897   3.560   0.676   7.713  0.6413 -0.2326  0.0752
 7812SOL    HW134898   3.522   0.758   7.681  0.1713 -1.2811 -2.0888
 7812SOL    HW234899   3.483   0.636   7.754 -0.2254  1.3576 -0.0045
 7813SOL     OW34900   3.215   0.697   4.184  0.4058  0.1415  0.1842
 7813SOL    HW134901   3.242   0.780   4.144  0.9070 -0.4702 -0.7389
 7813SOL    HW234902   3.120   0.710   4.175  0.1126 -2.8190 -0.9195
 7814SOL     OW34903   1.776   2.801   1.691 -0.0272  0.0479 -0.5032
 7814SOL    HW134904   1.781   2.894   1.668  1.7321 -0.3260 -1.6425
 7814SOL    HW234905   1.718   2.761   1.626 -0.9334  0.5568 -0.0093
 7815SOL     OW34906   0.106   0.625  11.500  0.4194  0.0315 -0.1471
 7815SOL    HW134907   0.139   0.554  11.556  0.3493  0.3203  0.2575
 7815SOL    HW234908   0.049   0.572  11.444  0.6600  0.7060 -1.0321
 7816SOL     OW34909   2.934   0.699   4.005  0.1369 -0.5957  0.7719
 7816SOL    HW134910   2.893   0.617   3.977  1.6755 -1.2300  0.3524
 7816SOL    HW234911   2.943   0.750   3.924  0.6073  0.7906  1.6993
 7817SOL     OW34912   4.663   0.697   6.809  0.0564  0.0606 -0.4485
 7817SOL    HW134913   4.618   0.756   6.869  1.9598  1.5920 -0.5218
 7817SOL    HW234914   4.618   0.714   6.726 -0.1150 -0.2914 -0.4247
 7818SOL     OW34915   1.828   1.684   5.451 -0.4477  0.2324 -0.7772
 7818SOL    HW134916   1.923   1.681   5.442 -0.4007  3.5922 -1.4581
 7818SOL    HW234917   1.806   1.775   5.430 -1.6120  0.3921  1.0209
 7819SOL     OW34918   4.615   0.436   7.147 -0.4257  0.1941 -0.0508
 7819SOL    HW134919   4.670   0.382   7.090  0.9788  0.7504  0.7891
 7819SOL    HW234920   4.635   0.394   7.230  2.7615  0.1118 -0.8644
 7820SOL     OW34921   3.520   4.443   2.150 -0.4802  0.1459  0.3509
 7820SOL    HW134922   3.442   4.497   2.133  0.7259  1.6616 -0.3772
 7820SOL    HW234923   3.523   4.388   2.071 -2.2716  0.4008  0.1052
 7821SOL     OW34924   2.252   2.597   0.717  0.1551  1.1947 -0.2059
 7821SOL    HW134925   2.341   2.621   0.743 -0.2963  3.1429 -0.4984
 7821SOL    HW234926   2.271   2.557   0.632  0.7497 -1.2062  1.0435
 7822SOL     OW34927   0.765   3.203  10.462  0.0538 -0.5269 -0.1674
 7822SOL    HW134928   0.819   3.266  10.508  1.3271 -0.5120 -1.6522
 7822SOL    HW234929   0.782   3.127  10.518  0.4546 -0.8331 -0.6934
 7823SOL     OW34930   0.937   4.352   7.909  0.5425  0.0381  0.0280
 7823SOL    HW134931   1.007   4.347   7.844  1.0296  0.2689  0.5269
 7823SOL    HW234932   0.965   4.290   7.977 -0.1925 -0.0903  0.2121
 7824SOL     OW34933   3.086   1.532   8.006  0.0504 -0.3696  0.8384
 7824SOL    HW134934   3.027   1.575   7.944  1.1682  0.4775  0.3756
 7824SOL    HW234935   3.068   1.442   7.979  0.3134 -0.1230 -0.1652
 7825SOL     OW34936   4.224   3.110  10.625 -0.5107  0.6289 -0.3374
 7825SOL    HW134937   4.265   3.197  10.626  0.4941  0.1672 -1.6461
 7825SOL    HW234938   4.286   3.056  10.674 -1.4309  0.3309  0.4818
 7826SOL     OW34939   3.175   2.161  16.032 -0.3380  0.1169  0.0486
 7826SOL    HW134940   3.127   2.188  15.954  0.0731  2.6259  0.6677
 7826SOL    HW234941   3.145   2.071  16.044  2.1003 -0.8908 -1.6580
 7827SOL     OW34942   2.919   3.229   1.686 -0.1939  0.5625 -0.3114
 7827SOL    HW134943   2.952   3.298   1.629 -1.5452  1.0879 -0.4501
 7827SOL    HW234944   2.883   3.268   1.766 -2.8603 -2.4121 -0.0591
 7828SOL     OW34945   0.895   3.132   9.949  0.3622  0.3449 -0.6458
 7828SOL    HW134946   0.843   3.212   9.941 -0.1110  0.3626  2.6344
 7828SOL    HW234947   0.838   3.064   9.914  0.0686  0.0805  0.3659
 7829SOL     OW34948   1.357   0.873  12.781 -0.6213 -0.2244 -0.2817
 7829SOL    HW134949   1.275   0.827  12.760 -1.2748  1.1384 -0.6979
 7829SOL    HW234950   1.343   0.880  12.875  0.0259  0.5115 -0.2410
 7830SOL     OW34951   0.649   4.515   3.502 -0.5382  0.0044 -0.0307
 7830SOL    HW134952   0.643   4.442   3.441  0.7405 -0.6791  0.6691
 7830SOL    HW234953   0.736   4.496   3.538  0.3599  2.3034 -0.9582
 7831SOL     OW34954   3.382   4.723   1.122 -0.5567  0.7918  0.2145
 7831SOL    HW134955   3.315   0.046   1.074 -0.9895  0.9564  0.9897
 7831SOL    HW234956   3.436   4.699   1.046  0.5186 -1.6995  1.7653
 7832SOL     OW34957   1.816   3.111   8.788 -0.3364 -0.2689  0.0931
 7832SOL    HW134958   1.901   3.118   8.832 -0.2849 -0.4554  0.0202
 7832SOL    HW234959   1.774   3.175   8.846  2.3491  0.5863  1.1306
 7833SOL     OW34960   3.867   3.870   5.408 -0.6755 -0.1871  0.6904
 7833SOL    HW134961   3.915   3.920   5.341  2.2116 -2.1763  1.2595
 7833SOL    HW234962   3.940   3.842   5.463 -1.1952 -0.9560  0.9926
 7834SOL     OW34963   1.464   3.388   4.682 -0.4301  0.3345 -0.4196
 7834SOL    HW134964   1.544   3.342   4.658  0.7217  0.7022  2.7176
 7834SOL    HW234965   1.486   3.409   4.773  0.3861 -3.1876  0.2011
 7835SOL     OW34966   3.285   4.011   3.826  0.5565 -0.5493 -0.4695
 7835SOL    HW134967   3.356   4.062   3.865  1.4827 -0.9578 -1.6015
 7835SOL    HW234968   3.302   4.009   3.732  1.5084  0.4182 -0.3210
 7836SOL     OW34969   2.567   2.927   9.762 -0.3538  0.2733 -0.0011
 7836SOL    HW134970   2.627   2.974   9.819 -0.4811  0.6162 -0.1493
 7836SOL    HW234971   2.628   2.894   9.695  0.7851  3.0498 -0.3302
 7837SOL     OW34972   4.709   3.975   1.874 -0.2177 -0.4150 -0.5110
 7837SOL    HW134973   4.702   3.973   1.970 -2.4577 -1.7779 -0.7000
 7837SOL    HW234974   0.076   3.961   1.853 -0.2154  0.2652 -0.9614
 7838SOL     OW34975   2.495   1.766   8.317  0.5460 -0.5103  0.6286
 7838SOL    HW134976   2.429   1.712   8.274  1.3476 -1.9335  1.1662
 7838SOL    HW234977   2.454   1.761   8.403  1.1859 -5.3829  0.6399
 7839SOL     OW34978   3.056   0.700   5.482 -0.5721  0.3532 -0.1422
 7839SOL    HW134979   3.058   0.796   5.477 -0.7887  0.1937 -3.1062
 7839SOL    HW234980   3.147   0.683   5.503 -0.9129 -0.6445  0.5348
 7840SOL     OW34981   1.954   0.594  14.578  0.6195  0.2129 -0.4965
 7840SOL    HW134982   1.887   0.534  14.610 -1.1675  1.2061 -2.3335
 7840SOL    HW234983   1.997   0.611  14.662 -0.3171 -1.5648  0.3339
 7841SOL     OW34984   0.788   2.136   9.060 -0.0500  0.4737 -0.1820
 7841SOL    HW134985   0.729   2.132   8.985 -1.3290 -2.7146  0.9900
 7841SOL    HW234986   0.731   2.104   9.130 -0.1462  0.6897 -0.1628
 7842SOL     OW34987   4.553   1.098   8.917 -0.1444 -0.8423  0.1273
 7842SOL    HW134988   4.648   1.100   8.928 -0.3055  0.9119  1.1797
 7842SOL    HW234989   4.541   1.005   8.899  1.3506 -1.1794  0.9195
 7843SOL     OW34990   3.395   4.315   8.524  0.0039  0.0810  0.4371
 7843SOL    HW134991   3.354   4.234   8.494  0.5794 -0.3502  0.8151
 7843SOL    HW234992   3.365   4.384   8.465  0.4019  2.7815  3.3826
 7844SOL     OW34993   2.034   1.195  14.662  0.5415 -0.3155  0.0883
 7844SOL    HW134994   2.038   1.101  14.645  1.0590 -0.7755  2.7131
 7844SOL    HW234995   2.010   1.215  14.572 -2.9788  0.3348  1.1363
 7845SOL     OW34996   2.499   4.471   7.787  0.4333  0.1290 -0.1990
 7845SOL    HW134997   2.410   4.474   7.822  1.6068 -0.4486  2.8608
 7845SOL    HW234998   2.542   4.522   7.856 -0.3650  0.0586  0.3536
 7846SOL     OW34999   1.137   2.569   4.061  0.2028 -0.3489  0.8867
 7846SOL    HW135000   1.228   2.540   4.068  1.2224  2.9254  1.3621
 7846SOL    HW235001   1.131   2.555   3.966 -0.8019 -0.4314  0.9666
 7847SOL     OW35002   1.935   3.490   6.623  0.4310  0.1723  0.1865
 7847SOL    HW135003   2.019   3.457   6.654 -0.5626 -2.6844 -0.0603
 7847SOL    HW235004   1.923   3.582   6.646 -0.4120  0.0931  0.0686
 7848SOL     OW35005   4.454   3.470  16.450  0.2524 -0.3658  0.1087
 7848SOL    HW135006   4.388   3.539  16.448  1.6812  1.0157  0.6791
 7848SOL    HW235007   4.517   3.517  16.396 -0.6670 -0.8329 -1.3662
 7849SOL     OW35008   1.583   0.467   7.902 -0.0358  0.1576 -0.2135
 7849SOL    HW135009   1.645   0.488   7.972 -0.2272 -0.2958  0.0916
 7849SOL    HW235010   1.523   0.410   7.950  2.2041 -1.6837  0.3849
 7850SOL     OW35011   3.803   4.698   5.610 -0.2230 -0.1230  1.1819
 7850SOL    HW135012   3.755   0.052   5.586  1.3225  0.6505  0.6220
 7850SOL    HW235013   3.764   4.653   5.685 -1.6123  2.5395  2.0293
 7851SOL     OW35014   4.294   2.969   9.283  1.1021  0.3670 -0.5777
 7851SOL    HW135015   4.252   2.908   9.222 -0.8306  0.0209  1.1107
 7851SOL    HW235016   4.220   3.017   9.320  1.2801 -0.8922  1.4097
 7852SOL     OW35017   4.629   3.907   5.131 -0.1698  0.5449  0.8014
 7852SOL    HW135018   4.663   3.947   5.051  1.0427 -1.8883  0.0929
 7852SOL    HW235019   4.635   3.980   5.192 -0.4060  1.8512 -0.7332
 7853SOL     OW35020   2.544   3.695   8.973  0.3197  0.1310  0.1333
 7853SOL    HW135021   2.586   3.683   8.888  1.8298  0.9427  0.7587
 7853SOL    HW235022   2.561   3.609   9.012  0.1343  0.0956  0.1359
 7854SOL     OW35023   3.833   2.584   8.902 -0.6114  0.2878 -0.1511
 7854SOL    HW135024   3.888   2.588   8.824  0.1756  0.0806  0.3970
 7854SOL    HW235025   3.753   2.626   8.870 -2.4950 -2.1042  1.3711
 7855SOL     OW35026   3.837   4.169   5.886 -0.1019  0.2105 -0.7674
 7855SOL    HW135027   3.900   4.104   5.918 -1.6599 -0.7649  0.3294
 7855SOL    HW235028   3.909   4.226   5.857  0.2615  0.9053  1.4433
 7856SOL     OW35029   3.413   0.403   7.525 -0.3174 -0.8016  0.1741
 7856SOL    HW135030   3.403   0.439   7.613 -1.9189  1.3079 -0.8645
 7856SOL    HW235031   3.508   0.417   7.521 -0.4142 -0.4564 -0.8575
 7857SOL     OW35032   1.172   2.793   4.584  0.7727  0.0855 -0.0001
 7857SOL    HW135033   1.213   2.879   4.583 -2.4229  1.6400  1.8287
 7857SOL    HW235034   1.250   2.742   4.560  0.9659  0.3849 -0.0112
 7858SOL     OW35035   1.722   0.451   8.137  0.1648 -0.3975 -0.0027
 7858SOL    HW135036   1.749   0.526   8.190 -1.1897 -0.1762  0.3843
 7858SOL    HW235037   1.787   0.385   8.158 -0.5072 -1.3300 -0.8467
 7859SOL     OW35038   0.747   1.908  14.871 -0.3546  0.2508 -0.0302
 7859SOL    HW135039   0.726   1.814  14.872  1.8030 -0.2646 -4.5344
 7859SOL    HW235040   0.754   1.925  14.965 -2.5078  2.6593 -0.3167
 7860SOL     OW35041   1.830   4.440  13.821 -0.1326 -0.2462  0.6136
 7860SOL    HW135042   1.900   4.503  13.806 -0.0598 -0.1998  1.1335
 7860SOL    HW235043   1.845   4.428  13.915 -0.0159  0.3199  0.6661
 7861SOL     OW35044   4.426   2.491  10.069 -0.0063 -0.0100  0.1953
 7861SOL    HW135045   4.382   2.485  10.153  2.2493 -0.8942  1.3095
 7861SOL    HW235046   4.516   2.509  10.097 -0.2616  1.2492  0.1887
 7862SOL     OW35047   4.305   3.623   0.330  0.4394 -0.5780  0.1455
 7862SOL    HW135048   4.338   3.644   0.243  1.0954 -3.1651 -0.2223
 7862SOL    HW235049   4.314   3.528   0.329 -1.5351 -0.7710  0.7485
 7863SOL     OW35050   4.686   2.901   4.967 -0.2690  0.0428 -0.2597
 7863SOL    HW135051   4.594   2.906   4.994 -0.7082  0.2796 -1.8007
 7863SOL    HW235052   4.689   2.973   4.904  0.3727 -0.4862 -0.8358
 7864SOL     OW35053   0.437   0.737  13.653 -0.2933 -0.2671 -0.4332
 7864SOL    HW135054   0.399   0.720  13.567 -2.0446 -0.5341  0.3871
 7864SOL    HW235055   0.361   0.720  13.708  1.0899 -0.3355  1.4607
 7865SOL     OW35056   1.390   1.521   8.023  0.8931 -0.1448  0.1598
 7865SOL    HW135057   1.329   1.479   8.083 -0.3718  1.0573 -0.2865
 7865SOL    HW235058   1.453   1.451   8.006 -0.1853 -0.7999 -1.0882
 7866SOL     OW35059   0.889   0.167   3.458  0.2134  0.0511 -0.2760
 7866SOL    HW135060   0.812   0.152   3.513  0.2993  1.5248  0.2443
 7866SOL    HW235061   0.925   0.079   3.469 -1.1220 -0.1847  2.2949
 7867SOL     OW35062   2.450   2.418   3.015 -0.3626 -0.3511  0.0444
 7867SOL    HW135063   2.521   2.404   3.078  0.2082 -3.1098 -1.1974
 7867SOL    HW235064   2.448   2.342   2.956 -0.1756 -2.8974  3.3618
 7868SOL     OW35065   0.091   3.846   3.939 -0.2130  0.0568  0.2382
 7868SOL    HW135066   0.104   3.940   3.933  1.6998 -0.2962 -1.3177
 7868SOL    HW235067   0.001   3.843   3.905  0.7045 -3.7330 -1.8606
 7869SOL     OW35068   0.662   0.870   6.779 -0.1825 -0.1941  0.6135
 7869SOL    HW135069   0.587   0.843   6.726  1.0026  0.4626 -1.3930
 7869SOL    HW235070   0.620   0.892   6.862  2.1389 -0.4152  1.8608
 7870SOL     OW35071   0.587   1.803  13.413  0.3553  0.1006  0.5404
 7870SOL    HW135072   0.555   1.719  13.380  1.2738 -0.3981  0.9040
 7870SOL    HW235073   0.672   1.785  13.453  1.6173  0.0829 -2.2036
 7871SOL     OW35074   0.488   2.604   0.629 -0.5356 -0.4507 -0.2934
 7871SOL    HW135075   0.393   2.615   0.636 -0.4456  1.7666 -2.6312
 7871SOL    HW235076   0.497   2.511   0.649  1.4216 -0.1823  0.0846
 7872SOL     OW35077   3.631   1.656   2.691  0.0995 -0.5074 -0.2544
 7872SOL    HW135078   3.682   1.606   2.627  1.8281  0.8154  0.0792
 7872SOL    HW235079   3.629   1.594   2.764  1.4538 -0.3145 -0.0425
 7873SOL     OW35080   4.302   3.480   3.606  0.3303  0.1380 -0.3640
 7873SOL    HW135081   4.247   3.549   3.569 -1.6911 -1.1619  0.1403
 7873SOL    HW235082   4.313   3.431   3.524  0.6712 -0.4767  0.0493
 7874SOL     OW35083   4.422   1.668   7.339 -0.5066 -0.1612 -0.0363
 7874SOL    HW135084   4.451   1.718   7.263 -0.3616  1.0320  0.7906
 7874SOL    HW235085   4.358   1.724   7.384 -0.9769  0.5188 -1.5603
 7875SOL     OW35086   2.077   4.715   5.555  0.2788  0.1630  0.1330
 7875SOL    HW135087   2.030   0.052   5.500 -2.0069 -1.2484  0.4925
 7875SOL    HW235088   2.006   4.672   5.603  0.6845 -0.2297  0.3848
 7876SOL     OW35089   2.335   1.136   4.078 -0.3139  0.5653 -0.1820
 7876SOL    HW135090   2.352   1.154   4.170  0.5679  0.6815 -0.3691
 7876SOL    HW235091   2.313   1.043   4.076  0.3907  0.3855  0.4615
 7877SOL     OW35092   4.142   2.145   4.132  0.1507 -0.2268 -0.0738
 7877SOL    HW135093   4.107   2.234   4.128 -0.3521 -0.3753  0.8942
 7877SOL    HW235094   4.194   2.138   4.052  0.4959 -0.3861  0.1657
 7878SOL     OW35095   0.335   2.664   2.771  0.3588  0.3121  0.1373
 7878SOL    HW135096   0.309   2.739   2.717  0.1669  0.1956  0.0672
 7878SOL    HW235097   0.290   2.694   2.850  0.1100  0.9496 -0.2407
 7879SOL     OW35098   1.310   3.644   0.869 -0.3277 -0.3144  0.4407
 7879SOL    HW135099   1.232   3.600   0.836  0.0833 -1.1628  0.6178
 7879SOL    HW235100   1.332   3.582   0.939 -0.9207 -0.3702  0.5817
 7880SOL     OW35101   4.075   1.133   5.390  0.4577 -0.1322  0.0859
 7880SOL    HW135102   4.112   1.219   5.368  0.6733 -0.9520 -2.7051
 7880SOL    HW235103   4.164   1.101   5.405  1.0915  0.2843 -2.9090
 7881SOL     OW35104   0.958   1.357  17.680 -0.7780 -0.2847  0.3747
 7881SOL    HW135105   0.969   1.294  17.609 -2.6905  0.2579 -0.4194
 7881SOL    HW235106   0.962   1.298   0.053  1.4476 -1.1733 -0.4497
 7882SOL     OW35107   1.335   1.726   0.832  0.4144  0.5215  0.0294
 7882SOL    HW135108   1.283   1.649   0.855  0.2404  0.9898  1.2051
 7882SOL    HW235109   1.358   1.770   0.914  1.9973  0.0769 -0.1763
 7883SOL     OW35110   3.874   2.731  13.666  0.1294  0.0655  0.0877
 7883SOL    HW135111   3.837   2.800  13.721 -1.3342  0.1410 -1.0160
 7883SOL    HW235112   3.953   2.708  13.717  0.8697  0.2749 -0.9631
 7884SOL     OW35113   4.228   1.560   5.834  0.6056  0.7261  0.0434
 7884SOL    HW135114   4.269   1.645   5.820  5.2072 -1.3224  1.0490
 7884SOL    HW235115   4.285   1.533   5.906  0.4988  3.1443  1.0124
 7885SOL     OW35116   2.782   2.611   4.750  0.0099 -0.0359 -0.0371
 7885SOL    HW135117   2.842   2.680   4.777 -1.1879  0.5541  1.0935
 7885SOL    HW235118   2.816   2.597   4.662  0.6620  1.5299 -0.0330
 7886SOL     OW35119   2.472   2.602   2.795 -0.2701 -0.1987  0.3852
 7886SOL    HW135120   2.467   2.526   2.854 -0.2189 -0.6246 -0.1525
 7886SOL    HW235121   2.381   2.627   2.808  0.0146  0.4869  1.0597
 7887SOL     OW35122   1.757   1.686  11.586  0.5045 -0.1964  0.7463
 7887SOL    HW135123   1.831   1.634  11.555 -1.6531 -2.2034 -1.1004
 7887SOL    HW235124   1.733   1.651  11.671  0.2112 -0.3857  0.5883
 7888SOL     OW35125   2.372   4.009   1.800  0.4460  0.0587 -0.4078
 7888SOL    HW135126   2.307   4.040   1.863  0.2208  1.4711 -1.3612
 7888SOL    HW235127   2.342   4.055   1.722  0.6771  1.6855  0.4715
 7889SOL     OW35128   3.325   1.038  13.875  0.3551 -0.3095  0.2994
 7889SOL    HW135129   3.326   1.004  13.965  0.5855 -0.8685  0.0865
 7889SOL    HW235130   3.414   1.015  13.847 -0.6836 -2.3182 -1.3604
 7890SOL     OW35131   4.571   2.887   6.155  0.3318  0.2473 -0.3990
 7890SOL    HW135132   4.660   2.856   6.173 -0.9798 -2.8010  0.8472
 7890SOL    HW235133   4.558   2.923   6.242  0.7634 -0.1669 -0.1626
 7891SOL     OW35134   1.805   2.594   3.664 -0.4662 -0.0905  0.0484
 7891SOL    HW135135   1.869   2.580   3.594 -3.2668 -0.2311 -2.4921
 7891SOL    HW235136   1.824   2.682   3.696 -1.0753  0.4460 -1.0583
 7892SOL     OW35137   1.097   2.617   0.726  0.8732  0.1678 -0.4018
 7892SOL    HW135138   1.059   2.690   0.774  0.7903  1.2924 -2.1849
 7892SOL    HW235139   1.044   2.628   0.647 -0.0073  3.7026  0.6550
 7893SOL     OW35140   0.303   0.159   7.065 -0.5793  0.7154 -0.2520
 7893SOL    HW135141   0.369   0.217   7.102  0.1585 -0.2291 -0.0714
 7893SOL    HW235142   0.325   0.080   7.114 -1.5130  0.8540  0.3858
 7894SOL     OW35143   0.631   2.280  17.122 -0.0175 -0.4917 -0.1599
 7894SOL    HW135144   0.711   2.267  17.172  0.0282 -0.5038 -0.2354
 7894SOL    HW235145   0.592   2.193  17.118 -0.3184 -0.3482 -0.4713
 7895SOL     OW35146   2.581   0.361   7.804  0.0155 -0.0691  0.3737
 7895SOL    HW135147   2.517   0.410   7.857  0.6613 -0.0148  1.0962
 7895SOL    HW235148   2.530   0.345   7.725  0.8109 -0.3350 -0.0750
 7896SOL     OW35149   1.258   4.211  14.561 -0.1194 -0.4082 -0.3423
 7896SOL    HW135150   1.244   4.176  14.473  0.5290 -0.8297 -0.2795
 7896SOL    HW235151   1.209   4.151  14.616 -0.7493  0.8789  0.5026
 7897SOL     OW35152   0.119   3.661   5.715  0.0266 -0.5261 -0.1239
 7897SOL    HW135153   0.074   3.584   5.749  0.6503 -0.0928  1.6769
 7897SOL    HW235154   0.101   3.724   5.784  1.6197 -0.0610 -0.1242
 7898SOL     OW35155   3.041   3.062  13.560 -0.1811 -0.6529 -0.4694
 7898SOL    HW135156   2.976   3.132  13.571  1.3416  0.7605 -0.4653
 7898SOL    HW235157   3.124   3.109  13.553 -0.7834  0.5814  0.7253
 7899SOL     OW35158   0.715   2.184  12.143  1.0488  0.3714  0.2629
 7899SOL    HW135159   0.771   2.238  12.198  0.5684  1.4238 -0.2687
 7899SOL    HW235160   0.628   2.209  12.174 -0.4762 -3.2722 -1.0276
 7900SOL     OW35161   3.790   1.748   3.049  0.5078 -0.3066 -0.4331
 7900SOL    HW135162   3.713   1.710   3.007  1.2893  0.9333 -2.9658
 7900SOL    HW235163   3.853   1.679   3.069  0.2641  0.8468  4.3853
 7901SOL     OW35164   1.382   0.473   9.176 -0.1009  0.2782 -0.0797
 7901SOL    HW135165   1.389   0.382   9.203 -2.6730  0.2864  0.6546
 7901SOL    HW235166   1.421   0.518   9.250 -1.3651 -0.0456  0.7880
 7902SOL     OW35167   0.337   4.605   8.822 -0.5619 -1.0813 -0.1728
 7902SOL    HW135168   0.332   4.550   8.900 -0.8525 -1.9297 -0.7882
 7902SOL    HW235169   0.304   4.692   8.848 -0.3335 -1.0384 -0.0311
 7903SOL     OW35170   1.700   2.018   7.312  0.4254  0.1732 -0.4868
 7903SOL    HW135171   1.645   1.947   7.279 -1.1207  1.6927 -1.1859
 7903SOL    HW235172   1.793   2.003   7.297  0.8007  1.9605 -0.0235
 7904SOL     OW35173   4.592   2.757   9.975 -0.2544 -0.6258  0.0899
 7904SOL    HW135174   4.520   2.696   9.957 -0.4701 -0.3819  0.1242
 7904SOL    HW235175   4.585   2.825   9.908 -0.0441 -0.2878  0.4120
 7905SOL     OW35176   0.583   3.234   4.173  0.8239  0.5241 -0.1304
 7905SOL    HW135177   0.604   3.296   4.243  2.2839  1.1827 -1.1821
 7905SOL    HW235178   0.519   3.284   4.124  0.2432 -0.1568 -0.0821
 7906SOL     OW35179   3.160   2.489  10.178 -0.0275  0.2423  0.2391
 7906SOL    HW135180   3.225   2.441  10.126  0.8928  1.1192  0.5787
 7906SOL    HW235181   3.100   2.517  10.109 -0.9064 -2.2458 -0.0121
 7907SOL     OW35182   2.562   0.752   3.441  0.2245  0.7918  0.2593
 7907SOL    HW135183   2.529   0.750   3.531 -1.5729 -0.7732 -0.4428
 7907SOL    HW235184   2.640   0.698   3.451 -0.3352 -0.0839 -0.0729
 7908SOL     OW35185   0.567   4.719  11.500  0.3911  0.5442 -0.0819
 7908SOL    HW135186   0.533   0.037  11.579  0.7891 -0.2733  0.5330
 7908SOL    HW235187   0.648   0.041  11.480  0.0198 -0.0849 -2.9666
 7909SOL     OW35188   0.711   4.135   3.062  0.0265  0.1677 -0.0133
 7909SOL    HW135189   0.767   4.085   3.003 -0.9428  1.2763 -1.8824
 7909SOL    HW235190   0.631   4.114   3.014 -0.6412  0.5133  0.9372
 7910SOL     OW35191   4.438   4.211   7.925 -0.1490  0.0097 -0.0537
 7910SOL    HW135192   4.474   4.143   7.983 -1.9005 -0.4331  0.4921
 7910SOL    HW235193   4.521   4.225   7.879 -1.7731  0.1079 -2.8766
 7911SOL     OW35194   3.695   4.308  16.178  0.1500 -0.1528  0.4013
 7911SOL    HW135195   3.672   4.265  16.096 -1.2292 -0.5352  0.9934
 7911SOL    HW235196   3.682   4.233  16.236 -0.9920  0.4678  0.9460
 7912SOL     OW35197   2.319   4.497  14.992  0.2103 -0.7199  0.1748
 7912SOL    HW135198   2.298   4.421  14.937 -2.6838 -0.9506  1.5876
 7912SOL    HW235199   2.277   4.485  15.077  1.2820 -2.4828  0.4573
 7913SOL     OW35200   4.536   4.552  13.845  0.4489  0.6734 -0.6143
 7913SOL    HW135201   4.589   4.613  13.793  0.4401  1.8052  0.7140
 7913SOL    HW235202   4.573   4.576  13.930 -1.0675  0.7391  0.0192
 7914SOL     OW35203   3.905   3.589   2.053  0.0010  0.0527  0.2389
 7914SOL    HW135204   3.844   3.663   2.054 -2.0155 -1.6641  2.1688
 7914SOL    HW235205   3.853   3.530   2.108  0.1042 -1.6672 -1.5097
 7915SOL     OW35206   0.047   4.512   7.230 -0.7280 -0.0860  0.0953
 7915SOL    HW135207   0.107   4.584   7.247  0.8174 -1.2236 -0.5821
 7915SOL    HW235208   4.712   4.562   7.175  0.1112 -0.4185 -1.1249
 7916SOL     OW35209   3.428   3.367   6.633  0.0439 -0.1113  0.3365
 7916SOL    HW135210   3.479   3.442   6.663 -1.1430  1.0109 -0.4464
 7916SOL    HW235211   3.494   3.319   6.583  0.1848 -0.7242  1.1135
 7917SOL     OW35212   0.087   2.476   4.216 -0.7073 -0.4321  0.0191
 7917SOL    HW135213   0.058   2.418   4.287  2.2191 -0.3018  1.3452
 7917SOL    HW235214   0.137   2.409   4.169  0.1559 -1.8892  2.9689
 7918SOL     OW35215   0.970   4.559   3.163 -0.5367  0.3203  0.6444
 7918SOL    HW135216   0.879   4.552   3.133  0.5253 -1.3371 -2.1473
 7918SOL    HW235217   1.018   4.574   3.082 -0.3227  1.8322  1.0585
 7919SOL     OW35218   2.728   4.259  13.910  0.5966 -0.4437  0.3747
 7919SOL    HW135219   2.660   4.231  13.849 -0.9509  0.4422  1.7127
 7919SOL    HW235220   2.773   4.174  13.910 -0.9281 -1.2612 -0.1834
 7920SOL     OW35221   3.565   0.198  16.872  0.6805  0.4141  0.7403
 7920SOL    HW135222   3.493   0.260  16.885  1.4848  1.5192 -0.0597
 7920SOL    HW235223   3.532   0.131  16.813 -2.2856  2.7444 -0.2206
 7921SOL     OW35224   4.596   1.735  17.120  0.0196 -0.0855 -0.1661
 7921SOL    HW135225   4.503   1.721  17.099  0.4127 -1.0158 -1.2763
 7921SOL    HW235226   4.582   1.797  17.192 -0.2721 -0.8682  0.4464
 7922SOL     OW35227   3.733   1.179   1.738  0.4592  0.0136 -0.2905
 7922SOL    HW135228   3.651   1.196   1.785  0.4828 -2.7446  0.7849
 7922SOL    HW235229   3.696   1.173   1.650 -0.4958 -0.1569  0.1181
 7923SOL     OW35230   4.472   2.980  16.223  0.2097  0.1519 -0.4694
 7923SOL    HW135231   4.426   2.954  16.143 -0.0576  0.9038 -0.5611
 7923SOL    HW235232   4.460   3.074  16.209 -0.7011 -0.3648 -3.1577
 7924SOL     OW35233   1.418   1.241  16.767 -0.5567  0.0405 -0.2550
 7924SOL    HW135234   1.507   1.269  16.747  0.2843 -2.5287 -0.0508
 7924SOL    HW235235   1.412   1.146  16.759  0.5114  0.0883 -1.5222
 7925SOL     OW35236   4.669   0.322   7.386 -1.1067 -0.0834 -0.5874
 7925SOL    HW135237   0.002   0.250   7.360 -0.6629 -1.0777  3.1350
 7925SOL    HW235238   4.601   0.263   7.420  0.5042 -2.1816 -0.9875
 7926SOL     OW35239   0.970   1.028  13.480  0.4460  0.0715 -0.0845
 7926SOL    HW135240   0.999   1.041  13.390 -1.8934 -1.1233 -1.0055
 7926SOL    HW235241   0.878   1.053  13.467  0.7273  2.2293  2.0668
 7927SOL     OW35242   2.245   3.836   0.044  0.7006  0.2941  0.0104
 7927SOL    HW135243   2.270   3.928   0.038  2.4045 -0.2401 -1.1042
 7927SOL    HW235244   2.182   3.841   0.117  0.0008  0.3853 -0.6022
 7928SOL     OW35245   1.954   2.217   9.964  0.2942  0.3234  0.6863
 7928SOL    HW135246   1.914   2.297   9.998  0.6311  1.1063 -0.7645
 7928SOL    HW235247   2.046   2.241   9.948 -0.1178  1.0750 -0.5018
 7929SOL     OW35248   1.870   0.240   1.081  0.1181 -0.2440 -0.4578
 7929SOL    HW135249   1.935   0.274   1.020 -2.7742  0.3678 -3.1996
 7929SOL    HW235250   1.898   0.150   1.094 -1.1699 -0.4676  0.8205
 7930SOL     OW35251   3.774   1.671   0.369  0.5405  0.0272 -0.2874
 7930SOL    HW135252   3.795   1.604   0.303 -0.6323  0.1532 -0.7768
 7930SOL    HW235253   3.864   1.703   0.383  0.2219  0.6870  0.2232
 7931SOL     OW35254   4.524   4.284   2.590 -0.4533 -0.3585 -0.0949
 7931SOL    HW135255   4.429   4.286   2.579 -0.3000 -1.2144 -1.5065
 7931SOL    HW235256   4.541   4.356   2.530 -0.0163 -0.6049 -0.2687
 7932SOL     OW35257   4.304   1.397   7.469 -0.2480  0.2078 -0.1045
 7932SOL    HW135258   4.291   1.385   7.375 -3.8807 -0.1785  0.4317
 7932SOL    HW235259   4.231   1.357   7.516  0.2459 -0.6819 -0.0909
 7933SOL     OW35260   2.744   4.473   1.308 -0.0343  0.0929 -0.5291
 7933SOL    HW135261   2.786   4.521   1.236  0.6006 -1.2526 -1.0461
 7933SOL    HW235262   2.792   4.390   1.305  0.6664  0.4568  0.4304
 7934SOL     OW35263   2.831   1.004   4.096 -0.3023  0.4832  0.4453
 7934SOL    HW135264   2.870   1.091   4.093  3.0206 -1.1028 -1.8412
 7934SOL    HW235265   2.792   0.994   4.009  2.5606 -1.1863 -0.6292
 7935SOL     OW35266   1.902   3.438   3.656  0.7194  0.2732  0.0382
 7935SOL    HW135267   1.859   3.513   3.698 -0.8625  0.4331 -1.8315
 7935SOL    HW235268   1.924   3.481   3.573  0.2609  0.9342  0.2538
 7936SOL     OW35269   3.984   1.123   2.574  0.0898  0.1124  0.0240
 7936SOL    HW135270   4.060   1.159   2.620  0.9256 -1.2124 -0.2943
 7936SOL    HW235271   4.023   1.056   2.518  0.5099  0.4600 -0.0973
 7937SOL     OW35272   2.774   1.241   2.718 -0.7844  0.4394  0.2597
 7937SOL    HW135273   2.726   1.201   2.791  1.2623 -1.5804  0.4892
 7937SOL    HW235274   2.762   1.334   2.738  0.8681  1.0362 -1.5158
 7938SOL     OW35275   3.470   2.264  11.454  0.1239 -0.3215 -0.3874
 7938SOL    HW135276   3.389   2.217  11.435 -1.0067  2.4259 -2.4591
 7938SOL    HW235277   3.442   2.351  11.424 -2.7319 -0.6694  1.2827
 7939SOL     OW35278   2.110   2.669   8.140 -0.3216 -0.1222 -0.4788
 7939SOL    HW135279   2.154   2.585   8.154 -0.6219 -0.2343 -0.2011
 7939SOL    HW235280   2.178   2.726   8.104 -1.1239  0.4976 -1.0138
 7940SOL     OW35281   0.498   0.826   8.645 -0.8005 -0.1941  0.2203
 7940SOL    HW135282   0.447   0.777   8.710 -1.1290 -1.8306 -1.2508
 7940SOL    HW235283   0.588   0.823   8.677 -0.4422 -1.8905 -0.9033
 7941SOL     OW35284   0.971   3.279   8.325  0.1013  0.2422 -0.2157
 7941SOL    HW135285   0.931   3.331   8.255  0.9768  1.4022  0.1472
 7941SOL    HW235286   1.041   3.330   8.365  0.5588 -2.5426  2.5101
 7942SOL     OW35287   1.233   3.689  13.681  0.0869  0.2060 -0.0162
 7942SOL    HW135288   1.214   3.762  13.621  0.1001  0.6596  0.5321
 7942SOL    HW235289   1.305   3.728  13.731  1.9528 -3.4515  0.1521
 7943SOL     OW35290   3.429   0.878   2.606 -0.3302 -0.3879 -0.3991
 7943SOL    HW135291   3.500   0.867   2.543  0.1926 -1.8400  0.4453
 7943SOL    HW235292   3.355   0.884   2.546 -0.6129 -1.3604 -0.1425
 7944SOL     OW35293   0.744   2.805   5.660 -0.3987 -0.2365 -0.0705
 7944SOL    HW135294   0.721   2.857   5.737 -0.4359  1.8147 -1.4653
 7944SOL    HW235295   0.779   2.872   5.602 -0.7452  1.0766  1.2299
 7945SOL     OW35296   0.740   3.319  13.469 -0.1634 -0.2535  0.8453
 7945SOL    HW135297   0.675   3.381  13.436 -1.0773 -0.4825  2.1992
 7945SOL    HW235298   0.713   3.241  13.421 -1.4602  1.5760 -1.3542
 7946SOL     OW35299   0.589   0.414  11.116 -0.7051 -0.2570  0.3942
 7946SOL    HW135300   0.514   0.470  11.099 -0.0066  0.9982  1.3889
 7946SOL    HW235301   0.562   0.337  11.067 -1.6743  0.4471 -0.1819
 7947SOL     OW35302   3.684   0.420   7.566 -0.3108  0.0155 -0.2574
 7947SOL    HW135303   3.762   0.414   7.511 -1.5189 -1.6972 -1.7683
 7947SOL    HW235304   3.706   0.447   7.655 -2.5673  0.3394  0.2157
 7948SOL     OW35305   4.468   0.799   5.046 -0.1216  0.5472 -0.1419
 7948SOL    HW135306   4.520   0.796   4.966 -1.2024  1.4340 -0.8705
 7948SOL    HW235307   4.377   0.780   5.023  0.3699  1.2672 -2.6412
 7949SOL     OW35308   3.525   0.343   1.402 -0.3038  0.3272 -0.2929
 7949SOL    HW135309   3.619   0.360   1.410 -0.4119  0.4732  0.7488
 7949SOL    HW235310   3.500   0.346   1.495  0.2868  2.7424 -0.2237
 7950SOL     OW35311   3.847   3.188   5.018 -0.1434  0.6092  0.3470
 7950SOL    HW135312   3.870   3.245   5.091 -0.1463  0.3416  0.5540
 7950SOL    HW235313   3.913   3.205   4.951 -1.5318 -0.2046 -1.2397
 7951SOL     OW35314   4.125   2.550   1.323 -0.3461  0.1038 -0.6215
 7951SOL    HW135315   4.125   2.632   1.274 -1.0844 -0.1233 -0.9887
 7951SOL    HW235316   4.073   2.505   1.256 -1.1938 -1.2771  0.9718
 7952SOL     OW35317   4.292   2.228   2.411 -0.7434 -0.4110  0.1789
 7952SOL    HW135318   4.292   2.132   2.410 -0.0689 -0.4185  1.0426
 7952SOL    HW235319   4.198   2.249   2.403 -0.0583  2.3431 -0.7353
 7953SOL     OW35320   1.511   3.982   2.807 -0.1543  0.1890 -0.0657
 7953SOL    HW135321   1.533   4.021   2.723 -1.0061  1.1915  0.1811
 7953SOL    HW235322   1.580   3.915   2.812 -0.2354  0.1735  0.8024
 7954SOL     OW35323   3.160   2.042  12.686  0.1084 -0.3893  0.0476
 7954SOL    HW135324   3.238   1.997  12.652 -0.1985 -1.1076  0.3010
 7954SOL    HW235325   3.098   1.970  12.701  2.1293 -2.1824 -0.1279
 7955SOL     OW35326   4.014   0.741  16.857  0.1957 -0.3986  0.5755
 7955SOL    HW135327   4.030   0.649  16.836  0.1946 -0.3976  0.5703
 7955SOL    HW235328   3.993   0.796  16.781  3.9407  0.1149 -0.0483
 7956SOL     OW35329   2.095   1.937   8.515  0.4601 -0.6816 -0.6288
 7956SOL    HW135330   2.110   2.027   8.545  1.7413 -1.3911  0.8219
 7956SOL    HW235331   2.048   1.946   8.432  1.1792 -0.4437 -1.0107
 7957SOL     OW35332   1.924   0.029  13.559 -0.2722 -0.4426 -0.2497
 7957SOL    HW135333   1.998   0.010  13.501  1.3384 -0.9258  1.9769
 7957SOL    HW235334   1.947   0.112  13.600  1.0195 -0.9684  0.1026
 7958SOL     OW35335   4.026   3.291  15.710  0.2543  0.6610  0.1253
 7958SOL    HW135336   4.085   3.356  15.748  0.6707 -0.1262  0.8083
 7958SOL    HW235337   4.077   3.248  15.641  0.3567  0.2152  0.4843
 7959SOL     OW35338   1.652   0.353   4.513  1.0993  0.0741 -0.0170
 7959SOL    HW135339   1.639   0.259   4.503  0.9137  0.0840  0.1440
 7959SOL    HW235340   1.709   0.365   4.437  0.8771  3.5920  0.3469
 7960SOL     OW35341   2.214   0.569   2.768  0.2733  0.1313 -0.2121
 7960SOL    HW135342   2.173   0.515   2.836 -0.8577  0.7493 -0.4078
 7960SOL    HW235343   2.305   0.537   2.768  0.1156 -0.3324  0.4631
 7961SOL     OW35344   0.216   0.458   4.550 -0.1802 -0.2866 -0.1432
 7961SOL    HW135345   0.187   0.444   4.640  0.0448  0.5527  0.0561
 7961SOL    HW235346   0.228   0.365   4.531 -1.8911 -0.6003  0.2587
 7962SOL     OW35347   4.699   0.027  17.023  0.2156 -0.9524  0.0185
 7962SOL    HW135348   4.702   0.108  17.074 -0.0127 -0.6328 -0.4707
 7962SOL    HW235349   0.038   0.049  16.955  0.3289  0.3705  0.5607
 7963SOL     OW35350   1.436   0.874  16.312 -0.1899  0.1825  0.5368
 7963SOL    HW135351   1.505   0.824  16.355  0.6146 -0.5002 -1.5239
 7963SOL    HW235352   1.355   0.834  16.343 -0.4981 -1.2508 -2.1386
 7964SOL     OW35353   4.168   3.437   7.397  0.1301  0.4837 -0.6013
 7964SOL    HW135354   4.134   3.404   7.480  0.8208  3.2593  0.7983
 7964SOL    HW235355   4.262   3.420   7.398  0.2048  1.1312  2.5083
 7965SOL     OW35356   0.117   0.751  11.927 -0.1332 -0.3159  0.3093
 7965SOL    HW135357   0.066   0.711  11.998 -0.3615  0.7544  0.7354
 7965SOL    HW235358   0.168   0.812  11.980  0.9416 -1.4667  0.6065
 7966SOL     OW35359   1.526   4.722  10.834  0.3803  0.4777 -0.1400
 7966SOL    HW135360   1.601   0.051  10.809  0.6596 -0.1817 -0.7368
 7966SOL    HW235361   1.475   4.717  10.753 -0.7560 -1.1879  0.6765
 7967SOL     OW35362   2.175   1.170   6.073  0.9563  0.5542 -0.4021
 7967SOL    HW135363   2.179   1.167   5.978  2.4228 -0.2772 -0.3053
 7967SOL    HW235364   2.231   1.245   6.090  0.7855  0.3003  1.3010
 7968SOL     OW35365   2.859   4.478   4.780 -0.0758  0.2556  0.6319
 7968SOL    HW135366   2.947   4.487   4.745 -0.0142  1.6564  1.1483
 7968SOL    HW235367   2.873   4.465   4.874 -2.4681  0.5184  1.0395
 7969SOL     OW35368   3.881   2.302   5.110  1.1274 -0.0050 -0.0052
 7969SOL    HW135369   3.952   2.359   5.080 -0.9867  2.8982  0.5063
 7969SOL    HW235370   3.809   2.362   5.092  1.1997 -0.0531 -0.4608
 7970SOL     OW35371   2.429   4.111   9.069 -0.1489 -0.1433  0.4071
 7970SOL    HW135372   2.346   4.080   9.105 -0.9186  2.0735  0.5342
 7970SOL    HW235373   2.492   4.040   9.083 -0.0157 -0.0561  0.2444
 7971SOL     OW35374   3.537   1.365   2.051 -0.0994 -0.4930  0.2571
 7971SOL    HW135375   3.549   1.374   1.956  1.1894 -3.9491  0.0754
 7971SOL    HW235376   3.512   1.272   2.050  2.2490 -1.1176 -0.4430
 7972SOL     OW35377   4.369   0.042   5.692 -0.6876  0.6911 -0.3703
 7972SOL    HW135378   4.380   0.136   5.709 -0.7725  0.8414 -1.1714
 7972SOL    HW235379   4.384   0.009   5.781  0.1483 -4.0752 -2.3000
 7973SOL     OW35380   3.588   4.377   5.906  0.8194  0.1462  0.1950
 7973SOL    HW135381   3.664   4.325   5.929  0.4448  0.7349  2.8479
 7973SOL    HW235382   3.557   4.349   5.820 -1.3762  0.7751  0.7620
 7974SOL     OW35383   3.272   0.537   6.056 -1.1230  0.1529  0.2373
 7974SOL    HW135384   3.226   0.550   5.973  1.0589  2.4584 -0.6183
 7974SOL    HW235385   3.350   0.502   6.013 -0.4443  2.6229 -0.5389
 7975SOL     OW35386   2.042   4.326   0.724  0.3598  0.1935  0.2819
 7975SOL    HW135387   2.071   4.238   0.748 -0.7890 -0.1826  0.2861
 7975SOL    HW235388   2.116   4.359   0.673 -0.4205 -0.8782 -1.5548
 7976SOL     OW35389   3.348   0.960  17.399  0.1138  0.0028 -0.2641
 7976SOL    HW135390   3.294   0.904  17.344 -0.4880 -0.0403  0.3819
 7976SOL    HW235391   3.419   0.984  17.338 -0.0230 -0.0931 -0.4591
 7977SOL     OW35392   2.767   2.021  11.242 -0.7396  0.6740 -0.1610
 7977SOL    HW135393   2.708   2.026  11.317 -2.1109  3.8568 -1.4621
 7977SOL    HW235394   2.846   1.975  11.271  0.5631  2.5543 -0.7693
 7978SOL     OW35395   1.445   4.000  17.009 -0.2658 -0.0169  0.1838
 7978SOL    HW135396   1.496   3.959  17.079  0.5686 -0.0053 -0.4254
 7978SOL    HW235397   1.365   4.023  17.057 -0.2412 -0.2687  0.3426
 7979SOL     OW35398   2.462   4.204   9.694 -0.4985  0.0610 -0.3517
 7979SOL    HW135399   2.543   4.237   9.732 -1.7291  1.2219  1.2883
 7979SOL    HW235400   2.401   4.279   9.698  0.1500  0.6104 -0.7719
 7980SOL     OW35401   3.029   0.260   4.318 -0.4757 -0.4479  0.5909
 7980SOL    HW135402   3.026   0.326   4.249 -0.8044 -1.8824 -0.7596
 7980SOL    HW235403   3.077   0.187   4.279 -2.0295 -0.5436 -1.1188
 7981SOL     OW35404   0.501   2.851   9.646  0.2843 -0.3576 -0.3070
 7981SOL    HW135405   0.580   2.851   9.591 -0.6296 -1.9626 -1.6146
 7981SOL    HW235406   0.494   2.758   9.666  0.9624  0.2968  2.9547
 7982SOL     OW35407   2.207   2.199   3.039  0.1729 -0.5595  0.3405
 7982SOL    HW135408   2.184   2.207   3.131  1.4502  1.1882  0.4933
 7982SOL    HW235409   2.127   2.156   3.007  0.0555  1.0666 -1.5398
 7983SOL     OW35410   1.718   4.628   1.144 -0.0531 -0.0976 -0.1385
 7983SOL    HW135411   1.632   4.633   1.187  0.5358  1.5758  0.8492
 7983SOL    HW235412   1.685   4.587   1.065  1.2056 -2.5679  0.6195
 7984SOL     OW35413   1.313   0.850   3.088  0.2246 -0.6403  0.9102
 7984SOL    HW135414   1.248   0.905   3.045  0.3180 -1.6745 -0.5301
 7984SOL    HW235415   1.311   0.876   3.180  0.0936 -0.4638  0.8583
 7985SOL     OW35416   0.878   0.568  13.632  0.7463  0.2289 -0.1837
 7985SOL    HW135417   0.948   0.507  13.654 -0.7281 -0.7086  1.8900
 7985SOL    HW235418   0.927   0.651  13.630 -1.2690  1.4101 -0.5611
 7986SOL     OW35419   3.751   0.647   3.922 -0.0876  0.1508  0.2013
 7986SOL    HW135420   3.766   0.728   3.971  0.9081 -0.8007  1.4726
 7986SOL    HW235421   3.777   0.578   3.983 -1.7984  2.0832  3.1445
 7987SOL     OW35422   3.935   0.667   4.858 -0.4124  0.0696  0.2636
 7987SOL    HW135423   3.923   0.736   4.924  2.1952  2.0060 -1.3080
 7987SOL    HW235424   3.954   0.721   4.781 -0.8324 -0.2856 -0.0957
 7988SOL     OW35425   2.986   1.658   6.432 -0.1932  0.4316  0.3604
 7988SOL    HW135426   3.046   1.732   6.439  1.3222 -0.6685 -0.8446
 7988SOL    HW235427   2.910   1.697   6.390 -0.3385  0.3275  0.5288
 7989SOL     OW35428   0.145   4.430   0.479 -0.0922 -0.6963  0.5099
 7989SOL    HW135429   0.162   4.523   0.495  0.7186 -1.4875  4.1519
 7989SOL    HW235430   0.051   4.430   0.462 -0.1582 -1.1431  0.8996
 7990SOL     OW35431   0.576   3.897   5.862 -0.0775 -0.6473  0.2474
 7990SOL    HW135432   0.517   3.836   5.816  0.8911  0.4612 -2.4373
 7990SOL    HW235433   0.632   3.839   5.913  0.7212  0.2844  0.4196
 7991SOL     OW35434   3.174   2.076  12.398  0.1898 -0.3427 -0.4142
 7991SOL    HW135435   3.163   2.107  12.488 -0.4674 -0.3708 -0.4904
 7991SOL    HW235436   3.264   2.109  12.394  0.1006  0.0593  0.7830
 7992SOL     OW35437   0.270   3.426  11.772  0.4367 -0.0753  0.1981
 7992SOL    HW135438   0.342   3.406  11.712  0.0712 -0.2701 -0.1737
 7992SOL    HW235439   0.266   3.336  11.803  0.7701 -0.1618 -0.0150
 7993SOL     OW35440   0.989   0.448   5.596 -0.7845 -0.1375  0.0399
 7993SOL    HW135441   1.017   0.357   5.608  0.2194  0.4372  2.1929
 7993SOL    HW235442   0.966   0.452   5.503 -0.6751 -1.3729 -0.0404
 7994SOL     OW35443   3.652   1.070   5.765 -0.5438  0.1067 -0.5755
 7994SOL    HW135444   3.672   1.152   5.720  2.3670  0.8018  1.9401
 7994SOL    HW235445   3.567   1.088   5.804  0.6990  1.7972  1.3638
 7995SOL     OW35446   4.099   1.520   6.911  0.1606 -0.4160 -0.0296
 7995SOL    HW135447   4.016   1.530   6.958 -1.4228 -1.1083 -2.6793
 7995SOL    HW235448   4.142   1.597   6.948  1.3005 -0.1349 -1.9230
 7996SOL     OW35449   2.315   3.511   4.852 -0.2210  0.0762 -0.1024
 7996SOL    HW135450   2.281   3.464   4.775  2.5770  0.0882 -1.3394
 7996SOL    HW235451   2.396   3.461   4.855  1.1858  2.4067  0.3263
 7997SOL     OW35452   0.260   0.582   8.007 -0.4794 -0.1450  0.5630
 7997SOL    HW135453   0.235   0.607   8.096  0.3982 -3.6023  1.7819
 7997SOL    HW235454   0.183   0.603   7.954  1.1965  1.9103 -1.0511
 7998SOL     OW35455   0.598   2.126   7.297 -0.3117 -0.1968 -0.2442
 7998SOL    HW135456   0.678   2.075   7.289  0.4746  0.8199  1.1706
 7998SOL    HW235457   0.541   2.073   7.354  0.2951  0.7071  1.2070
 7999SOL     OW35458   3.111   3.719   3.114 -1.1532 -0.6602  0.0030
 7999SOL    HW135459   3.201   3.693   3.134 -0.4034  0.5468 -1.8259
 7999SOL    HW235460   3.112   3.733   3.019  0.3604 -2.2511 -0.2246
 8000SOL     OW35461   0.140   0.606   6.108  0.6437 -0.2076 -0.5406
 8000SOL    HW135462   0.085   0.530   6.127  0.5285 -0.0941 -0.4236
 8000SOL    HW235463   0.082   0.673   6.072  0.0271  0.0225  0.8994
 8001SOL     OW35464   4.665   0.181  12.840  0.2311 -0.3717 -0.3104
 8001SOL    HW135465   0.036   0.176  12.839  0.0271 -4.3388  0.8291
 8001SOL    HW235466   4.640   0.089  12.846  2.5689 -0.9872 -0.0045
 8002SOL     OW35467   2.584   4.527   8.528  0.2551 -0.1111  0.4872
 8002SOL    HW135468   2.556   4.547   8.617 -0.0107  0.9402  0.1696
 8002SOL    HW235469   2.581   4.431   8.530  0.2016 -0.1318 -0.5982
 8003SOL     OW35470   4.181   3.329   3.841 -0.3361 -0.0876 -0.6854
 8003SOL    HW135471   4.095   3.370   3.836 -1.3792 -2.3910 -1.4478
 8003SOL    HW235472   4.211   3.362   3.756  3.3419  1.9522  1.4101
 8004SOL     OW35473   4.429   1.967  13.954 -0.1045  0.0740  0.8068
 8004SOL    HW135474   4.468   1.880  13.954 -0.2522  0.0069 -1.3359
 8004SOL    HW235475   4.474   1.995  13.874 -2.6631  0.9475 -0.3331
 8005SOL     OW35476   3.093   1.906   4.451  0.1716  0.0890 -0.4027
 8005SOL    HW135477   3.025   1.842   4.472 -0.2505 -0.1924 -2.6106
 8005SOL    HW235478   3.168   1.846   4.461 -1.2593 -1.8280 -1.0642
 8006SOL     OW35479   3.683   2.717   5.989  0.3184  0.1043  0.4871
 8006SOL    HW135480   3.678   2.807   6.020  0.2274 -0.4316  2.0336
 8006SOL    HW235481   3.595   2.703   5.955  0.6166  0.9655 -0.6295
 8007SOL     OW35482   1.536   4.362  10.750  0.3195 -0.4127  0.3655
 8007SOL    HW135483   1.541   4.344  10.656  0.1293 -0.4754  0.3666
 8007SOL    HW235484   1.627   4.369  10.777  1.5344 -3.5696 -2.9274
 8008SOL     OW35485   3.302   0.770   5.054 -0.3471 -0.2900  0.0984
 8008SOL    HW135486   3.314   0.864   5.064 -1.3761 -0.0408 -1.1468
 8008SOL    HW235487   3.340   0.730   5.133  2.1057  2.0109  0.0679
 8009SOL     OW35488   2.677   4.287   3.004 -0.3314 -0.0981 -0.0652
 8009SOL    HW135489   2.598   4.234   2.998  0.2865 -1.1433  0.9723
 8009SOL    HW235490   2.727   4.243   2.935  0.9438  1.6566 -0.2629
 8010SOL     OW35491   2.508   4.236   1.035 -0.2910  0.0350 -0.5185
 8010SOL    HW135492   2.520   4.234   0.940  2.4055  1.6016 -0.1766
 8010SOL    HW235493   2.481   4.327   1.043 -1.0603 -0.2509  0.1904
 8011SOL     OW35494   3.934   1.317  13.208 -0.4083 -0.3831  0.4686
 8011SOL    HW135495   3.936   1.260  13.131  1.8589  1.2554 -0.6710
 8011SOL    HW235496   3.938   1.246  13.272 -1.1094 -1.7655 -1.0183
 8012SOL     OW35497   0.698   1.422  10.739  0.0256  0.2801 -0.2115
 8012SOL    HW135498   0.643   1.498  10.758 -2.4059 -1.4475 -0.4992
 8012SOL    HW235499   0.780   1.464  10.711  0.8922 -0.4168  1.2591
 8013SOL     OW35500   4.085   2.625   8.991  0.1268 -0.3996  0.0879
 8013SOL    HW135501   3.991   2.629   8.973  0.4493  2.3841 -0.9887
 8013SOL    HW235502   4.090   2.534   9.021 -0.2027 -0.1227  1.0086
 8014SOL     OW35503   1.365   0.859   7.845  0.1625  0.0073  0.4360
 8014SOL    HW135504   1.415   0.789   7.804  0.9058  1.4655 -1.1536
 8014SOL    HW235505   1.360   0.924   7.775  0.6148 -1.0201 -0.5529
 8015SOL     OW35506   3.918   0.170   4.349  0.3918  0.1464  0.1712
 8015SOL    HW135507   3.832   0.190   4.387  0.4166  0.2415  0.1770
 8015SOL    HW235508   3.910   0.077   4.331 -2.4026  1.1796 -3.9265
 8016SOL     OW35509   0.346   2.024   3.945  0.1153  0.8538 -0.4317
 8016SOL    HW135510   0.277   2.005   3.881  0.0749  0.5771 -0.3050
 8016SOL    HW235511   0.406   2.082   3.898 -0.9953  2.4492  0.1078
 8017SOL     OW35512   2.268   0.890   5.714  0.3815 -0.1491  0.1563
 8017SOL    HW135513   2.248   0.800   5.689  0.2612 -0.8543  2.7171
 8017SOL    HW235514   2.336   0.914   5.651 -3.6159 -0.1066 -4.1439
 8018SOL     OW35515   4.044   4.038   7.983 -0.6221 -0.0692 -0.0547
 8018SOL    HW135516   3.968   4.084   8.019 -1.1161 -1.7761  1.1350
 8018SOL    HW235517   4.113   4.065   8.044 -0.3213  1.4126 -1.0513
 8019SOL     OW35518   0.861   0.661   5.413 -0.1814 -0.1430  0.3124
 8019SOL    HW135519   0.897   0.737   5.367 -0.0735 -0.3336  0.0864
 8019SOL    HW235520   0.884   0.694   5.500 -0.9279  2.4355 -0.4625
 8020SOL     OW35521   4.717   4.394  14.584  0.2200  0.8477 -0.2163
 8020SOL    HW135522   0.061   4.451  14.548  0.7750 -0.7656 -1.7194
 8020SOL    HW235523   0.036   4.326  14.635 -1.3393 -0.5370 -0.7199
 8021SOL     OW35524   0.923   1.001   0.731 -0.1726  0.2768 -0.0103
 8021SOL    HW135525   0.926   0.964   0.819 -0.2482  0.2257 -0.0289
 8021SOL    HW235526   0.917   0.915   0.690 -1.2250  1.0357 -1.4706
 8022SOL     OW35527   1.515   1.750  13.735  0.2440 -0.2132  0.0716
 8022SOL    HW135528   1.452   1.817  13.708 -0.7617 -0.6087  1.4327
 8022SOL    HW235529   1.587   1.806  13.763 -1.0212  1.8867 -0.9151
 8023SOL     OW35530   2.762   0.098   1.299  0.0100  0.1584 -0.4926
 8023SOL    HW135531   2.782   0.163   1.367  0.1961 -2.0515  1.5487
 8023SOL    HW235532   2.853   0.089   1.270 -0.1590 -0.8055 -0.7288
 8024SOL     OW35533   2.977   4.232   7.085  0.4208  0.2662  0.0614
 8024SOL    HW135534   2.882   4.237   7.097  0.6165  1.6408  1.0255
 8024SOL    HW235535   3.008   4.303   7.141  0.3089  0.7251 -0.4627
 8025SOL     OW35536   0.281   0.798   3.524  0.1559 -0.5370 -0.0984
 8025SOL    HW135537   0.228   0.738   3.576  2.5955 -1.1647  1.6199
 8025SOL    HW235538   0.221   0.870   3.504  0.8900 -0.0438 -0.5197
 8026SOL     OW35539   1.799   0.529   4.329  0.6975  0.0671 -0.2941
 8026SOL    HW135540   1.872   0.574   4.285  1.0366  1.0456  1.2486
 8026SOL    HW235541   1.788   0.586   4.405  0.5323 -1.2438  0.6501
 8027SOL     OW35542   4.370   0.687   8.698 -0.1061  0.0598  0.0623
 8027SOL    HW135543   4.287   0.731   8.681  0.9475  1.8556 -0.4309
 8027SOL    HW235544   4.412   0.680   8.612  0.4225  0.1026  0.3129
 8028SOL     OW35545   1.422   3.411   3.168  0.2814  0.4162  0.1907
 8028SOL    HW135546   1.364   3.483   3.141  1.3950  1.1837 -0.1514
 8028SOL    HW235547   1.462   3.393   3.083  0.5471  0.4250  0.3130
 8029SOL     OW35548   3.806   2.948   5.588  0.0858  0.2642 -0.2089
 8029SOL    HW135549   3.852   2.991   5.660  0.1933  0.9958 -0.7177
 8029SOL    HW235550   3.743   2.899   5.641  1.4895 -0.9308  0.3859
 8030SOL     OW35551   0.149   1.379   9.246  0.1892 -0.6250  0.0951
 8030SOL    HW135552   0.125   1.374   9.154 -0.8226 -0.8478  0.3724
 8030SOL    HW235553   0.066   1.341   9.273 -0.4427 -0.2029 -1.2481
 8031SOL     OW35554   2.867   3.114   7.979  0.0723  0.3159 -0.5543
 8031SOL    HW135555   2.953   3.145   7.951 -0.6255 -1.5458 -4.8118
 8031SOL    HW235556   2.832   3.082   7.896  2.4787 -1.4604 -0.8768
 8032SOL     OW35557   4.115   3.704   2.946  0.2266 -0.3136  0.3793
 8032SOL    HW135558   4.191   3.726   3.000  0.4885 -2.1524  0.7515
 8032SOL    HW235559   4.035   3.720   2.996  0.8128 -0.0476  1.2316
 8033SOL     OW35560   1.507   0.860   7.156 -0.2166 -0.6803  0.4572
 8033SOL    HW135561   1.428   0.840   7.207 -0.1967 -2.9675 -0.4268
 8033SOL    HW235562   1.509   0.789   7.092 -0.4140  0.0723 -0.3852
 8034SOL     OW35563   1.940   1.975   2.185  0.2868 -0.2863  0.0443
 8034SOL    HW135564   1.905   1.888   2.203  0.2827 -0.4196 -0.6307
 8034SOL    HW235565   1.980   1.986   2.272  0.3012  0.4723 -0.0633
 8035SOL     OW35566   4.124   3.957   5.504 -0.2653 -0.7922 -0.0496
 8035SOL    HW135567   4.154   3.978   5.415 -0.2712 -0.3883  0.0439
 8035SOL    HW235568   4.211   3.926   5.531  0.9588  0.7322 -2.2596
 8036SOL     OW35569   4.048   0.551  13.351 -0.1507  0.0378  0.0201
 8036SOL    HW135570   4.103   0.626  13.327  0.1866  0.0176  0.7054
 8036SOL    HW235571   4.071   0.559  13.444 -1.0774  0.6321  0.1896
 8037SOL     OW35572   0.288   0.148   6.060 -0.1700  0.7766 -0.7342
 8037SOL    HW135573   0.311   0.171   5.970 -1.4487  2.0933 -0.7270
 8037SOL    HW235574   0.359   0.086   6.075 -1.3104 -0.2748  0.3214
 8038SOL     OW35575   0.266   1.662   6.263 -0.3893  0.3615  0.2728
 8038SOL    HW135576   0.284   1.672   6.356  3.7521  1.9845 -0.6991
 8038SOL    HW235577   0.352   1.639   6.227  0.0066  1.6826  0.3768
 8039SOL     OW35578   4.084   2.234   6.325  0.4783  0.1654 -0.2731
 8039SOL    HW135579   4.119   2.284   6.400  2.6354  0.1429 -1.2751
 8039SOL    HW235580   4.154   2.181   6.288  0.6057  0.2011 -0.0824
 8040SOL     OW35581   3.640   4.519   3.060 -0.6157 -0.0089 -0.6053
 8040SOL    HW135582   3.663   4.427   3.053  0.8518  0.2563  0.7262
 8040SOL    HW235583   3.659   4.544   3.151  0.0844 -0.5801 -0.6019
 8041SOL     OW35584   0.475   2.224  14.787 -0.2792 -0.0262 -0.4490
 8041SOL    HW135585   0.387   2.188  14.780 -0.4162 -0.0332  1.4248
 8041SOL    HW235586   0.461   2.309  14.744  2.1426  1.1604  1.1399
 8042SOL     OW35587   3.123   3.241  13.203  0.1116 -0.0887  0.6733
 8042SOL    HW135588   3.120   3.155  13.160  1.0000  0.9061 -1.4006
 8042SOL    HW235589   3.216   3.261  13.215 -0.6209  4.0662 -0.6824
 8043SOL     OW35590   1.407   2.749   2.397  0.2820  0.7717 -0.8229
 8043SOL    HW135591   1.354   2.672   2.415  1.8916 -0.6355 -2.1743
 8043SOL    HW235592   1.419   2.737   2.303  0.6882 -0.4891 -0.6087
 8044SOL     OW35593   3.193   1.382   5.151  0.1070 -0.0518  0.0883
 8044SOL    HW135594   3.120   1.357   5.207  0.6995 -0.8006  0.5231
 8044SOL    HW235595   3.166   1.362   5.062 -0.1072  0.6222  0.0021
 8045SOL     OW35596   1.275   4.169   7.177 -0.1548  0.6398  0.3455
 8045SOL    HW135597   1.188   4.170   7.137 -0.1935 -1.7616  0.4135
 8045SOL    HW235598   1.267   4.079   7.206  2.2741  0.8535  1.7302
 8046SOL     OW35599   4.042   1.800   4.557 -0.3282 -0.0247  0.2586
 8046SOL    HW135600   4.067   1.863   4.489 -1.1200 -0.6588 -0.6125
 8046SOL    HW235601   4.092   1.722   4.534 -0.4448 -0.1838  0.5403
 8047SOL     OW35602   2.700   2.909   8.612  0.1641 -0.2141  0.0429
 8047SOL    HW135603   2.781   2.900   8.563  0.2814 -2.7421  0.7350
 8047SOL    HW235604   2.689   2.822   8.650 -2.7204  0.6555  1.1992
 8048SOL     OW35605   3.983   4.547   7.480  0.6678  0.0943 -0.3226
 8048SOL    HW135606   3.908   4.552   7.539  0.2638 -2.4115 -0.6453
 8048SOL    HW235607   4.021   4.632   7.502 -0.4905  0.7885 -0.9739
 8049SOL     OW35608   0.453   2.956  10.164  0.4258 -0.6654  0.0134
 8049SOL    HW135609   0.518   2.969  10.232  0.2632  0.1498  0.0108
 8049SOL    HW235610   0.509   2.943  10.087 -0.3279 -0.0999 -0.6275
 8050SOL     OW35611   0.103   1.187   6.234 -0.4474 -0.0788 -0.0863
 8050SOL    HW135612   0.021   1.177   6.185 -0.1731 -2.5734 -0.0435
 8050SOL    HW235613   0.069   1.198   6.323 -1.2890  3.1990 -0.8256
 8051SOL     OW35614   1.655   4.410   8.942  0.2649 -0.5372  0.2983
 8051SOL    HW135615   1.713   4.473   8.985  0.0203 -1.6156  2.2274
 8051SOL    HW235616   1.623   4.353   9.013  3.1408 -1.4262  0.8954
 8052SOL     OW35617   0.974   0.743  11.790  0.3190 -0.3452 -0.2318
 8052SOL    HW135618   0.891   0.787  11.810 -0.7203 -1.0203 -3.0129
 8052SOL    HW235619   0.952   0.652  11.811  1.3654 -0.3265  0.9750
 8053SOL     OW35620   1.653   2.931   9.891 -0.3180  0.0481 -0.1327
 8053SOL    HW135621   1.717   2.953   9.959 -0.6238 -0.8463  0.4504
 8053SOL    HW235622   1.568   2.919   9.933  0.0570 -1.6094  0.1632
 8054SOL     OW35623   0.851   0.589   4.448  0.4238  0.0319  0.2142
 8054SOL    HW135624   0.758   0.576   4.464  0.3833 -0.0917 -0.1333
 8054SOL    HW235625   0.849   0.684   4.455 -0.9778 -0.0101  0.3354
 8055SOL     OW35626   0.453   3.205   4.908  0.0185 -0.1380  0.4906
 8055SOL    HW135627   0.405   3.288   4.909 -0.2374 -0.2870  0.2753
 8055SOL    HW235628   0.492   3.211   4.995 -0.2444  1.7344  0.4704
 8056SOL     OW35629   4.522   1.767   5.430  0.0459  0.2758 -0.2074
 8056SOL    HW135630   4.614   1.781   5.408 -0.2733 -0.2677 -1.9142
 8056SOL    HW235631   4.478   1.773   5.345  2.7482  1.0191 -1.5557
 8057SOL     OW35632   1.864   0.242   9.590  0.1542 -0.1401 -0.3201
 8057SOL    HW135633   1.921   0.309   9.628 -0.0005 -0.1883 -0.0008
 8057SOL    HW235634   1.781   0.253   9.636  0.8248  2.2396  0.2965
 8058SOL     OW35635   4.065   1.154   1.566 -0.0189 -0.4368 -0.2835
 8058SOL    HW135636   4.145   1.193   1.531 -1.7378  3.1437 -0.2019
 8058SOL    HW235637   4.049   1.093   1.495  0.8571  0.6375 -1.3943
 8059SOL     OW35638   1.065   0.143   7.528 -0.1937 -0.6164  0.0251
 8059SOL    HW135639   0.971   0.137   7.545 -0.5858  3.1579 -0.8117
 8059SOL    HW235640   1.108   0.076   7.582 -2.1913 -0.6536  1.5650
 8060SOL     OW35641   3.658   1.759   5.517  0.4814 -0.0980  0.3556
 8060SOL    HW135642   3.623   1.672   5.534  0.2861  0.2251  1.6131
 8060SOL    HW235643   3.701   1.749   5.432  1.3862 -1.1009  0.9314
 8061SOL     OW35644   0.437   2.445   5.599 -0.6651 -0.1563  0.7093
 8061SOL    HW135645   0.380   2.478   5.529  0.8861 -1.5273 -1.1813
 8061SOL    HW235646   0.439   2.356   5.563  0.9058  1.0256 -2.1149
 8062SOL     OW35647   0.073   1.305   2.857  0.1866  0.1369  0.1689
 8062SOL    HW135648   0.066   1.311   2.762  1.0816  0.7702  0.1392
 8062SOL    HW235649   0.012   1.234   2.874 -0.4212 -0.1155 -3.0419
 8063SOL     OW35650   2.773   1.356   8.402 -0.5946 -0.0266  0.7482
 8063SOL    HW135651   2.862   1.382   8.425 -0.0051 -0.5656 -0.9709
 8063SOL    HW235652   2.721   1.436   8.395 -0.3815  0.1120  0.7796
 8064SOL     OW35653   2.340   0.505   5.276 -0.2951  0.2272 -0.2187
 8064SOL    HW135654   2.434   0.487   5.264 -0.7998 -2.2114 -0.6344
 8064SOL    HW235655   2.300   0.421   5.255  0.7087 -0.0119 -1.1847
 8065SOL     OW35656   0.587   1.205  11.783 -0.1571 -0.1274 -0.2161
 8065SOL    HW135657   0.566   1.238  11.871 -2.1293 -2.2001  0.0875
 8065SOL    HW235658   0.567   1.112  11.794 -0.8524 -0.1126 -1.4050
 8066SOL     OW35659   2.615   3.602  15.770  0.0404  0.3742 -0.9718
 8066SOL    HW135660   2.652   3.688  15.750 -2.7766  1.8150  0.0453
 8066SOL    HW235661   2.662   3.579  15.851 -0.5316  0.5495 -0.5895
 8067SOL     OW35662   1.402   1.008   5.120  0.0008  0.4073 -0.0085
 8067SOL    HW135663   1.431   1.022   5.030 -0.8305 -0.1123 -0.3502
 8067SOL    HW235664   1.384   0.914   5.121  0.0329  0.4128  1.3141
 8068SOL     OW35665   4.555   1.582   2.993  0.2989  0.2579 -0.4443
 8068SOL    HW135666   4.546   1.658   2.936  0.7240  0.5712 -0.0929
 8068SOL    HW235667   4.466   1.563   3.021  0.3953  1.0942  0.4096
 8069SOL     OW35668   2.523   2.308   6.429  0.2821  0.3227  0.4308
 8069SOL    HW135669   2.474   2.294   6.510 -1.5413  1.9088 -0.3691
 8069SOL    HW235670   2.599   2.359   6.455  0.8434  0.6312 -1.8437
 8070SOL     OW35671   1.153   0.053   7.276  0.8241  0.4284  0.1436
 8070SOL    HW135672   1.210   0.121   7.239 -0.3288  0.4151 -1.6980
 8070SOL    HW235673   1.123   0.092   7.358  2.7761  1.5415  0.3049
 8071SOL     OW35674   0.129   2.936   9.871  0.3516 -0.5042  0.3998
 8071SOL    HW135675   0.182   2.905   9.945  0.8288  0.0454  0.2883
 8071SOL    HW235676   0.040   2.944   9.904  0.7543  0.9445  1.1460
 8072SOL     OW35677   2.057   0.820   8.692 -0.5778 -0.4278  0.5899
 8072SOL    HW135678   2.018   0.745   8.646 -2.6921  0.8806  0.2346
 8072SOL    HW235679   1.971   0.859   8.711  0.5666  1.5083  1.7662
 8073SOL     OW35680   2.145   1.981   8.074 -0.1016  0.3136 -0.1263
 8073SOL    HW135681   2.195   1.993   7.993  1.6676 -1.6051  0.6782
 8073SOL    HW235682   2.138   1.885   8.079  0.9375  0.1316 -2.2214
 8074SOL     OW35683   2.500   3.632  14.815 -0.0395  0.4692 -0.0807
 8074SOL    HW135684   2.436   3.561  14.813 -1.0035  1.3960 -1.9869
 8074SOL    HW235685   2.471   3.694  14.882 -2.7893 -0.3239 -0.5085
 8075SOL     OW35686   2.424   4.014   7.824 -0.2496 -0.4523  0.2572
 8075SOL    HW135687   2.510   3.988   7.858  0.5693 -1.1382 -2.3483
 8075SOL    HW235688   2.434   4.106   7.799 -5.0354 -0.6043 -2.1133
 8076SOL     OW35689   3.016   1.371  10.714  0.1288 -0.0032 -0.2080
 8076SOL    HW135690   2.927   1.390  10.685 -1.1474 -1.0157  3.1273
 8076SOL    HW235691   3.033   1.312  10.640 -0.5918  1.2589 -1.3910
 8077SOL     OW35692   2.336   2.702   6.908  0.4451  0.5394  0.2917
 8077SOL    HW135693   2.401   2.650   6.954 -0.3183 -1.7488 -1.1732
 8077SOL    HW235694   2.343   2.779   6.963 -0.4155  0.8364 -0.0068
 8078SOL     OW35695   1.588   4.578  15.675 -0.0703  0.4889  0.4085
 8078SOL    HW135696   1.500   4.569  15.638 -0.3628  0.4294  1.1181
 8078SOL    HW235697   1.589   4.510  15.742  0.5034  0.5802  0.4957
 8079SOL     OW35698   4.617   2.752   8.906 -0.1168  0.1548  0.0828
 8079SOL    HW135699   4.662   2.833   8.880 -0.7061 -0.6652 -3.4090
 8079SOL    HW235700   4.623   2.761   9.002  1.0203  1.5651 -0.1186
 8080SOL     OW35701   4.393   2.039  12.443  0.5177  0.0927  0.0170
 8080SOL    HW135702   4.378   1.987  12.522 -1.9703  0.4461 -0.2139
 8080SOL    HW235703   4.464   2.096  12.474  0.3489  0.6764 -0.6719
 8081SOL     OW35704   1.637   3.854  11.925 -0.4405 -0.0161  0.5731
 8081SOL    HW135705   1.569   3.919  11.939 -0.3198  0.3423 -0.4948
 8081SOL    HW235706   1.590   3.777  11.954  0.9925 -0.1758  2.4488
 8082SOL     OW35707   1.865   3.510   6.316  0.4294  0.0857  0.2780
 8082SOL    HW135708   1.904   3.493   6.402 -2.0499 -1.2173  1.1379
 8082SOL    HW235709   1.781   3.544   6.345  0.8102  0.2246  1.2288
 8083SOL     OW35710   0.612   3.271   7.254  0.0473 -0.2899  0.0502
 8083SOL    HW135711   0.586   3.348   7.203 -0.9820 -0.4152  0.3845
 8083SOL    HW235712   0.602   3.203   7.187  1.1720  1.5462 -1.9834
 8084SOL     OW35713   2.329   3.556   8.520  0.3052 -0.0501 -0.1383
 8084SOL    HW135714   2.420   3.560   8.490  0.5600 -2.0018  0.3976
 8084SOL    HW235715   2.303   3.644   8.494  1.6813  0.5923  0.6411
 8085SOL     OW35716   1.558   2.412   3.457 -0.2869 -0.3885  0.4004
 8085SOL    HW135717   1.599   2.328   3.475  0.1770 -0.4647 -0.9778
 8085SOL    HW235718   1.626   2.436   3.394  0.8204 -3.2777  0.4902
 8086SOL     OW35719   3.863   2.521   5.916 -0.0215  0.2972 -0.3969
 8086SOL    HW135720   3.917   2.576   5.859 -0.3841  1.2250  0.1678
 8086SOL    HW235721   3.803   2.584   5.956 -0.8581 -0.4965 -0.3904
 8087SOL     OW35722   0.020   3.707  10.627  0.1388 -0.0113  0.1394
 8087SOL    HW135723   4.671   3.690  10.686  0.5073 -0.1521  0.5692
 8087SOL    HW235724   0.026   3.800  10.646  1.6655 -0.2399  0.7464
 8088SOL     OW35725   0.601   2.516  10.220 -0.0760  0.4123  0.3298
 8088SOL    HW135726   0.618   2.545  10.309 -1.2284  2.0276  0.0213
 8088SOL    HW235727   0.505   2.517  10.218 -0.0468 -2.4094 -1.8214
 8089SOL     OW35728   2.061   3.267   3.809 -0.0432 -0.1159  0.1832
 8089SOL    HW135729   2.098   3.332   3.869  0.7436  0.4913 -0.9649
 8089SOL    HW235730   2.008   3.321   3.752 -0.1722  0.0965  0.5057
 8090SOL     OW35731   2.746   4.077   6.681 -0.8493  0.2310  0.2217
 8090SOL    HW135732   2.704   4.133   6.616 -0.2400 -2.1259 -2.1776
 8090SOL    HW235733   2.687   4.077   6.756 -0.3644  2.7366  0.5939
 8091SOL     OW35734   2.669   1.460   6.777 -0.2646  0.3320  0.4658
 8091SOL    HW135735   2.587   1.500   6.746  0.7683 -0.7678 -3.6687
 8091SOL    HW235736   2.736   1.489   6.715 -1.4280 -1.8600 -1.8403
 8092SOL     OW35737   4.525   2.448   4.306  0.0447 -0.6055 -0.5002
 8092SOL    HW135738   4.471   2.375   4.274 -0.1921 -1.4701  1.9218
 8092SOL    HW235739   4.551   2.489   4.223  0.1636 -1.0933 -0.7072
 8093SOL     OW35740   0.953   2.585   5.984 -0.0033  0.3829 -0.1576
 8093SOL    HW135741   0.932   2.563   5.893 -3.6320  1.8442  0.3309
 8093SOL    HW235742   0.972   2.678   5.974 -0.4676  0.3155 -1.7712
 8094SOL     OW35743   2.155   3.179  16.178  0.2175  0.0373  0.2107
 8094SOL    HW135744   2.093   3.117  16.139  1.3844  0.0066 -1.5594
 8094SOL    HW235745   2.095   3.251  16.195 -1.0212 -1.1485  0.9045
 8095SOL     OW35746   1.549   0.221   7.051 -0.3806 -0.2337  0.4279
 8095SOL    HW135747   1.468   0.257   7.016  0.3801 -1.7718 -2.8570
 8095SOL    HW235748   1.602   0.216   6.972 -2.1870  0.4316 -0.8117
 8096SOL     OW35749   2.312   3.627   6.467 -0.1044  0.3352  0.3199
 8096SOL    HW135750   2.279   3.687   6.534  2.3682 -0.7300  2.4935
 8096SOL    HW235751   2.236   3.626   6.410 -0.1380 -1.1273  0.3902
 8097SOL     OW35752   1.541   1.104  16.490  0.0496 -0.1166 -0.3488
 8097SOL    HW135753   1.488   1.077  16.565 -0.9370  2.1104 -0.2627
 8097SOL    HW235754   1.552   1.020  16.445 -0.3131  0.0512 -0.7411
 8098SOL     OW35755   2.579   2.292   2.243  0.5437  0.1656  0.1717
 8098SOL    HW135756   2.675   2.287   2.253  0.6164  0.6872 -0.2785
 8098SOL    HW235757   2.578   2.238   2.164  0.8661  0.7439 -0.2288
 8099SOL     OW35758   1.190   0.792  12.482 -0.1738  0.3229 -0.4499
 8099SOL    HW135759   1.134   0.868  12.468  2.7133  1.7966 -4.2525
 8099SOL    HW235760   1.164   0.759  12.568 -0.2205 -1.0705 -1.0041
 8100SOL     OW35761   0.090   1.429   3.451 -0.1576 -0.8476 -0.0775
 8100SOL    HW135762   0.043   1.471   3.379 -0.6561  2.1584  1.9987
 8100SOL    HW235763   0.044   1.346   3.446  0.6513 -1.2393 -1.0881
 8101SOL     OW35764   1.331   2.899   6.513  0.3812  0.5584  0.0144
 8101SOL    HW135765   1.329   2.972   6.575  1.5479 -0.5896  1.3845
 8101SOL    HW235766   1.339   2.946   6.430 -3.1999  1.7308  0.2987
 8102SOL     OW35767   1.770   2.944  13.669 -0.1483 -0.0758 -0.0092
 8102SOL    HW135768   1.709   2.993  13.724 -0.0935 -0.5811  0.5091
 8102SOL    HW235769   1.863   2.966  13.678 -0.2848  0.6394 -0.3872
 8103SOL     OW35770   3.516   1.460  16.617  0.2964  0.0809  0.1851
 8103SOL    HW135771   3.533   1.391  16.553 -2.9604  0.4352 -1.0506
 8103SOL    HW235772   3.578   1.523  16.580 -0.5686 -0.7488 -2.6693
 8104SOL     OW35773   2.442   3.038  12.400 -0.1595 -0.6465 -0.5636
 8104SOL    HW135774   2.533   3.032  12.428 -0.7503 -2.7038  0.9014
 8104SOL    HW235775   2.438   2.967  12.335  1.8982 -0.7392 -0.6012
 8105SOL     OW35776   1.233   4.049   2.627 -0.1243  0.1747 -0.2327
 8105SOL    HW135777   1.208   4.076   2.716 -1.1782 -1.1080 -0.1417
 8105SOL    HW235778   1.231   4.132   2.580 -0.1375 -0.6654 -1.7067
 8106SOL     OW35779   4.333   1.614   2.486  0.2065 -0.3128 -0.0014
 8106SOL    HW135780   4.421   1.596   2.451 -0.7525  0.2296 -2.7331
 8106SOL    HW235781   4.282   1.555   2.431 -0.0047 -1.1159  1.0577
 8107SOL     OW35782   2.409   0.081  16.561 -0.2685 -0.2092 -0.6606
 8107SOL    HW135783   2.376   0.029  16.487 -2.0795 -0.9624  0.7010
 8107SOL    HW235784   2.464   0.138  16.507  1.3444 -1.3412 -0.2204
 8108SOL     OW35785   0.497   1.015   8.935 -0.7632 -0.3480 -0.1242
 8108SOL    HW135786   0.462   0.955   9.002  1.1835 -0.1721  1.0539
 8108SOL    HW235787   0.437   0.992   8.864  0.7320  0.1775 -1.5675
 8109SOL     OW35788   0.406   2.289   5.856  0.0570 -0.0477  0.7026
 8109SOL    HW135789   0.349   2.349   5.808 -0.7137 -1.6139 -0.3330
 8109SOL    HW235790   0.489   2.297   5.809 -0.8731 -0.2258 -0.9724
 8110SOL     OW35791   2.313   1.472  14.175  0.8657 -0.2679  0.1986
 8110SOL    HW135792   2.367   1.535  14.223  1.7519 -0.4569 -0.5556
 8110SOL    HW235793   2.367   1.393  14.178 -0.1038 -0.9904 -1.4993
 8111SOL     OW35794   1.739   0.433   5.476 -0.2914  0.1590 -0.1010
 8111SOL    HW135795   1.797   0.393   5.541 -2.2051 -2.1064  0.1951
 8111SOL    HW235796   1.654   0.436   5.519 -0.8646 -2.8200 -1.0353
 8112SOL     OW35797   0.888   1.455  14.924  0.6036 -0.2302 -0.3931
 8112SOL    HW135798   0.887   1.400  15.002 -1.1794  3.9672  2.5129
 8112SOL    HW235799   0.904   1.395  14.851 -1.1251 -1.3688  0.1640
 8113SOL     OW35800   0.396   2.070  11.969 -0.2908  0.0584  0.3018
 8113SOL    HW135801   0.415   1.976  11.968  0.0092  0.1167  0.4726
 8113SOL    HW235802   0.467   2.099  11.912  0.8488 -0.5923  1.4064
 8114SOL     OW35803   0.324   2.986   0.763  0.5428 -0.1989 -0.5170
 8114SOL    HW135804   0.376   3.063   0.740  1.1378  0.5869  3.4434
 8114SOL    HW235805   0.390   2.924   0.794  1.8102  1.1781 -0.4768
 8115SOL     OW35806   3.176   3.125   0.376 -0.0179  0.3573 -0.3552
 8115SOL    HW135807   3.271   3.137   0.380 -0.0465  0.1263  1.1283
 8115SOL    HW235808   3.165   3.066   0.302  0.8373  0.4672 -0.5786
 8116SOL     OW35809   0.312   4.433   3.543  0.2396  0.7918 -0.4002
 8116SOL    HW135810   0.349   4.348   3.520  2.3351  1.5156  0.3488
 8116SOL    HW235811   0.277   4.470   3.461  0.4802  0.0665 -0.8276
 8117SOL     OW35812   3.581   3.672   0.408 -0.1717 -0.3855 -0.3208
 8117SOL    HW135813   3.673   3.694   0.395 -0.2530  0.0729 -0.1096
 8117SOL    HW235814   3.548   3.686   0.319  0.2299  1.2105 -0.2108
 8118SOL     OW35815   3.583   0.065  15.539  0.0338  0.3014 -0.1565
 8118SOL    HW135816   3.603   0.081  15.447 -2.6636 -1.2281 -1.0308
 8118SOL    HW235817   3.541   0.146  15.566  2.2923  1.1148  0.8375
 8119SOL     OW35818   3.113   3.414  13.629 -0.3168 -0.3926  0.2705
 8119SOL    HW135819   3.030   3.370  13.648 -1.1685  1.2021  0.2116
 8119SOL    HW235820   3.110   3.480  13.699 -1.1673 -0.2177  0.0621
 8120SOL     OW35821   4.689   2.856  12.193 -0.2188 -0.3361  0.4319
 8120SOL    HW135822   0.042   2.806  12.169  1.4317  2.1437  0.5776
 8120SOL    HW235823   4.680   2.819  12.281  3.7463  0.3446  1.1397
 8121SOL     OW35824   3.597   0.627   8.287 -0.1263  0.1090  0.6108
 8121SOL    HW135825   3.690   0.626   8.309 -0.5308 -1.4540  2.2804
 8121SOL    HW235826   3.574   0.720   8.291  0.2259  0.2388 -0.6742
 8122SOL     OW35827   3.418   4.325   1.661 -0.1110  0.0558 -0.2693
 8122SOL    HW135828   3.330   4.313   1.625  0.3357 -2.0697 -0.6654
 8122SOL    HW235829   3.469   4.294   1.587 -1.3924 -0.1312 -1.0803
 8123SOL     OW35830   1.904   3.053   5.806  0.2556 -0.0603  0.2797
 8123SOL    HW135831   1.959   3.048   5.885  1.5049  1.8045 -0.4714
 8123SOL    HW235832   1.891   2.959   5.798  0.0522 -0.0240  0.1836
 8124SOL     OW35833   3.014   2.461   2.601  0.1601  0.8585 -0.2465
 8124SOL    HW135834   3.077   2.501   2.542  1.0597 -0.1918 -0.0027
 8124SOL    HW235835   3.071   2.406   2.655  0.5023  2.2493  0.8102
 8125SOL     OW35836   3.594   2.962   6.906  0.4205  0.0881 -0.2542
 8125SOL    HW135837   3.655   2.999   6.971 -0.7217  1.6492 -0.0776
 8125SOL    HW235838   3.621   2.871   6.914  0.3658 -0.1278 -2.4790
 8126SOL     OW35839   0.668   1.263   6.491 -0.1894  0.4673  0.3475
 8126SOL    HW135840   0.740   1.311   6.449 -1.5082 -0.7690 -3.2937
 8126SOL    HW235841   0.666   1.305   6.577  0.2203  0.4690  0.3587
 8127SOL     OW35842   2.558   0.154  16.762 -0.0692 -0.6267 -0.1251
 8127SOL    HW135843   2.506   0.111  16.694 -1.4458  0.5885  0.1586
 8127SOL    HW235844   2.560   0.241  16.721  1.6016 -0.8421 -0.5012
 8128SOL     OW35845   1.487   0.305  16.853 -0.6384 -0.1557  0.4911
 8128SOL    HW135846   1.461   0.223  16.895 -0.4455 -1.0904 -1.1987
 8128SOL    HW235847   1.507   0.360  16.928  0.1931  0.3592 -0.0992
 8129SOL     OW35848   2.186   4.297  15.458  0.1996  0.3379 -0.1366
 8129SOL    HW135849   2.140   4.363  15.407  0.4576  1.0953  0.6059
 8129SOL    HW235850   2.267   4.287  15.408 -1.5652  2.6955 -3.4412
 8130SOL     OW35851   1.830   2.511   9.104 -0.1262 -0.0293 -0.5603
 8130SOL    HW135852   1.768   2.564   9.155  0.2209  0.7514 -0.9490
 8130SOL    HW235853   1.900   2.508   9.169 -0.7564  0.3420  0.1323
 8131SOL     OW35854   1.366   2.551  15.254 -0.1267  0.3089  0.4454
 8131SOL    HW135855   1.350   2.460  15.280 -0.0097  0.0296 -0.4699
 8131SOL    HW235856   1.443   2.571  15.308 -0.3778 -0.9982  1.3046
 8132SOL     OW35857   2.391   0.599  10.748  0.1745  0.2960 -0.1030
 8132SOL    HW135858   2.352   0.682  10.774  0.9688  0.2434  1.2835
 8132SOL    HW235859   2.344   0.582  10.666  2.0221  1.7182 -1.4600
 8133SOL     OW35860   2.804   4.723   6.473 -0.3124  0.5074 -0.4562
 8133SOL    HW135861   2.771   0.019   6.386 -0.2111  1.0147 -0.3696
 8133SOL    HW235862   2.898   0.014   6.460 -0.1012  1.0336  1.6602
 8134SOL     OW35863   1.971   1.575   4.516  0.2135 -0.4183  0.7241
 8134SOL    HW135864   2.059   1.558   4.550  0.2913 -1.3969  0.0300
 8134SOL    HW235865   1.965   1.670   4.528 -0.4838 -0.5161  1.1147
 8135SOL     OW35866   4.220   4.079   7.763  0.2659  0.5522  0.1249
 8135SOL    HW135867   4.256   4.087   7.674 -2.2755  2.3878 -0.7473
 8135SOL    HW235868   4.286   4.114   7.822  0.5484 -3.3760  2.1785
 8136SOL     OW35869   3.436   1.421   3.747 -0.4879 -0.5699 -0.4834
 8136SOL    HW135870   3.430   1.336   3.791  0.1482  0.6664  1.9708
 8136SOL    HW235871   3.392   1.388   3.668  0.0665 -0.4136 -0.8610
 8137SOL     OW35872   0.082   0.544   0.431 -0.0744  0.1560 -0.7909
 8137SOL    HW135873   0.115   0.571   0.516  0.9120  0.5396 -1.2903
 8137SOL    HW235874   0.159   0.500   0.397  1.4583  0.7950  1.8940
 8138SOL     OW35875   2.477   2.529   3.432  0.8275 -0.1723  0.6657
 8138SOL    HW135876   2.565   2.554   3.406  0.7641  0.1681  0.7843
 8138SOL    HW235877   2.463   2.577   3.514 -1.2861  1.1507 -0.4496
 8139SOL     OW35878   0.119   2.011   8.126  0.1006 -0.0900 -0.0385
 8139SOL    HW135879   0.179   2.075   8.086 -0.0948  0.1781  0.0973
 8139SOL    HW235880   0.041   2.005   8.071  0.8156 -0.4680 -1.0245
 8140SOL     OW35881   4.584   2.625   5.934  0.2534 -0.3173 -0.2659
 8140SOL    HW135882   4.586   2.530   5.923 -1.5381 -0.5778  1.6371
 8140SOL    HW235883   4.666   2.647   5.978  1.0135 -0.6066 -1.5539
 8141SOL     OW35884   1.239   2.364   8.926 -0.2353 -0.3460  0.0239
 8141SOL    HW135885   1.247   2.427   8.997  1.9623 -1.0108  0.3775
 8141SOL    HW235886   1.303   2.304   8.964 -2.0953 -1.5293  1.3146
 8142SOL     OW35887   3.810   4.619   6.954  0.1005  0.2686  0.2375
 8142SOL    HW135888   3.783   4.579   7.037  0.3370  1.9836  1.1316
 8142SOL    HW235889   3.728   4.608   6.905  0.2773  1.4850 -0.3218
 8143SOL     OW35890   0.118   1.825   4.581  0.3618  0.5312  0.9811
 8143SOL    HW135891   0.068   1.848   4.659 -0.4180  0.0340  0.6335
 8143SOL    HW235892   0.206   1.848   4.611  0.8237  0.2184 -0.1160
 8144SOL     OW35893   4.480   2.600   8.738  0.3322  0.1033  0.2523
 8144SOL    HW135894   4.505   2.652   8.814  0.8944 -2.4332  1.8248
 8144SOL    HW235895   4.442   2.667   8.682  3.1223 -0.6788 -2.5763
 8145SOL     OW35896   3.037   3.669   4.377  0.5191  0.8789  0.1742
 8145SOL    HW135897   3.071   3.700   4.293  2.9914 -0.5681  0.6579
 8145SOL    HW235898   3.116   3.650   4.427 -0.4545 -0.4870  1.1630
 8146SOL     OW35899   0.040   1.750   3.070 -0.1792 -0.1102  0.2627
 8146SOL    HW135900   4.689   1.691   3.071 -1.1740  1.1693 -0.1627
 8146SOL    HW235901   0.106   1.706   3.016  0.5528  0.2416  0.8831
 8147SOL     OW35902   0.894   0.738   6.610 -0.3403 -0.4444  0.6048
 8147SOL    HW135903   0.855   0.709   6.692 -0.1547  2.0226  1.5729
 8147SOL    HW235904   0.819   0.730   6.552  1.3069  1.5986 -1.8507
 8148SOL     OW35905   4.171   1.005  15.382  0.2248 -0.9246 -0.7251
 8148SOL    HW135906   4.191   1.030  15.472 -3.4155  0.2174 -0.2560
 8148SOL    HW235907   4.164   0.910  15.390  1.7282 -0.9132  0.7786
 8149SOL     OW35908   4.031   2.299  11.978 -0.3535 -0.7657  0.5225
 8149SOL    HW135909   3.976   2.239  12.028 -1.6295 -0.2002 -0.2080
 8149SOL    HW235910   4.054   2.240  11.906  1.9618 -0.5699  1.1017
 8150SOL     OW35911   1.356   1.280   0.281  0.0284  0.1350 -0.7065
 8150SOL    HW135912   1.359   1.206   0.220  1.3998 -2.0664  2.0548
 8150SOL    HW235913   1.338   1.346   0.214  1.4486 -0.1236 -1.3399
 8151SOL     OW35914   4.558   0.034  16.454  0.0064 -0.0307 -0.2744
 8151SOL    HW135915   4.649   0.056  16.431  0.0627  0.0204 -0.0077
 8151SOL    HW235916   4.563   0.052  16.548  1.5754  0.0690 -0.3664
 8152SOL     OW35917   2.318   0.518  12.305  0.2512  0.1897  0.0386
 8152SOL    HW135918   2.227   0.489  12.316  0.0174  0.0733 -2.1401
 8152SOL    HW235919   2.363   0.434  12.315  0.4132  0.3183  0.3554
 8153SOL     OW35920   1.256   0.350  11.153 -0.1179 -0.0365 -0.1814
 8153SOL    HW135921   1.260   0.257  11.133 -1.7653  0.4177 -2.7983
 8153SOL    HW235922   1.235   0.377  11.063 -1.6544  0.0628  0.2069
 8154SOL     OW35923   4.161   2.858   5.166 -0.4250 -0.0806  0.4209
 8154SOL    HW135924   4.133   2.899   5.084 -1.9593 -2.6568 -0.3425
 8154SOL    HW235925   4.087   2.798   5.181  0.5420 -1.1962  0.7493
 8155SOL     OW35926   2.411   3.065  10.274  0.1263 -0.4312  0.6580
 8155SOL    HW135927   2.367   3.144  10.305 -1.3489 -1.4701  1.2776
 8155SOL    HW235928   2.337   3.017  10.236  1.4830 -1.9448 -0.0949
 8156SOL     OW35929   0.571   1.370  17.027  0.3367 -0.0322  0.2629
 8156SOL    HW135930   0.614   1.293  17.064 -0.6440 -0.6091  0.2122
 8156SOL    HW235931   0.586   1.432  17.098  0.6266  0.4556 -0.2282
 8157SOL     OW35932   0.343   0.483   8.526 -0.2183 -0.5454 -0.1339
 8157SOL    HW135933   0.434   0.499   8.503 -1.1766  1.9247 -2.1038
 8157SOL    HW235934   0.334   0.391   8.504 -2.0203  0.2182 -2.5312
 8158SOL     OW35935   0.186   2.689   5.243 -0.5349 -0.5866  0.1198
 8158SOL    HW135936   0.097   2.722   5.224 -0.2539 -0.3057 -0.7217
 8158SOL    HW235937   0.221   2.715   5.157 -0.8267  3.4445  1.2081
 8159SOL     OW35938   3.820   0.087  15.986  0.6865  0.0422  0.2131
 8159SOL    HW135939   3.743   0.052  15.941  1.3822 -0.2239 -0.7891
 8159SOL    HW235940   3.887   0.081  15.917  1.2479 -2.7462  0.9815
 8160SOL     OW35941   1.800   0.304   8.742 -0.5947 -0.1628 -0.7026
 8160SOL    HW135942   1.791   0.392   8.778 -1.0630 -1.6388  2.8251
 8160SOL    HW235943   1.781   0.320   8.650 -0.8543 -0.8437 -0.7722
 8161SOL     OW35944   3.531   3.785   8.202  0.0817  0.3019 -0.3104
 8161SOL    HW135945   3.543   3.873   8.238  0.5092 -0.0315  0.3693
 8161SOL    HW235946   3.617   3.751   8.224 -0.8788 -0.1156  2.7923
 8162SOL     OW35947   3.538   4.430   4.387 -0.3260  0.1473  0.5401
 8162SOL    HW135948   3.593   4.381   4.325 -1.6586 -2.3558  1.3389
 8162SOL    HW235949   3.447   4.411   4.364 -0.1542 -0.7394  0.5879
 8163SOL     OW35950   4.406   0.767  15.913  0.0878  0.4463 -0.1935
 8163SOL    HW135951   4.472   0.835  15.926 -0.7160  1.2203 -0.1591
 8163SOL    HW235952   4.439   0.706  15.979  3.0706  0.9093 -1.2802
 8164SOL     OW35953   4.540   3.255   8.489  0.5208 -0.2133  0.1551
 8164SOL    HW135954   4.617   3.258   8.545  0.1009  1.3767  0.6557
 8164SOL    HW235955   4.522   3.163   8.507  0.7710 -0.2843  0.0389
 8165SOL     OW35956   0.249   0.330   3.483 -0.3282 -0.7133 -0.5889
 8165SOL    HW135957   0.306   0.391   3.437 -0.7069  0.7316  0.8537
 8165SOL    HW235958   0.168   0.332   3.434 -0.4002  0.7876 -0.3899
 8166SOL     OW35959   1.629   4.243  10.495 -0.5248 -0.0263  0.1597
 8166SOL    HW135960   1.615   4.150  10.509  3.5347 -0.8028 -1.0564
 8166SOL    HW235961   1.698   4.238  10.429  0.7876 -1.3629  1.6234
 8167SOL     OW35962   4.323   0.674   8.950  0.4165  0.2524  0.4645
 8167SOL    HW135963   4.328   0.584   8.981 -2.2374 -0.4488 -1.1807
 8167SOL    HW235964   4.343   0.661   8.857 -0.9295 -0.1564  0.2308
 8168SOL     OW35965   4.429   2.577   8.266  0.3614  0.0107  0.2470
 8168SOL    HW135966   4.396   2.490   8.292 -2.3181  1.4471  1.6754
 8168SOL    HW235967   4.368   2.640   8.304  0.0813 -0.1623  0.0854
 8169SOL     OW35968   0.307   3.961   1.161 -0.0142 -0.6295 -0.2197
 8169SOL    HW135969   0.282   3.980   1.071  0.6704 -0.0605 -0.2875
 8169SOL    HW235970   0.254   4.019   1.216 -0.8537 -0.0316 -1.6520
 8170SOL     OW35971   3.297   1.875  11.490  0.6277 -0.1530  0.3517
 8170SOL    HW135972   3.264   1.926  11.416 -0.8556 -1.3094  0.2077
 8170SOL    HW235973   3.376   1.834  11.455  0.6174  1.4673 -1.5323
 8171SOL     OW35974   1.027   1.037  12.419  0.4555 -0.0212  0.4003
 8171SOL    HW135975   0.966   1.056  12.490 -0.0396 -1.3071  0.3240
 8171SOL    HW235976   1.090   1.109  12.413  1.5558 -1.0445 -0.4786
 8172SOL     OW35977   3.315   1.840   7.186  0.0355 -0.3491  0.1408
 8172SOL    HW135978   3.301   1.762   7.133  2.1969 -1.0396  0.5451
 8172SOL    HW235979   3.384   1.799   7.239  0.3079 -0.5111 -0.3391
 8173SOL     OW35980   1.834   1.476   8.660  0.1780 -0.1259 -0.2217
 8173SOL    HW135981   1.796   1.542   8.602 -2.5302  1.3917  3.2782
 8173SOL    HW235982   1.791   1.490   8.744 -0.3577  0.9466 -0.6780
 8174SOL     OW35983   1.444   1.173   5.737 -0.5907 -0.5479 -0.2611
 8174SOL    HW135984   1.439   1.246   5.798  1.6926 -1.0243  0.4894
 8174SOL    HW235985   1.367   1.122   5.763  0.2531 -2.1161 -0.8507
 8175SOL     OW35986   2.020   3.591   9.572 -0.1499  0.1093  0.3798
 8175SOL    HW135987   2.025   3.676   9.615  0.8722 -0.6019  1.6972
 8175SOL    HW235988   1.988   3.619   9.486  1.4789 -0.4583 -0.4165
 8176SOL     OW35989   3.046   1.475   2.525  0.1907 -0.0380  0.1676
 8176SOL    HW135990   3.093   1.489   2.443 -2.3949  1.0602 -1.1477
 8176SOL    HW235991   3.043   1.380   2.537 -0.8244  0.1136  1.1308
 8177SOL     OW35992   1.144   0.039   9.135 -0.2092 -0.2363 -0.0301
 8177SOL    HW135993   1.051   0.017   9.133 -0.4588  0.7853  0.2475
 8177SOL    HW235994   1.177   4.704   9.068 -0.8415 -0.9776  0.3252
 8178SOL     OW35995   0.622   1.732  12.293 -0.0821  0.4592  0.2092
 8178SOL    HW135996   0.661   1.811  12.254  0.0591 -0.5359 -1.6887
 8178SOL    HW235997   0.661   1.672  12.230  1.8913  0.9920  0.9133
 8179SOL     OW35998   2.032   1.382   0.972 -0.4934  0.0596 -0.4945
 8179SOL    HW135999   2.063   1.343   1.054 -1.8323  3.0016  1.4024
 8179SOL    HW236000   2.043   1.300   0.922  2.9374  0.1646  0.0841
 8180SOL     OW36001   1.803   0.677   6.480  0.6008  0.0246 -0.0280
 8180SOL    HW136002   1.757   0.759   6.464  0.8210 -0.3719 -2.6689
 8180SOL    HW236003   1.879   0.690   6.423 -0.0451  2.0728 -0.4307
 8181SOL     OW36004   1.393   3.641   7.933  0.3869 -0.2947  0.4424
 8181SOL    HW136005   1.441   3.596   8.002 -0.3391 -0.3208  0.9291
 8181SOL    HW236006   1.425   3.730   7.949  1.1722 -0.3240 -0.9059
 8182SOL     OW36007   2.682   3.450  16.681 -0.6049 -0.7429  0.1891
 8182SOL    HW136008   2.661   3.544  16.679  0.3476 -0.5115  1.3160
 8182SOL    HW236009   2.603   3.409  16.648 -0.7389 -0.0239 -0.3986
 8183SOL     OW36010   3.822   3.713  11.745 -0.5039  0.2301  0.5310
 8183SOL    HW136011   3.742   3.714  11.797 -0.0191 -0.2916  1.3093
 8183SOL    HW236012   3.871   3.767  11.808 -0.1534  0.1477  0.3275
 8184SOL     OW36013   1.356   1.521  12.092 -0.1478 -0.1072 -0.7927
 8184SOL    HW136014   1.381   1.465  12.019  0.8144 -0.6252 -0.0600
 8184SOL    HW236015   1.413   1.482  12.158  1.4120 -0.7280 -2.5305
 8185SOL     OW36016   0.906   2.237   2.674  0.4784  0.0374  0.1304
 8185SOL    HW136017   0.880   2.231   2.582 -0.7927 -0.4331  0.5284
 8185SOL    HW236018   0.965   2.311   2.661  0.7009 -0.2685 -0.6183
 8186SOL     OW36019   3.970   2.917   4.705  0.0817 -0.6795  0.3682
 8186SOL    HW136020   4.006   2.977   4.639  1.5697  0.3207  2.0556
 8186SOL    HW236021   3.882   2.948   4.726  0.1828  0.4324 -0.8783
 8187SOL     OW36022   2.977   0.662   8.243 -0.0638  0.2597 -0.1982
 8187SOL    HW136023   2.928   0.644   8.162  0.1815 -0.4120 -0.1979
 8187SOL    HW236024   3.036   0.586   8.238  1.1727  1.3173 -1.6044
 8188SOL     OW36025   0.958   2.679  15.420 -0.0561 -0.0008  0.0445
 8188SOL    HW136026   0.972   2.604  15.479 -2.5242  0.5421  1.3439
 8188SOL    HW236027   0.995   2.646  15.338  1.0712  0.1385  0.4978
 8189SOL     OW36028   0.433   3.445  15.329  0.3993  0.0804  0.0407
 8189SOL    HW136029   0.488   3.368  15.338 -0.8249 -1.1105 -2.6078
 8189SOL    HW236030   0.419   3.474  15.420  3.8526  0.6046  0.3901
 8190SOL     OW36031   4.105   3.255   6.725  0.8217 -0.4755  0.4003
 8190SOL    HW136032   4.173   3.250   6.792  0.8458  2.0119  0.5446
 8190SOL    HW236033   4.030   3.289   6.774  0.5627  3.3502 -2.7046
 8191SOL     OW36034   3.887   1.066   6.963  0.0744 -0.0431 -0.0129
 8191SOL    HW136035   3.930   1.101   6.885 -2.1797  0.8163 -0.8819
 8191SOL    HW236036   3.937   1.111   7.031 -0.7524  0.9948 -0.1088
 8192SOL     OW36037   2.711   3.502  12.489  0.4201  0.2395  0.3541
 8192SOL    HW136038   2.728   3.555  12.411  1.0642  0.2716  0.5195
 8192SOL    HW236039   2.655   3.433  12.453  0.6804 -0.8200  1.9691
 8193SOL     OW36040   2.372   4.229   7.606  1.1065  0.0130 -0.1690
 8193SOL    HW136041   2.318   4.298   7.644  0.0050 -2.0640  2.0274
 8193SOL    HW236042   2.334   4.232   7.518  0.2289 -0.0705  0.2095
 8194SOL     OW36043   0.123   1.483   2.613  0.1715 -0.5659 -0.4890
 8194SOL    HW136044   0.087   1.488   2.702 -0.3333 -0.2844 -0.7100
 8194SOL    HW236045   0.117   1.570   2.572 -0.4149 -0.2624  0.2329
 8195SOL     OW36046   4.163   0.825   0.370  0.3297 -0.0652 -0.0373
 8195SOL    HW136047   4.125   0.894   0.424 -1.9520  0.3371 -2.1619
 8195SOL    HW236048   4.141   0.866   0.286 -0.4350 -0.0346  0.1774
 8196SOL     OW36049   1.723   1.762   8.176  0.4048 -0.6668  0.3271
 8196SOL    HW136050   1.647   1.761   8.234  0.7723  0.8927  0.8093
 8196SOL    HW236051   1.682   1.773   8.090  1.4895 -0.3743 -0.1392
 8197SOL     OW36052   3.185   1.412   2.277 -0.2468 -0.0725  0.0592
 8197SOL    HW136053   3.265   1.370   2.307 -0.1390 -0.6785 -1.0789
 8197SOL    HW236054   3.221   1.500   2.268 -0.6273 -0.0623 -1.4905
 8198SOL     OW36055   4.585   0.240   5.950 -0.0590  0.3699 -0.4990
 8198SOL    HW136056   4.636   0.229   5.870 -0.2596 -1.3830 -0.3671
 8198SOL    HW236057   4.556   0.332   5.951  0.9929  0.7123 -1.5162
 8199SOL     OW36058   2.905   0.766   7.454  0.2064  0.2218  0.0090
 8199SOL    HW136059   2.813   0.755   7.478  0.0990  2.1907  0.5243
 8199SOL    HW236060   2.896   0.793   7.363 -2.7357 -0.7039  0.0233
 8200SOL     OW36061   4.597   1.597  16.002 -0.1236 -0.6789 -0.2243
 8200SOL    HW136062   4.592   1.514  16.048 -2.9720 -0.2340  0.2614
 8200SOL    HW236063   4.589   1.572  15.910 -2.7558  0.5554 -0.3134
 8201SOL     OW36064   4.495   0.155   0.545  0.2195  0.4593  0.2909
 8201SOL    HW136065   4.571   0.111   0.507  1.6393  1.9157  1.4484
 8201SOL    HW236066   4.538   0.231   0.585  1.3748 -0.9026  1.6581
 8202SOL     OW36067   0.472   4.385   4.908 -0.3029 -0.2870  0.1310
 8202SOL    HW136068   0.548   4.330   4.892 -0.4552 -0.7710  1.0547
 8202SOL    HW236069   0.471   4.443   4.832  0.0597 -0.5073 -0.0425
 8203SOL     OW36070   3.714   0.998   7.939  0.6577 -0.3286  0.1500
 8203SOL    HW136071   3.689   1.088   7.920 -0.9611 -0.9568 -0.6986
 8203SOL    HW236072   3.628   0.960   7.957 -0.6142  1.4859 -2.0391
 8204SOL     OW36073   2.872   1.246   7.167 -0.2840 -0.7175 -0.4394
 8204SOL    HW136074   2.809   1.301   7.122 -0.3358 -0.4371 -0.0199
 8204SOL    HW236075   2.832   1.261   7.252 -2.2697 -1.8759 -1.1765
 8205SOL     OW36076   4.151   2.476   7.721 -0.9206 -0.1882  0.0089
 8205SOL    HW136077   4.203   2.426   7.658 -0.8573  0.0646 -0.1421
 8205SOL    HW236078   4.118   2.404   7.774 -0.3207  0.8174  1.7489
 8206SOL     OW36079   1.736   1.506   6.703  0.1023 -0.1065 -0.0310
 8206SOL    HW136080   1.721   1.511   6.797  0.2528  0.4872 -0.0395
 8206SOL    HW236081   1.679   1.577   6.674 -0.1050  0.8561  2.7294
 8207SOL     OW36082   4.218   0.071  11.728  0.2215  0.2830 -0.0246
 8207SOL    HW136083   4.307   0.050  11.699 -0.2691 -2.4962  0.4971
 8207SOL    HW236084   4.221   0.035  11.817  1.1991 -1.4029 -0.7254
 8208SOL     OW36085   4.377   2.135  15.752 -0.1885 -0.5464  0.0818
 8208SOL    HW136086   4.311   2.127  15.822  0.3940 -1.5468  0.5128
 8208SOL    HW236087   4.326   2.107  15.676 -3.2186  0.6668  1.6512
 8209SOL     OW36088   2.652   1.509   5.756  0.1262  0.3501 -0.3800
 8209SOL    HW136089   2.728   1.561   5.730  1.2792  0.0505  2.3027
 8209SOL    HW236090   2.598   1.526   5.679  2.5413  0.4104 -2.0337
 8210SOL     OW36091   1.618   3.324   2.681 -0.3927  0.7249 -0.1149
 8210SOL    HW136092   1.562   3.401   2.671 -3.7183 -1.6691  0.2059
 8210SOL    HW236093   1.585   3.292   2.765  0.7029  0.3264  0.1623
 8211SOL     OW36094   2.799   3.913  14.193  0.1645 -0.1971  0.2651
 8211SOL    HW136095   2.822   3.960  14.274  1.6069 -0.2871 -0.0976
 8211SOL    HW236096   2.764   3.833  14.232 -1.0288 -0.5012 -1.4238
 8212SOL     OW36097   4.282   3.351   8.444  0.1279 -0.4388  0.7729
 8212SOL    HW136098   4.235   3.295   8.506  1.0263 -0.3497  1.5330
 8212SOL    HW236099   4.374   3.335   8.465  0.5738 -1.6659 -2.1797
 8213SOL     OW36100   4.091   0.077   7.510  0.1430 -0.0146 -0.9449
 8213SOL    HW136101   4.038   0.156   7.521  1.8621  1.0065  0.1402
 8213SOL    HW236102   4.167   0.095   7.567  0.4725 -0.5502 -1.2211
 8214SOL     OW36103   3.752   3.609  17.028  0.0738 -0.2631  0.1121
 8214SOL    HW136104   3.817   3.592  17.096  2.5115 -0.8206 -2.3359
 8214SOL    HW236105   3.743   3.523  16.989 -3.2342  0.2564 -0.2793
 8215SOL     OW36106   3.482   4.446   6.426  0.5903  0.1836  0.2057
 8215SOL    HW136107   3.448   4.379   6.367  0.7805  0.3551 -0.0995
 8215SOL    HW236108   3.545   4.495   6.373 -0.0426 -0.4251 -1.0956
 8216SOL     OW36109   2.199   1.277   1.178  0.5693 -0.2837 -0.1162
 8216SOL    HW136110   2.264   1.285   1.248 -1.7819  0.0754  2.0420
 8216SOL    HW236111   2.207   1.186   1.149  0.2107  0.1616 -1.5876
 8217SOL     OW36112   3.723   1.825  17.087 -0.5048 -0.2024 -0.1313
 8217SOL    HW136113   3.756   1.753  17.141  1.3154  0.6771 -0.0696
 8217SOL    HW236114   3.690   1.886  17.153 -0.9129 -0.9967  0.4123
 8218SOL     OW36115   1.172   2.499   3.749 -0.3730  0.0269  0.2872
 8218SOL    HW136116   1.088   2.512   3.704 -0.6359 -2.3410  0.1328
 8218SOL    HW236117   1.219   2.558   3.691  0.4743  1.3826  2.3214
 8219SOL     OW36118   3.405   4.245  10.236  0.2583 -0.5962 -0.0858
 8219SOL    HW136119   3.337   4.216  10.297 -0.6767 -1.2222 -1.4357
 8219SOL    HW236120   3.380   4.210  10.151 -0.5258 -1.5752  0.5539
 8220SOL     OW36121   1.266   0.786   4.014  0.3011  0.2673 -0.3039
 8220SOL    HW136122   1.260   0.707   3.960  0.1756  0.0950 -0.0375
 8220SOL    HW236123   1.178   0.774   4.050 -0.4052  0.1085 -2.0813
 8221SOL     OW36124   4.284   1.767   8.237 -0.5179  0.1812  0.5744
 8221SOL    HW136125   4.277   1.715   8.156 -0.9742 -0.4087  0.9939
 8221SOL    HW236126   4.281   1.853   8.195 -0.4900 -0.6956 -1.2438
 8222SOL     OW36127   2.696   0.689   5.083 -0.1121 -0.1114  0.0637
 8222SOL    HW136128   2.696   0.597   5.110 -0.7623 -0.3891 -0.8699
 8222SOL    HW236129   2.787   0.713   5.102  0.5727 -2.7161  0.2142
 8223SOL     OW36130   2.411   0.586  14.350  0.0649  0.0196 -0.2915
 8223SOL    HW136131   2.382   0.632  14.271 -1.0889  0.3727  0.3394
 8223SOL    HW236132   2.499   0.561  14.320  0.4705 -0.1686  1.0595
 8224SOL     OW36133   3.202   2.328  12.210 -0.0699 -0.0466  0.0150
 8224SOL    HW136134   3.133   2.283  12.259  0.0826 -0.2978  0.0012
 8224SOL    HW236135   3.160   2.341  12.125 -0.7100  0.4073  0.3970
 8225SOL     OW36136   3.855   3.888  14.749  0.0699 -0.7392 -0.5478
 8225SOL    HW136137   3.837   3.794  14.754 -0.8754 -0.6136 -1.6881
 8225SOL    HW236138   3.875   3.898  14.656  0.9620 -0.1394 -0.2970
 8226SOL     OW36139   0.799   0.453   1.219  0.5825  0.1398  0.1369
 8226SOL    HW136140   0.829   0.538   1.251 -0.6961  0.7830 -0.3965
 8226SOL    HW236141   0.806   0.467   1.125 -0.6841  1.9042  0.3250
 8227SOL     OW36142   3.564   4.538  11.639 -0.0722 -0.3816  0.0421
 8227SOL    HW136143   3.554   4.625  11.678 -1.1394 -0.9724  1.0708
 8227SOL    HW236144   3.656   4.517  11.656  1.0424  4.0679 -0.3775
 8228SOL     OW36145   3.796   4.717   8.571 -0.3685  0.5108  0.2480
 8228SOL    HW136146   3.782   4.626   8.600 -1.3927 -0.5214 -3.4667
 8228SOL    HW236147   3.834   4.699   8.485 -1.1312  1.4477 -0.2763
 8229SOL     OW36148   3.094   1.820  14.388  0.5386  0.1680  0.0827
 8229SOL    HW136149   3.089   1.915  14.386  0.2520  0.1726  1.0092
 8229SOL    HW236150   3.121   1.813  14.479  1.5145  0.5097 -0.1838
 8230SOL     OW36151   4.025   0.073   7.018 -0.2051 -0.0262  0.0706
 8230SOL    HW136152   3.951   0.013   7.006 -2.1673  2.7933 -1.7024
 8230SOL    HW236153   3.988   0.157   6.992  2.3493  0.7276 -1.0634
 8231SOL     OW36154   3.943   0.825  13.888 -0.3940 -0.0497  0.2986
 8231SOL    HW136155   3.995   0.752  13.922  0.3906  1.4410  2.3046
 8231SOL    HW236156   3.919   0.865  13.972  1.0024  0.2885  0.5483
 8232SOL     OW36157   0.274   4.487  15.972 -0.2537  0.5323  0.6179
 8232SOL    HW136158   0.182   4.512  15.976  0.4217  3.0912  0.1868
 8232SOL    HW236159   0.286   4.499  15.878 -0.2382  1.3431  0.7254
 8233SOL     OW36160   3.423   3.425   3.076 -0.3294  0.0540  0.1668
 8233SOL    HW136161   3.441   3.399   3.167 -1.9653 -1.0989  0.1504
 8233SOL    HW236162   3.417   3.520   3.090 -0.6772  0.0982 -0.2995
 8234SOL     OW36163   3.747   0.960  16.843  0.2088  0.6790 -0.2013
 8234SOL    HW136164   3.816   1.022  16.868  0.2294 -0.0642  1.6300
 8234SOL    HW236165   3.760   0.938  16.751 -3.9072 -0.5090 -0.5241
 8235SOL     OW36166   0.064   2.267   7.223 -0.4454 -0.2199  0.2783
 8235SOL    HW136167   0.096   2.230   7.305 -0.7883  0.7215  0.8237
 8235SOL    HW236168   4.709   2.310   7.250 -0.9614 -0.1200 -1.4053
 8236SOL     OW36169   0.284   0.973   7.950  0.0733 -0.3586  0.1790
 8236SOL    HW136170   0.343   0.922   8.005  0.0546 -1.9880 -1.3062
 8236SOL    HW236171   0.279   1.047   8.010  0.8840 -0.9456  0.9726
 8237SOL     OW36172   3.165   0.001  10.715 -0.3545  0.1310  0.1261
 8237SOL    HW136173   3.233   0.039  10.769 -0.0534 -0.1634 -0.0435
 8237SOL    HW236174   3.084   0.045  10.743  0.2805  1.1017  0.4190
 8238SOL     OW36175   1.396   0.937  11.583 -0.0830  0.1123 -0.2174
 8238SOL    HW136176   1.398   0.931  11.487 -3.0833 -0.2268 -0.2637
 8238SOL    HW236177   1.323   0.877  11.593  0.8721 -1.0784 -0.3907
 8239SOL     OW36178   3.452   4.691   4.238 -0.1806 -0.1193 -0.0754
 8239SOL    HW136179   3.435   0.058   4.259  0.2138 -0.1032  0.1725
 8239SOL    HW236180   3.472   4.654   4.325  0.2610  0.3511  0.0215
 8240SOL     OW36181   2.163   2.105   4.159 -0.5109 -0.0358 -0.2451
 8240SOL    HW136182   2.119   2.027   4.125 -0.0519 -0.0276 -0.8395
 8240SOL    HW236183   2.121   2.173   4.107  0.6162  1.2067  0.4942
 8241SOL     OW36184   0.766   0.004   8.407 -0.3417  0.0625 -0.0048
 8241SOL    HW136185   0.802   4.677   8.479  2.9326  1.2451 -0.7887
 8241SOL    HW236186   0.683   4.683   8.398 -0.3640 -0.0400  0.7392
 8242SOL     OW36187   2.249   4.323   5.780  0.2737  0.0479  0.2107
 8242SOL    HW136188   2.182   4.376   5.738  0.2075 -0.1150  0.1089
 8242SOL    HW236189   2.312   4.300   5.711  1.7851 -2.2701  2.3462
 8243SOL     OW36190   3.546   1.519   5.554  0.1403 -0.5846  0.6102
 8243SOL    HW136191   3.577   1.495   5.642  1.2052  0.3538  0.5037
 8243SOL    HW236192   3.573   1.436   5.516 -0.6282 -0.4726 -0.1520
 8244SOL     OW36193   3.126   3.399   0.299 -0.1858  0.6971 -0.0279
 8244SOL    HW136194   3.179   3.337   0.348 -0.2457  1.5801  1.1473
 8244SOL    HW236195   3.102   3.360   0.215  0.7244 -1.3182  0.6527
 8245SOL     OW36196   2.600   3.161   2.077  0.1217  0.5327 -0.2157
 8245SOL    HW136197   2.520   3.207   2.102 -0.6343 -1.9929  2.0880
 8245SOL    HW236198   2.579   3.074   2.112  0.2815  0.6206  0.1010
 8246SOL     OW36199   2.521   3.578   5.841 -0.3662 -0.3673  0.0055
 8246SOL    HW136200   2.584   3.511   5.866 -0.1313  0.2969  1.1919
 8246SOL    HW236201   2.558   3.662   5.869  0.1985 -0.5543 -0.1842
 8247SOL     OW36202   0.140   2.284   3.729 -0.3364 -0.4264  0.6728
 8247SOL    HW136203   0.087   2.281   3.650  1.9222  0.4517 -0.8839
 8247SOL    HW236204   0.067   2.289   3.790 -1.1727  0.2182 -0.3698
 8248SOL     OW36205   3.411   3.601   5.279  0.0950  0.2512  0.0956
 8248SOL    HW136206   3.476   3.585   5.211 -1.0833  0.6646 -1.1310
 8248SOL    HW236207   3.459   3.656   5.341 -1.8637 -1.1216  2.8642
 8249SOL     OW36208   2.779   1.639  17.492  0.6744  0.2172  0.3062
 8249SOL    HW136209   2.833   1.711  17.458  1.1560 -0.1012  0.3899
 8249SOL    HW236210   2.777   1.586  17.412 -3.8251  1.1280 -0.1673
 8250SOL     OW36211   3.708   0.601   5.828  0.6172 -0.6610  0.2312
 8250SOL    HW136212   3.787   0.549   5.813 -0.5297 -1.9527 -1.3107
 8250SOL    HW236213   3.743   0.675   5.878 -0.4857  1.9464 -2.8975
 8251SOL     OW36214   1.392   1.722  12.258 -0.1828  0.3835 -0.5334
 8251SOL    HW136215   1.360   1.692  12.343  2.9236  0.3456  0.6356
 8251SOL    HW236216   1.340   1.667  12.200 -2.6086  0.4999  1.5388
 8252SOL     OW36217   3.836   0.019   6.068 -0.4642 -0.4590 -0.0140
 8252SOL    HW136218   3.865   0.108   6.089  1.4537 -1.4438  1.5477
 8252SOL    HW236219   3.910   4.695   6.103 -0.9005 -0.7533  0.5038
 8253SOL     OW36220   0.846   4.035  12.406 -0.2130  0.3952 -0.0735
 8253SOL    HW136221   0.810   3.946  12.414 -2.4974  1.4239  1.1654
 8253SOL    HW236222   0.759   4.073  12.396 -0.0089  1.0258  0.5306
 8254SOL     OW36223   0.255   3.697   7.880 -0.7594 -0.4544  0.0933
 8254SOL    HW136224   0.243   3.767   7.816  1.3070 -1.0661 -0.9492
 8254SOL    HW236225   0.331   3.714   7.936  0.7636 -0.0069 -2.1256
 8255SOL     OW36226   1.939   0.243   5.621  0.2332 -0.2948 -0.0982
 8255SOL    HW136227   2.029   0.223   5.595 -0.3132  0.9724 -2.9734
 8255SOL    HW236228   1.951   0.245   5.716 -1.3652 -3.2652  0.1745
 8256SOL     OW36229   1.285   4.110   9.516  0.3416 -0.0637 -0.2274
 8256SOL    HW136230   1.255   4.201   9.516  0.4048 -0.0369  0.8183
 8256SOL    HW236231   1.220   4.056   9.471  0.9755  0.8460 -2.2185
 8257SOL     OW36232   1.143   0.670   7.147 -0.1026 -0.2606  0.3346
 8257SOL    HW136233   1.064   0.629   7.181 -1.2208  0.5079 -1.2952
 8257SOL    HW236234   1.097   0.735   7.093 -2.2765 -1.8316  0.3083
 8258SOL     OW36235   0.475   1.818  11.883 -0.7536 -0.3001 -0.0301
 8258SOL    HW136236   0.567   1.793  11.893 -0.5232  0.0430 -1.3118
 8258SOL    HW236237   0.466   1.846  11.792  2.6316 -1.1157 -0.6113
 8259SOL     OW36238   0.221   2.696   9.087 -0.1512  0.4640  0.4603
 8259SOL    HW136239   0.256   2.631   9.148 -0.8094 -0.4034 -0.0918
 8259SOL    HW236240   0.133   2.663   9.106 -0.3432  0.0974 -1.0633
 8260SOL     OW36241   1.049   1.987   0.014  0.0751  0.5739  0.3364
 8260SOL    HW136242   0.965   1.972  17.674 -0.4197  0.4782  1.3677
 8260SOL    HW236243   1.097   1.904   0.022 -0.0570  0.4678 -0.0081
 8261SOL     OW36244   3.832   1.818   7.690  0.2037  0.1691 -0.1872
 8261SOL    HW136245   3.814   1.796   7.781  2.2278 -3.2244 -0.6034
 8261SOL    HW236246   3.763   1.771   7.643 -0.1854  0.6092 -0.0521
 8262SOL     OW36247   1.096   2.689   9.576  0.1796 -0.2889 -0.2442
 8262SOL    HW136248   1.164   2.623   9.587  0.5407  0.0924 -0.1694
 8262SOL    HW236249   1.031   2.665   9.643 -0.2382  0.8319 -0.2412
 8263SOL     OW36250   2.739   2.089  14.943 -0.6681 -0.4050  0.1061
 8263SOL    HW136251   2.682   2.087  15.020 -0.0732 -1.7458  0.5176
 8263SOL    HW236252   2.801   2.160  14.958 -1.7041  0.2458  1.2677
 8264SOL     OW36253   4.493   1.990   3.430 -0.3561  0.0031  0.5583
 8264SOL    HW136254   4.476   2.077   3.395  1.2662  0.4130  0.7912
 8264SOL    HW236255   4.420   1.936   3.398 -0.1481  0.8754 -1.3783
 8265SOL     OW36256   1.524   4.124  10.968  0.5083 -0.2154  0.2936
 8265SOL    HW136257   1.525   4.046  11.023  0.4242  1.3470  2.5272
 8265SOL    HW236258   1.616   4.148  10.981  0.3191  0.5348  0.2233
 8266SOL     OW36259   1.856   2.982  15.559 -0.3732 -0.0456  0.3580
 8266SOL    HW136260   1.914   3.030  15.501 -1.2731 -1.0455 -1.3837
 8266SOL    HW236261   1.768   3.013  15.538 -0.9344 -1.6797  0.2780
 8267SOL     OW36262   1.577   1.767   2.258  0.3064  0.2678  0.0674
 8267SOL    HW136263   1.551   1.857   2.280  2.2245  0.5940  1.0319
 8267SOL    HW236264   1.669   1.770   2.287  0.1692  0.5445  0.4813
 8268SOL     OW36265   0.081   0.503  15.100 -0.1219 -0.8586 -0.6951
 8268SOL    HW136266   0.158   0.446  15.109 -1.0771 -1.9480  0.6173
 8268SOL    HW236267   0.059   0.508  15.193  1.3089  0.3645 -0.4289
 8269SOL     OW36268   1.541   0.106   8.338 -0.6146 -0.6101  0.4647
 8269SOL    HW136269   1.471   0.164   8.367 -0.3813  1.0529 -2.2423
 8269SOL    HW236270   1.553   0.144   8.250 -0.7980 -0.1347  0.6456
 8270SOL     OW36271   0.685   0.953   1.577 -0.5926 -0.3359  0.2656
 8270SOL    HW136272   0.689   0.946   1.482  0.5318 -2.2321  0.4630
 8270SOL    HW236273   0.632   0.874   1.593 -1.6577  0.5076  0.9416
 8271SOL     OW36274   4.291   4.703  13.890  0.0715  0.0286  0.5664
 8271SOL    HW136275   4.312   0.061  13.931 -0.5215  0.6319 -0.3604
 8271SOL    HW236276   4.370   4.650  13.906  0.7768  0.9552  0.1601
 8272SOL     OW36277   3.357   1.617   4.734 -0.1782  0.1743 -0.2604
 8272SOL    HW136278   3.427   1.589   4.792 -1.4581 -0.1766  1.1267
 8272SOL    HW236279   3.290   1.549   4.739 -0.0677  0.1750  1.1127
 8273SOL     OW36280   0.561   2.945   7.402 -0.4407 -0.2467  0.1320
 8273SOL    HW136281   0.588   2.898   7.481  0.2998  0.7087  0.4558
 8273SOL    HW236282   0.478   2.981   7.433 -0.0946 -0.6445  1.4868
 8274SOL     OW36283   1.011   3.174  10.936 -0.0547 -0.2643 -0.1105
 8274SOL    HW136284   1.038   3.178  10.844  0.3151  0.0530  0.0077
 8274SOL    HW236285   1.058   3.245  10.980  0.8364 -0.7251 -0.3137
 8275SOL     OW36286   0.803   2.247   4.223  0.4339  0.2523 -0.1457
 8275SOL    HW136287   0.820   2.341   4.219  1.3223  0.1034  0.0758
 8275SOL    HW236288   0.839   2.209   4.142 -0.7994 -0.4269 -0.3817
 8276SOL     OW36289   2.106   2.458  10.261  0.2145 -0.7404 -0.0849
 8276SOL    HW136290   2.094   2.553  10.256  1.0506 -0.7121 -1.7365
 8276SOL    HW236291   2.119   2.444  10.354  0.0011 -3.2690 -0.4310
 8277SOL     OW36292   1.578   3.770   0.154  0.7638  0.0663 -0.5112
 8277SOL    HW136293   1.658   3.721   0.169  0.9725  0.0053 -1.7911
 8277SOL    HW236294   1.524   3.712   0.100 -1.1388  2.1387 -0.8683
 8278SOL     OW36295   2.348   3.726   1.807  0.6971  0.3683  0.1555
 8278SOL    HW136296   2.383   3.773   1.732  0.5768  1.8048  0.9908
 8278SOL    HW236297   2.343   3.793   1.876  0.4656 -1.4525  1.8984
 8279SOL     OW36298   4.441   2.909   9.523  0.0318 -0.6006  0.3689
 8279SOL    HW136299   4.384   2.905   9.446  1.8809 -1.6874 -0.9502
 8279SOL    HW236300   4.523   2.897   9.476  0.4751 -0.7235  1.1721
 8280SOL     OW36301   4.622   0.043   6.744 -0.0558  0.0036  0.2086
 8280SOL    HW136302   4.657   0.127   6.713  0.9719  0.4892  2.6460
 8280SOL    HW236303   4.704   0.005   6.778 -0.0535 -0.1160  0.0707
 8281SOL     OW36304   4.609   2.165   6.646 -0.2077 -0.1143  0.0683
 8281SOL    HW136305   4.649   2.090   6.690 -0.0826 -0.2987 -0.3601
 8281SOL    HW236306   4.643   2.236   6.700 -0.4939  0.9048 -1.0815
 8282SOL     OW36307   4.024   2.940   8.217  0.3562 -0.1881  0.2959
 8282SOL    HW136308   4.052   2.951   8.126 -0.8510 -0.5979 -0.1315
 8282SOL    HW236309   3.971   3.019   8.220  1.9009  0.7193  3.3816
 8283SOL     OW36310   4.044   2.521   7.102 -0.2448 -0.1087 -0.8210
 8283SOL    HW136311   4.132   2.508   7.066  0.7251  1.5298  0.9197
 8283SOL    HW236312   3.999   2.575   7.038  1.1812 -1.5800 -3.0512
 8284SOL     OW36313   4.000   3.897   4.498 -0.1132  0.1598 -0.0650
 8284SOL    HW136314   4.072   3.953   4.470  0.0075 -1.2989 -2.7010
 8284SOL    HW236315   3.937   3.963   4.526  1.3208  1.1654  0.8025
 8285SOL     OW36316   2.111   3.666   9.147 -0.1450  0.6096  0.0452
 8285SOL    HW136317   2.126   3.756   9.178  0.8492  0.3099  0.4279
 8285SOL    HW236318   2.200   3.635   9.129 -0.5988 -0.7862  0.2651
 8286SOL     OW36319   3.424   2.762   8.830 -0.1206 -1.3337  0.0301
 8286SOL    HW136320   3.328   2.767   8.820 -0.0203 -1.8795 -1.2596
 8286SOL    HW236321   3.437   2.855   8.848 -0.8537 -0.9873 -1.2014
 8287SOL     OW36322   2.062   1.420   0.245  0.2179  0.7007  0.3947
 8287SOL    HW136323   1.976   1.393   0.277  0.3689  1.6195  1.5666
 8287SOL    HW236324   2.092   1.484   0.310  0.9187 -0.4900  1.2299
 8288SOL     OW36325   4.357   2.932   7.577  0.0888 -0.0823 -0.2081
 8288SOL    HW136326   4.364   2.847   7.620 -1.2223 -0.5115 -0.8320
 8288SOL    HW236327   4.418   2.988   7.624 -2.5745  0.8419  2.1509
 8289SOL     OW36328   4.191   0.089   9.276 -0.1820 -0.1578 -0.2999
 8289SOL    HW136329   4.201   0.090   9.180 -1.0674 -3.1722 -0.4260
 8289SOL    HW236330   4.096   0.086   9.271 -0.1882 -1.2890  0.5126
 8290SOL     OW36331   3.858   1.618   2.292  0.0035  0.7208 -0.4987
 8290SOL    HW136332   3.805   1.688   2.255 -0.9577  0.4598  0.4019
 8290SOL    HW236333   3.937   1.664   2.321  1.3063 -1.2267 -0.9272
 8291SOL     OW36334   3.307   4.538   2.339 -0.0931  0.2513  0.0451
 8291SOL    HW136335   3.292   4.456   2.291  1.8450  0.1568 -0.3901
 8291SOL    HW236336   3.382   4.579   2.296  0.9360  0.5218  2.0795
 8292SOL     OW36337   1.287   3.599   5.367  0.4754 -0.1525  0.3464
 8292SOL    HW136338   1.203   3.590   5.323  1.2375 -0.8239 -0.9558
 8292SOL    HW236339   1.346   3.629   5.297 -1.7439  0.3617 -1.2956
 8293SOL     OW36340   2.113   3.641   6.287  0.0279 -0.3272 -0.0459
 8293SOL    HW136341   2.028   3.596   6.281 -0.1488 -0.3889  2.7219
 8293SOL    HW236342   2.160   3.606   6.212  1.4656  0.5477  0.4463
 8294SOL     OW36343   3.026   4.686   8.320  0.0662 -0.4570  0.0481
 8294SOL    HW136344   2.949   0.008   8.287  1.7354  2.0459 -0.3577
 8294SOL    HW236345   3.089   0.015   8.272  0.0668  0.2325  0.8252
 8295SOL     OW36346   1.482   4.603   6.332 -0.2146  0.0347  0.1126
 8295SOL    HW136347   1.411   4.650   6.287 -3.0963 -2.8040  1.7047
 8295SOL    HW236348   1.447   4.554   6.406  0.4731  1.8007  1.5892
 8296SOL     OW36349   4.720   3.031   7.936  0.4413 -0.2754  0.6759
 8296SOL    HW136350   4.709   2.944   7.974 -0.9621  0.3110  1.6440
 8296SOL    HW236351   0.072   3.022   7.879 -0.7418 -1.6534 -0.6942
 8297SOL     OW36352   3.433   0.697   2.812 -0.5396 -0.1979 -1.1507
 8297SOL    HW136353   3.417   0.754   2.737 -1.0747  0.6968 -0.3519
 8297SOL    HW236354   3.525   0.671   2.807 -0.3270  0.9593 -3.1743
 8298SOL     OW36355   0.883   0.208  11.988 -0.1205  0.0882  0.4680
 8298SOL    HW136356   0.800   0.250  11.967 -1.4338 -2.8877 -0.2892
 8298SOL    HW236357   0.859   0.159  12.067 -1.0640  1.7149  1.1774
 8299SOL     OW36358   2.499   4.109  10.310 -0.1387  0.5379 -0.6284
 8299SOL    HW136359   2.444   4.166  10.257  0.2605  2.4572  1.0371
 8299SOL    HW236360   2.450   4.111  10.393 -1.1521  2.2349 -1.2718
 8300SOL     OW36361   0.988   3.944   7.811  0.8501  0.2356 -0.0737
 8300SOL    HW136362   0.959   3.891   7.885 -1.6978 -0.4146 -1.5291
 8300SOL    HW236363   0.908   3.983   7.776  1.8998  3.3080  0.9934
 8301SOL     OW36364   4.334   2.468   5.398 -0.4981  0.1761 -0.6865
 8301SOL    HW136365   4.395   2.534   5.431  0.7576 -0.4214 -1.7992
 8301SOL    HW236366   4.250   2.495   5.434 -0.2828  0.1831 -0.1866
 8302SOL     OW36367   0.581   1.315   7.633  0.0506 -0.3414 -0.2364
 8302SOL    HW136368   0.536   1.251   7.688  0.1770 -0.9387 -0.8328
 8302SOL    HW236369   0.663   1.273   7.606  0.8292  1.8248 -1.2332
 8303SOL     OW36370   3.447   2.147   7.859  0.1096  0.7161 -0.0807
 8303SOL    HW136371   3.408   2.098   7.931  0.6793 -1.7962 -1.4918
 8303SOL    HW236372   3.474   2.230   7.898  0.3187  0.3061  0.6519
 8304SOL     OW36373   0.011   2.120   7.703 -0.3370  0.2758  0.1880
 8304SOL    HW136374   4.690   2.049   7.749 -0.3601  1.4825  2.0213
 8304SOL    HW236375   0.101   2.092   7.720 -0.8156 -0.7145  1.0811
 8305SOL     OW36376   4.100   1.877  12.907 -0.6558  0.0589  0.0097
 8305SOL    HW136377   4.085   1.971  12.922 -1.7819 -0.4469  2.1020
 8305SOL    HW236378   4.010   1.852  12.884 -1.0977  1.9487 -0.3484
 8306SOL     OW36379   0.237   1.828   5.728 -0.2719 -0.2702 -0.4813
 8306SOL    HW136380   0.155   1.867   5.696  1.1193  2.1023 -1.1803
 8306SOL    HW236381   0.205   1.742   5.754  0.6999 -0.6353 -0.5159
 8307SOL     OW36382   2.953   3.768   7.177 -0.7079 -0.3959 -0.4515
 8307SOL    HW136383   2.888   3.712   7.217 -0.9077 -0.5416 -0.9818
 8307SOL    HW236384   3.013   3.697   7.155 -1.6826 -1.3575  0.0442
 8308SOL     OW36385   2.874   0.439   2.907  0.9825 -0.4568  0.6955
 8308SOL    HW136386   2.860   0.526   2.945 -0.9216 -1.2606  1.8873
 8308SOL    HW236387   2.784   0.406   2.902 -0.1212  2.5423  0.9368
 8309SOL     OW36388   3.611   1.970   0.050 -0.3139  0.4748  0.2520
 8309SOL    HW136389   3.602   2.031   0.123 -1.4976  1.3730 -0.6438
 8309SOL    HW236390   3.690   1.919   0.071 -0.3245 -0.6429 -2.4452
 8310SOL     OW36391   0.890   1.748   6.106 -0.5225  0.6273 -0.0478
 8310SOL    HW136392   0.910   1.841   6.099 -1.5500  0.9460  1.3803
 8310SOL    HW236393   0.807   1.761   6.152 -0.1102  0.1758  0.8097
 8311SOL     OW36394   0.513   4.570   8.417 -0.0240  0.4002 -0.0094
 8311SOL    HW136395   0.563   4.574   8.499  0.2978  0.0688 -0.1898
 8311SOL    HW236396   0.429   4.595   8.456 -0.6162  0.9821 -1.6461
 8312SOL     OW36397   3.846   2.003   3.111  0.3107 -0.2434  0.2081
 8312SOL    HW136398   3.825   1.912   3.090  0.5425 -0.3600  0.4813
 8312SOL    HW236399   3.941   1.999   3.111  0.3348  0.4949  1.3883
 8313SOL     OW36400   1.813   2.674   5.065  0.2642 -0.6874  0.3032
 8313SOL    HW136401   1.747   2.653   5.131 -1.0110  0.5488 -0.5820
 8313SOL    HW236402   1.854   2.594   5.031 -0.6502 -0.8288 -0.4732
 8314SOL     OW36403   4.181   2.830   2.916 -0.1146  0.2098 -0.0287
 8314SOL    HW136404   4.176   2.762   2.983 -2.1954 -1.4385 -1.8801
 8314SOL    HW236405   4.107   2.882   2.946  0.1417 -0.0616  1.0776
 8315SOL     OW36406   4.478   4.258   6.332 -0.3879 -0.8826 -0.0337
 8315SOL    HW136407   4.464   4.169   6.364 -3.0152 -0.2097  0.7026
 8315SOL    HW236408   4.386   4.282   6.327 -0.7832 -2.4071  0.0024
 8316SOL     OW36409   4.396   0.703   3.844 -0.3195 -0.4279 -0.4208
 8316SOL    HW136410   4.490   0.696   3.861 -0.6100 -1.6026  0.6704
 8316SOL    HW236411   4.396   0.791   3.807 -1.0073 -0.0720  0.4165
 8317SOL     OW36412   0.766   3.311   5.818  0.3629 -0.1653  0.0606
 8317SOL    HW136413   0.824   3.339   5.890  1.1751 -2.4572  0.3037
 8317SOL    HW236414   0.736   3.230   5.858  0.9620 -0.9644 -1.1154
 8318SOL     OW36415   2.961   3.501   3.506  0.1452  0.1557  0.0273
 8318SOL    HW136416   2.892   3.509   3.572  0.4895  1.4353  0.2345
 8318SOL    HW236417   2.913   3.516   3.425  1.3074  1.0484 -0.4953
 8319SOL     OW36418   1.516   3.982   0.280  0.5792 -0.2025  0.1146
 8319SOL    HW136419   1.451   3.937   0.333  0.9311 -0.6065  0.2019
 8319SOL    HW236420   1.557   3.910   0.232 -0.0083  0.5682 -1.5419
 8320SOL     OW36421   3.611   4.283   2.548  0.0935 -0.2416 -0.0039
 8320SOL    HW136422   3.612   4.328   2.464  3.8549 -0.1186  0.1199
 8320SOL    HW236423   3.702   4.278   2.576  0.1659  0.8724 -0.0623
 8321SOL     OW36424   3.205   3.705   5.627 -0.4709  0.3523  0.1107
 8321SOL    HW136425   3.150   3.734   5.555 -1.1241 -3.2204 -0.8638
 8321SOL    HW236426   3.201   3.609   5.623  1.0447  0.1868  2.4757
 8322SOL     OW36427   1.723   1.003  10.812  0.1214  0.2094  0.7087
 8322SOL    HW136428   1.685   1.007  10.724 -0.4704 -1.0001  0.9007
 8322SOL    HW236429   1.686   1.080  10.855 -0.4384  0.0837  0.4633
 8323SOL     OW36430   3.176   2.592   8.890 -0.0256  0.1558 -0.0210
 8323SOL    HW136431   3.163   2.681   8.922 -0.6055  0.3792 -0.8667
 8323SOL    HW236432   3.172   2.545   8.973 -1.1872 -0.5565 -0.4844
 8324SOL     OW36433   2.621   3.926  12.356 -0.3527 -0.0556 -0.3855
 8324SOL    HW136434   2.711   3.959  12.357 -1.0904  1.9612  1.6345
 8324SOL    HW236435   2.585   3.977  12.429  0.0645  0.4191 -0.5096
 8325SOL     OW36436   4.588   4.501   5.926  0.0436  0.1676 -0.4201
 8325SOL    HW136437   4.572   4.426   5.983 -0.5301  0.8316  0.2905
 8325SOL    HW236438   4.595   4.448   5.846  0.2636  1.3119 -1.1491
 8326SOL     OW36439   1.393   0.008   7.965 -0.3102  0.0181 -0.0390
 8326SOL    HW136440   1.374   0.080   8.026  0.9428  1.5213 -1.4287
 8326SOL    HW236441   1.488   0.008   7.977 -0.6241 -0.0630  2.4502
 8327SOL     OW36442   4.364   2.489   5.118 -0.2168  0.1111 -0.1144
 8327SOL    HW136443   4.348   2.461   5.208  0.1289  0.1156 -0.0519
 8327SOL    HW236444   4.282   2.465   5.074 -1.2679  0.6445  1.5158
 8328SOL     OW36445   3.421   0.897  17.647 -0.1197 -0.0758  0.0386
 8328SOL    HW136446   3.411   0.905  17.553 -1.0791  2.3101  0.3449
 8328SOL    HW236447   3.346   0.940  17.687  0.4224  0.4037  0.5457
 8329SOL     OW36448   3.164   1.829  14.638 -0.1211  0.1749 -0.4507
 8329SOL    HW136449   3.253   1.860  14.657 -1.0955  2.2446  0.7083
 8329SOL    HW236450   3.118   1.873  14.710 -0.7092 -1.2219  0.0083
 8330SOL     OW36451   3.708   2.172   3.283 -0.1995 -0.7774 -0.0931
 8330SOL    HW136452   3.786   2.212   3.322 -0.2827  0.5609 -1.2847
 8330SOL    HW236453   3.751   2.097   3.241  1.8329 -0.1665  0.8771
 8331SOL     OW36454   3.999   2.165   2.166  0.2522 -0.4245  0.2488
 8331SOL    HW136455   4.075   2.130   2.119  0.3940 -0.4037  0.4646
 8331SOL    HW236456   3.934   2.146   2.098  1.6976 -1.2351 -0.8963
 8332SOL     OW36457   2.033   0.200   3.999 -0.5635  0.1501  0.1973
 8332SOL    HW136458   2.120   0.195   3.959 -0.8410  2.4818 -0.6839
 8332SOL    HW236459   2.049   0.124   4.055 -2.4001  0.0893  0.6335
 8333SOL     OW36460   0.768   1.719  10.436  0.0481  0.2568 -0.7816
 8333SOL    HW136461   0.689   1.759  10.472  0.2504 -1.1305  1.2005
 8333SOL    HW236462   0.804   1.680  10.515 -2.2273  1.3977  0.8375
 8334SOL     OW36463   3.857   4.324   6.169  0.0152 -0.2313 -0.4856
 8334SOL    HW136464   3.865   4.406   6.217  0.0156 -0.4714 -0.0754
 8334SOL    HW236465   3.946   4.313   6.136  0.2918 -0.5400  0.3504
 8335SOL     OW36466   3.836   4.645   5.274  0.2836  0.7160 -0.2824
 8335SOL    HW136467   3.817   4.627   5.366  0.3401 -1.0722 -0.6363
 8335SOL    HW236468   3.772   4.713   5.252  1.1228  1.9110  0.8937
 8336SOL     OW36469   0.553   3.470  13.309 -0.3441 -0.2200 -0.5203
 8336SOL    HW136470   0.471   3.494  13.351 -0.0081 -4.2494  2.4601
 8336SOL    HW236471   0.585   3.554  13.275 -1.0515 -0.1141 -0.9176
 8337SOL     OW36472   4.002   4.507   6.781  0.3541  0.0939 -0.2971
 8337SOL    HW136473   3.973   4.428   6.827  0.4260 -0.0797 -0.5451
 8337SOL    HW236474   3.942   4.568   6.824 -1.6091 -0.1549 -2.6626
 8338SOL     OW36475   0.849   2.499   2.886 -0.3766  0.0930  0.2012
 8338SOL    HW136476   0.786   2.482   2.816 -1.8107 -2.6046  2.1399
 8338SOL    HW236477   0.812   2.575   2.929  1.8110  1.1934  0.1778
 8339SOL     OW36478   2.245   2.916   0.324  0.2201 -0.2665  0.5952
 8339SOL    HW136479   2.325   2.929   0.375 -1.0202  3.0558  1.6793
 8339SOL    HW236480   2.214   2.833   0.360 -1.9624  1.3275  2.3173
 8340SOL     OW36481   0.283   3.999   4.809  0.1689  0.6195 -0.5457
 8340SOL    HW136482   0.271   3.923   4.867 -1.2873  0.7293 -0.6998
 8340SOL    HW236483   0.295   3.940   4.735 -1.6338 -1.7733  1.0447
 8341SOL     OW36484   0.832   1.389  12.501  0.0551 -0.1680 -0.1611
 8341SOL    HW136485   0.882   1.323  12.548  0.6397  0.3329 -0.0695
 8341SOL    HW236486   0.894   1.456  12.474  0.3521 -0.5837 -0.4924
 8342SOL     OW36487   3.213   2.260   3.954 -0.5177  0.3643 -0.2039
 8342SOL    HW136488   3.291   2.260   3.898 -0.4328 -1.1321 -0.0784
 8342SOL    HW236489   3.206   2.353   3.976  2.6432  0.7242 -0.7303
 8343SOL     OW36490   2.881   3.787   4.664 -0.3897  0.5833 -0.3860
 8343SOL    HW136491   2.881   3.692   4.677  2.3289  0.7770  0.9879
 8343SOL    HW236492   2.844   3.806   4.751  1.3063  0.6025  0.3306
 8344SOL     OW36493   1.261   0.183  16.700  0.6963 -0.3915  0.5735
 8344SOL    HW136494   1.318   0.171  16.776  1.3780 -2.8077 -0.3269
 8344SOL    HW236495   1.251   0.097  16.659  3.0623 -0.3500 -0.0351
 8345SOL     OW36496   3.300   3.777   8.894 -0.3646  0.0771  0.0893
 8345SOL    HW136497   3.339   3.696   8.927 -2.6525 -0.6305  1.0757
 8345SOL    HW236498   3.209   3.775   8.925 -0.7063 -2.8038 -1.1175
 8346SOL     OW36499   0.121   1.099   4.921  0.1969 -0.2496  0.0909
 8346SOL    HW136500   0.066   1.144   4.985 -0.6389 -0.5049 -0.4442
 8346SOL    HW236501   0.197   1.070   4.972 -0.0959 -2.0943 -0.4945
 8347SOL     OW36502   0.723   0.705  12.106 -0.4441 -0.1041 -0.6838
 8347SOL    HW136503   0.798   0.648  12.125  0.4911  1.4315  0.2433
 8347SOL    HW236504   0.696   0.661  12.026  0.5369 -0.8937 -0.5845
 8348SOL     OW36505   0.921   0.341   7.756 -0.4855 -0.2773  0.4424
 8348SOL    HW136506   0.908   0.306   7.844  1.1523  1.8387  1.5310
 8348SOL    HW236507   1.013   0.338   7.732  0.1064 -2.1998  2.9990
 8349SOL     OW36508   2.761   4.568   9.130  0.2350 -0.1677  0.0505
 8349SOL    HW136509   2.738   4.646   9.181  1.5044  0.7325 -0.7497
 8349SOL    HW236510   2.701   4.503   9.165  1.5864 -1.7407 -0.5122
 8350SOL     OW36511   1.512   4.571   4.523  0.1444 -0.0622 -0.0492
 8350SOL    HW136512   1.468   4.490   4.496  3.3200 -1.5048 -0.8983
 8350SOL    HW236513   1.532   4.557   4.615 -2.0189 -1.7472  0.1671
 8351SOL     OW36514   3.668   2.091   2.498 -0.3338 -0.1675 -0.3541
 8351SOL    HW136515   3.747   2.045   2.472  0.7172  0.7497  1.1635
 8351SOL    HW236516   3.625   2.083   2.413  1.4283  0.5595 -1.2944
 8352SOL     OW36517   3.971   4.433   6.519  0.7504 -0.2169  0.7905
 8352SOL    HW136518   3.993   4.471   6.604  1.3504  0.5454  0.2954
 8352SOL    HW236519   3.878   4.455   6.515  0.5925 -0.8506  0.9353
 8353SOL     OW36520   1.010   1.497   6.793 -0.2871 -0.8901 -0.3623
 8353SOL    HW136521   1.013   1.591   6.780 -0.0348 -0.2832  3.9555
 8353SOL    HW236522   1.033   1.478   6.702  4.3900 -2.2049  1.0949
 8354SOL     OW36523   0.173   2.076   2.051  0.2037 -0.3755 -0.4824
 8354SOL    HW136524   0.118   2.124   2.113 -0.8357 -0.1916 -1.5323
 8354SOL    HW236525   0.162   1.992   2.096 -1.3617  0.4707  0.7053
 8355SOL     OW36526   1.958   4.290   9.416 -1.1678 -0.4577  0.5103
 8355SOL    HW136527   2.008   4.300   9.497 -0.7443  1.1711  0.0546
 8355SOL    HW236528   1.998   4.214   9.375 -1.1416 -0.7575  1.0868
 8356SOL     OW36529   2.981   2.926  12.474 -0.3274 -0.5070 -0.3014
 8356SOL    HW136530   2.940   2.864  12.414  0.1115 -2.2346  1.1853
 8356SOL    HW236531   2.944   3.012  12.452 -1.4123 -0.8568  0.1625
 8357SOL     OW36532   4.037   0.432  17.164 -0.4438  0.1488  0.2569
 8357SOL    HW136533   3.962   0.479  17.200 -1.0719 -0.5484 -0.1258
 8357SOL    HW236534   4.008   0.349  17.203 -1.4394 -0.7149 -2.2683
 8358SOL     OW36535   3.677   0.641   6.245 -0.0655 -0.0137  0.8465
 8358SOL    HW136536   3.594   0.687   6.253  0.0957  0.5057 -0.3916
 8358SOL    HW236537   3.702   0.619   6.335 -0.0747  0.5740  0.9895
 8359SOL     OW36538   0.992   0.668   0.421  0.0629  0.4753  0.4567
 8359SOL    HW136539   0.955   0.635   0.339 -0.8861  0.5511  0.8601
 8359SOL    HW236540   1.004   0.581   0.458  0.8956 -0.8064 -2.7931
 8360SOL     OW36541   0.185   0.594  16.048 -0.2739  0.6962  0.5233
 8360SOL    HW136542   0.274   0.623  16.028  0.6643 -0.9216  2.4496
 8360SOL    HW236543   0.162   0.643  16.126 -1.9862 -0.3067  0.6472
 8361SOL     OW36544   0.556   0.319   2.771  0.9394 -0.5325  0.5398
 8361SOL    HW136545   0.495   0.346   2.703 -0.6640  0.4489  2.3491
 8361SOL    HW236546   0.541   0.395   2.828  0.5896 -0.8511  0.8744
 8362SOL     OW36547   2.867   4.265   5.941 -0.6549  0.2988 -0.3920
 8362SOL    HW136548   2.944   4.236   5.893 -0.2660  1.8214 -0.6789
 8362SOL    HW236549   2.901   4.348   5.973  1.6625 -1.5394  1.8449
 8363SOL     OW36550   4.024   1.380   7.784 -0.5685 -0.1473 -0.3418
 8363SOL    HW136551   4.044   1.339   7.868  1.0439  1.4418  0.0598
 8363SOL    HW236552   4.081   1.324   7.731  1.6346  1.9760 -0.2580
 8364SOL     OW36553   0.607   2.383   2.306  0.0322 -0.2010 -0.3709
 8364SOL    HW136554   0.551   2.347   2.374  0.6662 -1.2193 -0.3913
 8364SOL    HW236555   0.549   2.379   2.229  0.9698 -1.2160 -1.0075
 8365SOL     OW36556   2.143   0.965   6.981 -0.3316 -0.1160 -0.0532
 8365SOL    HW136557   2.105   0.894   6.930 -1.9158  1.2560 -0.7965
 8365SOL    HW236558   2.140   1.036   6.917 -1.0211 -0.6853 -0.6510
 8366SOL     OW36559   4.401   0.028   3.591 -0.6193  0.1764  0.0296
 8366SOL    HW136560   4.381   4.688   3.658  0.7795  2.7405  2.9461
 8366SOL    HW236561   4.352   0.104   3.623  1.5555  1.0035  1.4142
 8367SOL     OW36562   3.075   1.251   6.941  0.0348 -0.5019  0.4220
 8367SOL    HW136563   3.006   1.220   6.883  0.9073 -1.9758  0.1637
 8367SOL    HW236564   3.033   1.262   7.026 -0.6275  0.2962 -0.0143
 8368SOL     OW36565   2.593   4.251   6.504  0.6177 -0.4026  0.1509
 8368SOL    HW136566   2.592   4.341   6.474 -0.7272  0.8826  4.0080
 8368SOL    HW236567   2.504   4.223   6.481  0.3581  0.1398  0.4945
 8369SOL     OW36568   2.765   4.329  10.234  0.5280 -0.2101 -0.4788
 8369SOL    HW136569   2.747   4.352  10.325 -0.1964 -2.5485 -0.0066
 8369SOL    HW236570   2.826   4.257  10.250 -0.4538 -0.0925  3.9274
 8370SOL     OW36571   3.834   0.821   3.467 -0.8021 -0.1179  0.0314
 8370SOL    HW136572   3.740   0.816   3.451 -0.6377 -2.0862 -0.3488
 8370SOL    HW236573   3.838   0.842   3.561  0.2905 -0.7001  0.1180
 8371SOL     OW36574   2.487   3.814   1.559  0.0617  0.0232 -0.1166
 8371SOL    HW136575   2.474   3.909   1.556  1.6042  0.3054  1.8775
 8371SOL    HW236576   2.578   3.818   1.528  1.6453 -0.4512  4.3272
 8372SOL     OW36577   4.283   0.992  10.797 -0.0566 -0.5757  0.1030
 8372SOL    HW136578   4.354   0.996  10.733 -0.2460  3.9018  0.2103
 8372SOL    HW236579   4.322   1.002  10.883 -1.0402  2.0145  0.2315
 8373SOL     OW36580   0.089   0.209  12.595  0.0992 -0.3743 -0.2038
 8373SOL    HW136581   0.122   0.183  12.681  0.7633  0.7527 -0.1093
 8373SOL    HW236582   0.166   0.179  12.547 -0.3860  1.4884 -2.1448
 8374SOL     OW36583   1.679   3.294   8.244 -0.2284  0.4341  0.1662
 8374SOL    HW136584   1.611   3.231   8.268  0.8384 -0.6141  0.4142
 8374SOL    HW236585   1.679   3.341   8.328  0.7759  0.5197  0.1146
 8375SOL     OW36586   1.388   3.827   2.549  0.2703 -0.1429 -0.3833
 8375SOL    HW136587   1.395   3.910   2.596 -1.1930  0.4254 -1.1834
 8375SOL    HW236588   1.382   3.856   2.458  0.7909  0.9174 -0.0776
 8376SOL     OW36589   3.883   2.079   1.214 -0.5879 -0.5933 -0.4237
 8376SOL    HW136590   3.972   2.110   1.199  0.1908 -2.1257  1.0796
 8376SOL    HW236591   3.826   2.134   1.160 -0.3117 -0.9152 -1.0373
 8377SOL     OW36592   3.491   0.481  14.060 -0.1433 -0.0019  0.1680
 8377SOL    HW136593   3.396   0.475  14.071 -0.0888 -3.8347 -1.4055
 8377SOL    HW236594   3.509   0.570  14.027 -2.3939 -0.1945 -1.5863
 8378SOL     OW36595   0.823   1.137   4.182 -0.3620  0.0532 -0.1313
 8378SOL    HW136596   0.892   1.072   4.169  0.2971  0.7985 -0.4413
 8378SOL    HW236597   0.831   1.142   4.278 -0.8703  1.3474 -0.1503
 8379SOL     OW36598   4.241   1.012   3.908  0.2261  0.1821  0.5994
 8379SOL    HW136599   4.310   1.008   3.842 -0.0294 -0.0083  0.3485
 8379SOL    HW236600   4.185   1.082   3.873  1.5077  0.2682 -1.2353
 8380SOL     OW36601   0.478   2.632   1.952 -0.5330  0.1371  0.6582
 8380SOL    HW136602   0.534   2.663   2.024  0.6692 -2.1819  0.7072
 8380SOL    HW236603   0.442   2.717   1.924  1.3443  0.6103 -0.2964
 8381SOL     OW36604   2.000   0.144  15.489 -0.0485  0.1556  0.2181
 8381SOL    HW136605   1.924   0.095  15.520 -0.1630 -0.0718 -0.4203
 8381SOL    HW236606   1.970   0.176  15.404  2.3198 -2.2641 -1.5432
 8382SOL     OW36607   2.659   3.508   1.542  0.4593 -0.1317 -0.0002
 8382SOL    HW136608   2.673   3.447   1.469 -0.7481 -0.6421  0.1914
 8382SOL    HW236609   2.690   3.593   1.511 -0.6494 -1.0257 -3.6345
 8383SOL     OW36610   1.671   3.109  11.997 -0.0837 -0.4013 -0.2831
 8383SOL    HW136611   1.686   3.018  11.974 -0.3805 -0.0945 -1.7228
 8383SOL    HW236612   1.740   3.155  11.950 -1.4677  0.8853 -1.0956
 8384SOL     OW36613   1.372   3.796  11.599  0.1446  0.2652  0.2107
 8384SOL    HW136614   1.320   3.854  11.654 -0.1126  1.3093 -1.1183
 8384SOL    HW236615   1.350   3.821  11.509  1.5436  1.0770  0.0913
 8385SOL     OW36616   2.115   0.942  16.832 -0.0053  0.2374 -0.6721
 8385SOL    HW136617   2.054   0.889  16.781 -0.4082  1.1479 -1.1371
 8385SOL    HW236618   2.157   0.993  16.763  0.5126  1.1527  0.3144
 8386SOL     OW36619   3.821   1.322   8.222 -0.3297  0.1259  0.0878
 8386SOL    HW136620   3.809   1.389   8.289 -2.4033  1.0137 -1.1444
 8386SOL    HW236621   3.797   1.373   8.145  1.8933  1.1072  0.0458
 8387SOL     OW36622   0.645   3.399   9.306 -0.3932 -0.2250 -0.3206
 8387SOL    HW136623   0.633   3.320   9.359 -1.5968  1.1032  1.4240
 8387SOL    HW236624   0.624   3.463   9.375 -0.9165 -0.9853  0.2233
 8388SOL     OW36625   2.991   0.887   6.805  0.7614 -0.6913 -0.3956
 8388SOL    HW136626   3.064   0.923   6.754  0.1831 -1.0044 -1.4566
 8388SOL    HW236627   3.035   0.806   6.829  2.1675 -0.4326 -2.1072
 8389SOL     OW36628   0.435   2.016  10.977 -0.3419  0.6361 -0.0735
 8389SOL    HW136629   0.522   2.038  11.007 -0.5407  0.0343  0.9368
 8389SOL    HW236630   0.462   2.010  10.885  1.0480 -1.9162  0.5173
 8390SOL     OW36631   0.072   4.569   9.032 -0.8338  0.0962  0.4600
 8390SOL    HW136632   0.047   4.515   9.107 -0.6949 -0.0747  0.3822
 8390SOL    HW236633   0.030   4.654   9.046 -0.5730  0.6193 -2.0737
 8391SOL     OW36634   2.815   4.068   7.558 -0.0760 -1.1923  0.2328
 8391SOL    HW136635   2.748   4.113   7.610  2.0609  0.9775  1.0873
 8391SOL    HW236636   2.768   4.061   7.475  0.6703 -1.0673 -0.1948
 8392SOL     OW36637   2.860   1.815  17.253 -0.1007 -0.1999  0.0461
 8392SOL    HW136638   2.770   1.784  17.242 -0.3800 -0.1992  2.2110
 8392SOL    HW236639   2.905   1.746  17.205  0.3595 -0.3355  0.6675
 8393SOL     OW36640   1.029   3.393  15.068  0.2284 -0.1570 -0.1000
 8393SOL    HW136641   0.953   3.407  15.125  1.4474 -1.2679  1.8233
 8393SOL    HW236642   0.984   3.397  14.984  0.6612  2.0190 -0.2169
 8394SOL     OW36643   0.761   4.349   7.337  0.3103  0.0162 -0.0214
 8394SOL    HW136644   0.696   4.281   7.357 -0.2998  0.3234 -0.9121
 8394SOL    HW236645   0.838   4.293   7.335 -0.3161 -0.8564 -0.0147
 8395SOL     OW36646   3.205   1.154   8.413 -0.0380  0.6722  0.1286
 8395SOL    HW136647   3.156   1.094   8.355 -0.7696  1.1014  0.3084
 8395SOL    HW236648   3.223   1.232   8.361 -1.7954  1.0041  0.0086
 8396SOL     OW36649   3.589   0.305  12.873  0.1287  0.5276 -0.2210
 8396SOL    HW136650   3.548   0.392  12.864 -1.2180 -0.4160 -3.4731
 8396SOL    HW236651   3.511   0.249  12.879 -2.0193  3.6878  2.0021
 8397SOL     OW36652   3.522   2.103   6.948 -0.4373 -0.7196 -0.0619
 8397SOL    HW136653   3.594   2.044   6.970  1.1222  0.3921 -2.1040
 8397SOL    HW236654   3.517   2.087   6.854  2.8283  1.5017 -0.6328
 8398SOL     OW36655   0.733   3.845   8.999  0.4357 -0.4399  0.2453
 8398SOL    HW136656   0.819   3.845   9.042  0.1706 -2.1112  0.8024
 8398SOL    HW236657   0.683   3.913   9.044 -0.9480 -1.2681 -0.0649
 8399SOL     OW36658   4.182   3.480   4.372  0.2735  0.4547  0.0069
 8399SOL    HW136659   4.227   3.396   4.386 -0.2114  0.3056  0.6875
 8399SOL    HW236660   4.105   3.442   4.330  0.3953  1.8907 -1.4776
 8400SOL     OW36661   2.598   2.002   8.364 -0.2958 -0.0605  0.4115
 8400SOL    HW136662   2.557   1.917   8.346  1.6559 -0.9880  0.3520
 8400SOL    HW236663   2.525   2.059   8.387 -0.9329 -1.2867  1.4329
 8401SOL     OW36664   1.853   4.302  12.784  0.2119  0.4818  0.0301
 8401SOL    HW136665   1.919   4.247  12.827  1.0409  1.6391  0.2380
 8401SOL    HW236666   1.895   4.335  12.705 -0.2520  1.4721  0.1981
 8402SOL     OW36667   1.173   0.292   2.869  0.4382  0.4847 -0.5174
 8402SOL    HW136668   1.182   0.281   2.963 -1.7495  3.5173  0.0283
 8402SOL    HW236669   1.200   0.383   2.860  1.5295  0.4450  2.4874
 8403SOL     OW36670   1.819   4.018   6.652  0.8600 -0.4458 -0.3687
 8403SOL    HW136671   1.754   4.087   6.643  1.3491  0.1181  0.3683
 8403SOL    HW236672   1.792   3.993   6.740  0.4876 -0.4952 -0.4988
 8404SOL     OW36673   1.728   1.282   3.650 -0.3872 -0.1751 -0.1583
 8404SOL    HW136674   1.732   1.204   3.596 -0.6297 -0.0052 -0.4181
 8404SOL    HW236675   1.646   1.280   3.700  0.2647 -0.4627  0.9114
 8405SOL     OW36676   3.017   0.770   1.477  0.5914  0.1896 -0.1115
 8405SOL    HW136677   3.093   0.796   1.424  1.8067 -2.1463  0.4963
 8405SOL    HW236678   2.936   0.801   1.436 -0.7609 -0.6924  1.9241
 8406SOL     OW36679   2.522   1.106   8.311  0.5033  0.0869 -0.5700
 8406SOL    HW136680   2.454   1.039   8.307  1.1683 -0.3419 -4.3593
 8406SOL    HW236681   2.460   1.178   8.302  2.6680  2.1185  0.9388
 8407SOL     OW36682   3.220   0.064   8.172  0.1767  0.4271 -0.4607
 8407SOL    HW136683   3.266   0.085   8.253  0.4479 -2.3968  0.0998
 8407SOL    HW236684   3.223   0.150   8.130  0.3682  1.9586  2.6583
 8408SOL     OW36685   3.074   1.209   2.598  0.0585  0.5699 -0.4747
 8408SOL    HW136686   3.153   1.165   2.564  1.1610  2.1699  0.0056
 8408SOL    HW236687   3.015   1.137   2.616 -0.8966  0.5054 -3.8161
 8409SOL     OW36688   3.714   3.306  15.988 -0.0059 -0.2366 -0.1230
 8409SOL    HW136689   3.805   3.324  15.964  0.2081  1.0851  1.6576
 8409SOL    HW236690   3.673   3.264  15.913 -2.1874  1.6728 -0.0117
 8410SOL     OW36691   1.926   4.262   5.416  0.0551 -0.1676 -0.1347
 8410SOL    HW136692   1.922   4.199   5.488  0.5675 -2.6648 -2.2865
 8410SOL    HW236693   2.006   4.233   5.372  0.4370  0.2035  0.3134
 8411SOL     OW36694   2.906   4.019   9.123  0.5516 -0.0734 -0.2062
 8411SOL    HW136695   2.817   4.012   9.088  0.1943 -1.6171  0.9631
 8411SOL    HW236696   2.937   4.107   9.102  0.7206 -0.3971 -1.3013
 8412SOL     OW36697   4.234   1.248   1.902 -0.4093 -0.3927  0.6737
 8412SOL    HW136698   4.263   1.164   1.867  1.8222  1.3216 -1.5631
 8412SOL    HW236699   4.150   1.258   1.856  0.0139 -0.3113 -0.0696
 8413SOL     OW36700   4.169   0.092   6.531  0.2004  0.2695 -0.1964
 8413SOL    HW136701   4.083   0.052   6.540  0.7188 -0.9244 -0.5821
 8413SOL    HW236702   4.232   0.021   6.514 -0.6318 -0.9217  1.7828
 8414SOL     OW36703   4.552   3.649  10.943  0.1264  0.1942  0.1252
 8414SOL    HW136704   4.460   3.638  10.920  0.7143  0.0071 -2.1539
 8414SOL    HW236705   4.570   3.560  10.973 -1.7162  0.1333  1.0627
 8415SOL     OW36706   1.235   3.684   3.835 -0.7102 -0.3027 -0.4686
 8415SOL    HW136707   1.301   3.730   3.886  0.3229 -2.1040 -0.1738
 8415SOL    HW236708   1.222   3.610   3.895  3.1570 -0.4274  0.1666
 8416SOL     OW36709   4.542   0.542   0.579 -0.5338 -0.2418 -0.2954
 8416SOL    HW136710   4.599   0.525   0.504 -1.7925 -1.0694 -1.0483
 8416SOL    HW236711   4.468   0.587   0.539 -0.5156  1.6085  1.7889
 8417SOL     OW36712   1.046   0.818   5.104  0.7586  0.0359  0.0578
 8417SOL    HW136713   1.135   0.803   5.135  0.8377  0.4460  0.0262
 8417SOL    HW236714   1.033   0.738   5.052 -0.2729  0.7168 -0.7219
 8418SOL     OW36715   3.683   1.664   4.413  0.3346  0.1143  0.3984
 8418SOL    HW136716   3.742   1.591   4.433  0.8420  1.0184  2.2026
 8418SOL    HW236717   3.625   1.640   4.341  1.6102  1.2719 -1.0283
 8419SOL     OW36718   1.266   2.034   4.038 -0.6864  0.3566 -0.5548
 8419SOL    HW136719   1.346   2.080   4.064 -0.0669 -1.7585  1.3086
 8419SOL    HW236720   1.255   2.091   3.962 -0.0029 -0.7115 -1.4646
 8420SOL     OW36721   4.584   0.412   3.963  0.0885  0.1803 -0.2527
 8420SOL    HW136722   4.619   0.501   3.960  0.4199  0.1597  3.1280
 8420SOL    HW236723   4.505   0.416   3.908 -0.0971 -0.0233 -0.0047
 8421SOL     OW36724   2.571   1.157   7.938  0.0636 -0.0077 -0.3312
 8421SOL    HW136725   2.646   1.148   7.997  0.7488 -2.1861 -1.5277
 8421SOL    HW236726   2.621   1.196   7.867  0.5174 -0.3099 -0.1757
 8422SOL     OW36727   0.444   0.866   3.966 -0.0816  0.9042  0.3946
 8422SOL    HW136728   0.351   0.848   3.976  0.4367 -1.9666 -0.0294
 8422SOL    HW236729   0.468   0.796   3.905 -0.7888  2.4067 -1.6199
 8423SOL     OW36730   4.156   0.711   3.329  0.1298  0.4177 -0.1156
 8423SOL    HW136731   4.203   0.783   3.371  3.3854 -2.1172  0.5111
 8423SOL    HW236732   4.077   0.709   3.384  0.5316 -1.6033  0.3650
 8424SOL     OW36733   3.767   1.467   7.800  0.5190  0.1294  0.1146
 8424SOL    HW136734   3.860   1.446   7.794  0.6016  1.0789 -1.9416
 8424SOL    HW236735   3.744   1.517   7.722 -1.9800 -1.2557 -0.0217
 8425SOL     OW36736   1.831   4.127  16.740 -0.0510 -0.5210  0.0445
 8425SOL    HW136737   1.869   4.214  16.753 -2.0947  0.4346 -0.3732
 8425SOL    HW236738   1.743   4.129  16.778 -0.1529  0.0339 -0.2166
 8426SOL     OW36739   0.148   1.427   0.674 -0.3213 -0.7363  0.2840
 8426SOL    HW136740   0.066   1.476   0.681  0.8337  1.3886 -1.2087
 8426SOL    HW236741   0.151   1.372   0.753 -0.0773 -0.4181  0.4918
 8427SOL     OW36742   2.936   4.662  17.451  0.0928 -0.2636 -0.4816
 8427SOL    HW136743   2.881   4.595  17.492  1.9138 -0.7838  1.1333
 8427SOL    HW236744   2.890   4.670  17.367 -4.6361  2.7414  2.3779
 8428SOL     OW36745   4.166   0.899   6.166 -0.2317 -0.1500  0.0579
 8428SOL    HW136746   4.083   0.869   6.204  0.0550 -2.5029 -1.1275
 8428SOL    HW236747   4.194   0.969   6.224 -0.6981 -0.4550  0.6504
 8429SOL     OW36748   3.427   3.993  13.968 -0.1818  0.6088 -0.2036
 8429SOL    HW136749   3.405   4.000  13.875 -3.0424 -0.9269  0.3557
 8429SOL    HW236750   3.336   3.992  13.998  0.2181  0.1685  0.9841
 8430SOL     OW36751   2.435   2.820  12.590  0.3053 -0.0597 -0.1743
 8430SOL    HW136752   2.466   2.905  12.557  3.2210 -2.4675 -3.6145
 8430SOL    HW236753   2.357   2.853  12.635 -0.7717 -0.7607 -1.5305
 8431SOL     OW36754   1.182   1.681   2.143  0.1044 -0.4425  0.7155
 8431SOL    HW136755   1.138   1.764   2.124 -0.7310 -1.4431 -1.6744
 8431SOL    HW236756   1.256   1.684   2.083 -0.6956 -1.2967 -0.3261
 8432SOL     OW36757   0.209   4.647   1.549  0.3978  0.2277 -0.8921
 8432SOL    HW136758   0.156   4.700   1.490  1.2902  2.2790  0.1716
 8432SOL    HW236759   0.220   4.711   1.619  1.3105 -1.4428  0.5084
 8433SOL     OW36760   2.317   4.295  15.718 -0.1856  0.1284 -0.0580
 8433SOL    HW136761   2.271   4.293  15.634  0.8396  1.5150 -0.6523
 8433SOL    HW236762   2.297   4.205  15.743  2.4414 -0.4112  0.0663
 8434SOL     OW36763   3.804   2.611   6.264 -0.2692 -0.4193 -0.2305
 8434SOL    HW136764   3.896   2.632   6.274 -0.5665  0.1301  1.3555
 8434SOL    HW236765   3.794   2.520   6.236 -0.3235 -0.1785 -1.0056
 8435SOL     OW36766   0.927   0.507   4.204 -0.4489 -0.5863 -0.2132
 8435SOL    HW136767   0.915   0.534   4.295  0.0933  2.6037 -1.0659
 8435SOL    HW236768   1.000   0.445   4.204  0.0652  0.0134  0.6126
 8436SOL     OW36769   1.585   0.598   3.426  0.5680  0.6183  0.3006
 8436SOL    HW136770   1.504   0.557   3.397  0.2924  0.4741  1.2855
 8436SOL    HW236771   1.565   0.691   3.417  0.8550  0.8766  2.3119
 8437SOL     OW36772   2.213   2.228   7.336  0.0393 -0.1181 -0.0103
 8437SOL    HW136773   2.249   2.296   7.279  1.5083 -1.2279 -0.4045
 8437SOL    HW236774   2.126   2.224   7.295  0.8690 -1.4576 -1.6645
 8438SOL     OW36775   4.298   1.392   9.759 -0.3927 -0.3104 -0.4264
 8438SOL    HW136776   4.327   1.482   9.747 -0.6437 -0.2449 -0.5566
 8438SOL    HW236777   4.283   1.366   9.668 -1.2012 -0.8042 -0.1585
 8439SOL     OW36778   0.639   0.351  17.333  0.7965  0.2125  0.0376
 8439SOL    HW136779   0.549   0.378  17.312  0.4610  0.2049  1.4197
 8439SOL    HW236780   0.639   0.388  17.422  0.9043  1.4268 -0.4696
 8440SOL     OW36781   2.789   3.467  15.934 -0.2446  0.0576  0.1262
 8440SOL    HW136782   2.796   3.499  16.024 -0.5624 -0.4874  0.3480
 8440SOL    HW236783   2.757   3.376  15.937  0.9317 -0.3034  1.5883
 8441SOL     OW36784   0.118   2.367  10.007  0.0937  0.8273 -0.0408
 8441SOL    HW136785   0.062   2.377   9.930 -0.8457 -2.7803  0.2018
 8441SOL    HW236786   0.055   2.416  10.060  0.8159  1.0246  0.6324
 8442SOL     OW36787   4.042   0.894   2.439  0.2331  0.2865  0.0117
 8442SOL    HW136788   4.097   0.870   2.364 -0.5778  3.1445 -1.5210
 8442SOL    HW236789   3.962   0.848   2.415 -1.2839  1.1218  3.5303
 8443SOL     OW36790   3.340   4.329   4.876 -0.0291  0.3258  0.3478
 8443SOL    HW136791   3.376   4.361   4.794  2.6804 -3.2437  0.1311
 8443SOL    HW236792   3.416   4.327   4.934 -0.4812  3.1812  1.0173
 8444SOL     OW36793   3.975   0.854  17.639  0.1779 -0.1315  0.0001
 8444SOL    HW136794   3.900   0.871  17.581  1.3076  1.5696 -0.9804
 8444SOL    HW236795   4.035   0.928  17.630  1.3092 -1.2098 -1.4267
 8445SOL     OW36796   2.295   1.663   7.001  0.1771  0.4343 -0.3295
 8445SOL    HW136797   2.274   1.725   7.071 -0.7789  1.9881 -2.0086
 8445SOL    HW236798   2.352   1.600   7.047 -0.0207  0.6249  0.1812
 8446SOL     OW36799   2.151   2.968   5.984 -0.2357  0.3196 -0.1524
 8446SOL    HW136800   2.188   3.020   6.055  0.2758  1.1248 -1.0158
 8446SOL    HW236801   2.204   2.889   5.985 -1.9122 -0.8279 -0.8156
 8447SOL     OW36802   1.732   1.059   2.228 -0.1186 -0.6038  0.0153
 8447SOL    HW136803   1.639   1.037   2.226 -0.2080 -0.1251 -1.7079
 8447SOL    HW236804   1.759   1.051   2.136 -0.7499 -3.3519  0.0856
 8448SOL     OW36805   2.051   2.779   7.842 -0.3897  0.1615 -1.0010
 8448SOL    HW136806   1.974   2.744   7.888  0.2664 -0.1189 -0.1138
 8448SOL    HW236807   2.072   2.863   7.883  1.5948 -0.7507 -0.1655
 8449SOL     OW36808   3.985   2.961  15.766 -0.0760  0.7220  0.2991
 8449SOL    HW136809   3.999   3.055  15.777  1.3327  0.6327 -0.7749
 8449SOL    HW236810   3.983   2.963  15.671 -0.0022 -3.1833  0.1914
 8450SOL     OW36811   2.644   1.861   7.112 -0.2139 -0.5087 -0.5292
 8450SOL    HW136812   2.588   1.935   7.089 -0.5847 -0.3497  0.9216
 8450SOL    HW236813   2.584   1.810   7.166  0.1385  0.4001  0.7047
 8451SOL     OW36814   3.803   4.326   4.070 -0.3136  0.0547  0.1227
 8451SOL    HW136815   3.883   4.273   4.074  0.0610  0.4440 -2.1437
 8451SOL    HW236816   3.745   4.278   4.130  0.6904 -0.5607  0.6063
 8452SOL     OW36817   2.437   4.650   3.782  0.1999  0.1070  0.2012
 8452SOL    HW136818   2.448   4.645   3.877 -1.5321 -2.3001  0.2722
 8452SOL    HW236819   2.364   4.708   3.762 -0.2359 -1.3137 -2.3303
 8453SOL     OW36820   1.479   0.755   3.836  0.3422  0.0885 -0.5829
 8453SOL    HW136821   1.424   0.788   3.908  0.4934 -0.7557 -0.0790
 8453SOL    HW236822   1.517   0.831   3.791  1.5232 -0.8642 -1.1682
 8454SOL     OW36823   4.263   4.487   1.735  0.0873  0.0914  0.3910
 8454SOL    HW136824   4.257   4.540   1.656  0.6164 -1.1395 -0.4669
 8454SOL    HW236825   4.298   4.543   1.804 -2.3017 -0.4395  2.0574
 8455SOL     OW36826   3.086   0.862   2.538 -0.2748 -0.3661 -0.2047
 8455SOL    HW136827   3.003   0.895   2.572 -0.9497 -0.5890 -1.6378
 8455SOL    HW236828   3.113   0.942   2.492  2.0325 -0.9939  0.0903
 8456SOL     OW36829   1.142   2.450   9.696 -0.0846  0.3275  0.1031
 8456SOL    HW136830   1.117   2.453   9.789  0.1358  0.7450  0.1510
 8456SOL    HW236831   1.103   2.365   9.673  1.4562  0.0982 -1.6777
 8457SOL     OW36832   1.309   1.067   0.460 -1.0483 -0.4035 -0.5367
 8457SOL    HW136833   1.233   1.020   0.423 -1.1179 -2.0619  1.7341
 8457SOL    HW236834   1.314   1.144   0.403  0.3824  0.1563  0.3473
 8458SOL     OW36835   3.675   2.736   2.893  0.3424  0.3581  0.4814
 8458SOL    HW136836   3.627   2.693   2.964 -2.0959  0.3473 -1.1457
 8458SOL    HW236837   3.710   2.662   2.843  0.3109 -0.1790  1.2566
 8459SOL     OW36838   1.902   3.477   4.034 -0.3320 -0.2118 -0.0962
 8459SOL    HW136839   1.858   3.392   4.036 -0.1519 -0.2836  1.1136
 8459SOL    HW236840   1.826   3.534   4.032 -0.7224 -0.8610 -4.3849
 8460SOL     OW36841   1.074   3.236   5.762  0.3246 -0.3352 -0.0954
 8460SOL    HW136842   1.127   3.305   5.722 -0.5020 -0.0347 -0.6805
 8460SOL    HW236843   1.026   3.295   5.820  1.9689  2.1829 -1.3098
 8461SOL     OW36844   3.666   1.306   6.017 -0.7359  0.1735  0.5358
 8461SOL    HW136845   3.700   1.221   5.988 -2.9341 -0.2983 -0.6105
 8461SOL    HW236846   3.618   1.287   6.098 -1.0542  0.8101  0.4989
 8462SOL     OW36847   0.179   3.061   6.661  0.4214 -0.1530  0.5369
 8462SOL    HW136848   0.201   3.008   6.738 -1.0817 -1.6203 -0.0343
 8462SOL    HW236849   0.268   3.082   6.630 -0.5064  1.1894 -1.2522
 8463SOL     OW36850   2.091   1.120  15.871 -0.2188  0.6387 -0.0943
 8463SOL    HW136851   2.110   1.032  15.903 -0.2010  1.1387  1.2756
 8463SOL    HW236852   2.035   1.099  15.796 -1.4240  1.0056  0.7032
 8464SOL     OW36853   1.950   2.583   8.424  0.3257  0.2474 -0.1921
 8464SOL    HW136854   1.864   2.553   8.395  0.2882 -1.6842  1.9089
 8464SOL    HW236855   1.939   2.678   8.424  1.0677  0.3401 -1.1942
 8465SOL     OW36856   2.061   0.454   4.998 -0.3145 -0.3330  0.1221
 8465SOL    HW136857   2.072   0.463   4.904 -5.1235 -0.2581 -0.4246
 8465SOL    HW236858   2.028   0.543   5.008  0.4293 -0.3023  2.3010
 8466SOL     OW36859   1.445   3.031   2.269  0.3491  0.1438 -0.4716
 8466SOL    HW136860   1.515   3.079   2.313  1.2610 -0.1981 -1.5553
 8466SOL    HW236861   1.475   2.941   2.278  0.3302  0.0393 -1.4490
 8467SOL     OW36862   3.316   1.265   8.699 -0.4277  0.1491  0.4018
 8467SOL    HW136863   3.412   1.262   8.701 -0.4625  0.2199  2.1787
 8467SOL    HW236864   3.294   1.218   8.619  1.6352 -1.2464  0.6560
 8468SOL     OW36865   3.928   0.315   6.951 -0.1466 -0.4403 -0.4991
 8468SOL    HW136866   3.852   0.357   6.991  2.3154  2.1471  1.4245
 8468SOL    HW236867   3.965   0.380   6.892  0.7315  0.0578  0.5930
 8469SOL     OW36868   3.686   4.218   7.402  0.3877 -0.4037  0.3598
 8469SOL    HW136869   3.743   4.235   7.327  0.1788 -3.2731 -0.4662
 8469SOL    HW236870   3.718   4.133   7.432 -0.6444 -1.1787 -0.7376
 8470SOL     OW36871   0.819   0.753  15.189  0.7392 -0.4643 -0.1273
 8470SOL    HW136872   0.734   0.723  15.220  0.4289  2.3275  1.7471
 8470SOL    HW236873   0.811   0.737  15.095 -0.2225 -1.0432  0.0542
 8471SOL     OW36874   2.022   2.677   7.260 -0.1465  0.4054 -0.1219
 8471SOL    HW136875   2.027   2.719   7.346  0.4859  1.9620 -0.9200
 8471SOL    HW236876   1.996   2.750   7.205 -0.3597  1.6247  1.6274
 8472SOL     OW36877   1.653   1.829   3.202  0.7365 -0.0053 -0.2894
 8472SOL    HW136878   1.677   1.822   3.109 -0.1842 -3.1490 -0.3153
 8472SOL    HW236879   1.738   1.830   3.246  0.8447 -1.1610 -0.4488
 8473SOL     OW36880   3.846   4.063   6.212 -0.1956  0.1933 -0.1127
 8473SOL    HW136881   3.887   4.149   6.215 -3.6697  1.7974  1.1473
 8473SOL    HW236882   3.771   4.088   6.158 -1.6498 -2.4723  0.7214
 8474SOL     OW36883   4.539   1.182   3.947  0.3536 -0.1259  0.4847
 8474SOL    HW136884   4.607   1.235   3.990  2.4268 -2.2738 -0.1712
 8474SOL    HW236885   4.595   1.125   3.894 -1.5473  0.5043 -2.1411
 8475SOL     OW36886   3.023   2.469  10.422  0.0442 -0.2220  0.4011
 8475SOL    HW136887   3.091   2.477  10.356 -1.3206  1.0621 -0.8380
 8475SOL    HW236888   3.020   2.560  10.452 -0.5384 -0.6215  1.5925
 8476SOL     OW36889   1.346   3.444   7.371  0.2217  0.0035 -0.9529
 8476SOL    HW136890   1.405   3.519   7.373 -0.0514  0.1253  1.7147
 8476SOL    HW236891   1.279   3.479   7.429  1.4403  0.4195  0.1891
 8477SOL     OW36892   4.305   4.075   1.344 -0.0582 -0.2484  0.3045
 8477SOL    HW136893   4.261   4.085   1.429 -1.6461 -0.8170 -0.4663
 8477SOL    HW236894   4.236   4.073   1.278  1.7796 -4.0049 -1.4889
 8478SOL     OW36895   2.622   0.816   8.871  0.6015 -0.2078 -0.2015
 8478SOL    HW136896   2.564   0.881   8.831 -0.3653  0.0709  1.6461
 8478SOL    HW236897   2.641   0.855   8.956  0.2221 -0.5773  0.0492
 8479SOL     OW36898   0.321   1.568  16.929 -0.2560  0.0649  0.1857
 8479SOL    HW136899   0.266   1.583  17.006 -0.2148  1.5237 -0.0738
 8479SOL    HW236900   0.365   1.652  16.915  1.3705 -0.8812 -0.3704
 8480SOL     OW36901   4.187   0.123   0.146 -0.0278 -0.3861  0.6860
 8480SOL    HW136902   4.238   0.091   0.220 -1.2660 -1.3661  1.1178
 8480SOL    HW236903   4.130   0.047   0.136 -1.2688  0.5132  0.9982
 8481SOL     OW36904   3.017   0.954   1.171  0.1967  0.1097  0.1569
 8481SOL    HW136905   3.092   0.931   1.226  0.5178  0.0258 -0.3162
 8481SOL    HW236906   2.948   0.920   1.227 -0.9935 -1.5000 -2.2880
 8482SOL     OW36907   0.514   1.986   5.381 -0.1384 -0.5448  0.2174
 8482SOL    HW136908   0.483   1.904   5.419 -0.3529 -0.7462 -0.3909
 8482SOL    HW236909   0.497   1.969   5.288  1.7618  0.0456 -0.2422
 8483SOL     OW36910   3.471   1.675   7.387 -0.2003 -0.2600  0.3947
 8483SOL    HW136911   3.418   1.719   7.454 -0.5141 -0.2490  0.1352
 8483SOL    HW236912   3.454   1.584   7.410  2.9777 -1.4827 -2.0577
 8484SOL     OW36913   3.088   1.284   5.746  0.0991 -0.3089 -0.9321
 8484SOL    HW136914   3.120   1.314   5.661  1.4639  2.8999  0.6909
 8484SOL    HW236915   3.086   1.367   5.794 -3.9414 -0.7738 -0.3055
 8485SOL     OW36916   0.874   1.642   6.423  0.3118  0.1156  0.1819
 8485SOL    HW136917   0.951   1.657   6.369  0.2130  0.3869  0.1147
 8485SOL    HW236918   0.866   1.729   6.461  0.4977  0.6003 -0.8918
 8486SOL     OW36919   1.402   0.517   2.144  0.6166 -0.1567  1.1373
 8486SOL    HW136920   1.396   0.599   2.192 -1.5062 -1.2796  2.7522
 8486SOL    HW236921   1.426   0.548   2.056  2.3512  2.4583  2.5473
 8487SOL     OW36922   4.711   4.111   2.954  0.1740 -0.2683  0.7173
 8487SOL    HW136923   4.719   4.144   2.865  0.0549  2.1448  1.5847
 8487SOL    HW236924   4.725   4.190   3.007 -0.1068  0.1664  0.1493
 8488SOL     OW36925   0.018   0.259  15.652 -0.3023 -0.1280 -0.3522
 8488SOL    HW136926   0.080   0.332  15.650  1.0794 -1.2954 -0.2990
 8488SOL    HW236927   4.679   0.270  15.722  0.7883 -1.8125  0.9159
 8489SOL     OW36928   0.496   3.399  11.631 -0.5130  0.5555 -0.0095
 8489SOL    HW136929   0.572   3.352  11.663 -0.6756 -0.1745 -0.6776
 8489SOL    HW236930   0.549   3.465  11.587 -1.3016  0.0769 -1.7124
 8490SOL     OW36931   1.727   3.155  13.940 -0.4995  0.1980  0.0032
 8490SOL    HW136932   1.811   3.146  13.896 -1.0620  1.1527 -1.2596
 8490SOL    HW236933   1.760   3.225  13.996 -0.8626  0.3392  0.0450
 8491SOL     OW36934   2.354   3.117   2.351  0.3382  1.0358 -0.2702
 8491SOL    HW136935   2.341   3.192   2.408 -0.2953  1.5747 -1.1366
 8491SOL    HW236936   2.372   3.149   2.263  2.2438 -1.7838 -0.9189
 8492SOL     OW36937   2.885   3.100  16.363 -0.3541 -0.5818 -0.2276
 8492SOL    HW136938   2.897   3.081  16.456  3.3046 -0.0751 -0.6010
 8492SOL    HW236939   2.860   3.011  16.338 -0.0224 -0.0784 -2.3625
 8493SOL     OW36940   2.070   4.045   0.781 -0.1985 -0.5538  0.4858
 8493SOL    HW136941   2.008   3.983   0.743 -2.3661  1.6504  0.4649
 8493SOL    HW236942   2.031   4.060   0.867  0.8374  0.8636  0.6912
 8494SOL     OW36943   4.497   3.457   3.786  0.0971  0.1259 -0.2711
 8494SOL    HW136944   4.422   3.459   3.727 -0.2293 -0.6393  0.1141
 8494SOL    HW236945   4.558   3.430   3.717  0.7275 -2.0595  1.1104
 8495SOL     OW36946   2.524   4.402   2.476  0.2007  0.1245 -0.3496
 8495SOL    HW136947   2.527   4.343   2.401  0.2446  0.2311 -0.4306
 8495SOL    HW236948   2.438   4.383   2.513  0.2026 -0.5827 -0.7157
 8496SOL     OW36949   1.429   2.181   6.625  0.4152 -0.1323 -0.0021
 8496SOL    HW136950   1.372   2.104   6.630 -1.5156  1.3053  0.1045
 8496SOL    HW236951   1.368   2.237   6.577 -0.7445  0.6592  2.3898
 8497SOL     OW36952   2.611   4.526   6.487  0.0119 -0.4147  0.1241
 8497SOL    HW136953   2.573   4.546   6.401  0.5131 -1.3570 -0.3110
 8497SOL    HW236954   2.692   4.576   6.493 -0.4810  0.5342 -1.0728
 8498SOL     OW36955   1.115   0.381   8.092  0.4965  0.1993 -0.3084
 8498SOL    HW136956   1.046   0.445   8.075  0.3591  0.1006 -0.1171
 8498SOL    HW236957   1.189   0.440   8.100  0.9424 -0.4563  0.4233
 8499SOL     OW36958   1.789   2.117   8.268 -0.2525  0.1463  0.6507
 8499SOL    HW136959   1.800   2.129   8.363  0.4480 -1.3199  0.7482
 8499SOL    HW236960   1.858   2.052   8.260 -1.6876 -1.2234 -0.5010
 8500SOL     OW36961   0.247   2.825  10.095  0.2203 -0.1600 -0.2802
 8500SOL    HW136962   0.330   2.873  10.097  0.3229 -0.3370 -0.2671
 8500SOL    HW236963   0.201   2.864  10.169  0.5828 -0.1763 -0.0505
 8501SOL     OW36964   4.212   0.205  15.624  0.4713 -0.3307  0.3728
 8501SOL    HW136965   4.291   0.154  15.641 -0.6372 -2.9488 -2.5578
 8501SOL    HW236966   4.169   0.175  15.704  0.8220 -1.1117  0.2627
 8502SOL     OW36967   0.958   3.566   2.187 -0.3351 -0.0785 -1.4958
 8502SOL    HW136968   0.889   3.510   2.223  1.9384 -1.4541  0.6464
 8502SOL    HW236969   0.908   3.620   2.125 -0.1321  0.7784 -0.9080
 8503SOL     OW36970   1.423   2.307   5.712  0.2796 -0.1921 -0.6870
 8503SOL    HW136971   1.463   2.365   5.647  3.2345  1.0246  2.2834
 8503SOL    HW236972   1.333   2.339   5.705  0.1094 -0.1508  1.8264
 8504SOL     OW36973   2.094   0.047   2.398 -0.0310  0.1908 -0.0565
 8504SOL    HW136974   2.119   0.139   2.390 -0.0349  0.1603 -0.4564
 8504SOL    HW236975   2.126   0.006   2.317 -0.5173  1.0015 -0.6605
 8505SOL     OW36976   2.969   3.365   5.419 -0.5658 -0.3533  0.6546
 8505SOL    HW136977   3.036   3.428   5.393  0.0922 -0.5900  1.7961
 8505SOL    HW236978   2.945   3.401   5.504 -0.1907  0.6564  0.3392
 8506SOL     OW36979   0.181   0.516   8.295 -0.0689  0.1817  0.2588
 8506SOL    HW136980   0.173   0.422   8.280  2.3620  0.5225 -2.9982
 8506SOL    HW236981   0.241   0.519   8.370  2.5981 -2.0131 -1.8262
 8507SOL     OW36982   3.695   1.509   3.772 -0.0187  0.2239 -0.1524
 8507SOL    HW136983   3.606   1.473   3.775  0.4082 -0.8307 -0.1809
 8507SOL    HW236984   3.707   1.499   3.866  2.0693  0.6365 -0.3687
 8508SOL     OW36985   4.258   2.122  10.073  0.1474 -0.0437  0.4680
 8508SOL    HW136986   4.251   2.198  10.130 -2.2421  0.5142 -0.5747
 8508SOL    HW236987   4.168   2.126  10.040  0.0870  0.4007  0.6837
 8509SOL     OW36988   3.707   4.334   8.446 -0.3029 -0.1576  0.1506
 8509SOL    HW136989   3.631   4.352   8.391 -0.7723  0.1333  0.8849
 8509SOL    HW236990   3.718   4.417   8.492 -1.0870 -0.0063  0.0799
 8510SOL     OW36991   2.538   1.179   2.908 -0.4351 -0.2793  1.0917
 8510SOL    HW136992   2.564   1.257   2.957  1.0717 -0.6302  0.8399
 8510SOL    HW236993   2.525   1.111   2.974 -0.5918  0.1511  1.5130
 8511SOL     OW36994   1.245   0.901   8.513 -0.2410  0.2864 -0.7220
 8511SOL    HW136995   1.253   0.820   8.463 -1.7731 -0.7874  0.7995
 8511SOL    HW236996   1.237   0.957   8.435 -2.0583  1.6144  0.4339
 8512SOL     OW36997   3.229   1.636   5.071 -0.3089 -0.5058 -0.4218
 8512SOL    HW136998   3.277   1.560   5.105 -0.6974 -0.2900  0.6069
 8512SOL    HW236999   3.155   1.634   5.132  0.1246  0.2297  0.1239
 8513SOL     OW37000   1.590   2.032   6.783  0.3424 -0.0089  0.3979
 8513SOL    HW137001   1.536   2.088   6.727 -1.4274 -0.9669  1.1519
 8513SOL    HW237002   1.674   2.030   6.738 -0.7781 -3.6401 -1.5860
 8514SOL     OW37003   4.553   0.000   7.908  0.5813 -0.5505  0.2783
 8514SOL    HW137004   4.475   4.722   7.852  0.8728  1.5023 -0.2490
 8514SOL    HW237005   4.616   0.004   7.837 -1.9696  1.1414 -1.9255
 8515SOL     OW37006   0.788   0.824   4.110 -0.7012  0.2471 -0.5985
 8515SOL    HW137007   0.767   0.889   4.043  0.1830 -0.1215 -1.2212
 8515SOL    HW237008   0.701   0.787   4.130 -1.1488  1.0981 -0.9616
 8516SOL     OW37009   2.759   2.541  13.345  0.2352 -0.9539 -0.4044
 8516SOL    HW137010   2.694   2.547  13.274  0.4055 -4.7301 -0.8884
 8516SOL    HW237011   2.743   2.452  13.376 -2.2010 -0.5171 -0.4428
 8517SOL     OW37012   2.302   3.810   8.154 -0.5017 -0.2651  0.0205
 8517SOL    HW137013   2.244   3.822   8.078 -2.3851 -1.9887  1.1829
 8517SOL    HW237014   2.387   3.797   8.111 -1.5634 -0.6727 -1.9484
 8518SOL     OW37015   1.399   3.098  17.501  0.2738 -0.1060  0.2872
 8518SOL    HW137016   1.321   3.148  17.524 -0.4537 -0.0915 -2.1529
 8518SOL    HW237017   1.466   3.165  17.489 -1.6819  1.4140 -2.0337
 8519SOL     OW37018   3.102   1.635  13.881 -0.1460  0.8844 -0.1001
 8519SOL    HW137019   3.109   1.664  13.972  0.3471  0.5811 -0.0430
 8519SOL    HW237020   3.191   1.600  13.873 -0.9419 -1.4676  1.3933
 8520SOL     OW37021   3.011   0.421  11.589  0.0939 -0.5714 -0.3073
 8520SOL    HW137022   3.102   0.406  11.616  0.6686 -0.7999 -2.3460
 8520SOL    HW237023   3.010   0.517  11.582  0.8695 -0.5389 -0.0174
 8521SOL     OW37024   0.574   2.575   5.180 -0.3080  0.6036 -0.1420
 8521SOL    HW137025   0.553   2.482   5.165 -1.8803  1.2357 -1.8653
 8521SOL    HW237026   0.607   2.575   5.270 -0.1225 -0.2691 -0.2095
 8522SOL     OW37027   2.151   2.731   4.194 -0.9696  0.0959 -0.0759
 8522SOL    HW137028   2.095   2.777   4.256 -0.0675  0.7746  0.2314
 8522SOL    HW237029   2.238   2.769   4.207 -1.8453  1.7538  0.8987
 8523SOL     OW37030   1.930   3.976   6.359  0.0607 -0.2414  0.1546
 8523SOL    HW137031   1.974   4.012   6.436 -2.2703 -0.6709  1.6834
 8523SOL    HW237032   2.013   3.961   6.314  0.3431  1.5842  0.0523
 8524SOL     OW37033   3.106   4.705   5.568  0.7262  0.0869  0.3893
 8524SOL    HW137034   3.101   4.612   5.544 -1.5246  0.3003 -0.0286
 8524SOL    HW237035   3.011   4.712   5.581  0.6012 -2.0485  0.6551
 8525SOL     OW37036   2.243   0.217   8.438 -0.0576 -0.3521 -0.3464
 8525SOL    HW137037   2.229   0.124   8.419  0.4957 -1.1478  3.1093
 8525SOL    HW237038   2.195   0.214   8.520 -2.0431  0.0373 -1.4970
 8526SOL     OW37039   4.079   1.690   3.359  0.2462  0.1363  0.5534
 8526SOL    HW137040   4.032   1.761   3.404 -1.0844  2.2624 -4.1507
 8526SOL    HW237041   4.048   1.701   3.269 -0.0739  0.0231  0.6490
 8527SOL     OW37042   4.306   3.967   6.965  0.1775 -0.0370 -0.1970
 8527SOL    HW137043   4.308   4.014   6.881 -1.5267  0.6946  0.1733
 8527SOL    HW237044   4.279   4.031   7.030  1.6478  0.1097  0.2453
 8528SOL     OW37045   2.839   0.554   1.739 -0.2609 -0.0999  0.3223
 8528SOL    HW137046   2.915   0.554   1.797  0.7523  1.2617 -1.0126
 8528SOL    HW237047   2.813   0.462   1.735 -1.2908  0.1062  2.4399
 8529SOL     OW37048   3.712   0.554   7.009  0.2401  0.3203 -0.1564
 8529SOL    HW137049   3.745   0.644   7.012 -0.5927  0.6934 -2.2500
 8529SOL    HW237050   3.751   0.518   7.089 -2.4405 -2.9655 -0.2846
 8530SOL     OW37051   2.013   3.639   8.669 -0.0218 -0.0359  0.2542
 8530SOL    HW137052   2.012   3.556   8.622  1.1911 -0.0627  0.2842
 8530SOL    HW237053   2.068   3.690   8.610  1.7673 -1.0941  0.9919
 8531SOL     OW37054   1.843   3.576  14.997 -0.2718  0.7035 -0.1974
 8531SOL    HW137055   1.765   3.535  15.035  0.1595 -0.3889 -0.4844
 8531SOL    HW237056   1.876   3.627  15.072  1.2338 -0.8815  0.2262
 8532SOL     OW37057   1.789   3.082   5.427  0.2693 -0.1254 -0.6777
 8532SOL    HW137058   1.822   3.062   5.340 -1.2335 -0.9164 -1.0639
 8532SOL    HW237059   1.870   3.073   5.478  0.1481  0.5560 -0.3719
 8533SOL     OW37060   1.787   4.714  15.565  0.8248  0.0478  0.2003
 8533SOL    HW137061   1.710   4.671  15.602  2.0196 -1.6893  0.6503
 8533SOL    HW237062   1.738   0.053  15.514  2.4195  0.3092 -0.9942
 8534SOL     OW37063   4.111   0.060  15.297 -0.4678 -0.4778  0.2212
 8534SOL    HW137064   4.058   4.706  15.292 -0.1599 -0.6791  0.0720
 8534SOL    HW237065   4.072   0.112  15.227  1.3723  1.2885  0.4928
 8535SOL     OW37066   1.330   1.323   0.980  0.0798  0.2635 -0.0316
 8535SOL    HW137067   1.286   1.388   1.034 -1.3734  0.9013 -2.0022
 8535SOL    HW237068   1.298   1.238   1.009 -1.5343  1.9217  3.0300
 8536SOL     OW37069   0.020   0.600   5.700 -0.4052 -0.6273  0.1877
 8536SOL    HW137070   0.025   0.534   5.631 -2.3282 -1.3021  0.6944
 8536SOL    HW237071   0.061   0.554   5.774  0.7175 -1.3504 -0.8868
 8537SOL     OW37072   3.909   0.856  11.816 -0.2860  0.1471  0.1445
 8537SOL    HW137073   3.919   0.933  11.871 -0.7384 -0.0060  0.4440
 8537SOL    HW237074   3.993   0.854  11.771 -1.3905 -0.7392 -1.9030
 8538SOL     OW37075   2.610   3.164   3.223  0.6321 -0.2466  0.2953
 8538SOL    HW137076   2.622   3.216   3.143 -0.9317 -0.6358 -0.1980
 8538SOL    HW237077   2.518   3.185   3.238  0.6463 -0.1170  0.2062
 8539SOL     OW37078   1.389   0.207  14.635 -0.0372 -0.0934 -0.3630
 8539SOL    HW137079   1.322   0.140  14.621 -0.7238  0.8863 -1.7406
 8539SOL    HW237080   1.342   0.287  14.655  0.1744  0.0592 -0.4809
 8540SOL     OW37081   1.754   0.637   3.077  0.0905  0.3797 -0.0822
 8540SOL    HW137082   1.805   0.559   3.098 -1.2872  0.0972  2.2286
 8540SOL    HW237083   1.798   0.680   3.004 -0.9585  1.2426 -0.1925
 8541SOL     OW37084   3.270   0.730   6.488  0.8988  0.1867  0.3311
 8541SOL    HW137085   3.345   0.752   6.432 -0.1305  1.1556 -0.6597
 8541SOL    HW237086   3.271   0.802   6.551  1.8750 -0.4520  1.0560
 8542SOL     OW37087   2.337   1.387   5.167  0.0095  0.1302  0.1616
 8542SOL    HW137088   2.312   1.479   5.153  0.0316  0.0558 -0.3836
 8542SOL    HW237089   2.430   1.398   5.185 -0.0994 -0.1548  0.8979
 8543SOL     OW37090   3.718   0.043  17.024 -0.1032 -0.1643  0.2073
 8543SOL    HW137091   3.685   0.114  16.970 -2.3378 -1.9529 -0.7990
 8543SOL    HW237092   3.642   4.714  17.045 -1.8232  1.9224 -0.6694
 8544SOL     OW37093   0.037   2.984   3.956 -0.4986  0.8926  0.0995
 8544SOL    HW137094   0.051   2.891   3.939 -2.0829  0.7053 -0.1580
 8544SOL    HW237095   0.081   3.028   3.883 -3.6544  1.9386 -1.1862
 8545SOL     OW37096   1.450   2.032   4.837  0.1906 -0.3238 -0.2917
 8545SOL    HW137097   1.462   1.972   4.910 -1.2497  0.9363  0.9883
 8545SOL    HW237098   1.501   1.986   4.770  0.8582 -0.1125  0.0710
 8546SOL     OW37099   0.651   3.220   5.322  0.3507 -0.1697 -0.3913
 8546SOL    HW137100   0.596   3.286   5.280  1.9182 -0.3436 -2.6729
 8546SOL    HW237101   0.583   3.164   5.359 -0.3219 -0.5992 -2.2822
 8547SOL     OW37102   1.931   1.557  10.475  0.0666 -0.4231 -0.2633
 8547SOL    HW137103   2.001   1.503  10.438  1.3114  1.0569 -0.0733
 8547SOL    HW237104   1.857   1.510  10.435  0.2320  0.1724 -1.2786
 8548SOL     OW37105   1.467   3.530   8.372 -0.1572  0.2899 -0.3429
 8548SOL    HW137106   1.495   3.621   8.380 -0.6767  0.4475 -0.2778
 8548SOL    HW237107   1.548   3.485   8.349 -1.3435 -0.4068 -3.1591
 8549SOL     OW37108   2.599   3.691   2.885 -0.1094 -0.7130  0.4657
 8549SOL    HW137109   2.678   3.744   2.896 -0.4597 -0.0820 -0.0933
 8549SOL    HW237110   2.568   3.675   2.974 -1.8505 -0.3408 -0.0837
 8550SOL     OW37111   2.449   3.608  10.581  0.4083 -0.4017  0.5657
 8550SOL    HW137112   2.386   3.553  10.534 -0.0675 -0.3183  1.1131
 8550SOL    HW237113   2.465   3.569  10.667  0.3635 -0.6183  0.4777
 8551SOL     OW37114   1.526   0.402   0.820  0.0612 -0.0876 -0.0829
 8551SOL    HW137115   1.526   0.319   0.771 -1.1762 -1.1141  1.6503
 8551SOL    HW237116   1.564   0.363   0.898  1.0495  2.0487  0.5016
 8552SOL     OW37117   3.072   2.385   8.432  0.4900 -0.4584  0.0326
 8552SOL    HW137118   3.054   2.475   8.457 -0.8567 -0.0766 -2.3397
 8552SOL    HW237119   3.115   2.359   8.513  3.0236  0.0016 -1.1558
 8553SOL     OW37120   1.181   2.595   5.227  0.1164 -0.1241 -0.7752
 8553SOL    HW137121   1.089   2.586   5.203 -0.1662 -1.3203  0.7660
 8553SOL    HW237122   1.216   2.518   5.182  0.3465 -1.1647  1.1866
 8554SOL     OW37123   0.594   2.070   9.267  0.5506  0.1105  0.5814
 8554SOL    HW137124   0.547   2.141   9.224 -0.9281 -1.0461  0.3068
 8554SOL    HW237125   0.563   2.091   9.356 -0.2591  0.0510  0.3140
 8555SOL     OW37126   3.355   4.639   2.040  0.6514  0.3962  0.3404
 8555SOL    HW137127   3.318   4.725   2.061 -0.5103  0.0401 -0.2811
 8555SOL    HW237128   3.380   4.653   1.949 -0.5483 -1.5965 -0.2982
 8556SOL     OW37129   1.374   1.838   4.357  0.7382  0.3914  0.0529
 8556SOL    HW137130   1.399   1.928   4.377  0.9849  0.6953 -1.6202
 8556SOL    HW237131   1.282   1.834   4.330  0.1736  1.7904  1.7323
 8557SOL     OW37132   0.696   0.807  11.824 -0.2126 -0.0255 -0.0676
 8557SOL    HW137133   0.649   0.749  11.764  1.0583 -0.8517 -0.2739
 8557SOL    HW237134   0.628   0.867  11.855 -1.8309 -0.5470 -2.5651
 8558SOL     OW37135   1.561   2.272   5.938  0.2531 -0.0703 -0.3667
 8558SOL    HW137136   1.609   2.195   5.907 -1.3118 -1.5008  0.7465
 8558SOL    HW237137   1.507   2.297   5.862 -0.7181 -0.4696  0.1886
 8559SOL     OW37138   1.463   3.957  13.570  0.3931  0.4878 -0.8234
 8559SOL    HW137139   1.478   4.000  13.486  0.7669  2.4927  0.2539
 8559SOL    HW237140   1.533   3.894  13.554 -0.3657 -1.2234  2.5671
 8560SOL     OW37141   2.648   1.826  11.805 -0.2758 -0.1599  0.1382
 8560SOL    HW137142   2.628   1.733  11.808  1.9805 -0.6707 -0.1764
 8560SOL    HW237143   2.727   1.834  11.859 -2.0635  1.7996  2.4663
 8561SOL     OW37144   1.064   4.359   6.515  0.0959 -0.3617  0.0387
 8561SOL    HW137145   0.979   4.335   6.479  0.4475 -1.1329 -0.2778
 8561SOL    HW237146   1.072   4.448   6.481  2.3281  0.1875  1.9851
 8562SOL     OW37147   3.431   1.160   9.443  0.1950 -0.9765  0.6669
 8562SOL    HW137148   3.426   1.194   9.354  1.3595 -0.6010  0.7482
 8562SOL    HW237149   3.378   1.082   9.425  0.2093  0.1646 -4.3935
 8563SOL     OW37150   2.177   0.444   3.420 -0.3575 -0.8433 -0.4165
 8563SOL    HW137151   2.222   0.504   3.360  1.2109 -0.5347  1.0937
 8563SOL    HW237152   2.224   0.364   3.400  1.3846  0.3555 -1.0878
 8564SOL     OW37153   3.212   2.474   5.687  0.6152  0.2572 -0.3151
 8564SOL    HW137154   3.305   2.464   5.669  0.3923 -0.4099 -1.1046
 8564SOL    HW237155   3.178   2.387   5.663  1.0823 -0.3732  1.2963
 8565SOL     OW37156   3.026   4.125   8.094  0.4267  0.0878 -0.3442
 8565SOL    HW137157   2.962   4.101   8.027  0.9519 -0.6584 -0.5819
 8565SOL    HW237158   3.103   4.134   8.037  1.4249 -1.8135  0.7121
 8566SOL     OW37159   0.933   3.588   4.067  0.3258  0.2201  0.0361
 8566SOL    HW137160   0.912   3.495   4.081 -0.9888  0.6123  0.6954
 8566SOL    HW237161   0.941   3.625   4.155 -0.1847 -1.9196  0.9917
 8567SOL     OW37162   3.387   1.703   3.747 -0.0322 -0.1067  0.4870
 8567SOL    HW137163   3.305   1.713   3.796 -0.4312 -0.7232 -0.0601
 8567SOL    HW237164   3.402   1.609   3.737 -2.2059 -0.3257 -0.5802
 8568SOL     OW37165   0.143   4.091   4.170 -0.2195 -0.1351 -0.1063
 8568SOL    HW137166   0.157   4.139   4.088  3.9710 -0.9290  0.1139
 8568SOL    HW237167   0.099   4.156   4.224  0.4489  0.2034  0.0293
 8569SOL     OW37168   3.479   1.612  12.530 -0.1981  0.5094  0.5195
 8569SOL    HW137169   3.427   1.578  12.457 -2.7491 -0.8694  2.9313
 8569SOL    HW237170   3.567   1.592  12.499  0.3649  0.0800  2.4005
 8570SOL     OW37171   3.970   3.361   7.956 -0.1628  0.0842 -0.5339
 8570SOL    HW137172   4.065   3.375   7.955 -0.1879  0.2957  0.2237
 8570SOL    HW237173   3.966   3.311   8.038 -2.6394 -0.1415 -0.8092
 8571SOL     OW37174   2.237   4.514  11.606  0.2427  0.2978  0.4079
 8571SOL    HW137175   2.303   4.582  11.600  1.6830 -1.2086 -0.8582
 8571SOL    HW237176   2.256   4.466  11.687  0.0188 -0.4840 -0.0009
 8572SOL     OW37177   0.239   2.336   8.342  0.5551 -0.3438  0.4817
 8572SOL    HW137178   0.282   2.414   8.376 -0.3398 -0.0176  0.8621
 8572SOL    HW237179   0.150   2.345   8.375  0.9342  1.0086  1.1334
 8573SOL     OW37180   3.348   3.202  16.217  0.8806 -0.6623 -0.0696
 8573SOL    HW137181   3.264   3.158  16.206  0.3651 -0.6628  3.9227
 8573SOL    HW237182   3.411   3.147  16.263  3.5093  2.6150  0.2296
 8574SOL     OW37183   2.973   2.965   7.312  0.0361 -0.3933  0.0603
 8574SOL    HW137184   2.911   2.999   7.377  0.8085 -0.4361  0.8147
 8574SOL    HW237185   2.913   2.914   7.258 -0.5493  3.6582 -3.1474
 8575SOL     OW37186   3.621   4.108   8.166  0.2281  0.6996 -0.1679
 8575SOL    HW137187   3.633   4.075   8.077 -0.3726 -0.6959  0.2686
 8575SOL    HW237188   3.670   4.043   8.216 -1.2644  0.1896  0.6417
 8576SOL     OW37189   1.003   1.894  13.254 -0.2793  0.1374 -0.1120
 8576SOL    HW137190   0.940   1.846  13.308  0.0808 -1.7053 -1.3586
 8576SOL    HW237191   1.090   1.864  13.280 -0.4471 -0.3585 -0.1156
 8577SOL     OW37192   2.334   0.980  11.536  0.0424  0.4166  1.0743
 8577SOL    HW137193   2.393   0.949  11.605 -0.1163  0.9171  1.4366
 8577SOL    HW237194   2.283   1.051  11.575 -1.8655  1.4352 -3.2622
 8578SOL     OW37195   4.527   1.169   1.128  0.2873 -0.7998 -0.0380
 8578SOL    HW137196   4.573   1.220   1.062  0.6117  0.6944  1.3388
 8578SOL    HW237197   4.457   1.228   1.156 -0.3289 -1.4283 -0.2753
 8579SOL     OW37198   2.260   2.729   4.948 -0.2026 -0.0185  0.2045
 8579SOL    HW137199   2.212   2.722   4.866 -0.5429 -0.4536  0.4388
 8579SOL    HW237200   2.348   2.743   4.914  0.4070 -1.7766  1.0973
 8580SOL     OW37201   0.025   0.831  11.654  0.8622 -0.4581  0.1960
 8580SOL    HW137202   0.066   0.757  11.609  0.3795 -0.2121 -0.6355
 8580SOL    HW237203   0.049   0.805  11.743  0.3793  0.8086  0.6868
 8581SOL     OW37204   0.855   0.060   5.164 -0.2089  0.2191 -0.3784
 8581SOL    HW137205   0.797   0.118   5.115  1.4904  0.9714 -1.4605
 8581SOL    HW237206   0.917   0.024   5.102 -0.8613 -1.5872  0.0189
 8582SOL     OW37207   0.942   3.185   7.557 -0.5850  0.1286  0.4410
 8582SOL    HW137208   1.028   3.176   7.517 -0.8037 -1.1077  0.2350
 8582SOL    HW237209   0.912   3.094   7.565  1.2964 -0.7105 -2.2309
 8583SOL     OW37210   0.011   2.550  10.653  0.3404  0.0178  0.1270
 8583SOL    HW137211   4.709   2.492  10.725  0.2653  0.7489  0.6846
 8583SOL    HW237212   0.068   2.500  10.594  2.1067  0.4908  1.4369
 8584SOL     OW37213   2.572   3.277   6.480  0.1584  0.5761  0.5755
 8584SOL    HW137214   2.485   3.285   6.519  0.0425  1.7225  0.0969
 8584SOL    HW237215   2.590   3.354   6.426  1.0635  0.0082  0.0765
 8585SOL     OW37216   1.678   3.143   6.163  0.4276  0.0077  0.2526
 8585SOL    HW137217   1.657   3.051   6.146 -0.9611  0.4354 -0.4086
 8585SOL    HW237218   1.612   3.177   6.223  0.3006  1.2125 -0.5747
 8586SOL     OW37219   2.386   2.773  15.035 -0.0337  0.1005  0.2636
 8586SOL    HW137220   2.375   2.727  14.952 -0.6454  0.8952 -0.0984
 8586SOL    HW237221   2.443   2.848  15.017 -0.7857  0.7374  0.5292
 8587SOL     OW37222   3.184   0.160   0.000  0.2390  0.2929 -0.7520
 8587SOL    HW137223   3.240   0.233   0.027 -0.2081  0.5680 -0.5660
 8587SOL    HW237224   3.164   0.131   0.089 -1.1675  0.8935 -0.8865
 8588SOL     OW37225   1.812   3.258   9.438  0.5776 -0.7336 -0.5923
 8588SOL    HW137226   1.876   3.286   9.372  0.9013  1.5571  0.6671
 8588SOL    HW237227   1.735   3.314   9.430 -1.3898 -3.1965  1.3653
 8589SOL     OW37228   1.389   1.767   3.219  0.0569 -0.0630  0.4279
 8589SOL    HW137229   1.473   1.812   3.211  0.6327 -0.9431  1.3542
 8589SOL    HW237230   1.329   1.820   3.168 -0.0809 -0.5034  0.1344
 8590SOL     OW37231   1.905   3.503   4.937 -0.2000  0.2336  0.3232
 8590SOL    HW137232   1.898   3.530   4.846 -2.1770 -2.0890 -0.2080
 8590SOL    HW237233   1.987   3.544   4.966 -0.1211  1.5409 -1.7243
 8591SOL     OW37234   2.740   3.669   7.682  0.8332  0.3203 -0.2055
 8591SOL    HW137235   2.819   3.677   7.735  0.2544 -2.2472  1.0498
 8591SOL    HW237236   2.714   3.579   7.699  1.4702  0.5974  2.3086
 8592SOL     OW37237   4.721   1.966   3.544  0.4291  0.5132 -0.0308
 8592SOL    HW137238   4.725   1.928   3.456 -0.6913 -0.4572  0.3412
 8592SOL    HW237239   4.628   1.980   3.526  0.5140 -0.8626 -1.6049
 8593SOL     OW37240   2.517   0.617   2.743 -0.3656 -0.0961  0.0409
 8593SOL    HW137241   2.581   0.669   2.695 -1.0320  2.1375  1.5594
 8593SOL    HW237242   2.496   0.546   2.682  0.2958 -1.0402  0.9112
 8594SOL     OW37243   4.568   4.240  17.469  0.3522  0.4628 -0.2956
 8594SOL    HW137244   4.496   4.303  17.465 -0.1538 -0.2201 -2.4196
 8594SOL    HW237245   4.523   4.158  17.447  1.3727 -0.3607  0.6948
 8595SOL     OW37246   1.774   2.383   5.071  0.4628  0.4233 -0.0021
 8595SOL    HW137247   1.706   2.450   5.059 -0.3242 -0.3054  0.3951
 8595SOL    HW237248   1.723   2.305   5.093 -1.8917  2.1647  0.6866
 8596SOL     OW37249   0.642   1.029   0.473 -0.2675 -0.3565  0.0246
 8596SOL    HW137250   0.576   1.001   0.536 -0.3942 -3.3307 -1.4260
 8596SOL    HW237251   0.586   1.079   0.413  0.2419  2.6269  2.0243
 8597SOL     OW37252   3.598   0.877   8.662 -0.4269  0.4169  0.5195
 8597SOL    HW137253   3.604   0.842   8.751  2.2949 -0.5369 -0.0156
 8597SOL    HW237254   3.682   0.918   8.641 -0.5361  0.2283 -0.2815
 8598SOL     OW37255   1.064   2.891   7.733 -0.0070  0.0547 -0.0671
 8598SOL    HW137256   1.068   2.833   7.809  0.7643 -0.1698 -0.2817
 8598SOL    HW237257   1.150   2.931   7.744 -0.1172 -0.0704  1.1967
 8599SOL     OW37258   4.257   4.014   2.140 -0.1419  0.4638  0.0029
 8599SOL    HW137259   4.179   4.005   2.085 -0.0229  0.9964 -0.2531
 8599SOL    HW237260   4.228   3.960   2.214 -0.0401 -0.1396 -0.3933
 8600SOL     OW37261   0.561   3.667   3.918  0.3974 -0.2388 -0.0804
 8600SOL    HW137262   0.500   3.657   3.845 -1.5298  0.7531  1.3886
 8600SOL    HW237263   0.628   3.599   3.910  1.1929  0.5736 -0.3170
 8601SOL     OW37264   3.500   0.833   6.391 -0.1211 -0.2543 -0.5027
 8601SOL    HW137265   3.505   0.887   6.312 -3.4935 -0.5831 -0.9782
 8601SOL    HW237266   3.565   0.869   6.451 -1.0399 -0.6341  0.7255
 8602SOL     OW37267   3.520   4.364   8.214 -0.3404 -0.1284  0.3302
 8602SOL    HW137268   3.431   4.345   8.244  1.0614 -3.3014  2.5625
 8602SOL    HW237269   3.547   4.273   8.197  0.2236  0.0251  0.4031
 8603SOL     OW37270   2.064   1.667   3.827 -0.1480 -0.2609  0.4191
 8603SOL    HW137271   2.039   1.608   3.899 -0.7116  0.4317  0.7925
 8603SOL    HW237272   2.084   1.605   3.757 -1.0045 -0.2645  0.1777
 8604SOL     OW37273   0.152   1.374   1.968  0.0901  0.0041 -0.1395
 8604SOL    HW137274   0.075   1.332   1.930 -1.0214  0.3436  1.7321
 8604SOL    HW237275   0.223   1.343   1.912  0.7993  1.5588 -0.0929
 8605SOL     OW37276   2.487   1.291   3.319 -0.1935  0.0882 -0.6136
 8605SOL    HW137277   2.397   1.261   3.305 -0.0413  0.1423 -1.7621
 8605SOL    HW237278   2.528   1.207   3.297  0.6374  0.1838  0.6153
 8606SOL     OW37279   4.500   0.194  13.994  0.2071  0.1132 -0.0980
 8606SOL    HW137280   4.425   0.236  14.036  0.5543  1.7525 -1.1442
 8606SOL    HW237281   4.545   0.275  13.971 -0.0952  0.0088 -1.0277
 8607SOL     OW37282   3.894   2.189   8.671 -1.0683  1.0212  0.3812
 8607SOL    HW137283   3.844   2.254   8.622 -0.5532  2.7612  2.1752
 8607SOL    HW237284   3.855   2.189   8.758 -0.3479 -1.8664  0.7092
 8608SOL     OW37285   1.580   0.889  14.183 -0.0178 -0.1128 -0.9902
 8608SOL    HW137286   1.631   0.957  14.228  0.4670  0.2484 -2.0968
 8608SOL    HW237287   1.579   0.823  14.253 -0.6845 -1.2269 -2.0553
 8609SOL     OW37288   3.040   1.504   5.917 -0.0624 -0.1134 -0.2574
 8609SOL    HW137289   3.085   1.559   5.981  0.1779  0.8010 -1.2186
 8609SOL    HW237290   2.950   1.512   5.948 -0.0915 -1.1413 -0.0524
 8610SOL     OW37291   1.514   2.009   0.722  0.1657 -0.4437 -0.7223
 8610SOL    HW137292   1.604   2.037   0.712  0.3561  0.1344  2.6279
 8610SOL    HW237293   1.478   2.018   0.634  1.2139  2.2713 -0.8624
 8611SOL     OW37294   1.042   2.640   6.309 -0.5757  0.4463 -0.5246
 8611SOL    HW137295   0.950   2.646   6.333 -0.8762  0.3756 -1.6631
 8611SOL    HW237296   1.045   2.730   6.276  1.2738  0.6275  0.1641
 8612SOL     OW37297   1.969   0.564   3.298 -0.2046 -0.6290  0.7574
 8612SOL    HW137298   1.924   0.494   3.250 -0.4373 -0.0398  0.1086
 8612SOL    HW237299   2.022   0.518   3.363 -1.0909  1.2533  2.8126
 8613SOL     OW37300   0.514   3.530  10.642  0.1159 -0.0230  0.1097
 8613SOL    HW137301   0.419   3.519  10.650 -0.0760  1.3418 -0.3041
 8613SOL    HW237302   0.523   3.596  10.710  0.6378 -0.8163  0.8105
 8614SOL     OW37303   1.940   0.329  12.101  0.0356 -0.0199 -0.2119
 8614SOL    HW137304   2.032   0.304  12.102 -0.4496 -1.8889 -1.4721
 8614SOL    HW237305   1.938   0.389  12.175 -1.5356  1.2994 -1.3179
 8615SOL     OW37306   4.642   3.237  13.241  0.0235 -0.9726  0.2665
 8615SOL    HW137307   4.577   3.279  13.184  1.9952 -1.1132 -2.0984
 8615SOL    HW237308   4.611   3.286  13.317 -1.6248 -2.4740  0.5812
 8616SOL     OW37309   0.328   2.926   0.101 -0.2672 -0.6445  0.7275
 8616SOL    HW137310   0.249   2.946   0.051  1.2142  0.3689 -1.2149
 8616SOL    HW237311   0.346   3.003   0.155 -1.4580 -1.0033  1.6256
 8617SOL     OW37312   1.464   3.242   4.237 -0.1862  0.5352 -0.4606
 8617SOL    HW137313   1.401   3.273   4.302 -1.0050  2.0810 -1.9882
 8617SOL    HW237314   1.495   3.169   4.291  1.3645  2.5752  1.4280
 8618SOL     OW37315   4.344   1.231  15.505  0.1770  0.1585  0.0809
 8618SOL    HW137316   4.351   1.324  15.485 -1.1494  0.6315  1.7663
 8618SOL    HW237317   4.259   1.216  15.546  0.2474 -2.1511 -0.6101
 8619SOL     OW37318   0.905   1.626   0.038 -0.0426 -0.5989  0.7498
 8619SOL    HW137319   0.925   1.547  17.691 -0.4368 -0.3279  0.1484
 8619SOL    HW237320   0.813   1.616   0.063  0.3585 -3.2235  1.1417
 8620SOL     OW37321   0.559   3.406   9.041 -0.2059 -0.5794  0.1150
 8620SOL    HW137322   0.613   3.381   9.116 -1.7780  1.1717  1.8525
 8620SOL    HW237323   0.523   3.491   9.068  0.2582 -0.2988 -0.1504
 8621SOL     OW37324   0.030   0.067  15.451  0.1899  0.7629  0.3156
 8621SOL    HW137325   4.719   4.717  15.498 -1.3690  1.1414 -0.2927
 8621SOL    HW237326   0.031   0.133  15.520 -0.5581  0.8043  0.2864
 8622SOL     OW37327   1.834   1.617   4.032  0.7710  0.4586 -0.4879
 8622SOL    HW137328   1.803   1.604   4.122  1.2345  2.0276 -0.1105
 8622SOL    HW237329   1.761   1.578   3.986 -0.1095  1.6616 -0.0962
 8623SOL     OW37330   2.464   4.158   4.654  0.0409 -0.0905  0.0097
 8623SOL    HW137331   2.446   4.158   4.748  0.0305  1.0900  0.0109
 8623SOL    HW237332   2.525   4.232   4.655 -0.9516  0.7521 -1.1919
 8624SOL     OW37333   2.202   1.787   4.395 -0.5369  0.1501 -0.4523
 8624SOL    HW137334   2.218   1.735   4.473 -0.2741  0.1213 -0.5237
 8624SOL    HW237335   2.110   1.809   4.407 -0.2655  0.5156  0.9877
 8625SOL     OW37336   0.830   3.742   2.763 -0.1261  0.2747  0.9155
 8625SOL    HW137337   0.881   3.788   2.697 -1.3301  0.1307 -0.1078
 8625SOL    HW237338   0.848   3.800   2.837  3.7091  1.6252 -1.0666
 8626SOL     OW37339   4.384   4.405   7.179  0.1638  0.0496 -0.3547
 8626SOL    HW137340   4.337   4.478   7.139 -1.7801 -0.9347  0.1443
 8626SOL    HW237341   4.470   4.444   7.161 -0.7630  2.7323  1.0105
 8627SOL     OW37342   3.333   3.993   6.215  0.3809  0.1625 -0.4795
 8627SOL    HW137343   3.367   3.929   6.152 -1.2187  1.1253 -2.3321
 8627SOL    HW237344   3.246   3.954   6.226 -1.1654  3.0770 -2.6165
 8628SOL     OW37345   1.587   1.112   7.679 -0.1621  0.0112 -0.2433
 8628SOL    HW137346   1.645   1.039   7.659  0.6255  0.8485 -0.9891
 8628SOL    HW237347   1.519   1.102   7.612 -3.6253 -2.3113  3.6337
 8629SOL     OW37348   0.756   1.253   5.701  0.6848 -0.2336 -0.4706
 8629SOL    HW137349   0.674   1.203   5.699 -0.3328  1.4157 -0.1334
 8629SOL    HW237350   0.749   1.303   5.783 -0.3623 -1.0414 -0.0665
 8630SOL     OW37351   1.337   3.154   3.817 -0.0206  0.1657  0.1965
 8630SOL    HW137352   1.262   3.146   3.876 -1.4080  0.7889 -1.4705
 8630SOL    HW237353   1.352   3.060   3.804  0.7328  0.4234 -0.7657
 8631SOL     OW37354   4.717   1.619   4.186 -0.2932  0.1413 -0.2848
 8631SOL    HW137355   4.693   1.712   4.190  2.0154  0.6412  2.7244
 8631SOL    HW237356   0.086   1.633   4.193 -0.1378 -0.9982 -0.0654
 8632SOL     OW37357   0.796   3.979   0.978 -0.4793 -0.1575 -0.3473
 8632SOL    HW137358   0.849   3.975   1.058  0.6364  2.3690 -0.9605
 8632SOL    HW237359   0.859   3.973   0.906 -0.3093 -2.2922 -0.0153
 8633SOL     OW37360   0.417   0.787   7.262  0.4660 -0.1782 -0.0798
 8633SOL    HW137361   0.329   0.814   7.291  0.1766  0.2732 -1.3661
 8633SOL    HW237362   0.410   0.818   7.171 -0.9106 -1.8122 -0.5420
 8634SOL     OW37363   4.006   3.302   5.935 -0.2230 -0.7801 -0.3677
 8634SOL    HW137364   3.926   3.255   5.910 -1.2277  1.0054 -0.4956
 8634SOL    HW237365   4.049   3.245   5.999 -0.8626  0.8161  1.4771
 8635SOL     OW37366   4.113   2.725   9.246  0.3076 -0.2254 -0.0354
 8635SOL    HW137367   4.076   2.697   9.162 -0.0988  1.7479 -0.5091
 8635SOL    HW237368   4.091   2.661   9.314  0.5042  0.3381  0.5587
 8636SOL     OW37369   4.089   0.245   7.243 -0.0011 -0.2852 -0.1601
 8636SOL    HW137370   4.051   0.163   7.273  1.9545 -0.9116  0.6131
 8636SOL    HW237371   4.108   0.222   7.152 -1.5672  0.6078 -0.7101
 8637SOL     OW37372   0.659   3.880  13.601 -0.4380  0.3750  0.3936
 8637SOL    HW137373   0.735   3.833  13.566  0.7272  0.0619  3.3358
 8637SOL    HW237374   0.607   3.804  13.630  2.7043 -1.5009  1.1217
 8638SOL     OW37375   0.194   4.089   6.874 -0.4063  0.0586  0.5049
 8638SOL    HW137376   0.124   4.024   6.880 -0.1323 -0.4339 -1.5690
 8638SOL    HW237377   0.244   4.067   6.952 -0.2791  0.8079  0.6351
 8639SOL     OW37378   1.517   3.513   7.044  0.0339 -0.3122  0.4357
 8639SOL    HW137379   1.528   3.514   6.949  3.5143  2.0962  0.8551
 8639SOL    HW237380   1.439   3.459   7.044 -0.7648  0.8189 -3.3856
 8640SOL     OW37381   3.027   2.844   2.527  0.7531  0.3949 -0.6597
 8640SOL    HW137382   2.940   2.837   2.488  0.9348  1.5386 -1.2730
 8640SOL    HW237383   3.075   2.766   2.499 -0.3519 -1.3743  2.3264
 8641SOL     OW37384   3.257   2.417   9.660  0.3865  0.2900  0.4402
 8641SOL    HW137385   3.324   2.482   9.679 -0.3771  0.4735  2.5075
 8641SOL    HW237386   3.314   2.340   9.658  0.2331  0.1872 -0.0211
 8642SOL     OW37387   2.064   0.232   9.409 -0.2437  0.0143  0.9044
 8642SOL    HW137388   2.046   0.310   9.356  1.7777 -1.3341 -1.7684
 8642SOL    HW237389   1.997   0.247   9.475 -0.4600  2.3102  0.1730
 8643SOL     OW37390   0.414   3.735   3.184 -0.2584 -0.0878 -0.2070
 8643SOL    HW137391   0.366   3.817   3.170 -1.0488  0.0064  3.0011
 8643SOL    HW237392   0.497   3.764   3.146 -0.8120  1.3408 -0.3194
 8644SOL     OW37393   3.163   4.340   1.512  0.2948 -0.4545 -0.6139
 8644SOL    HW137394   3.099   4.308   1.448  0.4045  0.9866 -1.4546
 8644SOL    HW237395   3.215   4.259   1.507  0.2923 -0.4014 -1.4549
 8645SOL     OW37396   0.424   0.885  14.167  0.2688  0.0385 -0.1963
 8645SOL    HW137397   0.379   0.963  14.200 -2.4448 -0.8230 -1.8261
 8645SOL    HW237398   0.486   0.921  14.104  2.5883 -0.5185  1.7456
 8646SOL     OW37399   0.007   2.674   6.689 -0.1771 -0.1244 -0.3939
 8646SOL    HW137400   0.079   2.681   6.627  1.5933 -1.0759  1.5237
 8646SOL    HW237401   0.051   2.622   6.756  0.2613  2.7029  1.5342
 8647SOL     OW37402   2.085   0.504   8.070 -0.5655  0.5599  0.2284
 8647SOL    HW137403   2.098   0.417   8.031 -1.6338  0.1890  0.7065
 8647SOL    HW237404   2.042   0.492   8.154  0.8730  0.8373  1.0092
 8648SOL     OW37405   0.084   4.168   7.606 -0.0343  0.3990 -0.0101
 8648SOL    HW137406   0.074   4.200   7.516 -2.6521  0.3815  0.2596
 8648SOL    HW237407   0.045   4.238   7.660 -1.1353 -0.7591  0.6960
 8649SOL     OW37408   3.293   0.634  12.606 -0.1690  0.5401  0.2871
 8649SOL    HW137409   3.248   0.712  12.576  1.0831  0.9201 -0.6314
 8649SOL    HW237410   3.263   0.569  12.541  1.7046 -0.1115  0.0652
 8650SOL     OW37411   0.045   4.417  12.646 -0.3288 -0.1415  0.8105
 8650SOL    HW137412   0.098   4.457  12.577 -0.0278  0.9269  1.6494
 8650SOL    HW237413   0.044   4.323  12.627  2.2703  0.1351 -0.7144
 8651SOL     OW37414   1.013   3.887   5.815  0.1958 -0.5549  0.2051
 8651SOL    HW137415   0.930   3.885   5.768 -0.4831 -0.5582  1.3968
 8651SOL    HW237416   1.036   3.980   5.817  0.4448 -0.6489  1.8729
 8652SOL     OW37417   2.505   2.505   7.044 -0.5946 -0.0114 -0.4305
 8652SOL    HW137418   2.552   2.553   7.112 -1.2890 -0.9576  0.7212
 8652SOL    HW237419   2.498   2.422   7.092  0.9157 -0.3805 -0.8263
 8653SOL     OW37420   0.069   2.756   7.956 -0.5729  0.1696 -0.1889
 8653SOL    HW137421   0.082   2.662   7.948 -1.0487 -0.0747  2.0302
 8653SOL    HW237422   0.135   2.777   8.023 -0.2948  1.7178 -0.9388
 8654SOL     OW37423   4.556   0.765  16.762  0.3568  0.0207 -0.0544
 8654SOL    HW137424   4.558   0.859  16.780 -1.2210  0.2010 -0.7893
 8654SOL    HW237425   4.635   0.733  16.805 -1.2257 -1.3105  1.8486
 8655SOL     OW37426   4.702   2.631   2.802  0.0320 -0.4520  0.2640
 8655SOL    HW137427   4.673   2.542   2.819 -0.9490 -0.1931 -0.0644
 8655SOL    HW237428   0.035   2.604   2.732  0.6120 -0.6756  0.8260
 8656SOL     OW37429   2.517   2.920   2.168  0.7223 -0.4572 -0.3593
 8656SOL    HW137430   2.535   2.933   2.261 -0.9134 -1.1490  0.0556
 8656SOL    HW237431   2.582   2.852   2.149  0.4013 -0.7930 -0.2531
 8657SOL     OW37432   2.417   3.501  10.276  0.2066  0.4368  0.4490
 8657SOL    HW137433   2.346   3.438  10.289  0.5519  0.0695  0.5413
 8657SOL    HW237434   2.492   3.443  10.286  3.4653  4.3928 -1.2894
 8658SOL     OW37435   3.715   1.511   1.486  0.3817 -0.0032  0.0633
 8658SOL    HW137436   3.728   1.586   1.544 -2.4673 -0.4022  1.1995
 8658SOL    HW237437   3.807   1.504   1.460  1.3129 -0.0012  3.3420
 8659SOL     OW37438   0.500   1.506   6.157 -0.5136 -0.2978  0.6284
 8659SOL    HW137439   0.582   1.521   6.203  0.4925  0.0856 -1.2980
 8659SOL    HW237440   0.504   1.582   6.100  0.2604 -0.9960 -0.2366
 8660SOL     OW37441   0.796   1.239  13.465  0.1537  0.2838 -0.3492
 8660SOL    HW137442   0.838   1.299  13.527  4.0018  0.8580 -3.4700
 8660SOL    HW237443   0.766   1.303  13.399  0.7533 -0.5442 -1.4249
 8661SOL     OW37444   2.488   0.871   2.393 -0.4416 -0.3993  0.0994
 8661SOL    HW137445   2.446   0.795   2.351 -2.8017  0.1776  1.4112
 8661SOL    HW237446   2.549   0.828   2.453 -1.8487 -3.0776 -0.3428
 8662SOL     OW37447   0.661   4.667  12.404 -0.4771  0.2558 -0.1287
 8662SOL    HW137448   0.664   4.574  12.386 -1.2458  0.1005  0.5383
 8662SOL    HW237449   0.593   4.668  12.472  0.8502  0.0924  1.2120
 8663SOL     OW37450   3.880   0.981  17.164  1.1616  0.3144  0.1907
 8663SOL    HW137451   3.813   0.915  17.146 -0.0643  1.6879 -0.2402
 8663SOL    HW237452   3.893   1.014  17.076 -3.4046  0.6773 -0.3362
 8664SOL     OW37453   2.570   4.058  14.159  0.0667 -0.0281 -0.1797
 8664SOL    HW137454   2.558   4.003  14.082  0.9555  0.2102 -0.4846
 8664SOL    HW237455   2.657   4.027  14.186  1.3587  3.2417 -0.6095
 8665SOL     OW37456   4.493   0.950  10.416  0.4516  0.5592 -0.1734
 8665SOL    HW137457   4.540   0.886  10.470 -1.0528 -1.1816 -0.9269
 8665SOL    HW237458   4.488   0.900  10.335 -1.9718  0.8690 -0.2349
 8666SOL     OW37459   2.625   3.502   8.492  0.5457  0.4180  0.2512
 8666SOL    HW137460   2.683   3.453   8.551 -0.4329 -2.8411 -1.4867
 8666SOL    HW237461   2.678   3.491   8.412  0.5484  0.3948  0.2562
 8667SOL     OW37462   3.483   2.947   4.385  0.1707 -0.6085 -0.0049
 8667SOL    HW137463   3.559   2.999   4.413  0.3781  0.1957 -2.0228
 8667SOL    HW237464   3.503   2.922   4.295  3.0788  0.0894  0.4383
 8668SOL     OW37465   4.356   0.736  16.962  0.2051 -0.1821 -0.2955
 8668SOL    HW137466   4.421   0.802  16.986 -2.5432  1.9595  1.1713
 8668SOL    HW237467   4.410   0.688  16.899 -0.8471 -1.3009 -0.3387
 8669SOL     OW37468   4.539   0.346   9.023  0.3940  0.2649  0.4596
 8669SOL    HW137469   4.508   0.273   8.970 -2.6170  1.4036  0.6374
 8669SOL    HW237470   4.456   0.382   9.056  0.0698 -1.3547  1.4167
 8670SOL     OW37471   4.118   1.630   5.296 -0.3958  0.1452 -0.5351
 8670SOL    HW137472   4.055   1.695   5.328 -0.5502 -0.7423  0.9783
 8670SOL    HW237473   4.070   1.607   5.217 -0.8518  1.5984 -0.6892
 8671SOL     OW37474   4.047   1.643   7.674 -0.7616  0.2187 -0.0434
 8671SOL    HW137475   4.006   1.567   7.715  0.7474 -0.1974  0.6941
 8671SOL    HW237476   4.023   1.628   7.583 -3.7108  0.5711  0.6870
 8672SOL     OW37477   1.046   1.204  15.630 -0.0347 -0.1257 -0.7017
 8672SOL    HW137478   0.981   1.146  15.671  0.1142 -0.3546 -0.7873
 8672SOL    HW237479   1.003   1.289  15.630 -0.4012 -0.3177  0.0730
 8673SOL     OW37480   3.501   2.923   3.110 -0.3199 -0.6171 -0.6490
 8673SOL    HW137481   3.480   2.991   3.174  0.8115  0.8800 -1.8797
 8673SOL    HW237482   3.440   2.952   3.042  1.4100  0.5737 -1.6626
 8674SOL     OW37483   2.004   4.051  16.992  0.5279  0.3653  0.0880
 8674SOL    HW137484   1.976   4.110  16.921 -0.4865 -0.1889  0.0334
 8674SOL    HW237485   1.929   3.992  17.002  1.2600 -0.5505  0.0781
 8675SOL     OW37486   0.487   2.803   0.872 -0.2383  0.1629 -0.2301
 8675SOL    HW137487   0.479   2.709   0.857  1.1781 -0.2739  1.6995
 8675SOL    HW237488   0.497   2.804   0.968 -0.6012 -1.7309 -0.1746
 8676SOL     OW37489   4.672   0.002   2.164 -0.0709 -0.1215 -0.3910
 8676SOL    HW137490   4.602   0.028   2.225 -1.1618 -2.0512 -0.8394
 8676SOL    HW237491   0.029   4.717   2.212  0.4940  0.6448 -1.1877
 8677SOL     OW37492   1.170   2.225   0.019 -0.3355 -0.4160  0.4151
 8677SOL    HW137493   1.117   2.145   0.019 -0.9361 -0.0142 -0.8768
 8677SOL    HW237494   1.239   2.190  17.663 -0.9651 -0.2659 -0.4342
 8678SOL     OW37495   0.578   2.856  13.963  0.1932  0.2450 -0.1698
 8678SOL    HW137496   0.552   2.801  14.038 -0.6367  0.2207 -0.4742
 8678SOL    HW237497   0.583   2.941  14.005 -0.3278  0.2357 -0.0891
 8679SOL     OW37498   3.913   2.883   8.673 -0.5743 -0.3752 -0.3635
 8679SOL    HW137499   3.832   2.834   8.659 -2.1173  1.8673  0.6748
 8679SOL    HW237500   3.952   2.872   8.586  0.3422 -3.7491  0.4917
 8680SOL     OW37501   0.044   0.718   0.202  0.4202 -0.1719 -0.4058
 8680SOL    HW137502   0.078   0.646   0.254 -0.0181  0.5041  0.8004
 8680SOL    HW237503   0.072   0.791   0.258  0.2726  0.0808 -0.6600
 8681SOL     OW37504   0.183   1.265   0.914 -0.0631  0.0699  0.2810
 8681SOL    HW137505   0.259   1.324   0.915 -1.6608  2.1332  1.3106
 8681SOL    HW237506   0.217   1.177   0.897  0.7386  0.0249  2.0580
 8682SOL     OW37507   0.453   1.119   7.768 -0.9149  0.0971  0.4963
 8682SOL    HW137508   0.392   1.123   7.694 -1.6434 -1.9398  0.9804
 8682SOL    HW237509   0.421   1.037   7.807 -1.4821  0.6951  1.3114
 8683SOL     OW37510   2.355   0.663   6.262  0.0287  0.0761 -0.9099
 8683SOL    HW137511   2.320   0.671   6.351  0.1621 -4.0266 -0.4848
 8683SOL    HW237512   2.354   0.753   6.231  1.2693  0.2896 -0.2934
 8684SOL     OW37513   2.279   2.968  16.360  0.0564  0.2998  0.2161
 8684SOL    HW137514   2.234   3.034  16.308  0.6361 -0.0443 -0.7261
 8684SOL    HW237515   2.327   3.016  16.428  1.6548 -2.1360  0.8097
 8685SOL     OW37516   0.085   3.618  11.030 -0.0283  0.0533 -0.7707
 8685SOL    HW137517   0.013   3.679  11.047  0.9184  0.7607  0.7579
 8685SOL    HW237518   0.044   3.533  11.045 -0.2277  0.4690  1.0399
 8686SOL     OW37519   1.471   1.016   7.447  0.1614  0.1498  0.2918
 8686SOL    HW137520   1.408   0.970   7.391  0.1632 -1.2294  1.4212
 8686SOL    HW237521   1.533   0.947   7.471  1.2272  0.8054 -0.5727
 8687SOL     OW37522   2.992   2.753   4.860  0.5996  0.1277  0.0935
 8687SOL    HW137523   2.961   2.788   4.943  3.1153 -1.1008  1.5476
 8687SOL    HW237524   3.066   2.803   4.827  1.3638 -0.5264  0.8241
 8688SOL     OW37525   2.211   2.366  10.867 -0.4641  0.8600 -0.0408
 8688SOL    HW137526   2.130   2.333  10.831  0.0077  1.8267 -2.0198
 8688SOL    HW237527   2.215   2.453  10.826 -0.6756  0.0656 -1.7331
 8689SOL     OW37528   3.751   0.853   1.675 -0.5355 -0.6645  0.0956
 8689SOL    HW137529   3.688   0.906   1.627  0.0592  0.8921  1.0130
 8689SOL    HW237530   3.799   0.827   1.596  0.8020 -1.2322  1.1027
 8690SOL     OW37531   2.369   4.151  12.963 -0.1404 -0.0038 -0.1914
 8690SOL    HW137532   2.328   4.070  12.993  0.1144 -0.2705 -0.5592
 8690SOL    HW237533   2.302   4.215  12.988 -0.9399 -1.1659  0.6252
 8691SOL     OW37534   3.614   2.998   3.355 -0.3000  0.4336  0.3669
 8691SOL    HW137535   3.585   2.913   3.386 -2.5401  1.8591  2.2354
 8691SOL    HW237536   3.699   2.977   3.317 -0.4811  0.2665  0.0601
 8692SOL     OW37537   3.949   3.344   1.466 -0.3203 -0.1170 -0.3566
 8692SOL    HW137538   3.890   3.405   1.509  1.8550  0.0144  2.4329
 8692SOL    HW237539   3.904   3.336   1.382  0.4943 -0.8024 -0.7266
 8693SOL     OW37540   4.217   0.595   1.392 -0.4089  0.0244  0.3727
 8693SOL    HW137541   4.191   0.619   1.304  0.0452  2.2441  0.8610
 8693SOL    HW237542   4.264   0.670   1.428 -1.1076  0.4016  0.4794
 8694SOL     OW37543   1.093   3.006   3.490 -0.2125 -0.6953 -0.0589
 8694SOL    HW137544   1.184   3.037   3.486 -0.7184  0.8131  0.2747
 8694SOL    HW237545   1.041   3.078   3.455 -3.0629 -3.0552 -0.6114
 8695SOL     OW37546   4.084   3.889   7.560  0.0287  0.9615 -0.1594
 8695SOL    HW137547   4.065   3.938   7.480 -1.2271  0.9729  0.1444
 8695SOL    HW237548   4.178   3.876   7.567  0.3652  1.8476 -2.9888
 8696SOL     OW37549   2.220   2.187   7.038  0.5453  0.0517  0.2295
 8696SOL    HW137550   2.125   2.173   7.036  0.9518 -2.9646  1.4623
 8696SOL    HW237551   2.229   2.267   6.986 -1.8824 -0.9221 -1.7288
 8697SOL     OW37552   0.755   3.741   7.670 -0.1524 -1.0363 -0.5688
 8697SOL    HW137553   0.724   3.765   7.758 -0.8239  1.0280 -1.3706
 8697SOL    HW237554   0.730   3.648   7.669 -2.2024 -0.4415 -3.7333
 8698SOL     OW37555   3.568   0.974   2.822 -0.5382  0.0317 -0.0160
 8698SOL    HW137556   3.522   0.954   2.740 -1.7405  2.0682  0.1683
 8698SOL    HW237557   3.653   0.994   2.783 -1.1789 -1.2573 -2.0525
 8699SOL     OW37558   0.944   3.253  16.190  0.0302 -0.6944  0.0526
 8699SOL    HW137559   0.992   3.333  16.169  0.3798  0.0055  3.5017
 8699SOL    HW237560   0.867   3.291  16.232  0.5154 -1.8749  1.9886
 8700SOL     OW37561   0.465   3.772   3.446 -0.0451 -0.1774  0.0251
 8700SOL    HW137562   0.477   3.725   3.364  1.7369 -1.0582  0.7909
 8700SOL    HW237563   0.373   3.798   3.446  0.0804  0.3263  3.1929
 8701SOL     OW37564   2.926   0.904   7.709  0.3065  0.0355  0.1194
 8701SOL    HW137565   2.930   0.983   7.655 -0.4457 -0.2621 -0.3802
 8701SOL    HW237566   2.918   0.835   7.644 -2.2159  0.2456  0.2052
 8702SOL     OW37567   2.496   3.650   3.125  0.0127  0.6659  0.2101
 8702SOL    HW137568   2.449   3.578   3.166  1.4079 -1.0969 -1.2855
 8702SOL    HW237569   2.464   3.721   3.182 -2.3553 -1.3198  1.3528
 8703SOL     OW37570   2.409   2.319  14.701  0.1463 -1.4283 -0.8762
 8703SOL    HW137571   2.437   2.228  14.693  1.8379 -0.9842  0.1291
 8703SOL    HW237572   2.446   2.351  14.783  2.6026 -0.5475 -2.3202
 8704SOL     OW37573   3.113   1.144   7.354  0.4539 -0.4232  0.1471
 8704SOL    HW137574   3.057   1.079   7.312  2.6365 -2.4136  0.3543
 8704SOL    HW237575   3.200   1.105   7.346  0.3175 -0.6679 -0.1570
 8705SOL     OW37576   1.267   2.053   8.264  0.9420 -0.3706 -0.0619
 8705SOL    HW137577   1.350   2.085   8.301  0.2151  0.0820  1.1579
 8705SOL    HW237578   1.290   1.961   8.252 -1.5722 -1.4441  3.5341
 8706SOL     OW37579   4.434   4.231   0.787  0.7534  0.2719 -0.0276
 8706SOL    HW137580   4.389   4.200   0.865  0.8752 -2.9463 -1.2106
 8706SOL    HW237581   4.517   4.254   0.829  0.4942  1.3333 -0.1134
 8707SOL     OW37582   0.108   1.280  15.940 -0.0336  0.8767  0.0766
 8707SOL    HW137583   0.099   1.242  16.028 -0.8675 -0.7301 -0.7130
 8707SOL    HW237584   0.185   1.335  15.953  0.3884  0.3125  0.0059
 8708SOL     OW37585   2.912   4.048   1.876 -0.4801  0.0322  0.1707
 8708SOL    HW137586   2.820   4.034   1.853 -0.2960  0.1097 -0.6277
 8708SOL    HW237587   2.936   3.967   1.921  0.7422  0.3718  0.1362
 8709SOL     OW37588   2.924   3.042   3.880 -0.0542 -0.1685 -0.0762
 8709SOL    HW137589   2.912   2.981   3.953  0.6292  0.3801  0.4923
 8709SOL    HW237590   2.869   3.115   3.906 -1.4169 -1.9078  1.8939
 8710SOL     OW37591   3.110   3.141  14.692  0.9433  0.4299 -0.7100
 8710SOL    HW137592   3.161   3.061  14.706  0.6629  0.3337 -0.2428
 8710SOL    HW237593   3.024   3.104  14.709  2.0633 -1.2687  1.2816
 8711SOL     OW37594   3.465   4.407   4.651  0.0051  0.5600 -0.1867
 8711SOL    HW137595   3.534   4.470   4.669  1.1861 -0.7643 -0.0575
 8711SOL    HW237596   3.466   4.424   4.557  0.6112  2.9522  0.2552
 8712SOL     OW37597   1.692   3.472   3.395  0.0421  0.0192 -0.8564
 8712SOL    HW137598   1.786   3.455   3.388  0.1261 -0.3390  1.0875
 8712SOL    HW237599   1.687   3.555   3.347 -0.6110  1.4679  1.7350
 8713SOL     OW37600   3.887   1.570   5.726  0.0643  0.2950  0.4988
 8713SOL    HW137601   3.952   1.503   5.704 -0.3161 -0.3182  1.2179
 8713SOL    HW237602   3.929   1.645   5.683 -0.0739 -0.1326 -0.3761
 8714SOL     OW37603   0.396   3.031   5.714 -0.0985 -0.0114  0.2547
 8714SOL    HW137604   0.324   3.067   5.766  1.7915  2.2644  1.3316
 8714SOL    HW237605   0.366   2.941   5.708 -0.3589  0.0797  0.1883
 8715SOL     OW37606   1.074   2.979   6.976 -0.1116 -0.0837  0.0676
 8715SOL    HW137607   1.071   3.069   7.008  0.7917 -0.2996  0.7587
 8715SOL    HW237608   1.095   2.932   7.057  2.6331  1.8862  0.4880
 8716SOL     OW37609   1.060   1.424   6.502  0.6743 -0.0620  0.2765
 8716SOL    HW137610   1.016   1.351   6.458 -0.1395  0.8731 -0.4397
 8716SOL    HW237611   1.015   1.496   6.460  0.7748  0.5719  1.2583
 8717SOL     OW37612   1.094   4.407   7.399 -0.4469  0.1921 -0.2156
 8717SOL    HW137613   1.060   4.327   7.358 -3.3759  1.7602 -0.8489
 8717SOL    HW237614   1.129   4.371   7.480  1.0681  3.6498  0.6474
 8718SOL     OW37615   1.063   1.284  16.492  0.2189  0.4453 -0.0198
 8718SOL    HW137616   1.032   1.302  16.403  1.0547  0.7288 -0.2565
 8718SOL    HW237617   1.029   1.194  16.489 -0.7816  0.8562 -1.4358
 8719SOL     OW37618   3.662   0.385   6.121  0.7342  0.1549 -0.2057
 8719SOL    HW137619   3.593   0.394   6.054  0.3751  0.8140  0.2497
 8719SOL    HW237620   3.663   0.473   6.159 -0.3931  0.8549 -1.7936
 8720SOL     OW37621   0.941   1.821   1.235  0.4577 -0.2167 -0.5966
 8720SOL    HW137622   1.034   1.807   1.218  0.5815 -0.1327  0.0180
 8720SOL    HW237623   0.924   1.905   1.192  1.4352 -0.1216 -0.7831
 8721SOL     OW37624   3.608   3.982   4.185  0.0032  0.1853  0.1304
 8721SOL    HW137625   3.572   3.997   4.097  1.0398  1.6461 -0.0308
 8721SOL    HW237626   3.685   3.926   4.176  1.1069  1.5223  1.4291
 8722SOL     OW37627   1.972   0.876   1.669 -0.1730  0.0948 -0.0890
 8722SOL    HW137628   2.022   0.821   1.608 -0.4967  0.2249 -0.4667
 8722SOL    HW237629   2.045   0.924   1.709 -0.9010  0.7808  0.4194
 8723SOL     OW37630   4.012   3.721   7.324 -0.1891 -0.5804  0.2364
 8723SOL    HW137631   4.032   3.737   7.416 -0.9630  1.4152  0.0523
 8723SOL    HW237632   3.985   3.629   7.335 -0.2537 -0.6406 -0.4001
 8724SOL     OW37633   2.919   4.462   6.266 -0.2531  0.1685  0.0199
 8724SOL    HW137634   2.884   4.496   6.183 -1.3672 -1.4732 -0.1816
 8724SOL    HW237635   3.004   4.431   6.233 -0.6517  0.8266 -1.6147
 8725SOL     OW37636   2.549   2.038   9.557 -0.2781  1.0806  0.2748
 8725SOL    HW137637   2.513   2.021   9.644  1.7158  3.2803  1.5518
 8725SOL    HW237638   2.581   1.948   9.549  0.3625  1.4398 -1.2296
 8726SOL     OW37639   4.544   3.409   8.018 -0.3007 -0.9677 -0.7489
 8726SOL    HW137640   4.527   3.317   8.039 -1.0203 -0.6766 -0.0426
 8726SOL    HW237641   4.529   3.463   8.096  0.0138 -2.0781  0.0777
 8727SOL     OW37642   4.372   2.774   6.015  0.7573 -0.1450 -0.3293
 8727SOL    HW137643   4.433   2.713   5.973  1.2516  0.6499 -0.7706
 8727SOL    HW237644   4.438   2.815   6.070  0.4156  1.0259 -0.7840
 8728SOL     OW37645   0.476   0.253   8.931 -0.5663 -0.1628 -0.4006
 8728SOL    HW137646   0.394   0.243   8.883 -1.7318  1.3215  1.3094
 8728SOL    HW237647   0.523   0.172   8.912 -0.5999 -0.0183 -1.1345
 8729SOL     OW37648   0.458   1.485   5.851  0.1991  0.5820  0.4536
 8729SOL    HW137649   0.411   1.426   5.911 -0.0158  2.1654  1.8553
 8729SOL    HW237650   0.431   1.570   5.887 -1.1214  0.3685 -0.0521
 8730SOL     OW37651   2.458   0.080   7.830  0.2406 -0.3240  0.1342
 8730SOL    HW137652   2.527   0.143   7.847  1.1683 -1.2714 -0.1614
 8730SOL    HW237653   2.435   0.056   7.920  0.3683 -1.0031 -0.0158
 8731SOL     OW37654   0.098   4.562   4.515  0.1522 -0.4847 -0.5456
 8731SOL    HW137655   0.101   4.562   4.420 -1.1237  1.1518 -0.5931
 8731SOL    HW237656   0.026   4.499   4.523  1.1045 -1.2322  2.1153
 8732SOL     OW37657   3.275   4.696   5.827 -0.0090 -0.0595  0.1034
 8732SOL    HW137658   3.313   0.012   5.750  0.4719 -0.9950 -0.1530
 8732SOL    HW237659   3.260   4.609   5.789  1.0294  1.8002 -4.5014
 8733SOL     OW37660   0.771   2.279   0.207 -0.2651  0.0091  0.2893
 8733SOL    HW137661   0.790   2.364   0.168  1.9132 -1.2137 -1.2838
 8733SOL    HW237662   0.796   2.217   0.139 -1.6597  0.4051 -0.5703
 8734SOL     OW37663   2.536   0.935   9.431  0.4406 -0.7822 -0.3837
 8734SOL    HW137664   2.450   0.915   9.469 -0.3812  0.9665 -1.3312
 8734SOL    HW237665   2.511   0.910   9.342 -0.7413 -0.7356 -0.0685
 8735SOL     OW37666   0.642   2.223   5.171 -0.3011  0.9617  0.0885
 8735SOL    HW137667   0.727   2.227   5.126 -1.4644  2.6036 -1.9642
 8735SOL    HW237668   0.665   2.230   5.263  1.5704  0.5291 -0.3377
 8736SOL     OW37669   0.800   1.351   3.259  0.5312  0.0205  0.4288
 8736SOL    HW137670   0.846   1.295   3.322 -0.2559  0.1048  1.0842
 8736SOL    HW237671   0.867   1.400   3.212  1.0532  0.1175  1.2582
 8737SOL     OW37672   4.069   0.900   7.619  0.8104 -0.4399  0.2411
 8737SOL    HW137673   4.069   0.924   7.712  1.8464 -0.1437  0.1642
 8737SOL    HW237674   3.975   0.903   7.601  1.1178  1.7560 -1.0391
 8738SOL     OW37675   2.171   1.437   4.054  0.2743 -0.6224  0.5175
 8738SOL    HW137676   2.180   1.397   4.140  1.9607  2.5764  1.8287
 8738SOL    HW237677   2.144   1.356   4.012 -0.7513  0.2682 -0.5694
 8739SOL     OW37678   4.476   1.568   4.094 -0.1332 -0.4353  0.0954
 8739SOL    HW137679   4.567   1.579   4.121 -0.2355  1.2233 -0.2089
 8739SOL    HW237680   4.478   1.558   3.999 -0.6811 -0.3979  0.0801
 8740SOL     OW37681   3.486   4.616   8.093 -0.4050  0.3493 -0.0320
 8740SOL    HW137682   3.500   4.535   8.142 -0.2600 -0.1007 -0.8246
 8740SOL    HW237683   3.502   4.683   8.159  0.8749  2.0002 -2.0216
 8741SOL     OW37684   0.495   0.299   0.702 -0.3035 -0.3667 -0.1174
 8741SOL    HW137685   0.566   0.342   0.654  0.9411  0.3129  2.3041
 8741SOL    HW237686   0.429   0.366   0.689  1.4922  1.3972 -0.2596
 8742SOL     OW37687   2.655   3.000   3.714 -0.1104  0.3681 -0.1911
 8742SOL    HW137688   2.735   2.965   3.752  0.0912  0.3520 -0.6269
 8742SOL    HW237689   2.680   3.004   3.622 -1.8721  2.8143 -0.5802
 8743SOL     OW37690   3.138   2.497   6.414  0.2463  0.2122  0.5033
 8743SOL    HW137691   3.203   2.565   6.431  3.9181 -2.8710 -1.2846
 8743SOL    HW237692   3.112   2.463   6.500 -0.7035  0.1563  0.1938
 8744SOL     OW37693   2.630   1.391   3.095 -0.6062 -0.1055  0.1461
 8744SOL    HW137694   2.595   1.480   3.092  0.4325  0.4609  4.4748
 8744SOL    HW237695   2.584   1.348   3.168  0.6642  0.4494  1.2826
 8745SOL     OW37696   3.557   2.628   4.082 -0.3813 -0.1675 -0.5137
 8745SOL    HW137697   3.546   2.557   4.145 -0.9837  0.2539 -0.1445
 8745SOL    HW237698   3.462   2.635   4.075 -0.5424 -0.5660  1.2724
 8746SOL     OW37699   2.444   1.490   2.774 -0.0219 -0.3716  0.3176
 8746SOL    HW137700   2.536   1.514   2.780  0.3317 -1.3943 -0.8364
 8746SOL    HW237701   2.416   1.512   2.863 -1.3351  0.8058 -0.3797
 8747SOL     OW37702   0.466   4.172   2.345 -0.7312  0.0680 -0.8251
 8747SOL    HW137703   0.412   4.100   2.309  1.8260 -1.3744 -1.7907
 8747SOL    HW237704   0.396   4.214   2.394  0.0806  0.3559  0.0669
 8748SOL     OW37705   3.482   3.275  15.365 -0.2091  0.3598 -0.5038
 8748SOL    HW137706   3.485   3.324  15.282 -1.2338  0.3769 -0.5265
 8748SOL    HW237707   3.562   3.300  15.410 -0.8064 -1.4581  1.6016
 8749SOL     OW37708   2.243   3.608   5.458 -0.0486 -0.3326 -0.3528
 8749SOL    HW137709   2.255   3.586   5.366  0.8343  0.9927 -0.5534
 8749SOL    HW237710   2.334   3.593   5.486  0.1621  0.0638 -0.8399
 8750SOL     OW37711   3.690   0.585   2.818 -0.3413 -0.0750 -0.0559
 8750SOL    HW137712   3.764   0.630   2.858  0.6969 -2.1059  0.3075
 8750SOL    HW237713   3.731   0.547   2.740 -2.2786 -1.9002 -0.1699
 8751SOL     OW37714   0.294   1.952   8.790 -0.0156 -0.0811 -0.3536
 8751SOL    HW137715   0.320   1.992   8.706  2.2251 -1.3034 -0.2467
 8751SOL    HW237716   0.359   1.885   8.810  0.8451  0.3943 -1.4956
 8752SOL     OW37717   0.798   1.273   3.931  0.2427 -0.1923 -0.6456
 8752SOL    HW137718   0.786   1.231   4.016  0.4377  0.1159 -0.4679
 8752SOL    HW237719   0.869   1.332   3.956  1.2172 -1.7761  0.3358
 8753SOL     OW37720   2.910   0.963   1.728  0.0463  0.3755 -0.2025
 8753SOL    HW137721   2.938   0.976   1.638 -1.0976  1.6856 -0.3741
 8753SOL    HW237722   2.990   0.926   1.765  1.6747  1.9358 -2.2167
 8754SOL     OW37723   1.118   1.719   5.821 -0.2927 -0.3091 -0.8439
 8754SOL    HW137724   1.121   1.814   5.807  1.6782 -0.4291 -1.2268
 8754SOL    HW237725   1.026   1.695   5.810  0.0681 -2.6588  1.3266
 8755SOL     OW37726   2.412   3.349   5.718  0.2782  0.7504 -0.4562
 8755SOL    HW137727   2.431   3.433   5.760  1.5271  0.8587 -1.2324
 8755SOL    HW237728   2.483   3.334   5.655  0.6215  1.2213 -0.1799
 8756SOL     OW37729   2.121   1.826   5.525  0.3717  0.6259  0.3366
 8756SOL    HW137730   2.216   1.834   5.528  0.3554  1.3323 -1.1802
 8756SOL    HW237731   2.116   1.789   5.437  1.5576  1.4823 -0.0794
 8757SOL     OW37732   2.680   0.379   4.802 -0.5947  0.1782  0.6129
 8757SOL    HW137733   2.622   0.455   4.799 -1.6789 -0.7088 -1.1454
 8757SOL    HW237734   2.650   0.337   4.883  2.2998  2.3180  2.7735
 8758SOL     OW37735   2.639   4.545   2.724 -0.4807 -0.4056 -0.1599
 8758SOL    HW137736   2.723   4.508   2.750  0.5941  3.2872  1.5846
 8758SOL    HW237737   2.635   4.520   2.631  2.2259 -2.8891  0.3844
 8759SOL     OW37738   0.096   4.476   6.620  0.0282 -0.2241 -0.0337
 8759SOL    HW137739   0.091   4.392   6.574 -1.1922  1.0933 -2.3063
 8759SOL    HW237740   0.086   4.536   6.546 -0.9398 -2.5331 -1.7735
 8760SOL     OW37741   2.899   2.033  14.609  0.0594 -0.4401 -0.2662
 8760SOL    HW137742   2.983   2.065  14.642 -1.5590  1.0612  2.3983
 8760SOL    HW237743   2.876   2.090  14.536 -0.3080 -0.5775 -0.2565
 8761SOL     OW37744   0.817   0.523   6.094 -0.4741  0.3244  0.0447
 8761SOL    HW137745   0.841   0.457   6.158 -1.9411  0.0347  0.3019
 8761SOL    HW237746   0.736   0.553   6.136 -2.8977 -0.3988 -4.1098
 8762SOL     OW37747   1.123   3.337   5.212  0.3229 -0.1218 -0.5031
 8762SOL    HW137748   1.046   3.369   5.259  0.9723  0.7442 -0.0446
 8762SOL    HW237749   1.120   3.242   5.224 -0.6496 -0.1263 -0.7483
 8763SOL     OW37750   2.897   4.473   0.525  0.4893 -0.0864  0.1848
 8763SOL    HW137751   2.921   4.408   0.459 -0.9714 -2.7394  2.2553
 8763SOL    HW237752   2.820   4.506   0.478  1.1368 -0.3185 -1.0351
 8764SOL     OW37753   3.665   2.731   8.647  0.3200 -0.5784  0.0389
 8764SOL    HW137754   3.599   2.667   8.671 -0.2096 -0.3778 -0.8714
 8764SOL    HW237755   3.688   2.715   8.555 -0.0030 -0.5429 -0.0464
 8765SOL     OW37756   1.930   3.073   8.257 -0.4068  0.3204  0.5878
 8765SOL    HW137757   1.916   3.118   8.340  0.6117  0.8473  0.4757
 8765SOL    HW237758   1.966   2.991   8.289  2.4899  0.5718 -1.9630
 8766SOL     OW37759   0.716   3.578   5.330 -0.3003 -0.4859 -0.0647
 8766SOL    HW137760   0.674   3.576   5.416 -0.4830 -1.9267 -0.1950
 8766SOL    HW237761   0.674   3.657   5.296  0.5170  0.0935  0.2753
 8767SOL     OW37762   1.689   3.760   5.337  0.1989 -0.3896 -0.0725
 8767SOL    HW137763   1.685   3.700   5.263  0.1591 -0.9169  0.3578
 8767SOL    HW237764   1.713   3.714   5.418 -4.0444  2.3405  2.7581
 8768SOL     OW37765   0.368   1.784   7.870 -0.4412  0.2864 -0.2027
 8768SOL    HW137766   0.459   1.754   7.870 -1.4224 -2.7696 -1.6288
 8768SOL    HW237767   0.369   1.834   7.952 -0.7263 -1.0516  0.6321
 8769SOL     OW37768   3.995   1.310   6.482 -0.0689 -0.4070 -0.6966
 8769SOL    HW137769   4.004   1.314   6.578  1.9641 -1.6768 -0.8297
 8769SOL    HW237770   3.931   1.378   6.463  0.2099 -0.0757 -0.4525
 8770SOL     OW37771   3.089   3.759   4.081 -0.1593 -0.8413 -0.5081
 8770SOL    HW137772   3.096   3.749   3.986 -0.1858  0.9859 -0.6974
 8770SOL    HW237773   3.080   3.854   4.091  1.2803 -0.8552  0.8100
 8771SOL     OW37774   0.036   1.095   8.257  0.2910 -0.1256 -0.1915
 8771SOL    HW137775   0.112   1.087   8.200 -0.6318 -0.1578 -1.4372
 8771SOL    HW237776   0.020   1.186   8.279 -0.0186  0.8924 -4.6823
 8772SOL     OW37777   4.498   0.139   7.251  0.4050  0.6046  0.6551
 8772SOL    HW137778   4.473   0.097   7.334  0.4933 -2.0060 -0.6370
 8772SOL    HW237779   4.593   0.126   7.247  0.4710  0.7552  1.6325
 8773SOL     OW37780   2.952   2.295   7.513  0.1653  0.3518 -0.0766
 8773SOL    HW137781   2.925   2.204   7.527  0.4829 -0.0268 -1.9892
 8773SOL    HW237782   2.891   2.331   7.448 -0.2280 -1.1794 -0.5481
 8774SOL     OW37783   4.629   1.019   7.242  0.5442  0.3870 -0.3365
 8774SOL    HW137784   4.576   0.959   7.294  0.2126  2.2224  1.4251
 8774SOL    HW237785   4.570   1.079   7.195 -0.2771  1.1057  1.6072
 8775SOL     OW37786   2.184   3.855  11.459  0.7192  0.3237 -0.3700
 8775SOL    HW137787   2.157   3.878  11.370 -3.6217  0.6325  1.0163
 8775SOL    HW237788   2.102   3.833  11.503  1.9269 -0.8428  1.2878
 8776SOL     OW37789   2.975   3.252   7.696  0.6270 -0.0063  0.0265
 8776SOL    HW137790   2.913   3.180   7.685  1.4669 -1.2154  3.1890
 8776SOL    HW237791   3.010   3.254   7.607  0.1936  0.2156 -0.1410
 8777SOL     OW37792   0.660   0.499   5.078 -0.2477 -0.0125  0.2841
 8777SOL    HW137793   0.661   0.491   5.173 -0.3697 -0.1915  0.2699
 8777SOL    HW237794   0.689   0.590   5.069  1.4104 -0.6423 -0.7395
 8778SOL     OW37795   2.482   2.924   6.749  0.2672  0.1506 -0.1046
 8778SOL    HW137796   2.501   2.840   6.707  0.4736 -0.0662  0.4311
 8778SOL    HW237797   2.395   2.907   6.785  1.4523  0.1294  2.6973
 8779SOL     OW37798   0.850   1.267   7.880 -0.7600 -0.4978  0.2146
 8779SOL    HW137799   0.821   1.254   7.789  0.2432  0.1873 -0.2008
 8779SOL    HW237800   0.862   1.361   7.872  0.6238 -0.8189 -1.6743
 8780SOL     OW37801   0.874   0.715   5.913 -0.6336  0.7474 -0.7572
 8780SOL    HW137802   0.870   0.628   5.953 -1.3932  1.1145 -0.0301
 8780SOL    HW237803   0.780   0.733   5.916 -0.7112  0.2269 -0.1676
 8781SOL     OW37804   4.299   3.411   2.532 -0.5274  0.3558 -0.6146
 8781SOL    HW137805   4.224   3.420   2.473 -0.4635  0.4454 -0.6832
 8781SOL    HW237806   4.377   3.420   2.477  0.3934 -0.2380  0.5846
 8782SOL     OW37807   4.208   4.276  14.531 -0.3456 -0.4263 -0.1827
 8782SOL    HW137808   4.284   4.326  14.502 -0.1411  0.3971  1.7585
 8782SOL    HW237809   4.235   4.254  14.620 -0.4938 -2.5286 -0.6516
 8783SOL     OW37810   3.364   4.440   6.059 -0.3084 -0.1390  0.1425
 8783SOL    HW137811   3.378   4.380   6.133 -1.0827 -0.8718 -0.3049
 8783SOL    HW237812   3.435   4.413   6.000  0.2063 -0.5441  0.9440
 8784SOL     OW37813   0.611   2.999   4.781 -0.0608  0.1090 -0.4765
 8784SOL    HW137814   0.538   3.039   4.829 -1.2947 -0.1051 -2.2084
 8784SOL    HW237815   0.583   2.909   4.762 -0.6249  0.6572 -2.1530
 8785SOL     OW37816   2.592   1.615   6.379  0.7766  0.3945  0.3354
 8785SOL    HW137817   2.619   1.681   6.442  2.8265 -0.2449  0.1286
 8785SOL    HW237818   2.503   1.637   6.351  0.6479  1.2858  1.4411
 8786SOL     OW37819   1.723   4.641  11.662  0.5156 -0.4502  0.2135
 8786SOL    HW137820   1.672   4.600  11.592  2.0010 -0.8344 -0.6552
 8786SOL    HW237821   1.806   4.595  11.650  0.0047 -1.4677  0.5540
 8787SOL     OW37822   4.104   2.793  10.490 -0.0321 -0.3844 -1.0143
 8787SOL    HW137823   4.196   2.766  10.484  0.5622  2.0165 -2.7244
 8787SOL    HW237824   4.090   2.830  10.403  1.0878  0.4867 -0.8288
 8788SOL     OW37825   1.502   3.284   3.385  0.3534 -0.2228  0.1995
 8788SOL    HW137826   1.563   3.347   3.423 -0.4493 -1.0750  2.8592
 8788SOL    HW237827   1.474   3.333   3.307 -0.7522 -1.8490 -0.4207
 8789SOL     OW37828   1.560   0.277   7.500 -0.4022 -0.2008  0.1875
 8789SOL    HW137829   1.518   0.237   7.576  1.1404  0.2230  1.2621
 8789SOL    HW237830   1.541   0.371   7.505  1.6747  0.4168 -3.2486
 8790SOL     OW37831   0.850   2.548   5.428  0.7931 -0.0829 -0.4515
 8790SOL    HW137832   0.874   2.640   5.438  0.7413 -0.2021  0.7893
 8790SOL    HW237833   0.861   2.543   5.333  1.5565 -0.2662 -0.3554
 8791SOL     OW37834   2.879   3.214   0.421 -0.3176  0.5357  0.1428
 8791SOL    HW137835   2.974   3.213   0.411 -0.3118  1.2176  0.1209
 8791SOL    HW237836   2.877   3.244   0.512 -1.6466 -0.0238  0.3051
 8792SOL     OW37837   3.771   1.581   6.693  0.7085 -0.1763 -0.4027
 8792SOL    HW137838   3.830   1.582   6.617 -0.6700  2.0043 -1.4446
 8792SOL    HW237839   3.757   1.675   6.702  1.0937 -0.0775 -0.8164
 8793SOL     OW37840   1.109   0.535   4.766  0.5320 -0.4025  0.1293
 8793SOL    HW137841   1.171   0.549   4.694  1.1935 -0.1226  0.7531
 8793SOL    HW237842   1.110   0.439   4.766 -0.3657 -0.4049 -0.8900
 8794SOL     OW37843   0.982   3.189  13.494 -0.3860  0.6081  0.0967
 8794SOL    HW137844   0.906   3.242  13.519 -0.4614 -0.1090  1.3642
 8794SOL    HW237845   0.944   3.146  13.418 -0.4270  1.1910 -0.2120
 8795SOL     OW37846   0.300   1.054   5.840 -0.2592 -0.4258  0.1436
 8795SOL    HW137847   0.214   1.068   5.801 -0.0293  0.1911 -0.1390
 8795SOL    HW237848   0.294   1.122   5.908  0.9570 -1.0774  0.9116
 8796SOL     OW37849   2.449   3.028   3.904 -0.0917  0.3491 -0.2022
 8796SOL    HW137850   2.362   3.053   3.871 -0.9571 -1.6643  0.5544
 8796SOL    HW237851   2.511   3.040   3.833 -0.2478  0.4279 -0.3249
 8797SOL     OW37852   0.690   4.064   1.246  0.3608  0.5028 -0.0336
 8797SOL    HW137853   0.686   4.148   1.292 -1.7127  0.9492 -1.0336
 8797SOL    HW237854   0.783   4.060   1.226  0.0023 -1.3878 -1.2596
 8798SOL     OW37855   2.726   0.291   6.954  0.1205 -0.1682 -0.3268
 8798SOL    HW137856   2.773   0.295   6.871 -0.9643  1.0934 -0.8778
 8798SOL    HW237857   2.667   0.366   6.948  0.8455  0.3455 -1.0901
 8799SOL     OW37858   3.867   0.138  13.292  0.3318 -0.0460  0.0235
 8799SOL    HW137859   3.891   0.167  13.204 -0.1721 -0.7491 -0.3487
 8799SOL    HW237860   3.865   0.220  13.340  0.2631 -0.1121  0.1348
 8800SOL     OW37861   2.947   1.645  17.069  0.2783  0.0405  0.3321
 8800SOL    HW137862   2.909   1.702  17.003  2.3388 -0.8085 -1.5861
 8800SOL    HW237863   3.036   1.635  17.036  0.9671  0.2199  2.1053
 8801SOL     OW37864   2.364   1.112  13.970  0.9339  0.7232 -0.8426
 8801SOL    HW137865   2.397   1.175  13.906 -0.1205  1.6281 -0.5027
 8801SOL    HW237866   2.418   1.034  13.957  1.3763  0.8234  0.3329
 8802SOL     OW37867   2.695   3.496  10.480 -0.0861  0.0083 -0.4679
 8802SOL    HW137868   2.626   3.556  10.509  1.2643  0.2413  2.2403
 8802SOL    HW237869   2.764   3.562  10.493  1.1895 -1.3683 -0.2604
 8803SOL     OW37870   1.195   3.123   2.140 -0.2860 -0.2122 -0.5829
 8803SOL    HW137871   1.289   3.122   2.158 -1.0282  0.8824  3.3724
 8803SOL    HW237872   1.179   3.215   2.162  0.5113 -0.0631 -0.6177
 8804SOL     OW37873   1.317   2.236   3.089 -0.0364  0.6253  0.7012
 8804SOL    HW137874   1.356   2.310   3.043  0.6456  0.4071  0.9254
 8804SOL    HW237875   1.400   2.203   3.125  0.7906  2.6406  0.6437
 8805SOL     OW37876   1.574   0.170   6.098  0.1629 -0.5549  0.7643
 8805SOL    HW137877   1.593   0.187   6.005  0.1111 -0.5458  0.7553
 8805SOL    HW237878   1.592   0.077   6.109 -0.8217 -0.6605  1.4934
 8806SOL     OW37879   2.632   2.356   3.215  0.1002 -0.0616  0.3495
 8806SOL    HW137880   2.691   2.286   3.244 -1.0197 -0.3435  1.9309
 8806SOL    HW237881   2.565   2.350   3.283  0.2425  0.5885  0.5543
 8807SOL     OW37882   3.930   3.589   9.051  0.0975 -0.0436  0.0489
 8807SOL    HW137883   3.966   3.563   8.967 -0.8851  0.5487 -0.5522
 8807SOL    HW237884   3.917   3.683   9.039 -2.0452 -0.1193  1.6199
 8808SOL     OW37885   4.197   2.175  16.116  0.0145 -0.4543  0.3963
 8808SOL    HW137886   4.109   2.212  16.109  1.5275  2.9908 -0.2885
 8808SOL    HW237887   4.247   2.244  16.159  1.2706 -0.2698 -1.3540
 8809SOL     OW37888   1.064   4.525  13.231 -0.1286 -0.2273  0.5025
 8809SOL    HW137889   0.997   4.584  13.197 -0.2498 -0.2808  0.6456
 8809SOL    HW237890   1.107   4.515  13.146 -1.6929  3.8405 -0.7774
 8810SOL     OW37891   4.608   1.997   8.514 -0.6352 -0.2472  0.5570
 8810SOL    HW137892   4.645   1.924   8.565  0.9719  0.2393  0.0969
 8810SOL    HW237893   4.588   2.066   8.576 -0.2356 -1.9207  2.5579
 8811SOL     OW37894   3.234   0.374  12.120  0.4526  0.7659  0.2668
 8811SOL    HW137895   3.259   0.434  12.190  1.3032  1.0694 -0.3047
 8811SOL    HW237896   3.195   0.435  12.057  0.1186 -0.5599 -0.8066
 8812SOL     OW37897   2.698   3.619   8.732 -0.2466  0.2827  0.1940
 8812SOL    HW137898   2.669   3.622   8.641 -1.1381  0.4582  0.4857
 8812SOL    HW237899   2.695   3.525   8.747  2.0202 -0.0145 -1.2382
 8813SOL     OW37900   3.016   1.699   0.757  0.2305  0.0242  0.1615
 8813SOL    HW137901   3.003   1.773   0.816  1.6404  0.0783  0.3933
 8813SOL    HW237902   2.978   1.630   0.812 -1.3709  0.5435 -0.2926
 8814SOL     OW37903   3.906   1.362   3.743  0.0471 -0.3411 -0.0843
 8814SOL    HW137904   3.843   1.428   3.772  2.6008  2.2316 -0.3197
 8814SOL    HW237905   3.947   1.409   3.670 -0.9956  0.7880  0.0627
 8815SOL     OW37906   4.679   4.488  17.043  0.3634 -0.1932 -0.2719
 8815SOL    HW137907   0.043   4.454  17.055  0.7081  1.3129  1.5242
 8815SOL    HW237908   4.704   4.581  17.045  0.2832 -0.1531 -1.5330
 8816SOL     OW37909   3.971   2.896   4.374  0.3279  0.5234 -0.1710
 8816SOL    HW137910   4.028   2.952   4.427  0.8686 -1.1728  1.0451
 8816SOL    HW237911   3.980   2.938   4.289 -1.3599  2.8853  0.8039
 8817SOL     OW37912   3.928   3.092   7.387  0.1256 -0.0052  0.2372
 8817SOL    HW137913   3.877   3.014   7.366 -1.9423  1.2131  0.7368
 8817SOL    HW237914   3.864   3.161   7.408  0.8548  1.1865 -1.4568
 8818SOL     OW37915   4.386   1.879   8.969  0.4392  0.1792 -0.3042
 8818SOL    HW137916   4.353   1.924   8.892 -3.0415 -1.1114  0.4438
 8818SOL    HW237917   4.423   1.805   8.920  1.0155  0.1597  0.1519
 8819SOL     OW37918   2.017   2.393   2.812 -0.1782 -0.2618  0.4862
 8819SOL    HW137919   2.066   2.314   2.790  0.0339 -0.4381  1.5585
 8819SOL    HW237920   2.065   2.435   2.883 -0.4871 -0.2492  0.6909
 8820SOL     OW37921   3.186   0.591  17.085 -0.4090  0.0044  0.2661
 8820SOL    HW137922   3.160   0.507  17.123 -0.5695 -0.0756 -0.0235
 8820SOL    HW237923   3.240   0.567  17.010  0.1357 -0.5128  0.8276
 8821SOL     OW37924   3.109   3.054   5.298  0.4276 -0.3771  0.1420
 8821SOL    HW137925   3.128   3.073   5.390 -0.2089 -1.3429  0.4771
 8821SOL    HW237926   3.162   2.983   5.264  0.8306 -0.6489  1.3394
 8822SOL     OW37927   1.445   2.251   2.390 -0.0469  0.1217  0.0258
 8822SOL    HW137928   1.378   2.213   2.448 -0.3845 -2.2841 -1.9647
 8822SOL    HW237929   1.411   2.339   2.378 -0.1143  0.1853  0.6947
 8823SOL     OW37930   3.165   3.877   4.556  0.1213  0.4523  1.2200
 8823SOL    HW137931   3.203   3.941   4.496 -0.2965 -0.3164  0.1368
 8823SOL    HW237932   3.118   3.942   4.609  1.9018  1.1048  1.9897
 8824SOL     OW37933   2.059   3.752   5.593  0.8965 -0.1457 -0.2508
 8824SOL    HW137934   1.978   3.742   5.543  0.9809 -0.1819 -0.3804
 8824SOL    HW237935   2.112   3.683   5.554 -0.3691 -1.4882  0.3987
 8825SOL     OW37936   2.468   1.038  11.771  0.1444 -0.2562 -0.1529
 8825SOL    HW137937   2.551   1.070  11.735  0.2680 -1.6449 -1.1175
 8825SOL    HW237938   2.496   0.986  11.846 -0.2629 -0.9492 -0.4717
 8826SOL     OW37939   2.783   2.510   1.642  0.3137  0.5983 -0.6106
 8826SOL    HW137940   2.759   2.551   1.559  2.8148 -0.4690 -1.8728
 8826SOL    HW237941   2.745   2.567   1.709  0.0721 -1.2058  0.7659
 8827SOL     OW37942   2.287   0.815  10.062  0.1047 -0.3697 -0.4259
 8827SOL    HW137943   2.333   0.895  10.037 -1.7814  1.7568  2.8412
 8827SOL    HW237944   2.326   0.795  10.147 -0.0797  1.0146 -0.0165
 8828SOL     OW37945   1.622   3.629   7.402  0.3426  0.4733  0.3415
 8828SOL    HW137946   1.585   3.701   7.352  0.1632 -1.2890 -2.0612
 8828SOL    HW237947   1.584   3.650   7.487 -0.2132 -1.1016  0.4781
 8829SOL     OW37948   3.888   3.640  11.501  0.2145 -0.5405  0.3885
 8829SOL    HW137949   3.874   3.665  11.592 -1.1606 -1.3595  0.4003
 8829SOL    HW237950   3.842   3.556  11.496  1.1560 -1.0967  1.0891
 8830SOL     OW37951   0.605   3.804   7.399  0.7641 -0.1054  0.8173
 8830SOL    HW137952   0.579   3.881   7.450 -0.0785 -0.3420  0.7493
 8830SOL    HW237953   0.567   3.731   7.447  1.6637 -1.5772 -0.7169
 8831SOL     OW37954   1.252   2.445   0.524 -0.2317 -0.3087 -0.4485
 8831SOL    HW137955   1.233   2.504   0.597  0.4567  0.1212 -0.6133
 8831SOL    HW237956   1.234   2.359   0.562  2.9642 -0.6703  0.2431
 8832SOL     OW37957   4.264   0.167   4.421  0.0859 -0.0390  0.2205
 8832SOL    HW137958   4.348   0.208   4.442  1.1024 -1.9011 -0.1714
 8832SOL    HW237959   4.220   0.222   4.356 -1.0544 -1.1511  0.0349
 8833SOL     OW37960   0.640   4.200   2.121 -0.7954  0.3389 -0.0294
 8833SOL    HW137961   0.598   4.212   2.206  0.2461  0.3544  0.4714
 8833SOL    HW237962   0.684   4.282   2.099 -0.7360  0.3874  0.2816
 8834SOL     OW37963   3.739   1.537   8.070  0.3806 -0.1818 -0.2719
 8834SOL    HW137964   3.810   1.602   8.076  1.1582 -0.9601 -0.9812
 8834SOL    HW237965   3.735   1.524   7.976  1.9553 -1.9090 -0.0969
 8835SOL     OW37966   1.695   1.047  13.833  0.1985  0.2464 -0.0312
 8835SOL    HW137967   1.773   1.023  13.884 -0.2126  0.4602  0.6904
 8835SOL    HW237968   1.649   0.965  13.817 -0.1987  0.2224  1.2194
 8836SOL     OW37969   3.050   0.716   2.154  0.0918 -0.9005 -0.5792
 8836SOL    HW137970   2.967   0.741   2.194  1.3551  3.3107 -0.6094
 8836SOL    HW237971   3.086   0.803   2.138  0.2127 -0.6688  0.9820
 8837SOL     OW37972   4.409   0.260   3.081  0.6071 -0.6104  0.2563
 8837SOL    HW137973   4.386   0.202   3.009 -0.5105  0.4559 -0.2461
 8837SOL    HW237974   4.346   0.241   3.150 -0.5999 -1.0614 -0.9777
 8838SOL     OW37975   2.653   4.495   3.916 -0.1834 -0.1105  0.5557
 8838SOL    HW137976   2.581   4.436   3.940 -0.4711  0.7658  1.8442
 8838SOL    HW237977   2.650   4.491   3.820 -0.3651  0.1750  0.5468
 8839SOL     OW37978   4.429   2.238  11.924 -0.3431 -0.4336  0.3680
 8839SOL    HW137979   4.371   2.273  11.991  0.0865 -1.2199  1.1491
 8839SOL    HW237980   4.488   2.183  11.975  1.5669 -0.0274 -1.3800
 8840SOL     OW37981   2.935   0.507   5.877  0.5328 -0.0259 -0.5700
 8840SOL    HW137982   2.888   0.423   5.873  1.7128 -0.7136 -0.1670
 8840SOL    HW237983   2.864   0.559   5.915 -0.0399 -3.8487  3.6561
 8841SOL     OW37984   3.228   3.251   8.317 -0.2045 -0.2871  0.3440
 8841SOL    HW137985   3.272   3.210   8.391  1.5945 -0.6729 -0.9211
 8841SOL    HW237986   3.199   3.173   8.269  4.8406 -2.7644  1.3566
 8842SOL     OW37987   3.552   4.034  14.498 -0.2642  0.2806  0.3549
 8842SOL    HW137988   3.643   4.017  14.475 -0.4984  1.3499 -1.3400
 8842SOL    HW237989   3.523   4.059  14.410 -1.4176  0.1170  0.6936
 8843SOL     OW37990   1.388   1.298   2.304  0.0851  0.2313 -0.0987
 8843SOL    HW137991   1.472   1.252   2.303  0.8397  1.5942  0.2833
 8843SOL    HW237992   1.417   1.383   2.336  2.6886 -1.5842  2.3588
 8844SOL     OW37993   2.646   4.627   3.607 -0.2053 -0.0641  0.5312
 8844SOL    HW137994   2.637   4.532   3.600  2.5519 -0.3323  0.5387
 8844SOL    HW237995   2.583   4.641   3.678 -1.3689 -0.1229 -0.4981
 8845SOL     OW37996   2.605   0.893   8.116 -0.3467  0.6949 -0.1714
 8845SOL    HW137997   2.632   0.978   8.151  1.8958 -0.9443  2.0017
 8845SOL    HW237998   2.614   0.901   8.021  2.1202  0.5221  0.0413
 8846SOL     OW37999   1.662   4.311   4.985  0.0182 -0.4587 -0.4164
 8846SOL    HW138000   1.656   4.257   5.064  1.3513 -0.2137 -0.1555
 8846SOL    HW238001   1.744   4.271   4.957 -0.2592  0.2422 -2.2824
 8847SOL     OW38002   2.089   3.292   4.823  0.0131 -0.3331  0.1646
 8847SOL    HW138003   2.123   3.342   4.748 -2.9962 -2.0179 -2.3535
 8847SOL    HW238004   2.018   3.351   4.849 -1.1756 -2.5642  2.0270
 8848SOL     OW38005   3.759   3.225   5.841 -0.5010 -0.1237  0.1563
 8848SOL    HW138006   3.676   3.231   5.794  0.0843  1.2289 -0.6984
 8848SOL    HW238007   3.738   3.292   5.906  0.4484 -0.5325  0.8775
 8849SOL     OW38008   0.274   2.850  11.933 -0.2780  0.5576  0.4413
 8849SOL    HW138009   0.227   2.769  11.953 -0.0307  0.7482  1.8140
 8849SOL    HW238010   0.276   2.898  12.016 -0.3329  1.5525 -0.1375
 8850SOL     OW38011   2.581   0.711   3.173  0.2879  0.3713  0.3163
 8850SOL    HW138012   2.592   0.743   3.262 -2.9098 -1.4504  1.3471
 8850SOL    HW238013   2.558   0.619   3.186  1.5684  0.0890  0.6304
 8851SOL     OW38014   4.518   4.146   8.815  0.5017 -0.0261  0.1594
 8851SOL    HW138015   4.544   4.054   8.810  0.4433 -0.1118  1.3013
 8851SOL    HW238016   4.600   4.180   8.851  1.4190 -3.3808  1.2262
 8852SOL     OW38017   4.530   1.100   1.586 -0.1969 -0.3995  1.3147
 8852SOL    HW138018   4.479   1.159   1.531  1.4106  0.1272  0.3662
 8852SOL    HW238019   4.483   1.021   1.559 -1.2746  0.3820  0.9532
 8853SOL     OW38020   2.810   3.173  15.708  0.2325 -0.2375 -0.0618
 8853SOL    HW138021   2.883   3.112  15.713 -1.8456 -2.8669 -1.5438
 8853SOL    HW238022   2.765   3.153  15.790 -1.1564  2.3970 -0.1701
 8854SOL     OW38023   0.575   3.458  10.136  0.2155 -0.4145  0.2907
 8854SOL    HW138024   0.549   3.383  10.190 -2.2763  0.8608  0.8648
 8854SOL    HW238025   0.647   3.421  10.086 -1.2747 -1.8364 -0.8221
 8855SOL     OW38026   3.124   1.462   6.293 -0.4970 -0.5163 -0.3571
 8855SOL    HW138027   3.082   1.534   6.341  1.9258  1.6385 -1.4592
 8855SOL    HW238028   3.161   1.507   6.217 -0.3410  0.9071  0.5460
 8856SOL     OW38029   1.183   3.457   8.365 -0.1283  0.0119  0.4533
 8856SOL    HW138030   1.152   3.521   8.429 -0.7516 -1.0168  1.1749
 8856SOL    HW238031   1.276   3.479   8.366  0.8660 -4.0027 -1.6989
 8857SOL     OW38032   4.314   0.337   5.090  0.3829  0.0353  0.3666
 8857SOL    HW138033   4.306   0.246   5.120 -1.6659 -0.8397 -2.8211
 8857SOL    HW238034   4.359   0.320   5.007 -4.0588 -0.6947 -1.8784
 8858SOL     OW38035   3.016   2.746  12.705 -0.4302 -0.1967 -0.3352
 8858SOL    HW138036   2.923   2.722  12.709  0.0807 -1.5878  3.2292
 8858SOL    HW238037   3.013   2.823  12.647 -1.6681 -0.4873 -0.6604
 8859SOL     OW38038   4.098   3.149  15.102  0.0129 -0.3563  0.0219
 8859SOL    HW138039   4.151   3.226  15.079 -0.5255 -0.6908 -2.3331
 8859SOL    HW238040   4.058   3.128  15.018 -1.2568  1.1921  0.2182
 8860SOL     OW38041   2.132   1.926  17.435  0.0462 -0.0236  0.1025
 8860SOL    HW138042   2.073   1.954  17.365 -0.0048  2.9578  1.3319
 8860SOL    HW238043   2.088   1.862  17.491  0.5124 -0.0195  0.4748
 8861SOL     OW38044   0.531   0.664   3.792  0.6277  0.1897  0.1280
 8861SOL    HW138045   0.500   0.575   3.779 -0.2507  0.7499 -1.6377
 8861SOL    HW238046   0.535   0.699   3.703 -1.6049 -0.2239 -0.1224
 8862SOL     OW38047   2.221   0.667   6.512  0.8055 -0.4538  0.3966
 8862SOL    HW138048   2.240   0.754   6.546 -2.0393  0.3821 -0.1508
 8862SOL    HW238049   2.134   0.682   6.475  1.0951  0.0448 -0.0981
 8863SOL     OW38050   1.565   1.406   8.300  0.6441 -0.0300  0.2788
 8863SOL    HW138051   1.607   1.405   8.215  0.7351 -1.4105  0.3329
 8863SOL    HW238052   1.518   1.322   8.294 -0.0332  0.2952  0.9950
 8864SOL     OW38053   1.275   0.104   6.798  0.6027 -0.3410  0.4438
 8864SOL    HW138054   1.186   0.090   6.766  0.4111 -1.3214  1.3871
 8864SOL    HW238055   1.276   0.065   6.886 -0.4881 -1.0071  0.1718
 8865SOL     OW38056   4.588   1.399   1.303  0.2250 -0.3880  0.7085
 8865SOL    HW138057   4.595   1.425   1.211  2.3906  1.4693  1.4097
 8865SOL    HW238058   4.678   1.368   1.310  0.3791 -0.4717 -1.6329
 8866SOL     OW38059   1.521   3.309   2.136  0.3150  0.4214  0.9413
 8866SOL    HW138060   1.596   3.303   2.076  0.7868  3.9166  1.1818
 8866SOL    HW238061   1.514   3.218   2.165 -1.8182  1.0534  2.4169
 8867SOL     OW38062   4.486   2.628   3.374 -0.5166  0.3032 -0.4687
 8867SOL    HW138063   4.522   2.562   3.314  0.3187  1.0013 -0.7366
 8867SOL    HW238064   4.477   2.712   3.328 -4.1657 -0.3987 -1.0240
 8868SOL     OW38065   0.353   2.584   8.457 -0.3264 -0.1904  0.0065
 8868SOL    HW138066   0.368   2.622   8.370  1.7852  0.1262  0.4914
 8868SOL    HW238067   0.423   2.519   8.467 -2.0021 -1.9773  0.1069
 8869SOL     OW38068   4.127   3.474  16.847  0.4935  0.0718  0.2350
 8869SOL    HW138069   4.212   3.452  16.885  0.2572  1.5377  1.5682
 8869SOL    HW238070   4.090   3.523  16.920  0.0029 -2.2641  1.5742
 8870SOL     OW38071   1.210   1.055   3.868  0.4188  0.1733  0.4905
 8870SOL    HW138072   1.213   0.969   3.910  0.6296  0.3649  0.8676
 8870SOL    HW238073   1.196   1.113   3.943  0.4977 -1.0298  1.4511
 8871SOL     OW38074   2.559   3.298   3.594 -0.5861 -0.1960  0.4685
 8871SOL    HW138075   2.606   3.315   3.513 -1.6633 -0.4870 -0.2155
 8871SOL    HW238076   2.482   3.251   3.562 -0.6584 -0.2130  0.6687
 8872SOL     OW38077   1.380   2.113   6.108  0.5706  0.0082  0.6910
 8872SOL    HW138078   1.430   2.189   6.078  1.6011 -0.8476  0.2585
 8872SOL    HW238079   1.396   2.046   6.042 -1.9788 -2.4321  2.5453
 8873SOL     OW38080   0.013   4.500  10.016 -0.2372 -0.1606  0.4176
 8873SOL    HW138081   4.682   4.443   9.963 -0.2288  1.3117 -1.1966
 8873SOL    HW238082   4.697   4.584   9.997 -1.7869 -1.3972 -1.7220
 8874SOL     OW38083   2.153   2.496   3.038 -0.0520 -0.2094  0.1994
 8874SOL    HW138084   2.231   2.455   3.002  0.7536  1.2801  0.2512
 8874SOL    HW238085   2.192   2.576   3.073  1.4792 -1.2600  0.8824
 8875SOL     OW38086   2.844   0.733  10.902  0.0322 -0.3532 -0.4164
 8875SOL    HW138087   2.907   0.670  10.939  0.3303 -0.8688 -1.7999
 8875SOL    HW238088   2.894   0.810  10.874  5.7295 -3.6425  0.5720
 8876SOL     OW38089   0.254   1.202   7.246 -0.4267  0.3227 -0.3497
 8876SOL    HW138090   0.173   1.194   7.296 -0.9529  3.3739 -0.7079
 8876SOL    HW238091   0.322   1.193   7.313  0.6649 -2.1208 -1.8006
 8877SOL     OW38092   4.209   2.012   3.326 -0.4863  0.2283  0.0966
 8877SOL    HW138093   4.194   1.946   3.395 -1.8981  0.2199 -0.2389
 8877SOL    HW238094   4.225   2.092   3.377  2.0613 -0.2101 -0.0018
 8878SOL     OW38095   4.194   3.140  15.551  0.2354 -0.2848 -0.8058
 8878SOL    HW138096   4.228   3.201  15.485  0.2806  1.1253  0.5313
 8878SOL    HW238097   4.217   3.060  15.505 -1.9990 -1.7396  0.6292
 8879SOL     OW38098   0.445   0.744  15.852  0.0647 -0.6693  0.8705
 8879SOL    HW138099   0.400   0.782  15.777  0.5377 -0.6722  0.5895
 8879SOL    HW238100   0.528   0.789  15.843 -0.1620  0.0124  2.1712
 8880SOL     OW38101   4.397   4.002   1.895 -0.6185  0.2938 -0.2707
 8880SOL    HW138102   4.320   3.953   1.864  0.9668 -2.4713  0.1173
 8880SOL    HW238103   4.379   4.003   1.989  2.9449 -2.3532  0.4405
 8881SOL     OW38104   2.291   4.600   5.433  0.3060  0.2351  0.3143
 8881SOL    HW138105   2.213   4.624   5.483 -0.4846 -1.3723 -0.1375
 8881SOL    HW238106   2.319   4.680   5.389 -0.6015  0.7802  0.7117
 8882SOL     OW38107   2.151   0.298   2.347 -0.2161  0.1331  0.0151
 8882SOL    HW138108   2.093   0.317   2.273 -1.1424  0.6980  0.8946
 8882SOL    HW238109   2.113   0.355   2.413 -2.4202 -2.1825  0.7426
 8883SOL     OW38110   3.871   2.190   7.968 -0.2972  0.6334  0.2546
 8883SOL    HW138111   3.874   2.221   8.058  0.3243 -0.1235  0.4923
 8883SOL    HW238112   3.840   2.266   7.918 -2.0434  0.7669  1.5356
 8884SOL     OW38113   3.922   4.021   3.895  0.0222  0.9015  0.0369
 8884SOL    HW138114   3.834   4.006   3.861  1.1490 -0.8042 -2.0894
 8884SOL    HW238115   3.969   4.046   3.815 -0.3193 -0.9046 -0.7311
 8885SOL     OW38116   4.680   1.241   5.059  0.1238  0.2026  0.3320
 8885SOL    HW138117   4.691   1.262   5.152  1.6960  0.0679  0.1764
 8885SOL    HW238118   4.644   1.323   5.027  1.0838  0.3332 -0.4245
 8886SOL     OW38119   4.503   1.580   3.827 -0.0610  0.3950 -0.5438
 8886SOL    HW138120   4.570   1.646   3.807 -1.2051  1.3600 -1.2301
 8886SOL    HW238121   4.446   1.583   3.750 -1.6469  0.7785  0.6389
 8887SOL     OW38122   4.291   0.411   7.379 -0.4624  0.2709  0.4837
 8887SOL    HW138123   4.270   0.475   7.447 -0.7428  0.8526 -0.1445
 8887SOL    HW238124   4.219   0.348   7.389 -0.9710  0.8939  0.7929
 8888SOL     OW38125   3.228   0.054  12.145 -0.0250 -0.0776  0.0832
 8888SOL    HW138126   3.153   0.088  12.193  0.2388  0.3572  0.1897
 8888SOL    HW238127   3.250   4.704  12.200 -1.3178 -0.6989 -0.2579
 8889SOL     OW38128   0.016   4.128   6.315 -1.0809  0.0622  0.1521
 8889SOL    HW138129   0.030   4.174   6.232  0.0795  1.9138  1.3660
 8889SOL    HW238130   4.658   4.166   6.344 -1.5669 -0.4841 -0.5346
 8890SOL     OW38131   0.201   4.024   5.361 -0.1127 -1.0420  0.0747
 8890SOL    HW138132   0.197   3.940   5.406  2.0748 -2.8044 -3.0540
 8890SOL    HW238133   0.238   3.993   5.278 -1.7626 -0.1711 -1.0021
 8891SOL     OW38134   0.937   2.889   0.517  0.5994 -0.5994 -0.1654
 8891SOL    HW138135   0.990   2.920   0.444  0.1909  0.0111 -0.2023
 8891SOL    HW238136   0.938   2.966   0.575  2.2051 -0.2476 -0.6503
 8892SOL     OW38137   3.826   2.973   5.924 -0.4046 -0.4571 -0.2387
 8892SOL    HW138138   3.799   3.047   5.870  1.1763  0.0823 -0.2863
 8892SOL    HW238139   3.790   2.994   6.010 -1.5252 -1.2697 -0.4929
 8893SOL     OW38140   4.150   3.528  15.455  0.0793 -0.0146 -0.5566
 8893SOL    HW138141   4.127   3.526  15.548 -1.1670 -1.1501 -0.8942
 8893SOL    HW238142   4.166   3.434  15.442  1.9982  0.3000 -0.5285
 8894SOL     OW38143   4.484   4.160  15.154 -0.0209  0.1395  0.0993
 8894SOL    HW138144   4.549   4.174  15.223  0.3636 -1.5532  0.0859
 8894SOL    HW238145   4.454   4.072  15.174  0.3894  0.2308  1.1230
 8895SOL     OW38146   0.489   1.492   3.152 -0.5268  0.0014  0.4716
 8895SOL    HW138147   0.424   1.457   3.214 -2.0024  0.3760 -0.8668
 8895SOL    HW238148   0.449   1.497   3.065 -1.8275 -0.9319  1.0077
 8896SOL     OW38149   2.309   1.982   7.387 -0.0266 -0.1863 -0.8606
 8896SOL    HW138150   2.397   2.018   7.388 -0.6655  1.3788 -1.1101
 8896SOL    HW238151   2.256   2.062   7.379  1.6164  0.9905  0.0973
 8897SOL     OW38152   3.628   0.888   4.308 -0.3289 -0.0696 -0.6287
 8897SOL    HW138153   3.605   0.795   4.312 -0.8841  0.0688 -0.6293
 8897SOL    HW238154   3.673   0.883   4.224  0.3279  1.3057 -0.3528
 8898SOL     OW38155   3.525   2.980   8.307  0.4918 -0.5932  0.1180
 8898SOL    HW138156   3.517   3.037   8.383 -1.1006  2.3133 -2.2596
 8898SOL    HW238157   3.443   2.931   8.307  0.8264 -1.1592 -1.0103
 8899SOL     OW38158   2.218   2.590   5.180  0.7211  0.5864  0.9945
 8899SOL    HW138159   2.222   2.650   5.105 -2.5912  1.2159  1.3113
 8899SOL    HW238160   2.148   2.529   5.157  2.3380 -0.1240 -2.0617
 8900SOL     OW38161   3.247   3.428  16.357 -0.0993  0.3273 -0.1418
 8900SOL    HW138162   3.155   3.413  16.337  0.0573  0.7685 -1.1965
 8900SOL    HW238163   3.284   3.359  16.302 -0.9217 -0.5189  0.3653
 8901SOL     OW38164   3.709   3.220   8.445 -0.1787 -0.0034  0.1521
 8901SOL    HW138165   3.684   3.142   8.493  1.8502  0.1867  1.5187
 8901SOL    HW238166   3.629   3.264   8.417  1.5015  0.4125 -4.0934
 8902SOL     OW38167   0.336   3.650   5.994 -0.2032 -0.5218 -0.4408
 8902SOL    HW138168   0.399   3.651   5.922 -1.3468  1.8859 -1.3920
 8902SOL    HW238169   0.262   3.705   5.968 -0.0296 -1.2222 -2.3952
 8903SOL     OW38170   1.701   2.007   5.834  0.1377  0.2155 -0.3447
 8903SOL    HW138171   1.714   1.942   5.765 -0.9168  0.0103 -0.3403
 8903SOL    HW238172   1.790   2.029   5.862 -0.4714  1.3751  0.7009
 8904SOL     OW38173   0.837   3.729   6.955  0.6050  0.0192 -0.2314
 8904SOL    HW138174   0.889   3.650   6.938 -0.7044 -0.6344 -1.1711
 8904SOL    HW238175   0.915   3.780   6.976 -1.1330  1.4678  2.6091
 8905SOL     OW38176   0.783   4.591   5.408 -0.2127  0.5295 -0.3102
 8905SOL    HW138177   0.783   4.671   5.356 -0.8754  0.8245  0.1464
 8905SOL    HW238178   0.875   4.565   5.416 -0.4176 -0.5672 -1.5379
 8906SOL     OW38179   4.506   1.545   7.562 -0.3796  0.0498  0.7765
 8906SOL    HW138180   4.434   1.483   7.549 -0.4758  0.2050  0.5767
 8906SOL    HW238181   4.499   1.596   7.481  1.6773  1.4329  1.4924
 8907SOL     OW38182   3.861   1.487   0.199  0.0135 -0.3619 -0.3329
 8907SOL    HW138183   3.921   1.466   0.128  0.4556  1.2318 -0.4428
 8907SOL    HW238184   3.787   1.428   0.185  0.0801 -0.4422 -0.3434
 8908SOL     OW38185   3.102   3.165   7.466  0.0339 -0.0184 -0.1486
 8908SOL    HW138186   3.156   3.209   7.400 -0.6517  2.0488  0.6894
 8908SOL    HW238187   3.073   3.090   7.413 -1.0879  0.2045  0.1746
 8909SOL     OW38188   0.286   2.678   6.365  0.1004 -0.5615  0.2322
 8909SOL    HW138189   0.322   2.764   6.341  3.6227 -2.1398 -0.2684
 8909SOL    HW238190   0.193   2.696   6.355 -0.1947 -3.3589 -2.0320
 8910SOL     OW38191   1.269   0.587   2.838 -0.4131  0.1248 -0.1827
 8910SOL    HW138192   1.357   0.582   2.875 -2.2166  0.3690  4.1458
 8910SOL    HW238193   1.227   0.636   2.909 -1.9716 -0.4143 -0.7485
 8911SOL     OW38194   3.766   0.484   2.007 -0.1246  0.0302  0.0908
 8911SOL    HW138195   3.837   0.482   1.943 -0.0577 -0.9710  0.1894
 8911SOL    HW238196   3.740   0.572   1.980  1.1265 -0.1210 -1.6305
 8912SOL     OW38197   1.506   0.084   2.766  0.5773 -0.0057 -0.2592
 8912SOL    HW138198   1.442   0.070   2.836  1.0378 -2.7144 -0.3880
 8912SOL    HW238199   1.524   0.178   2.774  0.8842 -0.2421  1.8497
 8913SOL     OW38200   4.555   2.983   9.777 -0.7312 -0.5748  0.5080
 8913SOL    HW138201   4.489   3.016   9.838  0.4133 -0.4935  1.6986
 8913SOL    HW238202   4.506   2.986   9.695 -1.0540 -0.1857  0.7142
 8914SOL     OW38203   3.074   2.894   8.716 -0.1053 -0.2057  0.0202
 8914SOL    HW138204   3.112   2.978   8.692  0.7268 -0.6024 -0.0646
 8914SOL    HW238205   3.034   2.910   8.801  0.9833 -1.1381  0.7232
 8915SOL     OW38206   2.736   1.145   8.155  0.2701 -0.5872 -0.0700
 8915SOL    HW138207   2.674   1.140   8.228  0.1160 -0.5261 -0.1992
 8915SOL    HW238208   2.819   1.155   8.203 -0.5858  0.6475  1.1415
 8916SOL     OW38209   3.985   4.323   1.836 -0.0756  0.3987  0.4906
 8916SOL    HW138210   4.051   4.387   1.810 -1.7341  1.5909 -0.7927
 8916SOL    HW238211   3.969   4.281   1.752  2.4041  2.1415 -0.8691
 8917SOL     OW38212   2.504   1.010  14.958 -0.7651  0.1969  0.7847
 8917SOL    HW138213   2.449   1.088  14.957  2.3435  2.4202  1.5144
 8917SOL    HW238214   2.444   0.957  14.905  1.9668 -1.2047 -0.9481
 8918SOL     OW38215   3.083   0.778  14.493 -0.4509  0.4845 -0.0962
 8918SOL    HW138216   3.079   0.757  14.400  0.0550 -1.2875  0.2888
 8918SOL    HW238217   3.092   0.873  14.487 -0.6308  0.8171  4.6067
 8919SOL     OW38218   4.521   2.568  12.743 -0.2868 -0.1954 -0.8077
 8919SOL    HW138219   4.467   2.542  12.668 -3.2317  0.7596  0.9713
 8919SOL    HW238220   4.576   2.631  12.697 -0.7304 -0.3301 -1.5193
 8920SOL     OW38221   1.123   2.594  12.581 -0.4172 -0.3659  0.1723
 8920SOL    HW138222   1.209   2.551  12.585  0.3988  1.1959 -0.3595
 8920SOL    HW238223   1.146   2.657  12.512 -0.8769  3.1661  3.2572
 8921SOL     OW38224   1.474   0.857   1.635 -0.3240 -0.1140 -0.4762
 8921SOL    HW138225   1.458   0.886   1.725  1.1661  0.9459 -0.5664
 8921SOL    HW238226   1.563   0.822   1.631 -1.2053 -2.2249 -1.5338
 8922SOL     OW38227   4.238   3.072  11.406 -0.2559  0.1648 -1.2919
 8922SOL    HW138228   4.167   3.017  11.439  1.1338 -0.5936  0.4007
 8922SOL    HW238229   4.209   3.156  11.444  2.9793  0.3584  0.7286
 8923SOL     OW38230   1.238   3.913   0.093 -0.2710  0.6579  0.3418
 8923SOL    HW138231   1.162   3.942   0.043 -0.5774  1.8438  1.5037
 8923SOL    HW238232   1.210   3.834   0.139  1.0153  0.1129  0.1699
 8924SOL     OW38233   1.878   1.895   1.069  0.0601  0.2228 -0.3729
 8924SOL    HW138234   1.967   1.928   1.057 -0.2397  0.8539 -0.8761
 8924SOL    HW238235   1.856   1.941   1.150 -1.7601 -2.5226  0.6961
 8925SOL     OW38236   3.659   4.162   8.952 -0.4552  0.4016 -0.3852
 8925SOL    HW138237   3.615   4.222   8.892  1.0997  0.0811 -1.8113
 8925SOL    HW238238   3.592   4.094   8.961 -0.0568  0.2082  1.1390
 8926SOL     OW38239   0.846   0.222   8.003 -0.3140 -0.1961 -0.8032
 8926SOL    HW138240   0.870   0.143   8.052 -0.2925  0.6318  0.5306
 8926SOL    HW238241   0.876   0.296   8.056 -2.5416 -1.9310  2.9002
 8927SOL     OW38242   4.589   2.255  16.819  0.3429  0.6013  0.6038
 8927SOL    HW138243   4.643   2.305  16.880  1.0396  0.0807  0.4195
 8927SOL    HW238244   4.650   2.239  16.746  1.4396  0.1903  1.6022
 8928SOL     OW38245   2.203   3.009   0.066 -0.5174 -0.4191  0.7069
 8928SOL    HW138246   2.280   3.066   0.054  0.3625 -1.4399  1.4659
 8928SOL    HW238247   2.216   2.988   0.158 -1.5165 -1.6585  0.5634
 8929SOL     OW38248   2.139   3.453  13.080 -0.3274 -0.5951  0.4807
 8929SOL    HW138249   2.158   3.424  12.991 -0.0271  0.9108  0.0633
 8929SOL    HW238250   2.050   3.418  13.088 -0.7701  0.5041  0.3035
 8930SOL     OW38251   4.471   0.122   7.537  0.4055  0.5587 -0.2135
 8930SOL    HW138252   4.436   0.079   7.615 -0.2432 -0.2291 -0.9472
 8930SOL    HW238253   4.416   0.201   7.530  1.1412  1.1100  0.2922
 8931SOL     OW38254   3.308   0.574   0.306 -0.2476 -0.5790 -0.2318
 8931SOL    HW138255   3.360   0.644   0.267  0.9806 -1.7521 -0.7156
 8931SOL    HW238256   3.377   0.525   0.353 -1.8250 -2.2197  0.3729
 8932SOL     OW38257   1.949   1.501  16.576  0.7959  0.1346 -0.3081
 8932SOL    HW138258   1.895   1.426  16.550 -1.1068  0.7652  1.7652
 8932SOL    HW238259   1.901   1.574  16.537  0.5347 -0.6011 -1.3665
 8933SOL     OW38260   3.526   2.907   6.547  0.5880  0.1359 -0.1957
 8933SOL    HW138261   3.446   2.951   6.576  1.5612 -0.0207  2.6463
 8933SOL    HW238262   3.587   2.972   6.582 -1.6578  2.2697 -0.2075
 8934SOL     OW38263   1.714   1.301  17.406  0.1106  0.0330  0.5231
 8934SOL    HW138264   1.720   1.396  17.400 -1.5807 -0.0594 -2.6146
 8934SOL    HW238265   1.654   1.273  17.338  2.1419  1.6723 -1.9212
 8935SOL     OW38266   1.329   3.853   1.366 -0.2201 -0.3090 -0.7193
 8935SOL    HW138267   1.285   3.796   1.429 -0.5656  0.0467 -0.6428
 8935SOL    HW238268   1.422   3.840   1.384 -0.3553  2.2097  1.7874
 8936SOL     OW38269   1.522   3.201  10.128  0.1946  0.0852  0.4903
 8936SOL    HW138270   1.454   3.156  10.078 -1.6255  1.3117  1.8447
 8936SOL    HW238271   1.604   3.152  10.124  0.3318  0.3837 -0.3080
 8937SOL     OW38272   4.241   4.303   3.075 -0.0333 -0.2509  0.1450
 8937SOL    HW138273   4.252   4.286   2.981 -1.0970 -2.0851  0.3542
 8937SOL    HW238274   4.257   4.397   3.077  0.2707 -0.3582  2.0101
 8938SOL     OW38275   0.624   1.646   3.453  0.2244 -0.1156  0.4108
 8938SOL    HW138276   0.538   1.630   3.491  1.0579 -0.0163  2.3467
 8938SOL    HW238277   0.616   1.579   3.385  1.8515 -0.4517  0.5565
 8939SOL     OW38278   3.621   1.200  16.938  0.4379  0.7069 -0.4833
 8939SOL    HW138279   3.665   1.122  16.904  0.6559  0.7577 -0.3189
 8939SOL    HW238280   3.531   1.185  16.907  0.4242  2.5767 -1.3109
 8940SOL     OW38281   0.826   2.722   2.542  0.4169 -0.5778 -0.1604
 8940SOL    HW138282   0.766   2.711   2.616  0.5092 -0.2534 -0.0377
 8940SOL    HW238283   0.801   2.659   2.475 -1.0688  0.7052 -0.8043
 8941SOL     OW38284   4.313   2.181  11.208 -0.4489  0.6010  0.1690
 8941SOL    HW138285   4.333   2.262  11.160  0.9686  1.5304  2.2882
 8941SOL    HW238286   4.404   2.153  11.219 -1.0121 -1.4819 -0.4938
 8942SOL     OW38287   4.117   0.772   3.056  0.5426 -0.3932 -0.1047
 8942SOL    HW138288   4.170   0.715   2.999  0.6501 -0.1466 -0.2551
 8942SOL    HW238289   4.171   0.775   3.135  0.7911  0.5692 -0.3039
 8943SOL     OW38290   2.657   0.148   9.269  0.3068 -0.3888  0.6030
 8943SOL    HW138291   2.567   0.127   9.294 -0.1082 -0.6335 -1.0790
 8943SOL    HW238292   2.650   0.243   9.266 -1.2671 -0.5433 -1.0084
 8944SOL     OW38293   2.742   0.305   4.301 -0.0415  0.3123 -0.3614
 8944SOL    HW138294   2.770   0.218   4.273  2.4015  1.6005 -1.9090
 8944SOL    HW238295   2.825   0.331   4.340  0.6595 -0.6718 -1.2014
 8945SOL     OW38296   3.259   0.277   7.984  0.3794 -0.3165  0.2689
 8945SOL    HW138297   3.228   0.235   7.904  0.4792  0.7423 -0.3208
 8945SOL    HW238298   3.338   0.322   7.954  0.4500 -0.5951  0.0426
 8946SOL     OW38299   3.212   1.477   8.872 -0.1629 -0.1712 -0.2852
 8946SOL    HW138300   3.252   1.404   8.825  1.4710 -0.2846  1.2836
 8946SOL    HW238301   3.191   1.436   8.956  2.3516 -0.1057  0.3854
 8947SOL     OW38302   0.539   1.647   5.221  0.4038 -0.6442 -0.2452
 8947SOL    HW138303   0.634   1.636   5.228  1.2667  2.8876 -6.5851
 8947SOL    HW238304   0.520   1.660   5.314  0.1339  0.0264 -0.3906
 8948SOL     OW38305   0.320   2.673  11.607  0.1546 -0.5629  0.3172
 8948SOL    HW138306   0.357   2.727  11.676  2.0657 -1.7967  0.2471
 8948SOL    HW238307   0.250   2.622  11.649 -0.1959  0.5199  1.0570
 8949SOL     OW38308   0.365   0.872   9.104  0.3765  0.1378 -0.3920
 8949SOL    HW138309   0.385   0.863   9.197  0.0757  1.0452 -0.2445
 8949SOL    HW238310   0.337   0.780   9.094  0.8245 -0.1231  0.8307
 8950SOL     OW38311   2.456   4.435   7.334 -0.0048 -0.1622 -0.2230
 8950SOL    HW138312   2.479   4.454   7.425 -0.9057 -0.5956  0.0869
 8950SOL    HW238313   2.373   4.390   7.343  1.1057 -2.0563  0.4267
 8951SOL     OW38314   0.903   0.266   5.905  0.0176  0.1060 -0.0273
 8951SOL    HW138315   0.955   0.326   5.959 -0.0452 -0.9915  1.2417
 8951SOL    HW238316   0.969   0.233   5.844  0.6397 -1.5511  1.5613
 8952SOL     OW38317   3.609   2.976   8.048 -0.0307 -0.1270  0.1379
 8952SOL    HW138318   3.577   2.886   8.043  0.4267 -0.1602 -2.5236
 8952SOL    HW238319   3.586   3.007   8.135 -1.0219 -1.9024  0.5016
 8953SOL     OW38320   3.975   3.335   4.644  0.1441  0.1287  0.1929
 8953SOL    HW138321   4.011   3.422   4.630  1.6087 -0.4921  0.0148
 8953SOL    HW238322   3.882   3.348   4.626  0.0019  2.1827  2.4174
 8954SOL     OW38323   1.395   3.665   4.598  0.1215  0.0440 -0.1871
 8954SOL    HW138324   1.302   3.670   4.617 -0.4160 -2.0105 -2.2725
 8954SOL    HW238325   1.417   3.593   4.658  0.4999 -0.1664 -0.5798
 8955SOL     OW38326   3.215   0.318   7.120  0.1476  0.4981 -0.0184
 8955SOL    HW138327   3.153   0.276   7.059 -0.0378 -1.4325  1.5077
 8955SOL    HW238328   3.291   0.264   7.138  0.5920  1.2731  0.4146
 8956SOL     OW38329   2.888   2.518   0.030 -0.7798 -0.6422 -0.0808
 8956SOL    HW138330   2.927   2.504   0.116 -1.7382 -0.0617  0.4461
 8956SOL    HW238331   2.964   2.510  17.673 -1.0525 -2.7696 -0.1126
 8957SOL     OW38332   4.667   2.437   9.791  0.1495 -0.0606  0.1195
 8957SOL    HW138333   4.628   2.398   9.713 -0.5697 -0.4724  0.6844
 8957SOL    HW238334   4.700   2.521   9.760  1.0185 -0.7301 -0.7566
 8958SOL     OW38335   3.829   0.424   7.212 -0.7724 -0.4039 -0.6423
 8958SOL    HW138336   3.787   0.339   7.220  0.7346 -1.1637 -0.8644
 8958SOL    HW238337   3.910   0.393   7.252  0.5120  0.0631 -2.8767
 8959SOL     OW38338   1.350   1.196   3.621  0.0814 -0.2887  0.2517
 8959SOL    HW138339   1.300   1.151   3.689 -1.1686  2.3786  1.0583
 8959SOL    HW238340   1.352   1.288   3.646  1.1227 -0.0022 -0.8820
 8960SOL     OW38341   1.990   4.012   4.198  0.5423 -0.3923 -0.3663
 8960SOL    HW138342   2.039   3.932   4.179  1.1063 -0.2553  0.5167
 8960SOL    HW238343   1.980   4.008   4.293 -0.4177 -0.7688 -0.4842
 8961SOL     OW38344   1.772   3.909   5.126 -0.4225  0.2100  0.0332
 8961SOL    HW138345   1.765   4.002   5.148  0.8007  0.7897 -2.0148
 8961SOL    HW238346   1.741   3.872   5.208  0.2976 -0.4323  0.0185
 8962SOL     OW38347   1.514   0.401  11.943 -0.1085  0.2852  0.0831
 8962SOL    HW138348   1.468   0.407  11.860 -0.0418  0.3419  0.0505
 8962SOL    HW238349   1.604   0.389  11.911  0.0251  1.7266 -0.0818
 8963SOL     OW38350   1.272   0.814   9.372  0.4425 -0.4265 -0.0684
 8963SOL    HW138351   1.225   0.771   9.301  1.0703 -0.0588 -0.6996
 8963SOL    HW238352   1.301   0.737   9.422 -1.2304 -0.6913  0.4980
 8964SOL     OW38353   0.975   0.820  13.669 -0.1769  0.1052  0.2757
 8964SOL    HW138354   0.912   0.842  13.737 -0.7967  1.9990 -0.9187
 8964SOL    HW238355   0.984   0.904  13.625 -0.9872  0.1889  0.2712
 8965SOL     OW38356   1.762   3.764   8.589 -0.2798  0.5041  0.0154
 8965SOL    HW138357   1.710   3.743   8.667 -1.5356 -1.9676 -1.5020
 8965SOL    HW238358   1.846   3.724   8.612 -0.0031  1.5068  0.7846
 8966SOL     OW38359   4.565   3.288  10.531  0.8150  0.5242  0.2987
 8966SOL    HW138360   4.474   3.308  10.554  0.0007 -0.3007 -2.1319
 8966SOL    HW238361   4.590   3.368  10.485 -2.2000 -0.1373 -2.4867
 8967SOL     OW38362   1.887   0.900   5.196  0.3811 -0.4968  0.0706
 8967SOL    HW138363   1.931   0.820   5.227 -0.0398 -1.3180 -1.4649
 8967SOL    HW238364   1.814   0.870   5.143 -1.1994 -0.6896  2.3576
 8968SOL     OW38365   0.830   3.102  13.311  0.6240  0.0328 -0.9216
 8968SOL    HW138366   0.854   3.166  13.244 -1.3361 -1.8268 -3.4185
 8968SOL    HW238367   0.738   3.081  13.294 -0.1359  0.7691  2.2013
 8969SOL     OW38368   4.308   2.452   3.939 -0.0296  0.1771  0.0963
 8969SOL    HW138369   4.401   2.427   3.938 -0.5744 -1.8074  0.6208
 8969SOL    HW238370   4.304   2.526   4.000 -1.7697  0.1336  0.0377
 8970SOL     OW38371   2.394   0.216   2.463  0.6808 -0.3620 -0.1690
 8970SOL    HW138372   2.469   0.183   2.414 -0.4138 -1.5355 -1.0708
 8970SOL    HW238373   2.326   0.211   2.396  0.3531  2.3884 -0.0318
 8971SOL     OW38374   4.517   4.005   2.517 -0.1100 -0.1116 -0.3452
 8971SOL    HW138375   4.536   4.090   2.555 -1.6479  1.3451 -2.8855
 8971SOL    HW238376   4.464   3.969   2.588 -1.5929  0.6163 -1.0794
 8972SOL     OW38377   1.195   1.878   5.457  0.3270 -0.1747  0.2337
 8972SOL    HW138378   1.123   1.815   5.466  1.4292 -1.3885  0.5528
 8972SOL    HW238379   1.153   1.963   5.467 -0.2677 -0.6234  1.5725
 8973SOL     OW38380   3.661   1.785   2.197 -0.2578  0.2257 -0.3547
 8973SOL    HW138381   3.615   1.761   2.116 -0.2920 -0.5203 -0.1164
 8973SOL    HW238382   3.611   1.861   2.229  1.0808  2.1646 -2.9030
 8974SOL     OW38383   2.350   3.587   1.478  0.1848 -0.3849  0.0782
 8974SOL    HW138384   2.396   3.652   1.532  0.3458 -1.8797  1.7316
 8974SOL    HW238385   2.291   3.641   1.426 -1.2906 -1.5735  0.5307
 8975SOL     OW38386   0.143   4.716   2.912 -0.9658 -0.0845 -0.0431
 8975SOL    HW138387   0.066   0.027   2.956 -1.2967  0.4429 -1.0597
 8975SOL    HW238388   0.205   4.717   2.985  2.1352 -0.0311 -2.6548
 8976SOL     OW38389   0.499   2.834  13.728  0.3497  0.2596  0.0092
 8976SOL    HW138390   0.544   2.823  13.813  0.7866 -0.0245 -0.2558
 8976SOL    HW238391   0.440   2.902  13.761 -2.3104 -2.0816  0.0098
 8977SOL     OW38392   2.614   3.341  13.275 -0.1587  0.3070 -0.5245
 8977SOL    HW138393   2.540   3.360  13.332  0.8575 -0.2906  1.0014
 8977SOL    HW238394   2.632   3.250  13.301 -1.0831  1.1296  2.8922
 8978SOL     OW38395   4.453   4.395  14.463 -0.6364  0.0227  0.1466
 8978SOL    HW138396   4.493   4.322  14.416 -0.6898  0.5916 -0.7831
 8978SOL    HW238397   4.523   4.409  14.527 -1.0224 -2.6987  1.1500
 8979SOL     OW38398   1.298   4.560   2.883 -0.3447 -0.5977 -0.2594
 8979SOL    HW138399   1.203   4.564   2.892 -0.3983 -1.2603 -0.5307
 8979SOL    HW238400   1.309   4.567   2.789  1.6204 -0.1275  0.0093
 8980SOL     OW38401   0.469   1.234   6.172 -0.2971  0.1072  0.4712
 8980SOL    HW138402   0.547   1.196   6.132 -2.1620 -1.8236 -1.3228
 8980SOL    HW238403   0.471   1.327   6.148 -2.2959  0.6897  2.5266
 8981SOL     OW38404   4.661   1.420  12.598  1.0074  0.1583 -0.0491
 8981SOL    HW138405   0.020   1.425  12.644  0.8111  0.3111  0.2934
 8981SOL    HW238406   4.636   1.334  12.631  1.2594  0.7877  1.7701
 8982SOL     OW38407   1.975   1.317   4.838  0.0135  0.2618  0.0083
 8982SOL    HW138408   2.062   1.294   4.871 -0.5032 -3.5606 -1.2436
 8982SOL    HW238409   1.928   1.258   4.897  0.6078 -1.5643 -1.3334
 8983SOL     OW38410   4.280   4.577  16.139 -0.4534  0.1211  0.4985
 8983SOL    HW138411   4.352   4.589  16.202 -2.4545  3.3114  2.2184
 8983SOL    HW238412   4.217   4.636  16.180 -2.7772 -1.6770 -0.5336
 8984SOL     OW38413   3.579   0.068   8.284  0.0755 -0.0682  0.2937
 8984SOL    HW138414   3.582   0.043   8.376  2.6423  0.3191  0.3158
 8984SOL    HW238415   3.638   0.143   8.272  0.7456 -0.2479  2.5248
 8985SOL     OW38416   3.481   3.600   4.353 -0.1774 -0.2565 -0.3026
 8985SOL    HW138417   3.437   3.621   4.270  0.2019 -2.9949 -1.2138
 8985SOL    HW238418   3.557   3.658   4.343  0.7900 -1.3485  0.8149
 8986SOL     OW38419   0.821   4.614   2.461 -0.1680 -0.0686 -0.2056
 8986SOL    HW138420   0.891   4.598   2.397 -0.1897 -0.0669 -0.2296
 8986SOL    HW238421   0.847   4.688   2.516  1.7480 -1.1730  0.4212
 8987SOL     OW38422   3.785   1.896   6.637 -0.2680 -0.1892 -0.0080
 8987SOL    HW138423   3.821   1.909   6.549  1.7808 -0.6706  0.7603
 8987SOL    HW238424   3.853   1.909   6.702 -0.2165 -1.6855  0.2479
 8988SOL     OW38425   4.476   0.143   4.027 -0.3096 -0.3939  0.4041
 8988SOL    HW138426   4.492   0.238   4.027  0.2320 -0.4900  1.5265
 8988SOL    HW238427   4.392   0.147   3.980 -0.7469 -1.0130  1.1401
 8989SOL     OW38428   2.131   3.608   5.010 -0.0180 -1.0129  0.2040
 8989SOL    HW138429   2.191   3.594   4.936 -1.0597 -1.7031 -0.5163
 8989SOL    HW238430   2.176   3.558   5.079 -0.7959 -4.0044 -1.4282
 8990SOL     OW38431   1.083   4.302   3.255 -0.4360 -0.0106  0.3873
 8990SOL    HW138432   1.027   4.371   3.219  0.5786 -1.1331 -3.3750
 8990SOL    HW238433   1.170   4.341   3.251 -1.5718  2.5882  1.6112
 8991SOL     OW38434   2.243   3.348   7.537  0.6120  0.0820 -0.4462
 8991SOL    HW138435   2.168   3.293   7.515 -0.8975  0.9856  2.5062
 8991SOL    HW238436   2.262   3.303   7.619  0.5721 -1.0750 -1.0565
 8992SOL     OW38437   2.519   2.679   0.759  0.7766  0.3902 -0.4179
 8992SOL    HW138438   2.555   2.697   0.846 -0.1948 -0.1418  0.0930
 8992SOL    HW238439   2.548   2.750   0.701 -0.8520  0.0544 -1.6206
 8993SOL     OW38440   0.299   1.908   6.445 -0.2973 -0.6867  0.0339
 8993SOL    HW138441   0.375   1.868   6.488  0.5264  0.7108 -0.1005
 8993SOL    HW238442   0.335   1.945   6.365 -0.6529 -0.2305  0.0815
 8994SOL     OW38443   4.089   2.602  16.963 -0.0083  0.1108  0.1535
 8994SOL    HW138444   4.096   2.697  16.957 -2.4566  0.3399  1.0067
 8994SOL    HW238445   4.153   2.582  16.895  1.2531  2.0275  0.7838
 8995SOL     OW38446   3.636   4.038   6.950 -0.1475  0.2318  0.2713
 8995SOL    HW138447   3.553   3.999   6.976  0.2750 -0.3799  0.6955
 8995SOL    HW238448   3.643   4.125   6.989 -1.2585  0.3113  0.2855
 8996SOL     OW38449   1.586   0.569   7.510  0.1740  0.2895 -0.2651
 8996SOL    HW138450   1.598   0.664   7.521 -0.8444  0.4034 -0.1655
 8996SOL    HW238451   1.630   0.557   7.426  1.3983 -0.1854  0.4375
 8997SOL     OW38452   3.361   0.947   3.698 -0.1517 -0.4480  0.4932
 8997SOL    HW138453   3.382   0.859   3.664  0.4158  0.2179 -0.9009
 8997SOL    HW238454   3.374   0.994   3.615  0.5317 -0.8032  0.3922
 8998SOL     OW38455   4.061   3.070   6.091 -0.3583  0.0335  0.6209
 8998SOL    HW138456   4.133   3.039   6.037  0.6955  1.5640  1.1289
 8998SOL    HW238457   3.991   3.018   6.051  1.0953  0.7990 -2.8511
 8999SOL     OW38458   2.063   1.237   5.800  0.0974  0.0376  0.8045
 8999SOL    HW138459   2.034   1.170   5.738  1.1269  1.1449 -0.8367
 8999SOL    HW238460   1.978   1.259   5.839 -1.9076  0.2368 -3.7666
 9000SOL     OW38461   2.908   2.404  15.854  0.1305  0.6056  0.2857
 9000SOL    HW138462   2.832   2.347  15.841 -0.6129  1.9051 -1.1520
 9000SOL    HW238463   2.972   2.353  15.804 -0.2988  0.2629  0.0781
 9001SOL     OW38464   1.853   1.660   2.959  0.2697  0.1101  0.4731
 9001SOL    HW138465   1.820   1.674   2.870 -0.5018  1.5327  0.9678
 9001SOL    HW238466   1.776   1.626   3.004  0.8026 -1.8908 -0.1527
 9002SOL     OW38467   4.510   0.991   1.853 -0.4364  0.6195  0.0140
 9002SOL    HW138468   4.549   1.051   1.788  0.3842  0.4544  0.3485
 9002SOL    HW238469   4.421   0.982   1.820 -0.8198  1.3690  0.8246
 9003SOL     OW38470   0.845   1.953   4.057  0.1693 -0.2225 -0.2484
 9003SOL    HW138471   0.913   1.997   4.108  0.3012 -1.2514  0.4494
 9003SOL    HW238472   0.820   2.025   3.999 -0.4803 -0.9544 -0.8719
 9004SOL     OW38473   2.980   2.526   7.216 -0.2760 -0.0391 -0.1674
 9004SOL    HW138474   2.931   2.460   7.264  1.4091 -1.0450  0.1790
 9004SOL    HW238475   3.007   2.574   7.294  0.7359 -2.8642  1.2184
 9005SOL     OW38476   2.296   3.380   6.542 -0.7275  0.7694  0.4253
 9005SOL    HW138477   2.316   3.457   6.488  0.2351 -0.2929 -0.7236
 9005SOL    HW238478   2.261   3.431   6.615  2.8957 -0.4427  2.9934
 9006SOL     OW38479   0.838   1.932   7.249  0.7337 -0.8253  0.6659
 9006SOL    HW138480   0.899   1.940   7.322  4.5119  0.1315 -2.5947
 9006SOL    HW238481   0.888   1.893   7.177  1.8336  1.3749  0.2218
 9007SOL     OW38482   1.039   0.091   8.669 -0.7189  0.0608  0.3589
 9007SOL    HW138483   1.130   0.113   8.689  0.2720 -2.1834 -1.5845
 9007SOL    HW238484   1.007   0.120   8.754 -0.2372 -3.0806  1.6057
 9008SOL     OW38485   4.624   4.641   2.602  0.1459 -0.6183 -0.0218
 9008SOL    HW138486   4.541   4.625   2.558  0.6288 -1.5590 -0.5679
 9008SOL    HW238487   4.614   4.587   2.680  1.5313  0.1073  0.6672
 9009SOL     OW38488   3.501   2.958   2.437 -0.3451 -0.4433  0.1538
 9009SOL    HW138489   3.594   2.978   2.451 -0.4891  0.6932 -0.5064
 9009SOL    HW238490   3.495   2.885   2.376 -2.3613  0.3110 -0.5488
 9010SOL     OW38491   2.608   2.141   4.478  0.3061  0.6104 -0.2913
 9010SOL    HW138492   2.578   2.228   4.453 -1.0602  0.9033  2.4934
 9010SOL    HW238493   2.631   2.103   4.393  0.2482  0.0740 -0.0638
 9011SOL     OW38494   3.824   1.960  13.632  0.7771  0.1815  0.2343
 9011SOL    HW138495   3.837   1.888  13.571 -0.1065  0.5727 -0.4199
 9011SOL    HW238496   3.778   1.915  13.704  2.6813  0.4037  1.5965
 9012SOL     OW38497   2.350   1.938   2.669  0.5959 -0.4409 -0.1608
 9012SOL    HW138498   2.419   1.887   2.711  0.7781 -2.5652 -3.0172
 9012SOL    HW238499   2.390   1.975   2.590 -1.6159  2.6493  0.1715
 9013SOL     OW38500   3.644   4.222   4.281  0.1595  0.0252  0.4052
 9013SOL    HW138501   3.619   4.132   4.258 -1.8406  0.7902 -0.4522
 9013SOL    HW238502   3.721   4.205   4.335 -0.3815  0.4001  1.2791
 9014SOL     OW38503   3.073   2.482   7.687  0.5433  0.2341 -0.2719
 9014SOL    HW138504   3.052   2.422   7.615 -1.2192  2.9490 -2.0534
 9014SOL    HW238505   3.027   2.423   7.746 -0.6076  1.1116 -0.2866
 9015SOL     OW38506   4.279   0.302  14.077  0.5523 -0.3530  0.1444
 9015SOL    HW138507   4.252   0.368  14.141 -1.7412 -0.5037 -0.6806
 9015SOL    HW238508   4.227   0.227  14.107 -1.7404  0.7120 -1.2306
 9016SOL     OW38509   2.795   2.486   3.040  0.2692  0.7312 -1.0724
 9016SOL    HW138510   2.844   2.558   3.080  0.8111  0.0270 -0.4859
 9016SOL    HW238511   2.735   2.452   3.106 -0.7678 -0.6415 -2.7406
 9017SOL     OW38512   1.107   0.571   5.827 -0.2182 -0.3063 -0.0466
 9017SOL    HW138513   1.058   0.637   5.876  0.8471  0.4647 -0.0188
 9017SOL    HW238514   1.040   0.534   5.770  0.4221  1.0584 -1.6925
 9018SOL     OW38515   3.519   2.113  11.136 -0.0306 -0.3210 -0.4211
 9018SOL    HW138516   3.438   2.083  11.178  0.8497 -1.2999  0.6010
 9018SOL    HW238517   3.485   2.165  11.064 -0.9510 -0.2365  0.0655
 9019SOL     OW38518   3.923   1.991   2.391 -0.3976 -0.0097  0.3925
 9019SOL    HW138519   3.943   2.027   2.305 -0.1541  2.1465  1.3447
 9019SOL    HW238520   3.979   1.914   2.385 -0.9147 -0.3101 -0.5426
 9020SOL     OW38521   0.790   1.041  15.807 -0.3627  0.3533 -0.7732
 9020SOL    HW138522   0.715   1.081  15.850  0.7700  0.5244  1.0158
 9020SOL    HW238523   0.744   0.981  15.748 -0.2118 -1.2632  0.7715
 9021SOL     OW38524   4.253   1.913  17.354 -0.4770  0.4480  0.5548
 9021SOL    HW138525   4.265   2.001  17.318 -0.2633 -0.4848 -1.6624
 9021SOL    HW238526   4.285   1.858  17.283  1.0761 -0.7689  2.1591
 9022SOL     OW38527   3.333   0.896   6.681 -0.2011  0.3058  0.2849
 9022SOL    HW138528   3.276   0.959   6.727 -0.1749  0.8494 -0.4293
 9022SOL    HW238529   3.404   0.960   6.677 -0.4104  0.3919 -2.2623
 9023SOL     OW38530   3.023   2.905  15.501 -0.1029 -0.0329 -0.0381
 9023SOL    HW138531   3.019   2.872  15.591 -0.7747  0.1213 -0.0151
 9023SOL    HW238532   3.015   2.999  15.510  2.4700  0.0926  0.7780
 9024SOL     OW38533   4.442   4.461  15.616  0.3387 -0.1007  0.0345
 9024SOL    HW138534   4.430   4.376  15.573  3.8103 -0.5735  0.0227
 9024SOL    HW238535   4.378   4.522  15.578  0.0478  0.9607  2.2452
 9025SOL     OW38536   4.700   1.700   5.825 -0.2684  0.4768 -0.3580
 9025SOL    HW138537   4.711   1.792   5.800 -2.0494  0.3084 -1.7301
 9025SOL    HW238538   4.611   1.697   5.789 -1.4640  0.1718  2.6337
 9026SOL     OW38539   2.239   4.472   3.980  0.1954  0.1441 -0.3322
 9026SOL    HW138540   2.231   4.554   4.029 -0.9482  0.9795 -1.9239
 9026SOL    HW238541   2.325   4.433   3.995  1.6298  3.1202 -0.8335
 9027SOL     OW38542   1.363   2.681   9.334  0.5135 -0.5250 -0.5619
 9027SOL    HW138543   1.401   2.694   9.422  0.6900 -0.6283 -0.6227
 9027SOL    HW238544   1.299   2.752   9.334  1.4647  0.3419  0.8961
 9028SOL     OW38545   0.554   0.297  11.471 -0.4111 -0.5371 -0.0978
 9028SOL    HW138546   0.525   0.350  11.545 -0.8742  1.6248 -1.8336
 9028SOL    HW238547   0.627   0.351  11.439 -0.1581  0.2359  1.7911
 9029SOL     OW38548   0.977   2.838   2.782  0.3576  0.0868 -0.2540
 9029SOL    HW138549   0.984   2.771   2.714  0.3752  0.2658 -0.4264
 9029SOL    HW238550   1.072   2.844   2.796  0.5704  0.9137 -2.1410
 9030SOL     OW38551   4.388   3.857   5.557  0.5958  0.4899 -0.6333
 9030SOL    HW138552   4.473   3.899   5.565  0.0004  1.1642  2.4173
 9030SOL    HW238553   4.407   3.770   5.521  0.5760  0.6586 -1.0419
 9031SOL     OW38554   1.478   1.718   9.254 -0.0203 -0.2760 -0.2543
 9031SOL    HW138555   1.428   1.783   9.305  0.5554 -1.3893  1.7310
 9031SOL    HW238556   1.490   1.750   9.165 -0.1687  0.9044  0.1475
 9032SOL     OW38557   3.488   0.511  15.893 -0.0850  0.1242 -0.0415
 9032SOL    HW138558   3.533   0.562  15.960 -0.1639 -0.2127  0.2682
 9032SOL    HW238559   3.441   0.583  15.850  0.3498 -0.5083 -1.5796
 9033SOL     OW38560   0.755   1.953   4.817 -0.2110  0.4338 -0.0365
 9033SOL    HW138561   0.850   1.939   4.820 -0.0625  0.9319 -2.0259
 9033SOL    HW238562   0.728   1.910   4.736  3.4367 -0.5672 -0.7359
 9034SOL     OW38563   0.572   1.975   3.478 -0.1781 -0.0306 -0.4080
 9034SOL    HW138564   0.529   2.060   3.465 -1.6632 -0.9494 -1.4778
 9034SOL    HW238565   0.492   1.924   3.490  0.4943 -1.1765 -0.7633
 9035SOL     OW38566   1.758   0.914   6.348 -0.2603 -0.0870  0.4461
 9035SOL    HW138567   1.814   0.983   6.315 -0.2002 -1.7072 -2.7950
 9035SOL    HW238568   1.702   0.974   6.397 -1.4729 -1.3823  0.6702
 9036SOL     OW38569   4.207   4.268  12.308 -0.4789  0.5194  0.0804
 9036SOL    HW138570   4.283   4.245  12.362 -1.9493 -2.0044  1.1125
 9036SOL    HW238571   4.147   4.196  12.330  1.4934 -1.2205 -0.1526
 9037SOL     OW38572   0.049   2.755  11.008 -0.1584 -0.9845 -0.2298
 9037SOL    HW138573   0.089   2.792  10.930  2.5637 -0.6429  1.3230
 9037SOL    HW238574   0.089   2.801  11.082  0.5307 -0.7888 -0.7213
 9038SOL     OW38575   1.462   2.033  11.565 -0.8501 -0.1366  0.1828
 9038SOL    HW138576   1.381   2.073  11.534 -2.4875 -4.5916 -1.3013
 9038SOL    HW238577   1.506   2.112  11.595 -0.0409 -0.3981 -0.3267
 9039SOL     OW38578   4.374   1.461  14.034 -0.0758 -0.1637 -0.4952
 9039SOL    HW138579   4.305   1.496  13.978 -0.2775 -0.6704 -0.5576
 9039SOL    HW238580   4.457   1.462  13.987 -0.1072  0.8549 -0.5307
 9040SOL     OW38581   2.696   1.595   1.647  0.1802 -0.3672 -0.4432
 9040SOL    HW138582   2.783   1.595   1.687 -0.9762 -3.0919  2.0858
 9040SOL    HW238583   2.665   1.679   1.679  1.2207 -0.3695  0.5839
 9041SOL     OW38584   1.573   2.470  12.886  0.8631  1.0514  0.1393
 9041SOL    HW138585   1.628   2.448  12.962  1.0392 -0.6362 -0.4827
 9041SOL    HW238586   1.537   2.383  12.870  4.1795 -0.5641  1.5424
 9042SOL     OW38587   4.035   1.339   5.086  0.0595  0.2080  0.1712
 9042SOL    HW138588   4.117   1.322   5.133 -1.8718 -4.3701  1.8600
 9042SOL    HW238589   4.029   1.264   5.027 -0.3200  0.6646 -0.3780
 9043SOL     OW38590   1.780   0.564   8.840 -0.2156  0.1284  0.5435
 9043SOL    HW138591   1.829   0.638   8.876  0.5764  0.1746 -0.6656
 9043SOL    HW238592   1.695   0.606   8.823 -0.2266 -0.0677  0.1349
 9044SOL     OW38593   3.906   3.209   8.210 -0.7269  0.2391  0.3281
 9044SOL    HW138594   3.997   3.239   8.216 -1.5562  2.8020  0.0153
 9044SOL    HW238595   3.866   3.244   8.290  0.5440  0.4872  0.8602
 9045SOL     OW38596   0.862   4.577   7.443 -0.2080  0.2709  0.0286
 9045SOL    HW138597   0.939   4.528   7.415  0.2106  0.5031  0.7741
 9045SOL    HW238598   0.793   4.512   7.431  0.3144 -0.4530  0.9722
 9046SOL     OW38599   0.809   4.686   6.322 -0.4471  0.1063 -0.4189
 9046SOL    HW138600   0.815   4.724   6.234 -0.4303  0.4391 -0.2769
 9046SOL    HW238601   0.751   4.612   6.303 -1.3993  0.3919  1.3194
 9047SOL     OW38602   0.736   3.584  11.599  0.3774  0.5082 -0.4032
 9047SOL    HW138603   0.803   3.516  11.609  1.4906  1.6162 -0.3669
 9047SOL    HW238604   0.774   3.646  11.662 -0.1484  1.6938 -1.2674
 9048SOL     OW38605   3.921   2.194   8.240 -0.1143 -0.0672 -0.4198
 9048SOL    HW138606   3.852   2.230   8.296 -1.7332 -2.1200 -1.1003
 9048SOL    HW238607   3.943   2.121   8.297  0.2020 -0.8585 -1.5635
 9049SOL     OW38608   2.540   3.316   9.657  0.3217  0.7688  0.6861
 9049SOL    HW138609   2.466   3.377   9.663 -0.1636 -0.0555  3.0757
 9049SOL    HW238610   2.543   3.310   9.562  1.4152 -1.7409  0.8678
 9050SOL     OW38611   4.374   2.242  12.222 -0.0937 -0.5275  0.0619
 9050SOL    HW138612   4.455   2.200  12.192 -0.1011  0.3926 -1.2575
 9050SOL    HW238613   4.356   2.187  12.298  1.3181  0.8671  1.4041
 9051SOL     OW38614   2.812   0.656   3.499  0.5377 -0.3389 -0.2311
 9051SOL    HW138615   2.829   0.605   3.578 -1.0449 -0.0713  0.2789
 9051SOL    HW238616   2.805   0.588   3.432  1.4164 -1.4475  0.8084
 9052SOL     OW38617   2.314   1.996  12.942  0.5658  0.2634  0.6879
 9052SOL    HW138618   2.365   1.930  12.989  0.2871  0.6602  1.5593
 9052SOL    HW238619   2.378   2.023  12.877 -0.1248 -0.3758 -0.2597
 9053SOL     OW38620   2.502   4.642   6.823  0.2736  0.3090 -0.3341
 9053SOL    HW138621   2.547   4.558   6.833  2.0901  1.2701 -0.5043
 9053SOL    HW238622   2.461   4.647   6.910 -1.4024 -3.3022 -0.9381
 9054SOL     OW38623   0.998   1.128  16.050  0.7993  0.6497 -0.5851
 9054SOL    HW138624   0.919   1.122  15.995  0.0421  1.7331  0.3711
 9054SOL    HW238625   0.976   1.198  16.112 -0.1168 -2.5941  2.6929
 9055SOL     OW38626   3.862   1.360   2.112 -0.1631 -0.0526  0.3720
 9055SOL    HW138627   3.899   1.410   2.040 -2.0366  1.7581  0.6656
 9055SOL    HW238628   3.867   1.430   2.178 -0.3268  0.0359  0.2889
 9056SOL     OW38629   1.950   0.091   6.386 -0.0047 -0.0223 -0.4621
 9056SOL    HW138630   1.861   0.059   6.371  1.0349 -2.7839 -0.8439
 9056SOL    HW238631   1.932   0.167   6.441  0.1103 -1.1213  1.0950
 9057SOL     OW38632   0.346   0.098   3.557  0.3968 -0.1976 -0.1405
 9057SOL    HW138633   0.304   0.062   3.635  1.8730 -1.9425 -0.1645
 9057SOL    HW238634   0.305   0.184   3.547  1.4171  0.6668  2.9683
 9058SOL     OW38635   1.751   0.186  11.299 -0.5491  0.7675 -0.2577
 9058SOL    HW138636   1.770   0.279  11.290  0.7869  0.7140  2.2020
 9058SOL    HW238637   1.704   0.194  11.382 -0.0811 -3.9544  0.4892
 9059SOL     OW38638   3.679   1.509  12.382 -0.0868  0.6869  0.3144
 9059SOL    HW138639   3.767   1.516  12.419  0.4706  4.8948 -1.9145
 9059SOL    HW238640   3.694   1.494  12.289  2.1241  0.2383  0.7621
 9060SOL     OW38641   1.413   3.578   0.618  0.3049 -0.2031  0.0110
 9060SOL    HW138642   1.354   3.596   0.692  2.3820  0.8682  1.4169
 9060SOL    HW238643   1.473   3.652   0.613 -2.0021  1.5259 -1.6886
 9061SOL     OW38644   3.349   3.667   4.134 -0.3398 -0.5827 -1.0192
 9061SOL    HW138645   3.389   3.666   4.047 -0.2025 -0.2403 -0.9623
 9061SOL    HW238646   3.265   3.712   4.127  0.9893  1.6848 -2.4673
 9062SOL     OW38647   4.082   0.590  13.981 -0.2884  0.7386  0.1675
 9062SOL    HW138648   4.121   0.599  14.068  1.4318 -0.0401 -0.5257
 9062SOL    HW238649   4.024   0.514  13.993 -0.1519  1.0771  3.1322
 9063SOL     OW38650   2.200   4.052   5.080 -0.0602  0.7253 -0.5140
 9063SOL    HW138651   2.259   4.040   5.005  0.6878 -0.8577  0.3326
 9063SOL    HW238652   2.130   3.989   5.061  1.0606 -1.1213  1.4412
 9064SOL     OW38653   4.480   2.685   4.483  0.3524  0.1371  0.0690
 9064SOL    HW138654   4.508   2.606   4.439 -0.3287  1.0985 -2.1081
 9064SOL    HW238655   4.401   2.718   4.439 -0.6525 -2.5673 -0.1049
 9065SOL     OW38656   1.490   4.302   6.073  0.1574  0.3745 -0.3031
 9065SOL    HW138657   1.526   4.225   6.028 -1.3485 -1.0400  0.9127
 9065SOL    HW238658   1.516   4.288   6.164  0.1439 -0.7254 -0.4629
 9066SOL     OW38659   0.732   4.276   6.091  0.5369  0.3183  0.5040
 9066SOL    HW138660   0.803   4.239   6.038 -0.3928  0.5631 -0.9053
 9066SOL    HW238661   0.772   4.265   6.178 -1.9005 -0.4617  1.5050
 9067SOL     OW38662   3.602   4.263   1.464  0.3200 -0.2929 -0.5356
 9067SOL    HW138663   3.621   4.317   1.388 -0.4582  1.6550  0.6495
 9067SOL    HW238664   3.561   4.192   1.414 -0.4988 -1.4942  1.8104
 9068SOL     OW38665   3.448   0.301   5.063  0.1842 -0.0825 -0.4924
 9068SOL    HW138666   3.374   0.315   5.004  1.7976  1.0235 -2.2296
 9068SOL    HW238667   3.390   0.291   5.139 -0.0094 -0.5611 -0.6988
 9069SOL     OW38668   1.664   3.148   2.473 -0.2595 -0.3726  0.2578
 9069SOL    HW138669   1.693   3.207   2.404  0.8842 -0.3936  0.7234
 9069SOL    HW238670   1.659   3.213   2.542 -1.5747  0.0342 -0.2177
 9070SOL     OW38671   2.810   2.000  11.551 -0.0074 -0.1837 -0.1489
 9070SOL    HW138672   2.752   2.075  11.568  0.7610  0.9301 -2.4509
 9070SOL    HW238673   2.753   1.935  11.511  1.2204 -0.3465 -1.6373
 9071SOL     OW38674   0.622   1.261   3.105 -0.2612  0.3313 -0.0806
 9071SOL    HW138675   0.698   1.290   3.156  0.1060  1.6446 -1.3892
 9071SOL    HW238676   0.562   1.334   3.119 -0.0342  0.4990  0.0220
 9072SOL     OW38677   3.560   0.069   3.708 -0.2584  0.3859  0.2509
 9072SOL    HW138678   3.533   4.709   3.743 -0.9088 -0.2549 -1.8477
 9072SOL    HW238679   3.486   0.088   3.651  0.4218 -0.5737 -0.9334
 9073SOL     OW38680   2.857   2.737   7.550  0.1850 -0.1098  0.0705
 9073SOL    HW138681   2.884   2.828   7.541  0.6824 -0.0957  1.7496
 9073SOL    HW238682   2.941   2.693   7.538  1.0448  0.7224  3.0816
 9074SOL     OW38683   4.064   4.338   1.544  0.3739  0.0340 -0.5825
 9074SOL    HW138684   4.025   4.264   1.496 -0.2132 -0.6686  0.9899
 9074SOL    HW238685   4.032   4.416   1.498  0.6310  0.4449 -0.0542
 9075SOL     OW38686   0.672   3.031   6.647 -0.2914 -0.5868  0.2768
 9075SOL    HW138687   0.658   3.122   6.671  0.9047 -0.0548 -1.0673
 9075SOL    HW238688   0.696   2.990   6.731  2.0819 -0.0062 -0.1254
 9076SOL     OW38689   2.337   3.447   3.222 -0.1680 -0.0771 -0.0163
 9076SOL    HW138690   2.322   3.468   3.315  0.0187 -0.6388  0.1448
 9076SOL    HW238691   2.246   3.445   3.193 -0.4550  0.5834  0.8526
 9077SOL     OW38692   0.679   3.630   8.258  0.7422  0.1917 -0.4171
 9077SOL    HW138693   0.745   3.561   8.269  0.0204 -0.2297  1.2438
 9077SOL    HW238694   0.636   3.632   8.343  2.0832 -0.6922  0.2833
 9078SOL     OW38695   2.212   0.076   3.776 -0.3797  0.1068  0.5530
 9078SOL    HW138696   2.233   0.167   3.751  2.1837 -0.6899 -0.2376
 9078SOL    HW238697   2.136   0.059   3.721  0.2368 -2.0003  0.3609
 9079SOL     OW38698   1.945   2.075   6.991  0.0531 -0.0294  1.1471
 9079SOL    HW138699   1.975   2.023   7.066  0.4280 -2.1369 -0.4727
 9079SOL    HW238700   1.924   2.157   7.035 -2.6358 -0.9177  1.5112
 9080SOL     OW38701   1.582   2.025   2.339 -0.2200  0.0939 -0.2193
 9080SOL    HW138702   1.627   2.050   2.258  0.4328 -0.4638 -0.0317
 9080SOL    HW238703   1.539   2.109   2.355  0.2145  0.2267  0.2704
 9081SOL     OW38704   1.216   0.560   3.863  0.0672  0.1755  0.4644
 9081SOL    HW138705   1.138   0.543   3.810  0.1300  1.2532  0.0288
 9081SOL    HW238706   1.193   0.501   3.934 -0.3103  1.3160  1.2877
 9082SOL     OW38707   1.984   0.961  10.712  0.4209  0.6003 -0.3835
 9082SOL    HW138708   1.987   1.045  10.758 -0.0601 -1.3440  3.1856
 9082SOL    HW238709   1.976   0.991  10.621 -1.0208 -0.4566 -0.5947
 9083SOL     OW38710   1.794   1.449  14.073  0.6298  0.5894  0.3854
 9083SOL    HW138711   1.749   1.390  14.012  1.6697 -2.0135  2.1287
 9083SOL    HW238712   1.884   1.446  14.039  0.0551 -1.5030 -0.9656
 9084SOL     OW38713   0.241   1.962   4.840  0.1867  0.6363 -0.2273
 9084SOL    HW138714   0.238   2.038   4.898  2.0991  0.3353  0.2830
 9084SOL    HW238715   0.149   1.956   4.816 -0.0543  0.7844  0.6402
 9085SOL     OW38716   2.387   4.723  12.872  0.3487  0.6673 -0.4782
 9085SOL    HW138717   2.343   4.647  12.911  2.9617 -0.5158  0.1663
 9085SOL    HW238718   2.343   0.075  12.908 -1.1352 -0.4056  0.0079
 9086SOL     OW38719   2.859   4.295  16.039 -0.4032 -0.0735  0.4924
 9086SOL    HW138720   2.787   4.252  15.994 -0.1756 -0.5702  0.6035
 9086SOL    HW238721   2.912   4.306  15.960 -1.0308 -0.9795 -0.0532
 9087SOL     OW38722   3.502   0.467   8.036 -0.2016  0.2603  0.2484
 9087SOL    HW138723   3.596   0.471   8.018 -0.2981 -1.8707 -0.7330
 9087SOL    HW238724   3.515   0.441   8.127  1.6523 -0.3005 -0.1764
 9088SOL     OW38725   4.030   1.424  10.595  0.1917 -0.7934 -0.0139
 9088SOL    HW138726   4.089   1.349  10.605  0.2406 -0.8294 -0.5678
 9088SOL    HW238727   4.076   1.477  10.660 -1.2584 -2.0946  2.0927
 9089SOL     OW38728   3.013   4.056   4.718  0.2734 -0.1304 -0.3460
 9089SOL    HW138729   2.943   4.118   4.696 -1.8445 -2.2884  0.3988
 9089SOL    HW238730   2.977   3.968   4.720 -1.5330  0.5861 -0.7230
 9090SOL     OW38731   2.693   3.670  12.287  0.0479 -0.3751  0.5921
 9090SOL    HW138732   2.761   3.719  12.240  0.0913 -2.5204 -1.5619
 9090SOL    HW238733   2.642   3.745  12.319  0.5482  0.2251 -0.0178
 9091SOL     OW38734   1.140   4.022   2.911  0.7079 -0.3445  0.0280
 9091SOL    HW138735   1.112   3.934   2.884 -0.0342 -0.6117  1.6950
 9091SOL    HW238736   1.124   4.015   3.005 -0.9160  1.2156 -0.1466
 9092SOL     OW38737   0.126   0.234   2.453  0.0359  0.6764  0.3986
 9092SOL    HW138738   0.160   0.212   2.539 -0.3395  0.9599  0.6176
 9092SOL    HW238739   0.162   0.321   2.434  0.2659  0.6370  0.6752
 9093SOL     OW38740   0.469   1.731   6.010 -0.3756 -0.1931  0.3195
 9093SOL    HW138741   0.477   1.789   5.935 -1.3260 -2.1348 -1.2710
 9093SOL    HW238742   0.509   1.783   6.080  0.4844  1.4337 -1.3701
 9094SOL     OW38743   0.380   3.946   2.220 -0.5418 -0.0062  0.1514
 9094SOL    HW138744   0.401   3.865   2.266 -1.0341  1.6735  3.3684
 9094SOL    HW238745   0.290   3.925   2.197 -0.0095  0.1359 -2.0253
 9095SOL     OW38746   1.092   2.564   7.814 -0.2680  0.6199 -0.2273
 9095SOL    HW138747   1.176   2.587   7.774 -0.0023  0.9056  0.4929
 9095SOL    HW238748   1.106   2.591   7.905  1.7379  1.2767 -0.7478
 9096SOL     OW38749   1.507   2.805  14.514 -0.1031  0.2033 -0.2239
 9096SOL    HW138750   1.511   2.897  14.486  0.1876  0.0337 -0.7380
 9096SOL    HW238751   1.600   2.784  14.512 -0.9271 -3.4811  0.3429
 9097SOL     OW38752   0.315   3.444   9.263 -0.3429  0.3448 -0.0605
 9097SOL    HW138753   0.394   3.392   9.278 -0.1842  0.2038 -1.3169
 9097SOL    HW238754   0.292   3.480   9.348 -0.8868 -0.8471  0.2966
 9098SOL     OW38755   3.953   2.727   4.008  0.7280  0.0022 -0.1700
 9098SOL    HW138756   3.909   2.658   3.957  1.7140 -2.5108  2.3513
 9098SOL    HW238757   4.045   2.701   4.015  0.2526 -2.4510 -2.6575
 9099SOL     OW38758   1.526   0.799   9.222 -0.1219 -0.1575 -0.2843
 9099SOL    HW138759   1.561   0.718   9.184 -0.4464 -0.9147  1.0523
 9099SOL    HW238760   1.452   0.804   9.161 -0.0815  0.0813 -0.3147
 9100SOL     OW38761   4.270   2.448   8.660 -0.0610  0.1325 -0.6864
 9100SOL    HW138762   4.264   2.419   8.569 -1.5010 -0.5481 -0.3686
 9100SOL    HW238763   4.358   2.486   8.666  0.9250 -2.3557  1.0032
 9101SOL     OW38764   4.279   3.313  15.356  0.1600 -0.5604 -0.0111
 9101SOL    HW138765   4.358   3.367  15.345 -0.2699 -0.4629 -2.7315
 9101SOL    HW238766   4.252   3.316  15.264  0.4591 -0.5908 -0.0994
 9102SOL     OW38767   0.861   1.291   6.068 -0.1786 -0.6565 -0.3258
 9102SOL    HW138768   0.807   1.346   6.012 -1.2044 -0.1863  1.1168
 9102SOL    HW238769   0.796   1.222   6.059  0.1494 -0.6428 -2.6623
 9103SOL     OW38770   0.984   3.626   5.068  0.7972  0.2501 -0.5184
 9103SOL    HW138771   0.975   3.647   5.161 -1.4655 -0.3760 -0.5952
 9103SOL    HW238772   0.913   3.562   5.072 -0.2807  1.1829 -4.1042
 9104SOL     OW38773   0.280   1.163   8.409  0.5641 -0.0828 -0.1767
 9104SOL    HW138774   0.369   1.137   8.385 -0.3502 -2.1013 -1.3554
 9104SOL    HW238775   0.284   1.252   8.372  0.3658 -0.4094 -0.9785
 9105SOL     OW38776   2.125   1.218   6.813 -0.2956  0.1635  0.6793
 9105SOL    HW138777   2.213   1.235   6.779 -0.2786 -2.3047 -0.5113
 9105SOL    HW238778   2.122   1.273   6.891  0.8829 -2.0541  2.2744
 9106SOL     OW38779   3.493   1.944   3.181 -0.1857  0.5072  0.2355
 9106SOL    HW138780   3.511   2.036   3.163  1.4085  0.0452 -0.5632
 9106SOL    HW238781   3.452   1.921   3.098  1.5160 -1.7422  0.0226
 9107SOL     OW38782   1.710   3.693   3.244 -0.6211 -0.1879  0.2363
 9107SOL    HW138783   1.696   3.771   3.297 -1.9392  0.0867 -0.5309
 9107SOL    HW238784   1.806   3.696   3.240 -0.4956 -1.4226  2.7905
 9108SOL     OW38785   4.584   4.724   9.976  0.5021  0.1247  0.1002
 9108SOL    HW138786   4.494   4.705   9.949  0.4609  1.7011 -0.8869
 9108SOL    HW238787   4.583   0.087   9.940  1.8398 -0.8792 -2.4241
 9109SOL     OW38788   2.504   3.066   5.954  0.5891 -0.2975  0.8138
 9109SOL    HW138789   2.500   3.027   6.041  1.6703  1.2996  1.5840
 9109SOL    HW238790   2.437   3.011   5.911  0.1588  0.4105  0.5750
 9110SOL     OW38791   4.643   1.341  12.259 -0.4784 -0.2297 -0.0490
 9110SOL    HW138792   4.578   1.352  12.328 -0.7793  0.6630 -0.4631
 9110SOL    HW238793   4.676   1.430  12.242 -1.3020  0.7042  3.3265
 9111SOL     OW38794   3.468   0.628   3.146 -0.1684 -0.2903  0.1153
 9111SOL    HW138795   3.514   0.688   3.088  0.1530 -1.0472 -0.4184
 9111SOL    HW238796   3.527   0.553   3.135 -0.0567 -0.0563 -0.8824
 9112SOL     OW38797   0.087   0.140   8.591  0.3070  0.1667  0.8236
 9112SOL    HW138798   0.061   0.232   8.591 -1.6900 -0.4176 -1.9845
 9112SOL    HW238799   0.173   0.147   8.551 -0.1038  0.1535 -0.0643
 9113SOL     OW38800   2.262   3.344   2.471  0.1614  0.7686  0.0469
 9113SOL    HW138801   2.249   3.433   2.438  1.5317  1.4975  1.4517
 9113SOL    HW238802   2.276   3.352   2.565  0.7708 -1.6457  0.1623
 9114SOL     OW38803   1.624   0.898  11.752  0.2845 -0.1947  0.4630
 9114SOL    HW138804   1.549   0.916  11.696  0.4911 -1.6297 -0.2753
 9114SOL    HW238805   1.626   0.802  11.754 -1.4963 -0.1834  2.0092
 9115SOL     OW38806   4.111   4.720  16.291 -0.2141 -0.0478  0.7171
 9115SOL    HW138807   4.103   4.672  16.373 -1.7573 -2.1592 -0.6766
 9115SOL    HW238808   4.094   0.085  16.320  1.7699  0.3461  0.6676
 9116SOL     OW38809   0.216   2.263   9.510 -0.3072  0.1344 -0.1966
 9116SOL    HW138810   0.161   2.240   9.435  0.7534 -1.6448 -0.4308
 9116SOL    HW238811   0.198   2.357   9.508 -2.2923 -0.2383  0.0690
 9117SOL     OW38812   0.015   4.072   4.906 -0.4381 -0.5406  0.4013
 9117SOL    HW138813   0.083   4.076   4.839 -0.8697 -1.6274 -0.1039
 9117SOL    HW238814   0.054   4.119   4.979 -0.4126 -0.8657  0.5936
 9118SOL     OW38815   1.171   2.299   6.670  0.1818  0.1701  0.4063
 9118SOL    HW138816   1.085   2.338   6.655 -0.3605  0.1721  3.6339
 9118SOL    HW238817   1.196   2.353   6.744 -2.2697  0.8690  0.6991
 9119SOL     OW38818   2.997   1.870  12.820  0.5450 -0.9177  0.1647
 9119SOL    HW138819   2.958   1.903  12.901 -1.9845 -1.7127 -0.7301
 9119SOL    HW238820   2.946   1.791  12.801 -0.9011  0.2927 -0.9486
 9120SOL     OW38821   1.322   2.318  16.045 -0.0418  0.1505 -0.0098
 9120SOL    HW138822   1.343   2.411  16.033 -1.3548  0.4537  0.1342
 9120SOL    HW238823   1.260   2.310  16.117 -0.2192 -1.1044 -0.3076
 9121SOL     OW38824   1.275   1.170   6.250 -0.7599  0.4956  0.3300
 9121SOL    HW138825   1.213   1.241   6.230  0.5945  1.8008  0.7948
 9121SOL    HW238826   1.228   1.088   6.233 -0.0922  0.0598  0.5771
 9122SOL     OW38827   0.793   4.015   4.439  0.3320 -0.3903  0.2519
 9122SOL    HW138828   0.799   3.947   4.372 -1.6556 -0.9443  0.6533
 9122SOL    HW238829   0.864   3.997   4.501 -0.8808  0.2470  1.8194
 9123SOL     OW38830   2.460   2.158   2.454 -0.1097 -0.5728 -0.4987
 9123SOL    HW138831   2.544   2.120   2.479 -0.7477 -1.3124  0.5543
 9123SOL    HW238832   2.491   2.221   2.390  2.1606  0.3578  1.5224
 9124SOL     OW38833   2.727   3.788  16.538  0.5873 -0.1511  0.3313
 9124SOL    HW138834   2.732   3.821  16.628 -0.0038 -2.0458  1.0676
 9124SOL    HW238835   2.759   3.698  16.542  1.2587  0.1137  0.9507
 9125SOL     OW38836   4.031   0.802   8.862 -0.4667  0.6696 -0.5159
 9125SOL    HW138837   4.004   0.813   8.953  2.1043  1.5945  0.1488
 9125SOL    HW238838   4.104   0.863   8.865 -0.7889  1.1562 -2.5485
 9126SOL     OW38839   3.492   2.530   5.466  0.0506 -0.7645 -0.1931
 9126SOL    HW138840   3.406   2.571   5.477  1.8313  2.9023  0.1082
 9126SOL    HW238841   3.492   2.468   5.538 -1.2288 -1.9279 -1.1998
 9127SOL     OW38842   1.217   3.440   3.971  0.3548  0.1833 -0.4787
 9127SOL    HW138843   1.152   3.416   3.904  0.2112  1.2523 -0.7159
 9127SOL    HW238844   1.191   3.393   4.050  3.5722 -1.6632 -0.4908
 9128SOL     OW38845   1.748   0.091  16.759 -0.5924 -0.0688 -0.3719
 9128SOL    HW138846   1.711   0.089  16.848 -0.1340 -0.8781 -0.1933
 9128SOL    HW238847   1.686   0.038  16.709 -0.6480 -0.3071 -0.0497
 9129SOL     OW38848   1.859   1.711  13.909  0.0123 -0.0891 -0.3179
 9129SOL    HW138849   1.815   1.787  13.871  0.9515  1.2083  1.2159
 9129SOL    HW238850   1.802   1.681  13.979  0.5938  0.7243  0.4879
 9130SOL     OW38851   4.159   1.608   8.413  0.6628 -0.2408 -0.0203
 9130SOL    HW138852   4.217   1.666   8.363 -0.8898  0.0522 -1.4823
 9130SOL    HW238853   4.181   1.630   8.503  0.4196 -0.6283  0.1337
 9131SOL     OW38854   2.566   4.179  17.126 -0.3322  0.4669  0.4636
 9131SOL    HW138855   2.531   4.268  17.136 -2.9458 -0.2797 -1.9760
 9131SOL    HW238856   2.528   4.130  17.198  2.2814  0.4393  1.8036
 9132SOL     OW38857   3.061   0.599   6.598  0.3986  0.1895 -0.0726
 9132SOL    HW138858   3.134   0.648   6.560 -1.1600  2.0365 -0.7190
 9132SOL    HW238859   3.095   0.589   6.687 -0.1903  1.3359  0.2925
 9133SOL     OW38860   3.794   0.060   3.871  0.0044  0.1163  0.1599
 9133SOL    HW138861   3.719   0.092   3.820 -0.2484 -0.4677  0.1726
 9133SOL    HW238862   3.754   0.047   3.957 -1.0450  1.3060 -0.1280
 9134SOL     OW38863   4.326   1.074   5.420 -0.0005 -0.2478  0.3957
 9134SOL    HW138864   4.358   1.051   5.333 -0.7741 -0.2627  0.1143
 9134SOL    HW238865   4.404   1.113   5.460  0.2567 -0.0373 -0.3203
 9135SOL     OW38866   1.368   4.043   0.894  0.0093  0.2625  0.2645
 9135SOL    HW138867   1.332   3.996   0.970  1.9074  1.1390  1.7319
 9135SOL    HW238868   1.440   3.981   0.881  0.5768  0.5483  1.9741
 9136SOL     OW38869   3.052   2.601   1.714 -0.5470 -0.1545 -0.4450
 9136SOL    HW138870   3.018   2.517   1.685 -0.8393 -0.1996  0.0249
 9136SOL    HW238871   3.042   2.587   1.808  1.3445 -0.2475 -0.2485
 9137SOL     OW38872   1.860   4.189   3.295 -0.8052 -0.2140 -0.0965
 9137SOL    HW138873   1.833   4.280   3.287  3.3910  1.1812  1.4970
 9137SOL    HW238874   1.854   4.151   3.207  0.7424 -2.2665  0.6702
 9138SOL     OW38875   4.466   0.088  15.686  0.0307 -0.4899 -0.4992
 9138SOL    HW138876   4.505   0.156  15.741  0.2237 -1.0757  0.0838
 9138SOL    HW238877   4.545   0.042  15.658  0.3585  1.0292 -2.0280
 9139SOL     OW38878   2.376   2.793   9.953  0.2347  0.4955 -0.0334
 9139SOL    HW138879   2.396   2.700   9.963 -1.4856  0.2674  1.2017
 9139SOL    HW238880   2.448   2.834   9.905 -1.0634  1.3898 -1.2019
 9140SOL     OW38881   1.225   0.578   5.521  0.1736 -0.2015  0.3873
 9140SOL    HW138882   1.260   0.491   5.502  0.6556  0.2154 -0.5852
 9140SOL    HW238883   1.147   0.557   5.573 -1.8696 -0.3936 -2.7950
 9141SOL     OW38884   3.606   4.278  14.947  0.2909 -0.2051 -0.2055
 9141SOL    HW138885   3.560   4.268  14.863  0.0919  1.0991 -0.2630
 9141SOL    HW238886   3.687   4.231  14.931 -0.4284 -0.9715 -1.5765
 9142SOL     OW38887   2.271   3.002  15.621  0.0835  0.1892  0.2923
 9142SOL    HW138888   2.205   2.944  15.659  0.3872  0.6762  1.5510
 9142SOL    HW238889   2.322   2.939  15.571 -2.9707 -3.1564  1.4063
 9143SOL     OW38890   0.543   4.531   7.649 -0.3785 -0.3332 -0.3565
 9143SOL    HW138891   0.606   4.598   7.677 -0.3032 -0.3454 -0.4975
 9143SOL    HW238892   0.591   4.459   7.690 -1.4838 -0.2049  1.1621
 9144SOL     OW38893   2.237   3.532   3.465  0.0921  0.1949 -0.1891
 9144SOL    HW138894   2.226   3.518   3.559 -1.3555  3.3216  0.1020
 9144SOL    HW238895   2.238   3.628   3.467 -0.0145  0.2185 -1.0376
 9145SOL     OW38896   0.183   0.165   8.881  0.4158  0.6017  0.0919
 9145SOL    HW138897   0.135   0.148   8.800  1.2770  2.6253 -0.8454
 9145SOL    HW238898   0.115   0.130   8.938 -1.3747  0.0958 -2.3663
 9146SOL     OW38899   3.805   0.138   3.153  0.5598  0.1266  0.3026
 9146SOL    HW138900   3.747   0.214   3.158 -1.4370 -1.3716 -0.5147
 9146SOL    HW238901   3.862   0.159   3.228  0.8307  0.3929  0.0225
 9147SOL     OW38902   1.335   4.152   9.234 -0.8580  0.0075 -0.2980
 9147SOL    HW138903   1.374   4.126   9.317 -0.8923 -0.2471 -0.3610
 9147SOL    HW238904   1.413   4.187   9.190  0.0648 -1.0822  0.4962
 9148SOL     OW38905   3.855   2.789   6.683 -0.4098 -0.2581 -0.2105
 9148SOL    HW138906   3.915   2.859   6.655  1.7445 -1.8791  0.3590
 9148SOL    HW238907   3.766   2.818   6.662 -1.3172 -3.2610 -0.4547
 9149SOL     OW38908   3.748   3.463   4.046  0.0065  0.0154  0.4747
 9149SOL    HW138909   3.753   3.536   3.984 -0.5989 -0.7203 -0.4296
 9149SOL    HW238910   3.666   3.418   4.026  0.1310  1.0332 -2.3095
 9150SOL     OW38911   4.279   0.011  12.774  0.8012 -0.8023  0.4316
 9150SOL    HW138912   4.303   0.099  12.745 -1.9274  0.0285  0.7272
 9150SOL    HW238913   4.302   4.696  12.690 -0.9589  0.7121 -0.7744
 9151SOL     OW38914   2.857   0.203  10.208 -0.1550  0.0379  0.1939
 9151SOL    HW138915   2.842   0.109  10.219  1.9775 -0.0817  1.8849
 9151SOL    HW238916   2.903   0.229  10.287  0.6129 -1.2226  0.1632
 9152SOL     OW38917   1.296   1.081   8.833  0.4008  0.3127  0.3116
 9152SOL    HW138918   1.276   0.992   8.804 -1.1002  1.1679 -1.2815
 9152SOL    HW238919   1.232   1.091   8.903 -1.1462  1.5195 -1.3097
 9153SOL     OW38920   4.412   2.470   4.664  0.4284 -0.0418  0.2897
 9153SOL    HW138921   4.494   2.493   4.621 -0.1963 -1.3062 -1.5677
 9153SOL    HW238922   4.350   2.504   4.599  1.4678 -1.7423 -1.5702
 9154SOL     OW38923   2.556   1.508  17.596  0.2297 -0.0492  0.2297
 9154SOL    HW138924   2.625   1.563  17.557 -0.9655 -0.7618 -2.9224
 9154SOL    HW238925   2.597   1.493  17.681 -0.6231  1.0871  0.8414
 9155SOL     OW38926   1.606   1.563   5.290  0.2425 -0.2319 -0.1968
 9155SOL    HW138927   1.538   1.625   5.317 -1.6304 -1.8303 -1.1727
 9155SOL    HW238928   1.685   1.614   5.304 -2.0155  3.1326  0.3515
 9156SOL     OW38929   4.400   2.365   3.300 -0.2071  0.4527  0.3331
 9156SOL    HW138930   4.374   2.376   3.392  0.9877  2.1118  0.4689
 9156SOL    HW238931   4.346   2.433   3.260 -2.8879 -1.3625  0.8737
 9157SOL     OW38932   4.218   4.623   7.087  0.2909  0.0038 -0.1040
 9157SOL    HW138933   4.137   4.672   7.075  0.0212 -0.0141  1.5342
 9157SOL    HW238934   4.281   4.692   7.067  0.6716 -0.8472 -1.8246
 9158SOL     OW38935   0.539   2.882   4.354  0.0039 -0.3511 -0.3555
 9158SOL    HW138936   0.472   2.914   4.293 -1.1045  0.9211  1.5288
 9158SOL    HW238937   0.582   2.962   4.384  1.8542 -0.8755 -1.5983
 9159SOL     OW38938   3.948   0.607   1.083 -0.4979  0.2624 -0.2987
 9159SOL    HW138939   4.018   0.670   1.101 -0.1928 -1.1202  3.3539
 9159SOL    HW238940   3.882   0.623   1.151  1.0468  0.4159  1.1547
 9160SOL     OW38941   2.508   3.210   1.820 -0.2486 -0.8878 -0.1098
 9160SOL    HW138942   2.528   3.193   1.912  0.0636 -0.5748 -0.1211
 9160SOL    HW238943   2.565   3.154   1.768  1.6076  1.4506 -0.6077
 9161SOL     OW38944   2.039   2.904  15.781  0.4565 -0.4720  0.0303
 9161SOL    HW138945   1.977   2.963  15.737 -1.2155 -0.5621  2.2555
 9161SOL    HW238946   1.984   2.826  15.782 -0.1269 -0.0646  0.2655
 9162SOL     OW38947   1.687   1.652   7.423  0.8024 -0.0665 -0.4012
 9162SOL    HW138948   1.647   1.611   7.499 -0.6173  0.9112 -0.6241
 9162SOL    HW238949   1.612   1.662   7.364  1.9635  1.5688 -1.6096
 9163SOL     OW38950   3.316   3.138   3.269  0.5840 -0.1459 -0.6605
 9163SOL    HW138951   3.285   3.178   3.188  0.1475  0.5542 -0.1466
 9163SOL    HW238952   3.339   3.217   3.318  0.7344 -0.8263  0.3800
 9164SOL     OW38953   3.423   2.103   8.441  0.8099  0.2040 -0.0177
 9164SOL    HW138954   3.330   2.109   8.417  0.8586  0.1828 -0.2109
 9164SOL    HW238955   3.410   2.098   8.536  1.5571 -0.3965  0.0478
 9165SOL     OW38956   4.107   4.445   5.843 -0.3718 -0.2386 -0.4701
 9165SOL    HW138957   4.037   4.456   5.779 -1.6564  1.2434  1.1657
 9165SOL    HW238958   4.179   4.437   5.781  0.0660 -2.8220  0.3691
 9166SOL     OW38959   2.948   2.998   8.425 -0.4434  0.1407  0.1628
 9166SOL    HW138960   2.888   3.071   8.411  0.7020  1.1138  0.3014
 9166SOL    HW238961   3.008   3.026   8.494  0.6136  1.0955 -1.1559
 9167SOL     OW38962   3.192   0.349  10.611  0.0470  0.0839 -0.3068
 9167SOL    HW138963   3.271   0.401  10.628  0.7570 -0.6431 -1.4452
 9167SOL    HW238964   3.237   0.265  10.608  2.3277  1.3584 -1.0644
 9168SOL     OW38965   4.205   0.778  17.428 -0.2798  0.1262  0.2319
 9168SOL    HW138966   4.221   0.699  17.377 -2.3273 -2.2238  3.2501
 9168SOL    HW238967   4.220   0.746  17.517  0.5163  0.9732  0.3990
 9169SOL     OW38968   2.788   0.000  14.856 -0.5496  0.0700  0.0480
 9169SOL    HW138969   2.726   0.071  14.872 -1.5771 -0.9076  0.3909
 9169SOL    HW238970   2.743   4.649  14.891 -0.4215  0.2838  0.6820
 9170SOL     OW38971   1.128   2.924  13.965  0.1276  0.4278  0.5043
 9170SOL    HW138972   1.078   2.905  13.886  0.7345  1.5948 -0.1655
 9170SOL    HW238973   1.211   2.886  13.936 -0.3676 -1.2676  1.2886
 9171SOL     OW38974   1.398   1.202   3.002 -0.4122 -0.5345  0.0165
 9171SOL    HW138975   1.311   1.166   2.985 -0.3617  0.0219 -1.4498
 9171SOL    HW238976   1.384   1.293   3.028  0.3533 -0.2330 -0.6021
 9172SOL     OW38977   2.069   3.396   4.400  0.0607 -0.4513  0.6019
 9172SOL    HW138978   1.979   3.371   4.381 -0.5690  1.2687  1.3744
 9172SOL    HW238979   2.067   3.490   4.418 -1.2036 -0.2020 -0.8485
 9173SOL     OW38980   4.392   0.336   5.573  0.0651 -0.4745  0.2289
 9173SOL    HW138981   4.359   0.379   5.494 -0.0421 -0.9955 -0.0049
 9173SOL    HW238982   4.399   0.411   5.633 -1.1238 -0.7544  0.7086
 9174SOL     OW38983   1.093   3.287  14.291  0.2948 -0.2988 -0.3881
 9174SOL    HW138984   1.136   3.220  14.239 -2.3365 -0.8158 -1.8955
 9174SOL    HW238985   1.096   3.362  14.231  1.1159  0.0680  0.1020
 9175SOL     OW38986   1.508   3.461  16.187  0.0135 -0.3753  0.3792
 9175SOL    HW138987   1.501   3.461  16.283  1.7983  0.1980  0.5086
 9175SOL    HW238988   1.524   3.556  16.185  2.1703 -0.7974 -1.9520
 9176SOL     OW38989   0.674   1.394   6.727 -0.6311 -0.3536  0.5960
 9176SOL    HW138990   0.741   1.364   6.789  1.9772  1.7549 -1.1975
 9176SOL    HW238991   0.680   1.489   6.726  0.5882 -0.4670 -2.1617
 9177SOL     OW38992   3.810   3.690   9.297  0.2818 -0.4851 -0.3290
 9177SOL    HW138993   3.804   3.598   9.323 -1.6626  0.6571  3.3516
 9177SOL    HW238994   3.857   3.685   9.214  1.3334 -2.1490  0.3627
 9178SOL     OW38995   0.626   3.141   9.755 -0.4364 -0.3122 -0.1090
 9178SOL    HW138996   0.532   3.127   9.762 -0.8847  1.9800 -1.5174
 9178SOL    HW238997   0.662   3.059   9.790  0.3861 -0.7361 -1.9108
 9179SOL     OW38998   0.985   3.659   5.603  0.2457 -0.5859 -0.2301
 9179SOL    HW138999   0.907   3.642   5.656 -1.5906  0.3649 -2.6786
 9179SOL    HW239000   1.027   3.719   5.666  4.5225 -0.7288 -2.9583
 9180SOL     OW39001   1.505   1.018   6.036  0.3225 -0.0268 -0.2162
 9180SOL    HW139002   1.424   1.060   6.007  0.3191 -1.3758 -2.0981
 9180SOL    HW239003   1.512   1.054   6.125 -1.5119 -0.4549  0.1007
 9181SOL     OW39004   4.210   3.590   5.931 -0.3553  0.4679  0.2355
 9181SOL    HW139005   4.194   3.625   6.019  0.6917  0.8111  0.2954
 9181SOL    HW239006   4.121   3.603   5.898 -0.7921 -0.9936  0.8542
 9182SOL     OW39007   2.932   3.023   3.009 -0.4347  0.1366  0.2397
 9182SOL    HW139008   2.914   3.103   2.960 -0.9895  0.2583  0.6456
 9182SOL    HW239009   2.897   2.957   2.949  2.0376  0.0775 -1.1503
 9183SOL     OW39010   1.248   4.327   3.974  0.0712  0.0762 -0.2683
 9183SOL    HW139011   1.329   4.340   3.924 -0.5240 -0.2924 -1.3254
 9183SOL    HW239012   1.287   4.289   4.053 -2.6148 -0.8842  0.5846
 9184SOL     OW39013   2.551   2.687   6.641  0.4752 -0.0067 -0.7380
 9184SOL    HW139014   2.632   2.668   6.594  0.6556  1.2542 -0.9199
 9184SOL    HW239015   2.485   2.669   6.574  0.8775  0.1261 -1.1674
 9185SOL     OW39016   0.311   2.714   7.705 -0.3993 -0.0486 -0.0308
 9185SOL    HW139017   0.263   2.749   7.780 -2.0531 -2.2421 -0.0699
 9185SOL    HW239018   0.299   2.620   7.718 -0.5908  0.1867  1.4032
 9186SOL     OW39019   4.652   1.390   6.475  0.1956 -0.6125  0.0684
 9186SOL    HW139020   4.679   1.302   6.501  1.8835  0.9076  3.4545
 9186SOL    HW239021   4.653   1.437   6.559  0.7840  0.0886 -0.3247
 9187SOL     OW39022   0.857   2.685  10.713  0.0207  0.2121 -0.2907
 9187SOL    HW139023   0.877   2.605  10.763  1.5857  1.3216  0.8536
 9187SOL    HW239024   0.890   2.745  10.779 -2.2518 -0.6389  1.6372
 9188SOL     OW39025   1.654   1.538  13.763 -0.3237  0.4262  0.2645
 9188SOL    HW139026   1.596   1.614  13.759 -1.4605 -0.3784  1.2260
 9188SOL    HW239027   1.735   1.586  13.779 -0.4011  0.2161  1.2620
 9189SOL     OW39028   0.079   2.427   5.474  0.0720  0.1284 -0.4787
 9189SOL    HW139029   0.031   2.510   5.470  0.1918  0.2524  0.8473
 9189SOL    HW239030   0.158   2.445   5.423  0.1513  1.4994  0.1189
 9190SOL     OW39031   3.527   3.578   7.290 -0.3525 -0.3936 -0.1191
 9190SOL    HW139032   3.479   3.508   7.247 -0.0888  0.8140 -2.3776
 9190SOL    HW239033   3.514   3.643   7.221 -1.8669 -2.3202 -1.6475
 9191SOL     OW39034   1.681   0.169  14.731 -0.0726 -0.7704  0.1638
 9191SOL    HW139035   1.586   0.181  14.732 -0.1006 -0.9189 -0.7077
 9191SOL    HW239036   1.706   0.261  14.732  0.7797 -1.0005  0.2472
 9192SOL     OW39037   1.325   0.101  11.051 -0.0733 -0.3201 -0.1657
 9192SOL    HW139038   1.353   0.032  10.991  0.2836  0.0850 -0.4621
 9192SOL    HW239039   1.404   0.153  11.064 -0.5525  0.5289 -0.6573
 9193SOL     OW39040   3.522   2.219  11.757 -0.2248  0.3320  0.1367
 9193SOL    HW139041   3.609   2.256  11.770  0.3625 -0.7479 -0.7196
 9193SOL    HW239042   3.472   2.288  11.713  0.6749  1.1170  0.3701
 9194SOL     OW39043   3.835   3.253   6.226 -0.0576  0.4452 -0.3328
 9194SOL    HW139044   3.800   3.324   6.172 -0.4506 -0.1302 -0.8436
 9194SOL    HW239045   3.780   3.259   6.304  0.1315 -1.5277 -0.0370
 9195SOL     OW39046   1.642   1.341   7.848 -0.3125  0.1442 -0.9953
 9195SOL    HW139047   1.578   1.290   7.897  0.0033  0.2653 -0.4552
 9195SOL    HW239048   1.660   1.283   7.774  4.2070  1.1233 -0.6771
 9196SOL     OW39049   1.579   2.704   0.346 -0.1399  0.5840 -0.4422
 9196SOL    HW139050   1.597   2.774   0.284  1.4760  0.2506 -0.3631
 9196SOL    HW239051   1.518   2.647   0.300 -1.2212  1.2936  0.1324
 9197SOL     OW39052   0.884   4.724   5.723  0.1463 -0.4944  0.1831
 9197SOL    HW139053   0.858   0.063   5.657 -1.5640  0.5837  1.8916
 9197SOL    HW239054   0.803   4.712   5.773  1.1585 -2.8254  1.2855
 9198SOL     OW39055   3.784   0.592   6.476 -0.1630  0.3769 -0.6396
 9198SOL    HW139056   3.842   0.518   6.495 -1.0180 -0.2114 -0.2932
 9198SOL    HW239057   3.749   0.625   6.559 -1.7617 -0.8143 -0.8412
 9199SOL     OW39058   0.376   1.739   5.443  0.1496  0.6837  0.2506
 9199SOL    HW139059   0.354   1.704   5.529 -0.5985  3.0357  1.0087
 9199SOL    HW239060   0.294   1.762   5.399 -0.4732  0.5646  1.3652
 9200SOL     OW39061   2.083   0.534   9.059  0.5132  0.3961 -0.1350
 9200SOL    HW139062   2.037   0.521   8.976  1.2538 -3.2627  0.0184
 9200SOL    HW239063   2.088   0.629   9.056  1.5946  0.3101 -1.0444
 9201SOL     OW39064   1.515   3.828   6.661  0.1561  0.6746 -0.6547
 9201SOL    HW139065   1.443   3.797   6.607 -1.2723 -0.7643  2.0437
 9201SOL    HW239066   1.575   3.868   6.598  0.0036  2.7317  0.5028
 9202SOL     OW39067   0.959   0.563   7.960 -0.3094 -0.5545  0.3751
 9202SOL    HW139068   0.940   0.526   7.874 -1.3830 -0.4671  0.5746
 9202SOL    HW239069   1.024   0.630   7.938 -2.2269  0.8131 -1.2167
 9203SOL     OW39070   4.438   4.254   6.057  0.5468  0.2125  0.2256
 9203SOL    HW139071   4.381   4.177   6.064 -1.6939  1.7059 -1.6849
 9203SOL    HW239072   4.460   4.260   6.150 -1.1950  1.5960  0.5443
 9204SOL     OW39073   2.864   1.333   3.494  0.3726 -0.0356  0.5235
 9204SOL    HW139074   2.920   1.325   3.571 -0.6470 -0.7105  1.1924
 9204SOL    HW239075   2.773   1.325   3.522  0.2356  0.8456  0.3263
 9205SOL     OW39076   2.674   0.236  17.260  0.7036  0.1290  0.0154
 9205SOL    HW139077   2.734   0.305  17.230 -0.2430  0.2091 -1.6723
 9205SOL    HW239078   2.599   0.292  17.280  0.5874  0.1283 -0.4200
 9206SOL     OW39079   3.501   3.722  14.100  0.6433  0.1514  0.4819
 9206SOL    HW139080   3.540   3.755  14.181  0.5220  2.8381 -0.5742
 9206SOL    HW239081   3.466   3.804  14.066 -1.3584 -0.8491  0.1504
 9207SOL     OW39082   4.367   2.351  16.652 -0.6486  0.5817 -0.3839
 9207SOL    HW139083   4.408   2.427  16.610  1.9141 -1.2250 -1.0727
 9207SOL    HW239084   4.425   2.336  16.727 -1.1334  1.2206  0.1265
 9208SOL     OW39085   2.803   3.861  12.087  0.1089  0.5022  0.5082
 9208SOL    HW139086   2.728   3.812  12.055  0.9366  0.3558 -1.2186
 9208SOL    HW239087   2.772   3.946  12.053 -1.8815  0.1738  1.5165
 9209SOL     OW39088   0.829   3.946   3.291 -0.0084 -0.4099 -0.1600
 9209SOL    HW139089   0.894   3.990   3.235 -0.4190 -0.5292 -0.7297
 9209SOL    HW239090   0.760   4.011   3.301  2.1165  1.9975 -1.1526
 9210SOL     OW39091   1.448   3.494   4.121 -0.5424  0.5318  0.0943
 9210SOL    HW139092   1.374   3.494   4.061 -0.5341 -0.5928  0.0769
 9210SOL    HW239093   1.440   3.416   4.176  2.1253 -0.7825 -1.3850
 9211SOL     OW39094   3.172   0.805   6.160  0.0699  0.5655  0.2860
 9211SOL    HW139095   3.085   0.778   6.132 -0.0424  0.6324  0.5727
 9211SOL    HW239096   3.219   0.722   6.156  1.4052  1.3971 -1.3862
 9212SOL     OW39097   0.885   2.541  16.655 -0.8149  0.6528  0.2745
 9212SOL    HW139098   0.897   2.458  16.610 -0.8052  1.2742 -0.8557
 9212SOL    HW239099   0.924   2.523  16.741  0.4112 -0.9938 -0.6316
 9213SOL     OW39100   0.489   0.181   8.196 -0.3493  0.0939 -0.0500
 9213SOL    HW139101   0.433   0.228   8.134 -3.4481  1.5024  3.8303
 9213SOL    HW239102   0.506   0.106   8.138  1.3657 -1.2564  2.1986
 9214SOL     OW39103   1.553   3.910   4.182 -0.1304 -0.4219 -0.2184
 9214SOL    HW139104   1.538   3.898   4.276  1.4536 -1.0940 -0.0556
 9214SOL    HW239105   1.511   3.995   4.165  1.1679  0.3493  0.4058
 9215SOL     OW39106   1.428   1.703  17.557 -0.1234  0.0464  0.8005
 9215SOL    HW139107   1.430   1.670  17.467 -0.8746  1.3915  0.2889
 9215SOL    HW239108   1.518   1.677  17.576 -0.2727 -1.4554 -0.5330
 9216SOL     OW39109   1.433   1.158  12.203  0.2096  0.4662 -0.5909
 9216SOL    HW139110   1.473   1.245  12.198 -0.1432  0.6993  0.5656
 9216SOL    HW239111   1.512   1.105  12.211 -0.7935 -1.1871 -1.6036
 9217SOL     OW39112   1.474   2.753   3.352  0.3630 -0.0896 -0.9251
 9217SOL    HW139113   1.549   2.790   3.400  0.3708  0.1558 -1.1269
 9217SOL    HW239114   1.481   2.779   3.261  1.0633 -2.8273 -1.6719
 9218SOL     OW39115   0.353   1.900  13.259  0.1826  0.4352  0.4354
 9218SOL    HW139116   0.308   1.817  13.242 -2.6648  2.2016 -0.7780
 9218SOL    HW239117   0.421   1.875  13.320  0.7185 -1.4770 -0.9697
 9219SOL     OW39118   0.902   2.981  12.354 -0.0371 -0.1961  0.4424
 9219SOL    HW139119   0.928   3.072  12.337 -0.0497 -0.4351 -0.8430
 9219SOL    HW239120   0.946   2.959  12.436  1.5474  0.8673 -0.1068
 9220SOL     OW39121   4.585   4.603   7.054 -0.3272 -0.8624 -0.3040
 9220SOL    HW139122   4.603   4.558   6.971  2.8397  1.2456 -0.7552
 9220SOL    HW239123   4.520   4.671   7.035  1.1158  0.5538 -0.2271
 9221SOL     OW39124   2.736   1.858   4.340 -0.6928  0.6524 -0.4122
 9221SOL    HW139125   2.706   1.791   4.278  0.6296  0.8933 -1.2965
 9221SOL    HW239126   2.656   1.871   4.390 -2.1315 -2.2150 -1.9216
 9222SOL     OW39127   2.948   0.380   9.342 -0.1768 -0.0651 -0.1984
 9222SOL    HW139128   2.869   0.394   9.394 -0.3121  2.5693 -1.1048
 9222SOL    HW239129   2.914   0.356   9.256 -0.4647 -2.6995  0.6362
 9223SOL     OW39130   3.209   0.059   3.907  0.1869 -0.0235  0.0889
 9223SOL    HW139131   3.284   0.116   3.918  0.2332 -0.3387  1.3459
 9223SOL    HW239132   3.144   0.129   3.895  0.2349 -0.3142 -1.9507
 9224SOL     OW39133   2.509   2.681   1.739 -0.0949 -0.0245 -0.0347
 9224SOL    HW139134   2.439   2.629   1.700 -1.3408  2.4129 -0.9937
 9224SOL    HW239135   2.465   2.713   1.818 -1.7135 -0.8993 -0.5770
 9225SOL     OW39136   1.499   2.665   0.614  0.1356 -0.1888  0.3320
 9225SOL    HW139137   1.500   2.692   0.522  0.9139  2.2354  1.0373
 9225SOL    HW239138   1.528   2.575   0.605  0.4986  0.0413 -0.7065
 9226SOL     OW39139   1.750   3.232  17.097 -0.7698 -0.8744 -0.0948
 9226SOL    HW139140   1.737   3.150  17.049  1.7264 -0.8162 -0.9119
 9226SOL    HW239141   1.748   3.198  17.186 -0.6212 -0.7229 -0.0343
 9227SOL     OW39142   3.686   2.989   4.706  0.8823  0.0506  0.0797
 9227SOL    HW139143   3.643   3.064   4.748  2.5901  0.2966  1.4016
 9227SOL    HW239144   3.704   3.020   4.617  1.7083  1.9207  0.8908
 9228SOL     OW39145   2.423   4.331  15.333  0.4121 -0.2558 -0.0620
 9228SOL    HW139146   2.386   4.385  15.263  2.9072  1.6598  0.0773
 9228SOL    HW239147   2.453   4.395  15.398 -1.1608  1.3466 -0.8787
 9229SOL     OW39148   4.574   1.255  15.849  0.5249 -1.0362 -0.1768
 9229SOL    HW139149   4.538   1.318  15.787  4.2878  2.0700  0.7830
 9229SOL    HW239150   4.667   1.261  15.828  0.1989  1.3537 -0.9703
 9230SOL     OW39151   1.819   1.048   3.103 -0.6386 -0.1752  0.2197
 9230SOL    HW139152   1.778   1.071   3.020 -2.8339  0.5708  1.5126
 9230SOL    HW239153   1.781   0.968   3.139 -2.3542  0.6230  0.1456
 9231SOL     OW39154   4.104   2.242  17.331  0.0682  0.1836 -0.8635
 9231SOL    HW139155   4.038   2.304  17.299 -1.5808 -2.2605 -2.1904
 9231SOL    HW239156   4.173   2.243  17.264  2.9025 -0.7110  2.0387
 9232SOL     OW39157   2.217   2.775  15.384 -0.3259  0.7655  0.0805
 9232SOL    HW139158   2.311   2.791  15.390  0.0766 -1.7061  0.4605
 9232SOL    HW239159   2.170   2.858  15.386  0.5869  1.2965 -0.5338
 9233SOL     OW39160   0.418   4.344   6.879  0.4237  0.2851  0.1088
 9233SOL    HW139161   0.458   4.422   6.917  1.2038 -1.4138  2.7908
 9233SOL    HW239162   0.324   4.364   6.885  0.5294  0.9076 -0.3342
 9234SOL     OW39163   1.915   2.510   0.598 -0.3373 -0.3228 -0.3814
 9234SOL    HW139164   1.956   2.586   0.641 -2.4417  0.7752 -0.2990
 9234SOL    HW239165   1.975   2.492   0.526 -0.8710  1.1194 -1.1883
 9235SOL     OW39166   4.261   1.719   7.013 -0.3121  0.0808 -0.1482
 9235SOL    HW139167   4.272   1.797   6.959  1.1995 -0.0112  0.0250
 9235SOL    HW239168   4.354   1.708   7.033 -0.0121  0.7547 -1.2009
 9236SOL     OW39169   1.007   2.566  12.819 -0.3306  0.6913  0.0994
 9236SOL    HW139170   1.074   2.502  12.841  0.6597  1.0359 -1.9329
 9236SOL    HW239171   1.040   2.591  12.733 -1.3056 -0.9832 -0.7527
 9237SOL     OW39172   3.776   4.644  15.720  0.3989  0.2321 -0.0928
 9237SOL    HW139173   3.702   4.659  15.661 -0.8354 -0.5609  1.2392
 9237SOL    HW239174   3.736   4.578  15.776  0.6070  0.8844  0.8292
 9238SOL     OW39175   0.729   3.991   5.027 -0.8922 -0.1604  0.2600
 9238SOL    HW139176   0.656   4.013   4.970  0.2727 -1.4372 -1.6893
 9238SOL    HW239177   0.793   4.058   5.003 -0.0786 -0.7809  0.6665
 9239SOL     OW39178   0.446   1.587  17.237  0.1675  0.0594  0.7818
 9239SOL    HW139179   0.442   1.634  17.320 -0.4155 -1.7464  1.7729
 9239SOL    HW239180   0.397   1.507  17.256 -0.7727  0.6938  0.9836
 9240SOL     OW39181   0.749   3.478   8.542  0.2982  0.0935 -0.6358
 9240SOL    HW139182   0.776   3.442   8.626  0.4551  2.7087  0.4410
 9240SOL    HW239183   0.806   3.555   8.540  1.4571 -0.7593 -0.3526
 9241SOL     OW39184   2.958   0.203  17.551  0.0379  0.0252  0.3765
 9241SOL    HW139185   2.942   0.115  17.516 -2.7664  0.5864  0.2084
 9241SOL    HW239186   3.040   0.189  17.598  1.7073 -0.4792 -2.6317
 9242SOL     OW39187   2.304   0.624   0.528  0.0328  0.1638 -0.4519
 9242SOL    HW139188   2.370   0.613   0.460  1.1892 -0.5942  0.7809
 9242SOL    HW239189   2.238   0.556   0.509 -3.4657  2.6962  2.4589
 9243SOL     OW39190   3.921   1.882   5.322  0.4475 -0.0971 -0.9491
 9243SOL    HW139191   3.973   1.959   5.299  2.2807 -0.9519  0.3996
 9243SOL    HW239192   3.836   1.903   5.283  0.3027  1.5107  0.2061
 9244SOL     OW39193   2.224   0.952   3.473  0.0545  0.0407  0.0202
 9244SOL    HW139194   2.242   0.867   3.514  0.7833 -0.1060 -0.5956
 9244SOL    HW239195   2.193   0.917   3.390  1.7674 -3.7729  0.9631
 9245SOL     OW39196   1.106   0.885  16.032  0.5378  0.3159 -0.1733
 9245SOL    HW139197   1.060   0.968  16.019  0.4418  0.2885 -0.0065
 9245SOL    HW239198   1.084   0.848  15.946 -0.1911  0.1205  0.1002
 9246SOL     OW39199   3.775   4.114   5.051 -0.3787 -0.3925 -0.2447
 9246SOL    HW139200   3.715   4.115   4.976  1.7734  1.6513 -1.9149
 9246SOL    HW239201   3.768   4.024   5.085  0.1386 -0.4047 -0.1751
 9247SOL     OW39202   0.037   2.925  16.396 -0.3441  0.5222 -0.1029
 9247SOL    HW139203   0.080   2.871  16.330 -1.5199  0.9519 -1.2156
 9247SOL    HW239204   4.717   2.989  16.341 -0.4681 -0.1409 -0.7582
 9248SOL     OW39205   1.536   1.591   3.061 -0.0465  0.1912  0.0390
 9248SOL    HW139206   1.513   1.625   2.975  0.6136  1.1669  0.2453
 9248SOL    HW239207   1.476   1.641   3.117  1.2924  1.5217  0.2958
 9249SOL     OW39208   1.698   3.378   8.494  0.4074 -0.0347  0.9089
 9249SOL    HW139209   1.738   3.291   8.500 -2.3353 -1.2021  2.1492
 9249SOL    HW239210   1.733   3.415   8.575  2.6904 -0.0814 -0.0443
 9250SOL     OW39211   2.416   3.974   5.317 -0.2927 -0.3082 -0.0391
 9250SOL    HW139212   2.425   3.902   5.255 -2.2605  0.2977 -1.0187
 9250SOL    HW239213   2.363   4.033   5.263  0.4056  1.3081  1.0325
 9251SOL     OW39214   1.286   2.495  14.037  0.0124 -0.1867  0.4564
 9251SOL    HW139215   1.193   2.477  14.023  0.0444  1.2065 -1.4699
 9251SOL    HW239216   1.317   2.432  13.972 -1.3674  0.0272 -0.3872
 9252SOL     OW39217   0.126   4.126  15.188  0.2501  0.3185  0.4874
 9252SOL    HW139218   0.191   4.084  15.244 -0.3996 -0.3781  0.7060
 9252SOL    HW239219   0.099   4.047  15.142 -0.1234  0.0474  1.1833
 9253SOL     OW39220   0.982   1.312  14.427  0.1780  0.1135 -0.1252
 9253SOL    HW139221   0.921   1.303  14.501  2.7808  1.7348  2.2308
 9253SOL    HW239222   1.056   1.360  14.463 -0.2640  1.2250 -0.6728
 9254SOL     OW39223   0.254   2.887   8.543  0.5213 -0.1303 -0.0726
 9254SOL    HW139224   0.252   2.969   8.592  1.3445 -0.1921  0.0696
 9254SOL    HW239225   0.189   2.888   8.473 -1.3310  1.6775  1.6667
 9255SOL     OW39226   0.279   3.233   3.212 -1.0147 -0.1702  0.7058
 9255SOL    HW139227   0.201   3.217   3.158 -0.5161 -2.1797  0.5847
 9255SOL    HW239228   0.333   3.154   3.217 -0.6767  0.1556  2.2333
 9256SOL     OW39229   2.955   4.657  11.735  0.7891 -0.8030 -0.2702
 9256SOL    HW139230   2.928   4.701  11.816 -0.0279  2.8004 -2.4615
 9256SOL    HW239231   2.876   4.603  11.725 -0.5668  0.8311  1.4862
 9257SOL     OW39232   4.582   1.925  15.816  0.0984  0.9049 -0.0020
 9257SOL    HW139233   4.518   1.992  15.792  1.1922  2.3817  1.2275
 9257SOL    HW239234   4.546   1.913  15.904  1.9531  0.2796  0.6577
 9258SOL     OW39235   3.533   1.347   6.710 -0.1657  0.0443 -0.0510
 9258SOL    HW139236   3.438   1.339   6.719 -0.0391 -0.6371  0.6790
 9258SOL    HW239237   3.556   1.333   6.801 -1.9910 -3.8368 -0.1434
 9259SOL     OW39238   4.408   2.648   7.633  0.1496  0.0447  0.2383
 9259SOL    HW139239   4.416   2.613   7.721  0.1728 -1.1172 -0.2206
 9259SOL    HW239240   4.479   2.590   7.603 -1.4630 -2.3879  1.1270
 9260SOL     OW39241   1.578   3.013   1.808  0.5959  0.0260 -0.4638
 9260SOL    HW139242   1.540   3.066   1.739 -0.4113  2.0395  1.6549
 9260SOL    HW239243   1.645   3.071   1.844 -0.7692  0.7148  0.9403
 9261SOL     OW39244   2.844   4.653   5.597  0.8559 -0.1731 -0.0442
 9261SOL    HW139245   2.798   4.662   5.680  0.1210 -1.0401 -0.3676
 9261SOL    HW239246   2.815   4.566   5.571 -2.6088  0.8642  0.3887
 9262SOL     OW39247   3.926   2.500   1.125 -0.3972  0.0877  0.7581
 9262SOL    HW139248   3.898   2.587   1.096 -0.0346  0.5168  1.6839
 9262SOL    HW239249   3.836   2.487   1.155 -1.7365 -0.8834 -3.6595
 9263SOL     OW39250   1.862   2.996  16.309  0.3037 -0.2430  0.6307
 9263SOL    HW139251   1.942   3.039  16.277 -0.0133 -0.1278 -0.0058
 9263SOL    HW239252   1.840   2.948  16.229  0.7821  0.3223  0.1524
 9264SOL     OW39253   1.768   0.368   3.550 -0.0900  0.0549 -0.3880
 9264SOL    HW139254   1.705   0.407   3.490 -0.9661 -0.4825  0.1842
 9264SOL    HW239255   1.768   0.438   3.615 -2.4870 -1.3813  1.1277
 9265SOL     OW39256   0.397   0.017   1.985  0.4558 -0.2178 -0.5207
 9265SOL    HW139257   0.331   0.020   1.916 -1.3534  1.5595  1.3035
 9265SOL    HW239258   0.476   0.034   1.933  0.4365 -2.5883 -1.3631
 9266SOL     OW39259   3.062   1.535   4.212 -0.3253 -0.1902 -0.1266
 9266SOL    HW139260   3.085   1.527   4.304  2.0407 -0.3275 -0.7225
 9266SOL    HW239261   3.014   1.617   4.204  1.9871  0.9831 -1.8597
 9267SOL     OW39262   4.375   2.157   8.757 -0.4545  0.1025  0.6341
 9267SOL    HW139263   4.357   2.223   8.689 -0.1522  0.5449  0.9821
 9267SOL    HW239264   4.397   2.219   8.826  1.2085 -0.8364  0.9418
 9268SOL     OW39265   4.582   2.327   9.571  0.5882  0.3522  0.2354
 9268SOL    HW139266   4.585   2.255   9.635 -1.4676  0.1875  0.1434
 9268SOL    HW239267   4.495   2.314   9.534  1.5420 -1.2008 -1.4489
 9269SOL     OW39268   3.128   3.537   5.934  0.5527 -0.0416 -0.1467
 9269SOL    HW139269   3.079   3.609   5.893 -1.0433  0.2953  2.3754
 9269SOL    HW239270   3.103   3.549   6.025 -1.4635  3.6435 -1.1680
 9270SOL     OW39271   0.057   1.697   7.633 -0.1750 -0.1232  0.5041
 9270SOL    HW139272   0.051   1.606   7.661 -1.1335 -0.2121  0.0226
 9270SOL    HW239273   4.713   1.739   7.684 -0.5910  2.4982 -2.2468
 9271SOL     OW39274   4.500   1.904  13.279  0.2271  0.1710 -0.4487
 9271SOL    HW139275   4.574   1.858  13.240  0.0220 -0.8562  0.3920
 9271SOL    HW239276   4.446   1.911  13.200  0.3281  0.3397 -0.5047
 9272SOL     OW39277   2.725   4.079   5.651 -0.1072  0.0551  0.4230
 9272SOL    HW139278   2.780   4.047   5.723  1.2628  1.5169  0.0324
 9272SOL    HW239279   2.676   4.000   5.629  0.2791  0.0545 -0.4327
 9273SOL     OW39280   3.414   3.240   9.047 -0.1204  0.3595  0.1533
 9273SOL    HW139281   3.508   3.254   9.058 -0.0514 -1.2387  1.5995
 9273SOL    HW239282   3.385   3.328   9.073 -1.5945 -0.4882  1.4081
 9274SOL     OW39283   2.808   2.231   5.196  0.3291  0.1711 -0.0991
 9274SOL    HW139284   2.797   2.302   5.133  0.2521  0.3915  0.1634
 9274SOL    HW239285   2.774   2.284   5.268 -2.1923 -0.2196 -0.9889
 9275SOL     OW39286   2.309   0.127  16.087 -0.0710 -0.3733  0.0612
 9275SOL    HW139287   2.268   0.193  16.032  2.2764  0.2175 -0.9822
 9275SOL    HW239288   2.360   0.077  16.023 -1.3118  0.5310 -1.6417
 9276SOL     OW39289   4.070   0.295   4.131 -0.1721  0.1116 -0.4219
 9276SOL    HW139290   4.130   0.357   4.172  2.6922 -1.3049 -2.4488
 9276SOL    HW239291   4.019   0.256   4.202 -0.6530 -0.9461 -1.3480
 9277SOL     OW39292   1.298   0.248   0.085 -0.2838 -0.2616  0.2059
 9277SOL    HW139293   1.235   0.245   0.157  1.8802 -1.2854  2.0470
 9277SOL    HW239294   1.311   0.336   0.049  0.3834 -0.7937 -0.8480
 9278SOL     OW39295   3.353   2.167   8.720 -0.1371 -0.4369 -0.0035
 9278SOL    HW139296   3.306   2.243   8.686  2.4513  0.5281 -1.3921
 9278SOL    HW239297   3.290   2.095   8.712  1.2505 -1.7616  1.0793
 9279SOL     OW39298   0.111   4.525   2.431  0.1156  0.5619 -0.0400
 9279SOL    HW139299   0.051   4.573   2.489 -0.4682  0.2711 -0.3956
 9279SOL    HW239300   0.141   4.600   2.380  2.8979 -1.4169 -1.2864
 9280SOL     OW39301   3.846   1.716  13.479  0.0670 -0.0188  0.0284
 9280SOL    HW139302   3.916   1.688  13.420  0.5946 -0.9845  1.1137
 9280SOL    HW239303   3.772   1.714  13.418  0.1207  2.5127 -0.0855
 9281SOL     OW39304   4.521   1.153   4.355  0.3140 -0.4731  0.0225
 9281SOL    HW139305   4.488   1.080   4.302  0.0401 -0.3940  0.0836
 9281SOL    HW239306   4.478   1.226   4.310  0.0921 -0.0827  0.8743
 9282SOL     OW39307   1.626   4.280   2.842  0.0256  0.0369 -0.1345
 9282SOL    HW139308   1.590   4.367   2.858  0.9291  0.1625  1.1909
 9282SOL    HW239309   1.590   4.255   2.757 -0.6406 -0.4020  0.2785
 9283SOL     OW39310   4.163   4.276   8.802 -0.2998 -0.3389 -0.1467
 9283SOL    HW139311   4.106   4.209   8.766  0.3753 -0.4140 -1.0879
 9283SOL    HW239312   4.232   4.265   8.736 -0.0098  0.3591  0.0373
 9284SOL     OW39313   2.627   0.724   9.824 -0.0831  0.5764  0.0362
 9284SOL    HW139314   2.687   0.650   9.820 -1.3100 -0.3572 -0.7527
 9284SOL    HW239315   2.692   0.795   9.826  0.8649 -0.2647 -1.0337
 9285SOL     OW39316   3.203   3.852  13.755 -0.2958  0.3839  0.2408
 9285SOL    HW139317   3.169   3.772  13.796  2.3124 -0.6658  0.3603
 9285SOL    HW239318   3.294   3.823  13.748 -0.4261 -0.3026  1.2662
 9286SOL     OW39319   3.475   1.439  17.153 -0.3126  0.1185  0.1130
 9286SOL    HW139320   3.537   1.375  17.186 -2.0210 -0.8869  1.3792
 9286SOL    HW239321   3.496   1.512  17.211 -1.9510  1.7119 -1.2752
 9287SOL     OW39322   1.799   0.761   3.308  0.1437  0.6227 -0.0758
 9287SOL    HW139323   1.732   0.743   3.242 -1.5260  1.3042  1.4203
 9287SOL    HW239324   1.863   0.695   3.281  0.6874  0.7417  0.9307
 9288SOL     OW39325   3.655   2.742  15.243 -0.2946  0.0684  0.9114
 9288SOL    HW139326   3.616   2.829  15.229 -0.5743 -0.3447 -0.8969
 9288SOL    HW239327   3.587   2.709  15.301  1.9452 -3.1868  1.6662
 9289SOL     OW39328   4.362   0.335  14.950 -0.6172 -0.1063  0.2605
 9289SOL    HW139329   4.345   0.243  14.971 -4.2773  1.3613  3.6302
 9289SOL    HW239330   4.319   0.371  15.027  0.3963 -0.6719  1.0940
 9290SOL     OW39331   2.694   1.822   9.914 -0.0848 -0.2606  0.1753
 9290SOL    HW139332   2.757   1.775   9.969 -0.6282  0.8577  1.7462
 9290SOL    HW239333   2.743   1.904   9.909 -0.8322  0.1108 -1.2328
 9291SOL     OW39334   3.031   1.580   7.371  0.2882  0.0232 -0.0582
 9291SOL    HW139335   2.977   1.517   7.322  0.8971 -1.4308  1.1478
 9291SOL    HW239336   3.036   1.539   7.457 -1.3798  0.4207  0.2209
 9292SOL     OW39337   2.220   0.489   8.423  0.7153 -0.0204  0.2264
 9292SOL    HW139338   2.223   0.394   8.411 -2.6683  0.1591 -1.8487
 9292SOL    HW239339   2.185   0.484   8.512  1.2847  2.4673  0.5806
 9293SOL     OW39340   0.018   3.974  10.673  0.4760 -0.1082 -0.3382
 9293SOL    HW139341   0.045   4.019  10.593 -2.4117 -1.6631 -2.2201
 9293SOL    HW239342   0.013   4.044  10.738 -1.0230  1.0602 -1.6895
 9294SOL     OW39343   2.908   0.745   0.166 -0.6679  0.7527 -0.2332
 9294SOL    HW139344   2.912   0.707   0.079  0.9394  1.1183 -0.3082
 9294SOL    HW239345   2.838   0.690   0.202  1.1651  0.6398  3.1955
 9295SOL     OW39346   2.644   2.565   1.936  0.2056 -0.0614 -0.5216
 9295SOL    HW139347   2.610   2.603   2.017  0.5610  0.1291 -0.4605
 9295SOL    HW239348   2.593   2.615   1.873 -1.8163 -1.1759  0.2577
 9296SOL     OW39349   2.405   3.166   4.533  0.1397 -0.3898 -0.5565
 9296SOL    HW139350   2.355   3.085   4.530 -0.2494 -0.1854  0.5898
 9296SOL    HW239351   2.486   3.134   4.492  1.2062  1.8282 -0.1749
 9297SOL     OW39352   4.642   0.203   3.226  0.2880 -0.2537  0.2855
 9297SOL    HW139353   4.669   0.151   3.150 -0.3694  0.1113 -0.2019
 9297SOL    HW239354   4.563   0.243   3.188  0.8904  0.5143 -0.1454
 9298SOL     OW39355   0.057   0.108   7.262 -0.6545 -0.0923  0.2075
 9298SOL    HW139356   0.131   0.059   7.298  1.0595  2.2636 -0.0954
 9298SOL    HW239357   0.075   0.093   7.170 -1.0420 -0.7744  0.2449
 9299SOL     OW39358   1.497   3.512   6.771  0.1758  0.4020 -0.2582
 9299SOL    HW139359   1.505   3.431   6.721 -0.3452  0.5875 -0.6478
 9299SOL    HW239360   1.553   3.559   6.710 -0.8792 -1.4634 -2.6938
 9300SOL     OW39361   3.720   2.074   7.619 -0.1738  0.5512  0.0060
 9300SOL    HW139362   3.780   2.008   7.656 -2.5777 -1.0555  1.0054
 9300SOL    HW239363   3.783   2.130   7.573 -0.1938  1.1145  0.6680
 9301SOL     OW39364   3.649   3.495  12.689  0.0006  0.0455  0.3048
 9301SOL    HW139365   3.607   3.475  12.606 -0.3651 -0.6569  0.6592
 9301SOL    HW239366   3.628   3.411  12.730  0.2923  0.3244  1.0334
 9302SOL     OW39367   0.141   3.591   7.463  0.5576  0.1184 -0.3174
 9302SOL    HW139368   0.215   3.648   7.485 -1.1049  1.5612  1.5634
 9302SOL    HW239369   0.125   3.560   7.552 -0.8352 -2.1973 -1.3691
 9303SOL     OW39370   0.027   1.539   6.247 -0.0103  0.3582 -0.1216
 9303SOL    HW139371   0.027   1.483   6.325 -1.6741 -0.4105 -0.6869
 9303SOL    HW239372   0.109   1.588   6.240  0.7217 -0.8315 -0.0072
 9304SOL     OW39373   0.806   2.976  10.624 -0.4617 -0.6778  0.3264
 9304SOL    HW139374   0.827   2.962  10.717 -2.0726  0.1697  0.8277
 9304SOL    HW239375   0.811   2.888  10.586  0.6732 -0.2650 -0.4715
 9305SOL     OW39376   1.786   0.889   7.720 -0.0189 -0.1995  0.8273
 9305SOL    HW139377   1.772   0.821   7.786  2.5240 -0.3966  1.1485
 9305SOL    HW239378   1.879   0.912   7.724  0.0924 -0.5376  0.1202
 9306SOL     OW39379   1.700   0.355  13.258 -0.1421  0.6413  0.4100
 9306SOL    HW139380   1.746   0.426  13.304  3.1842 -1.0650 -0.2798
 9306SOL    HW239381   1.747   0.273  13.276  1.4211  1.2428 -0.9083
 9307SOL     OW39382   2.595   2.703   8.036  0.2013  0.0523  0.8431
 9307SOL    HW139383   2.631   2.626   7.992  0.5922  1.8220 -1.9583
 9307SOL    HW239384   2.546   2.748   7.968  0.4917 -0.7573  0.1035
 9308SOL     OW39385   1.426   3.651  14.039  0.0042  0.1886 -0.4410
 9308SOL    HW139386   1.436   3.730  13.985 -1.6932  1.3872  0.9957
 9308SOL    HW239387   1.366   3.609  13.978 -0.5367 -0.5581  0.6168
 9309SOL     OW39388   3.959   4.641   3.195 -0.1104 -0.6476 -0.1046
 9309SOL    HW139389   3.915   4.556   3.202  1.3549 -1.5776 -2.4056
 9309SOL    HW239390   3.886   4.692   3.159  0.5833  0.4269  0.0397
 9310SOL     OW39391   1.149   2.147   7.007 -0.0971 -0.2436 -0.1690
 9310SOL    HW139392   1.174   2.131   7.098 -0.1075  0.4573 -0.0430
 9310SOL    HW239393   1.217   2.209   6.982  1.1877 -1.0385  1.3648
 9311SOL     OW39394   0.802   2.960   8.167 -0.7766  0.0737  0.2676
 9311SOL    HW139395   0.779   2.959   8.260  2.2503 -2.0514  0.9830
 9311SOL    HW239396   0.819   2.871   8.137 -2.4937 -0.0282 -0.3677
 9312SOL     OW39397   2.220   1.609   4.630  0.2443 -0.7078 -0.4530
 9312SOL    HW139398   2.206   1.628   4.723  1.9835 -0.3704 -0.2580
 9312SOL    HW239399   2.313   1.589   4.616  0.3699 -1.1813  1.0995
 9313SOL     OW39400   1.977   3.599   4.699 -0.2417  0.2966  0.0474
 9313SOL    HW139401   2.023   3.682   4.699 -0.9892  0.7018  1.7012
 9313SOL    HW239402   1.942   3.603   4.610  1.5056  0.1126 -0.6500
 9314SOL     OW39403   0.431   1.654   2.617 -0.6334 -1.2893  0.8948
 9314SOL    HW139404   0.502   1.655   2.553 -1.2770  0.8550  0.2392
 9314SOL    HW239405   0.484   1.642   2.696  1.8610  0.1417 -0.5604
 9315SOL     OW39406   1.338   1.060   9.504 -0.1922 -0.6586  0.3046
 9315SOL    HW139407   1.378   1.111   9.434 -0.2613  0.5200  1.1290
 9315SOL    HW239408   1.297   0.983   9.465  1.6543 -0.7538 -1.4580
 9316SOL     OW39409   3.818   1.882   1.810 -0.2625  0.0798 -0.6681
 9316SOL    HW139410   3.731   1.907   1.840  0.4906 -0.8468  2.3429
 9316SOL    HW239411   3.869   1.963   1.812  1.5258 -1.0560 -0.4531
 9317SOL     OW39412   0.942   0.175   3.043 -1.0472 -0.0678  0.0521
 9317SOL    HW139413   0.898   0.252   3.008  1.8873  0.8075 -1.6799
 9317SOL    HW239414   0.872   0.127   3.087 -2.3621  0.4286 -1.5222
 9318SOL     OW39415   3.477   1.470  10.386  0.1641  0.2750  0.1186
 9318SOL    HW139416   3.496   1.522  10.308  0.1795  2.9101  1.8845
 9318SOL    HW239417   3.507   1.528  10.455  2.1104 -0.0604 -0.4555
 9319SOL     OW39418   1.719   0.409   8.500  0.0042  0.1432  0.2542
 9319SOL    HW139419   1.779   0.455   8.441 -1.4176 -0.5321 -1.7323
 9319SOL    HW239420   1.727   0.323   8.459 -2.6623 -0.4525  0.9695
 9320SOL     OW39421   1.608   1.869   4.217 -0.1186  0.0386  0.4188
 9320SOL    HW139422   1.532   1.862   4.275  0.1892  2.4848  1.0841
 9320SOL    HW239423   1.566   1.860   4.131 -1.7163 -1.6300  1.3656
 9321SOL     OW39424   2.312   0.023   1.236  0.2895  0.1718  0.8262
 9321SOL    HW139425   2.252   0.065   1.175  0.4307 -0.0530  0.5348
 9321SOL    HW239426   2.396   0.053   1.201 -0.7192  0.8257 -1.0021
 9322SOL     OW39427   3.719   0.136   4.866 -0.2146  0.3757 -0.8421
 9322SOL    HW139428   3.810   0.105   4.867 -0.9870 -1.8173  3.4668
 9322SOL    HW239429   3.735   0.230   4.863  2.8006 -0.1844 -2.2223
 9323SOL     OW39430   4.485   1.295   6.242 -0.1859  0.0918 -0.6415
 9323SOL    HW139431   4.450   1.226   6.298 -1.4509  1.9820  0.9025
 9323SOL    HW239432   4.536   1.343   6.308 -1.8120 -1.2247  1.5574
 9324SOL     OW39433   1.721   1.447  10.351  0.4862  0.1030 -0.1193
 9324SOL    HW139434   1.657   1.514  10.327  1.6263  1.0461 -0.4715
 9324SOL    HW239435   1.734   1.414  10.262  4.5453 -2.0743  1.2891
 9325SOL     OW39436   2.673   2.658   8.704 -0.2085 -0.3781 -0.5535
 9325SOL    HW139437   2.621   2.589   8.663  0.6956  0.2923 -2.8513
 9325SOL    HW239438   2.726   2.609   8.767  0.4781 -0.2889 -1.0612
 9326SOL     OW39439   1.929   1.614   0.662  0.0515 -0.5337 -0.3024
 9326SOL    HW139440   1.940   1.620   0.756 -0.1788 -1.8078 -0.2007
 9326SOL    HW239441   1.919   1.707   0.639  3.3022 -0.0214  0.3667
 9327SOL     OW39442   1.524   4.441   7.590  0.1243  0.1530 -0.4887
 9327SOL    HW139443   1.516   4.361   7.538 -0.1443  0.9700 -1.7279
 9327SOL    HW239444   1.445   4.495   7.578 -0.3508 -0.1151  1.4211
 9328SOL     OW39445   3.463   0.120   7.137 -0.3190 -0.5185  0.2880
 9328SOL    HW139446   3.504   0.159   7.059  0.7680  0.2837  1.2553
 9328SOL    HW239447   3.533   0.138   7.199  0.3084  0.3518 -0.6754
 9329SOL     OW39448   1.053   2.456   0.308  0.5822 -0.2215 -0.1687
 9329SOL    HW139449   1.119   2.407   0.359 -2.1889 -2.0258  1.6992
 9329SOL    HW239450   1.036   2.532   0.363  0.8904 -0.4079  0.1859
 9330SOL     OW39451   4.206   2.565   0.920 -0.0745  0.0945 -0.4240
 9330SOL    HW139452   4.144   2.632   0.890  0.4003 -0.5244 -2.8568
 9330SOL    HW239453   4.203   2.583   1.014 -1.4426  0.0441 -0.4595
 9331SOL     OW39454   0.512   2.244   3.911  0.1405  0.0971 -0.5361
 9331SOL    HW139455   0.493   2.332   3.880 -0.4551 -0.5607 -2.0156
 9331SOL    HW239456   0.512   2.256   4.006 -1.5239 -1.8249 -0.2851
 9332SOL     OW39457   2.361   0.017  11.447 -0.2227 -0.1906 -0.2463
 9332SOL    HW139458   2.447   0.053  11.423 -0.4273  1.8844  2.2129
 9332SOL    HW239459   2.306   0.071  11.391  0.6017  0.9054  0.0116
 9333SOL     OW39460   2.955   2.991   3.281 -0.8224 -0.1728 -0.2440
 9333SOL    HW139461   3.029   2.935   3.306 -0.0644 -0.0322 -2.1332
 9333SOL    HW239462   2.954   2.982   3.186 -1.2315  0.4360 -0.2952
 9334SOL     OW39463   0.289   4.348   0.233  0.2297 -0.4198 -0.6059
 9334SOL    HW139464   0.299   4.441   0.210  1.0500 -0.8130 -1.8243
 9334SOL    HW239465   0.284   4.352   0.329 -1.1914  1.3090 -0.7522
 9335SOL     OW39466   3.599   1.248   5.492 -0.0580  0.1492  0.6865
 9335SOL    HW139467   3.587   1.199   5.410 -0.0662  1.9041 -0.3544
 9335SOL    HW239468   3.693   1.247   5.509 -0.1429  0.2554  1.1520
 9336SOL     OW39469   3.726   3.079   4.446 -0.2389  0.5803 -0.5325
 9336SOL    HW139470   3.755   3.137   4.376  1.9129  1.4750  1.0846
 9336SOL    HW239471   3.786   3.010   4.420 -1.4150  0.3867 -2.6719
 9337SOL     OW39472   1.432   0.964   4.144 -0.3536 -0.1723 -0.2806
 9337SOL    HW139473   1.365   0.905   4.110  0.1517 -0.8994 -0.0399
 9337SOL    HW239474   1.453   0.924   4.229 -2.3130 -0.4941  0.0496
 9338SOL     OW39475   2.436   1.807   6.784 -0.1581 -0.0118  0.5549
 9338SOL    HW139476   2.417   1.757   6.863  1.8830 -1.6281  0.0472
 9338SOL    HW239477   2.408   1.892   6.816 -0.1694 -0.3044  1.3154
 9339SOL     OW39478   4.611   2.855   0.860 -0.5403  0.6009 -0.1241
 9339SOL    HW139479   4.695   2.893   0.833 -0.3405  0.3635  0.1594
 9339SOL    HW239480   4.581   2.826   0.773  1.5651 -1.8502 -0.0522
 9340SOL     OW39481   4.318   1.591  13.454 -0.9805  0.1870  0.3530
 9340SOL    HW139482   4.398   1.580  13.401  0.7183 -0.9808  3.1698
 9340SOL    HW239483   4.253   1.600  13.384 -0.3698  0.1475 -0.2212
 9341SOL     OW39484   4.202   2.529  11.940  0.0517  0.0950 -0.4395
 9341SOL    HW139485   4.147   2.601  11.910  2.5687  1.4811 -1.7896
 9341SOL    HW239486   4.133   2.474  11.976  2.0161 -0.5300  2.4053
 9342SOL     OW39487   3.783   1.900   2.722 -0.1937 -0.0577  0.8914
 9342SOL    HW139488   3.776   1.807   2.745 -1.6467  0.1277  1.2224
 9342SOL    HW239489   3.711   1.896   2.659 -1.2437 -0.7180  2.1161
 9343SOL     OW39490   4.712   2.336   6.853 -0.3541  0.4491 -0.4403
 9343SOL    HW139491   0.081   2.344   6.836 -0.4490 -0.2184 -1.2938
 9343SOL    HW239492   4.681   2.410   6.904 -0.6934 -0.4005  0.5855
 9344SOL     OW39493   3.867   2.922   3.234  0.2124  0.4264 -0.1791
 9344SOL    HW139494   3.890   2.830   3.248  0.3058  0.9058  2.6739
 9344SOL    HW239495   3.848   2.926   3.140 -0.7240 -0.9732 -0.0638
 9345SOL     OW39496   1.210   2.901   0.333 -0.2272 -0.1613 -0.0901
 9345SOL    HW139497   1.192   2.935   0.245 -1.0637 -0.0965  0.1025
 9345SOL    HW239498   1.241   2.811   0.321  3.5736  1.3280 -1.5076
 9346SOL     OW39499   0.843   2.654   3.923 -0.1108 -0.0874 -0.1806
 9346SOL    HW139500   0.898   2.590   3.878 -1.5302 -1.6363  0.3086
 9346SOL    HW239501   0.891   2.728   3.885 -0.6396 -0.2982 -1.2707
 9347SOL     OW39502   4.062   2.620  14.351  0.1183  0.3792 -0.2130
 9347SOL    HW139503   4.153   2.641  14.333 -0.1190 -0.1816 -2.1757
 9347SOL    HW239504   4.068   2.525  14.355  1.5488  0.4605 -0.5417
 9348SOL     OW39505   2.825   4.070   1.576 -0.4062  0.0161  0.0639
 9348SOL    HW139506   2.805   4.000   1.638 -1.3906  0.3323  0.0968
 9348SOL    HW239507   2.912   4.045   1.544 -0.3845 -0.2113  0.2956
 9349SOL     OW39508   1.429   4.593   8.976 -0.4199 -0.0252  0.3378
 9349SOL    HW139509   1.504   4.534   8.969 -1.9336 -2.1559  2.1410
 9349SOL    HW239510   1.477   4.675   8.964 -0.4653 -0.1874 -0.9410
 9350SOL     OW39511   4.451   3.304   8.843 -0.4119 -0.0112  0.3259
 9350SOL    HW139512   4.384   3.369   8.823  0.0895  1.2811  2.9580
 9350SOL    HW239513   4.497   3.348   8.914 -2.3834  0.8661  1.0404
 9351SOL     OW39514   2.889   1.232   5.035 -0.2333 -0.0376  0.0445
 9351SOL    HW139515   2.942   1.224   5.114  0.4520 -1.5964 -0.5837
 9351SOL    HW239516   2.818   1.173   5.061 -0.1271  0.0472  0.5200
 9352SOL     OW39517   1.183   0.167   3.174 -0.2587  0.0019  0.3495
 9352SOL    HW139518   1.240   0.238   3.144  0.0321 -0.8724 -1.1456
 9352SOL    HW239519   1.101   0.187   3.129 -0.9565  1.1487  2.1039
 9353SOL     OW39520   4.468   4.166  11.009 -0.1696  0.0243  0.0031
 9353SOL    HW139521   4.447   4.251  11.048  0.4175 -1.1253  2.8663
 9353SOL    HW239522   4.384   4.142  10.970  0.6426  0.8595 -2.2185
 9354SOL     OW39523   4.572   1.039   4.865  0.0659  0.2030 -0.4640
 9354SOL    HW139524   4.559   1.078   4.779 -0.5660 -1.6333 -1.2083
 9354SOL    HW239525   4.657   0.995   4.856  1.2497  2.4765 -0.1891
 9355SOL     OW39526   3.195   0.361   3.729 -0.1787  0.3412  0.5039
 9355SOL    HW139527   3.261   0.322   3.786  0.2406  1.7597  0.9854
 9355SOL    HW239528   3.214   0.450   3.760 -0.5317 -0.4334  2.8931
 9356SOL     OW39529   4.429   0.446  15.663 -0.4232  0.2872 -0.0180
 9356SOL    HW139530   4.506   0.498  15.687 -0.6238  1.2063 -1.3699
 9356SOL    HW239531   4.448   0.384  15.734  0.5270  0.9535  0.3056
 9357SOL     OW39532   1.067   1.944   4.579  0.3447 -0.4534  0.1538
 9357SOL    HW139533   1.144   1.997   4.563 -1.6389  2.8480  1.5648
 9357SOL    HW239534   0.999   2.009   4.598  0.2468 -0.0502 -1.6010
 9358SOL     OW39535   3.095   0.531   7.888  0.1254 -0.1528 -0.1536
 9358SOL    HW139536   3.065   0.476   7.961 -2.0739  0.9069 -0.2567
 9358SOL    HW239537   3.012   0.527   7.842  0.2537 -0.1514 -0.3813
 9359SOL     OW39538   4.330   4.355   0.336  0.1956 -0.5639  0.7401
 9359SOL    HW139539   4.267   4.349   0.407  0.5036 -0.6615  1.0087
 9359SOL    HW239540   4.351   4.265   0.313 -1.9502 -1.3357  1.8418
 9360SOL     OW39541   1.124   1.782  16.653 -0.1191 -0.3669 -0.0599
 9360SOL    HW139542   1.123   1.842  16.578 -1.4511  0.7793  0.8652
 9360SOL    HW239543   1.094   1.700  16.613  0.6749 -0.0579 -1.2979
 9361SOL     OW39544   2.340   1.297   8.329 -0.3081 -0.2521  0.5692
 9361SOL    HW139545   2.278   1.242   8.376 -0.2204  0.4510  1.5165
 9361SOL    HW239546   2.378   1.350   8.399  2.1501 -1.1454 -0.0963
 9362SOL     OW39547   1.903   1.775   7.901 -0.1586  0.7436  0.5224
 9362SOL    HW139548   1.921   1.782   7.995 -0.2246  1.1443  0.5084
 9362SOL    HW239549   1.885   1.869   7.891  0.8401  0.7304 -1.5980
 9363SOL     OW39550   3.768   0.411   1.409  0.2758 -0.4710 -0.0122
 9363SOL    HW139551   3.764   0.502   1.378  2.4384 -0.2191  0.4981
 9363SOL    HW239552   3.858   0.409   1.439  0.2365 -0.4959  0.1020
 9364SOL     OW39553   3.746   1.559   8.585 -0.2338 -0.1797 -0.2537
 9364SOL    HW139554   3.755   1.465   8.576  1.7850 -0.3482  3.6550
 9364SOL    HW239555   3.796   1.593   8.511  2.1073 -0.2729  1.2901
 9365SOL     OW39556   1.675   0.832   7.486 -0.4568  0.4647 -0.2337
 9365SOL    HW139557   1.716   0.835   7.572 -1.7847  1.0265  0.3733
 9365SOL    HW239558   1.758   0.818   7.439 -0.6919  2.0025 -1.1181
 9366SOL     OW39559   2.896   2.843  11.014 -0.1600 -0.6954 -0.1887
 9366SOL    HW139560   2.941   2.923  10.989  1.6071 -1.2384  1.2832
 9366SOL    HW239561   2.892   2.800  10.928 -1.2590  0.5224 -0.7521
 9367SOL     OW39562   3.394   3.443  16.035 -0.2647  0.1981 -0.4443
 9367SOL    HW139563   3.352   3.370  16.081  0.9607 -0.2861 -0.0711
 9367SOL    HW239564   3.485   3.418  16.054 -0.5160 -0.4728 -0.1357
 9368SOL     OW39565   0.979   3.506   1.851  0.6023 -0.1188  0.8328
 9368SOL    HW139566   0.932   3.560   1.915  0.8746  1.8264 -0.6279
 9368SOL    HW239567   1.007   3.430   1.904 -0.1349 -0.2770  0.9930
 9369SOL     OW39568   1.109   1.708   9.206 -0.1302 -0.0902 -1.3893
 9369SOL    HW139569   1.125   1.801   9.192  0.4053  0.1630  0.8953
 9369SOL    HW239570   1.040   1.695   9.141 -1.3057  2.2151 -0.6051
 9370SOL     OW39571   4.564   3.408   5.260  0.4046 -0.2130  0.4313
 9370SOL    HW139572   4.588   3.323   5.297  1.6357 -1.2897 -2.8301
 9370SOL    HW239573   4.500   3.372   5.197  0.4960  0.5519 -0.0945
 9371SOL     OW39574   1.379   1.722   0.575 -0.5898  0.0178  0.3085
 9371SOL    HW139575   1.460   1.671   0.563 -0.2271  0.1177  2.4410
 9371SOL    HW239576   1.366   1.718   0.669 -0.9239  0.6148  0.2853
 9372SOL     OW39577   4.433   1.153  16.730 -0.5670  0.0696 -0.1775
 9372SOL    HW139578   4.510   1.098  16.742  0.3067  1.5247  0.8710
 9372SOL    HW239579   4.460   1.243  16.749  0.3417 -0.3472  0.5172
 9373SOL     OW39580   4.681   2.843  16.670 -0.1359  0.1241 -0.7659
 9373SOL    HW139581   0.030   2.901  16.690 -1.3036  0.4948  2.4557
 9373SOL    HW239582   4.667   2.873  16.580 -1.1454  2.5139  0.1795
 9374SOL     OW39583   2.362   1.596   6.024 -0.3658  0.1036  0.5976
 9374SOL    HW139584   2.279   1.643   6.033 -0.5845 -0.3844  1.1238
 9374SOL    HW239585   2.338   1.521   6.079 -1.8691  1.2652  1.5175
 9375SOL     OW39586   0.530   0.528   7.412 -0.3048  0.3195  0.5086
 9375SOL    HW139587   0.617   0.567   7.427 -0.3622  0.0005  1.7433
 9375SOL    HW239588   0.492   0.594   7.354 -1.6222  1.4316  2.6244
 9376SOL     OW39589   4.388   2.878  12.787  0.9870 -0.3260  0.1851
 9376SOL    HW139590   4.330   2.875  12.711 -0.6689  0.1341  1.4387
 9376SOL    HW239591   4.324   2.896  12.855 -0.1464 -1.9978 -0.4322
 9377SOL     OW39592   2.724   0.014   4.384 -0.0651  0.9656  0.4955
 9377SOL    HW139593   2.634   4.714   4.402  0.7851 -2.2946  0.2621
 9377SOL    HW239594   2.748   0.042   4.473 -1.4433  0.0303  1.1551
 9378SOL     OW39595   3.619   4.454   5.486  0.3185  0.7058 -0.7548
 9378SOL    HW139596   3.584   4.366   5.500  0.6698  0.7396  0.3912
 9378SOL    HW239597   3.700   4.432   5.439 -0.6292 -0.7004 -1.7309
 9379SOL     OW39598   2.595   4.081   6.945  0.1904  0.1625 -0.3605
 9379SOL    HW139599   2.661   4.040   7.001  0.0505  1.4416  0.7590
 9379SOL    HW239600   2.606   4.174   6.966  1.9489 -0.1588  0.1416
 9380SOL     OW39601   3.507   1.048   7.516  0.5749  0.0697  0.2394
 9380SOL    HW139602   3.458   0.983   7.566  0.9739 -1.4438 -1.3339
 9380SOL    HW239603   3.470   1.042   7.428  0.5382  0.4576  0.2253
 9381SOL     OW39604   0.763   0.200   7.596 -0.3146  1.0914  0.0600
 9381SOL    HW139605   0.683   0.248   7.620 -1.3681 -0.2703 -0.7461
 9381SOL    HW239606   0.825   0.243   7.655  0.7667 -0.2334 -0.1230
 9382SOL     OW39607   3.534   1.611  17.371  0.1744 -0.1756  0.1165
 9382SOL    HW139608   3.564   1.631  17.459  2.8328 -0.7961 -0.6505
 9382SOL    HW239609   3.440   1.597  17.379  0.3451 -2.2068 -1.5322
 9383SOL     OW39610   0.682   2.884   6.860 -0.4173  0.1304  0.2456
 9383SOL    HW139611   0.606   2.834   6.829 -0.1604  0.5260 -1.0248
 9383SOL    HW239612   0.722   2.816   6.914 -0.6829  0.4898  0.9004
 9384SOL     OW39613   2.182   2.761   8.699 -0.1472 -0.0414  0.1447
 9384SOL    HW139614   2.099   2.807   8.686  1.3969  2.4434 -0.8477
 9384SOL    HW239615   2.173   2.713   8.781  1.3070  1.2005  1.0136
 9385SOL     OW39616   2.842   3.379  13.768  0.5930 -0.1153  0.2885
 9385SOL    HW139617   2.825   3.468  13.800 -1.3169 -0.5003  0.3836
 9385SOL    HW239618   2.820   3.311  13.832  0.4154 -1.2729 -1.0024
 9386SOL     OW39619   3.078   3.060  13.871  0.4496 -0.2252  0.1808
 9386SOL    HW139620   3.074   2.980  13.818 -3.5797  0.7536 -1.0201
 9386SOL    HW239621   3.056   3.024  13.958  0.7339  1.7362  1.0572
 9387SOL     OW39622   4.721   0.929   7.927  0.1404  0.0724  0.1345
 9387SOL    HW139623   4.691   0.867   7.994 -0.5385  1.4811  1.1212
 9387SOL    HW239624   0.089   0.930   7.946  0.1035 -2.2806  0.4549
 9388SOL     OW39625   4.319   0.581   2.967  0.7960  0.2231  0.2849
 9388SOL    HW139626   4.381   0.563   2.895  0.0435  2.5167 -0.9308
 9388SOL    HW239627   4.300   0.493   2.998  0.4649 -0.5945 -2.2441
 9389SOL     OW39628   4.288   1.768   1.416  0.4035  0.5587  0.6949
 9389SOL    HW139629   4.230   1.839   1.389 -1.1394 -1.0249 -0.2028
 9389SOL    HW239630   4.299   1.780   1.511  1.5990  2.3739  0.3336
 9390SOL     OW39631   0.292   0.994   6.129 -0.6437 -0.0477  1.0338
 9390SOL    HW139632   0.358   1.060   6.107 -0.2687 -0.5255  0.7001
 9390SOL    HW239633   0.223   1.046   6.169 -1.6843 -0.5597 -0.0732
 9391SOL     OW39634   4.622   2.674   5.175 -0.2885  0.0628 -0.4018
 9391SOL    HW139635   4.540   2.625   5.181 -0.1841 -0.1422 -0.6637
 9391SOL    HW239636   4.668   2.630   5.103  0.3242 -1.6130  0.9965
 9392SOL     OW39637   1.546   0.540   4.016 -0.0760  1.5789 -0.0712
 9392SOL    HW139638   1.582   0.452   4.006  1.1265  2.3010 -1.9713
 9392SOL    HW239639   1.457   0.532   3.980 -0.0542  1.0800 -0.0169
 9393SOL     OW39640   0.965   1.105   1.880  0.4197  0.0211 -0.8323
 9393SOL    HW139641   1.002   1.131   1.964  1.4985 -0.8683 -1.0242
 9393SOL    HW239642   1.015   1.025   1.859 -0.0891 -0.6619  0.5726
 9394SOL     OW39643   0.492   4.183  17.172 -0.3467  0.0287  0.3202
 9394SOL    HW139644   0.410   4.232  17.172  0.0459  0.6637 -1.3472
 9394SOL    HW239645   0.448   4.101  17.148 -0.4372 -0.1733  1.1757
 9395SOL     OW39646   4.632   1.350   8.680 -0.4867 -0.0487  0.0432
 9395SOL    HW139647   4.545   1.330   8.714 -1.0769  0.3803 -1.2234
 9395SOL    HW239648   4.680   1.269   8.697  0.9118  1.1248  1.8668
 9396SOL     OW39649   2.816   4.319   5.526 -0.2205  0.3241 -0.0942
 9396SOL    HW139650   2.789   4.258   5.594 -0.3145  1.8667  1.2451
 9396SOL    HW239651   2.788   4.269   5.449  0.9599 -0.8718  0.2511
 9397SOL     OW39652   2.026   1.160   9.128  0.6197  0.6446 -0.3050
 9397SOL    HW139653   2.092   1.192   9.066 -0.1304 -0.9401 -1.9292
 9397SOL    HW239654   1.959   1.144   9.061  0.7814 -1.1705 -0.0442
 9398SOL     OW39655   0.955   3.590   4.344 -0.0383  0.4586 -0.4012
 9398SOL    HW139656   0.864   3.611   4.367 -0.2219 -1.9096  1.0621
 9398SOL    HW239657   0.978   3.511   4.392  0.0578  0.9596  0.3909
 9399SOL     OW39658   4.526   1.723  13.925  0.4831 -0.1548 -0.2900
 9399SOL    HW139659   4.445   1.696  13.881  1.7286 -2.1559 -1.3204
 9399SOL    HW239660   4.581   1.646  13.913 -1.1869 -0.9597 -2.8143
 9400SOL     OW39661   4.547   0.230   3.499  0.1149  0.5013  0.4004
 9400SOL    HW139662   4.497   0.167   3.551  0.3248  1.1530  1.3959
 9400SOL    HW239663   4.571   0.178   3.422  2.4930 -1.3778  2.4047
 9401SOL     OW39664   1.199   4.054   4.349 -0.2969 -0.6907 -0.1601
 9401SOL    HW139665   1.181   4.004   4.270  2.0964  2.3599 -2.6230
 9401SOL    HW239666   1.242   4.131   4.314 -1.2868 -0.2716 -0.4308
 9402SOL     OW39667   3.913   1.957  11.830 -0.3186  0.0804 -0.3101
 9402SOL    HW139668   3.990   1.901  11.818 -0.2562  0.1742 -0.3461
 9402SOL    HW239669   3.945   2.036  11.787 -0.4705  0.6772  0.6713
 9403SOL     OW39670   3.237   2.956  13.065 -0.0258  0.0393 -0.8063
 9403SOL    HW139671   3.214   2.895  12.995 -2.9579 -0.6313  0.7442
 9403SOL    HW239672   3.327   2.966  13.033 -0.4447 -0.6982 -2.2227
 9404SOL     OW39673   3.667   0.468   5.060 -0.2903  0.1069  0.1234
 9404SOL    HW139674   3.645   0.543   5.115 -1.1422 -0.2107  0.2197
 9404SOL    HW239675   3.581   0.426   5.063 -1.1949  2.1305  2.4542
 9405SOL     OW39676   1.296   4.485   3.611  0.6194  0.0390 -0.2867
 9405SOL    HW139677   1.311   4.396   3.579  0.6523 -0.2060  0.3951
 9405SOL    HW239678   1.320   4.547   3.542  0.2874  1.0034  0.4569
 9406SOL     OW39679   0.606   1.660   1.496 -0.3177 -0.5831  0.1362
 9406SOL    HW139680   0.558   1.580   1.474 -0.1604  0.4642 -3.9839
 9406SOL    HW239681   0.632   1.686   1.407 -1.7572  0.3473 -0.0063
 9407SOL     OW39682   4.372   1.226   8.763  0.0035  0.1211  0.3101
 9407SOL    HW139683   4.372   1.302   8.821 -0.0453  0.8299 -0.6219
 9407SOL    HW239684   4.436   1.180   8.818 -1.1672 -0.7413  0.9555
 9408SOL     OW39685   3.237   1.409   8.281 -0.8569  0.2724  0.0933
 9408SOL    HW139686   3.245   1.483   8.341  0.2223 -1.7987  2.4898
 9408SOL    HW239687   3.175   1.439   8.215 -0.3653 -1.8275 -1.3598
 9409SOL     OW39688   0.279   1.594  11.606  0.5323 -0.5792 -0.6215
 9409SOL    HW139689   0.313   1.648  11.535 -1.3025  0.2490 -0.8573
 9409SOL    HW239690   0.343   1.522  11.607  1.4780  0.2719 -0.4025
 9410SOL     OW39691   4.666   3.044   2.226 -0.2431 -0.5106 -0.3931
 9410SOL    HW139692   4.575   3.070   2.213  0.0098  0.8102  0.3770
 9410SOL    HW239693   4.700   3.103   2.158  1.8342 -0.4407  0.7023
 9411SOL     OW39694   0.641   4.545   8.159  0.4291  0.1548 -0.2678
 9411SOL    HW139695   0.597   4.600   8.094 -2.1797  0.8619  2.0777
 9411SOL    HW239696   0.599   4.579   8.237  0.9058  0.9164 -0.3434
 9412SOL     OW39697   1.840   2.486   6.033 -0.1102 -0.5264 -0.1316
 9412SOL    HW139698   1.776   2.557   6.036  0.2653 -0.1939  0.1216
 9412SOL    HW239699   1.917   2.531   5.996 -1.4956  0.8719 -1.3183
 9413SOL     OW39700   3.926   1.435  15.131 -0.0962 -0.0130 -0.0192
 9413SOL    HW139701   4.009   1.388  15.123 -0.8349 -1.5591  1.1972
 9413SOL    HW239702   3.890   1.398  15.212  1.1090 -1.1404 -0.0015
 9414SOL     OW39703   3.593   3.735   5.463  0.2883 -0.2399  0.7833
 9414SOL    HW139704   3.664   3.681   5.429  0.4957  1.5455 -1.7115
 9414SOL    HW239705   3.638   3.771   5.539  0.8101  0.4325  0.1624
 9415SOL     OW39706   0.415   3.136  17.036  0.0532  0.0091  0.0700
 9415SOL    HW139707   0.406   3.228  17.013 -0.8614  0.1477  0.9769
 9415SOL    HW239708   0.384   3.135  17.127  2.7130 -0.5007  0.9660
 9416SOL     OW39709   4.033   2.207  14.899 -0.0203 -0.4549  0.3052
 9416SOL    HW139710   4.082   2.159  14.967 -0.1895  0.7421  1.2688
 9416SOL    HW239711   4.029   2.297  14.930  2.1594 -0.5262  0.8374
 9417SOL     OW39712   0.892   2.947   1.251  0.2591  0.1425  0.3872
 9417SOL    HW139713   0.972   2.938   1.198 -0.6222 -1.9282 -0.5715
 9417SOL    HW239714   0.862   3.035   1.226 -1.1855 -0.2544  0.7801
 9418SOL     OW39715   1.602   0.559   2.748  0.1219 -0.8567 -0.4708
 9418SOL    HW139716   1.583   0.526   2.660  0.7178  0.4606 -1.0904
 9418SOL    HW239717   1.622   0.652   2.741 -0.7679 -0.6956 -0.9258
 9419SOL     OW39718   2.335   3.667   7.045 -0.2825  0.8029 -0.2114
 9419SOL    HW139719   2.304   3.745   7.091 -1.4328 -1.0407  2.1568
 9419SOL    HW239720   2.430   3.667   7.055 -0.5799  0.7768  2.7984
 9420SOL     OW39721   2.046   2.607   0.004  0.3279  0.6420  0.1585
 9420SOL    HW139722   2.037   2.694  17.667  0.9976  0.5887 -0.1144
 9420SOL    HW239723   2.135   2.613   0.038  0.5944  1.8947 -0.7709
 9421SOL     OW39724   1.001   1.468  15.650  0.4398 -0.1985 -0.0697
 9421SOL    HW139725   0.907   1.487  15.643  0.4053 -0.3327  0.0284
 9421SOL    HW239726   1.028   1.546  15.603  1.6584 -0.0241  0.9294
 9422SOL     OW39727   0.368   0.637  14.324 -0.4774 -0.3993  0.2576
 9422SOL    HW139728   0.417   0.595  14.253  1.0517 -0.1588  1.1661
 9422SOL    HW239729   0.372   0.732  14.313 -1.8420 -0.5968 -1.9190
 9423SOL     OW39730   1.307   3.930   8.647 -0.1191  0.0145  0.1678
 9423SOL    HW139731   1.247   3.858   8.631 -1.4710  1.1663  0.0118
 9423SOL    HW239732   1.244   3.997   8.673 -0.3690 -0.4689  0.8046
 9424SOL     OW39733   3.392   1.801   4.540  0.5492 -0.1098 -0.2047
 9424SOL    HW139734   3.391   1.726   4.599 -0.7850 -1.0558 -1.4293
 9424SOL    HW239735   3.391   1.763   4.453  1.9067 -1.6924  0.4702
 9425SOL     OW39736   1.574   0.735  12.936  0.0832  0.1292 -0.1076
 9425SOL    HW139737   1.559   0.721  13.030  0.9471  0.1073  0.0257
 9425SOL    HW239738   1.494   0.773  12.901 -0.8760  0.1028  2.0421
 9426SOL     OW39739   0.479   1.941   4.199 -0.1262  0.0847  0.1790
 9426SOL    HW139740   0.489   1.979   4.112 -0.2332 -1.2446 -0.4142
 9426SOL    HW239741   0.530   1.861   4.192 -0.1146 -0.0418  1.8188
 9427SOL     OW39742   3.768   0.185   1.659  0.2462 -0.1613 -0.0554
 9427SOL    HW139743   3.799   0.251   1.596 -0.1601  1.3816  1.3542
 9427SOL    HW239744   3.823   0.110   1.639 -2.7287 -2.4084  0.2570
 9428SOL     OW39745   2.126   2.814   1.055 -0.1034 -0.3439  0.0386
 9428SOL    HW139746   2.112   2.729   1.016  1.3985 -0.2646 -0.6719
 9428SOL    HW239747   2.219   2.794   1.070 -0.4945 -1.7672  0.4824
 9429SOL     OW39748   3.614   4.114   6.036 -0.3189  0.0260 -0.0076
 9429SOL    HW139749   3.691   4.109   5.979 -1.2516  1.7492 -1.4077
 9429SOL    HW239750   3.550   4.127   5.966 -0.4362  0.5388  0.1950
 9430SOL     OW39751   4.608   3.429   4.536  0.0852  0.5821 -0.2351
 9430SOL    HW139752   4.623   3.335   4.527 -0.7183  0.4814 -0.5003
 9430SOL    HW239753   4.588   3.456   4.446  1.9909  0.8586 -0.5799
 9431SOL     OW39754   3.521   2.948   2.762 -0.2989 -0.0106 -0.2087
 9431SOL    HW139755   3.565   2.877   2.807  0.4502 -0.4518 -1.6359
 9431SOL    HW239756   3.476   2.909   2.687 -0.8460 -1.0203  0.6411
 9432SOL     OW39757   0.451   0.509   2.451  0.6766 -0.8114  0.2969
 9432SOL    HW139758   0.374   0.483   2.402  0.5756  1.9325 -0.9705
 9432SOL    HW239759   0.407   0.521   2.535  1.9934 -2.7393  1.2944
 9433SOL     OW39760   0.034   1.396   7.614  0.4783  0.1543 -0.2628
 9433SOL    HW139761   4.675   1.439   7.597  0.2797 -0.5141 -0.9736
 9433SOL    HW239762   0.017   1.306   7.585 -2.2399  0.8687 -0.9491
 9434SOL     OW39763   0.926   4.481   8.590  0.1706 -0.0079 -0.3197
 9434SOL    HW139764   1.009   4.512   8.553  0.7180 -0.7141  0.3062
 9434SOL    HW239765   0.905   4.414   8.526 -1.6249  0.9622 -0.7468
 9435SOL     OW39766   0.706   1.143   0.108 -0.4013  0.8430 -0.1858
 9435SOL    HW139767   0.787   1.182   0.139 -0.2620  0.7816 -0.4666
 9435SOL    HW239768   0.724   1.052   0.131  0.6255  1.6179  2.1019
 9436SOL     OW39769   0.379   0.739   6.981 -0.0821  0.2354 -0.0119
 9436SOL    HW139770   0.314   0.728   6.912  1.0425  1.6798 -1.3107
 9436SOL    HW239771   0.418   0.822   6.956  2.4101 -1.4848 -1.8450
 9437SOL     OW39772   1.685   2.733   4.624 -0.1930 -0.3347 -0.2826
 9437SOL    HW139773   1.738   2.676   4.680 -0.8539 -2.0840 -1.4408
 9437SOL    HW239774   1.742   2.743   4.548  1.6303 -1.6610  0.9205
 9438SOL     OW39775   2.966   4.287   0.337 -0.0852 -0.0895  0.2847
 9438SOL    HW139776   3.016   4.263   0.259 -0.2445 -3.1041  1.1240
 9438SOL    HW239777   2.883   4.239   0.338 -0.3086  0.2624 -1.1117
 9439SOL     OW39778   3.737   2.020   7.270 -0.1760  0.2838  0.2760
 9439SOL    HW139779   3.795   2.096   7.259 -0.1904  0.5523  2.0604
 9439SOL    HW239780   3.777   1.988   7.351  0.1304 -0.7364 -0.2788
 9440SOL     OW39781   3.752   0.481   4.371  0.3234 -0.2640 -0.3007
 9440SOL    HW139782   3.732   0.420   4.442 -0.5194 -1.7700 -1.8498
 9440SOL    HW239783   3.797   0.544   4.429 -1.2738 -0.4171  1.1135
 9441SOL     OW39784   4.703   4.392   8.843 -0.1946 -0.2273  0.1186
 9441SOL    HW139785   0.033   4.334   8.895  0.0898  1.0023  1.1834
 9441SOL    HW239786   4.708   4.470   8.898  0.6337 -1.2925  1.5711
 9442SOL     OW39787   1.861   1.974  10.695  0.0776  0.3879  0.5757
 9442SOL    HW139788   1.911   1.905  10.652  0.6462 -0.2538  2.2699
 9442SOL    HW239789   1.785   1.921  10.718  0.7342 -0.1783  1.4410
 9443SOL     OW39790   0.235   0.151   7.542  0.5423 -0.0385 -0.7788
 9443SOL    HW139791   0.209   0.243   7.537  0.3267 -0.1164 -1.1306
 9443SOL    HW239792   0.261   0.142   7.633  0.9111  2.3598 -0.6405
 9444SOL     OW39793   4.574   0.309  12.367 -0.1785  0.3031 -0.4981
 9444SOL    HW139794   4.563   0.252  12.442  0.3012 -0.3838 -0.9583
 9444SOL    HW239795   4.610   0.254  12.298  0.1374 -1.0391  0.7610
 9445SOL     OW39796   3.448   2.062   4.586 -0.0632  0.2380  0.0424
 9445SOL    HW139797   3.407   1.983   4.550  0.2777  0.5886 -1.1156
 9445SOL    HW239798   3.538   2.062   4.554  0.5836 -0.1966  1.8776
 9446SOL     OW39799   0.853   4.059   2.838 -0.2949  0.0444 -0.0630
 9446SOL    HW139800   0.831   4.091   2.751  1.3882 -0.3906 -0.6494
 9446SOL    HW239801   0.947   4.074   2.847 -0.7293  2.8240 -0.4599
 9447SOL     OW39802   4.098   4.362   0.141  0.1349  0.2687  0.7997
 9447SOL    HW139803   4.185   4.399   0.160  0.5298 -0.1177 -0.2656
 9447SOL    HW239804   4.059   4.448   0.125  0.7885  0.9521  2.7695
 9448SOL     OW39805   0.320   4.461   9.040  0.3989 -0.8322  0.4667
 9448SOL    HW139806   0.355   4.464   9.129  1.7611  0.7798 -0.1298
 9448SOL    HW239807   0.242   4.515   9.053  2.6153  2.6472 -0.5923
 9449SOL     OW39808   1.050   1.654  12.222  0.0523  0.7912  0.5352
 9449SOL    HW139809   1.025   1.651  12.314  1.2264  1.3737  0.8736
 9449SOL    HW239810   1.051   1.562  12.195 -1.0158  0.8358  0.3294
 9450SOL     OW39811   0.905   4.506  11.885 -0.2766  0.7108  0.0262
 9450SOL    HW139812   0.817   4.502  11.850 -1.1974 -0.1974  2.4573
 9450SOL    HW239813   0.896   4.588  11.934 -0.9566 -0.2825  1.5547
 9451SOL     OW39814   2.056   0.521   0.870 -0.2699  0.1765 -0.4482
 9451SOL    HW139815   2.150   0.504   0.870  0.1596  2.5173  1.7485
 9451SOL    HW239816   2.026   0.430   0.868 -0.3084  0.2066 -1.2850
 9452SOL     OW39817   2.573   3.909   3.403 -0.3338 -0.4095  0.0622
 9452SOL    HW139818   2.607   3.827   3.437  2.4636  0.6055 -0.3299
 9452SOL    HW239819   2.549   3.881   3.314 -2.0751 -1.9817  1.0285
 9453SOL     OW39820   2.291   1.721   7.281 -0.3128 -0.0195 -0.1953
 9453SOL    HW139821   2.258   1.652   7.339  3.4564 -1.2514  0.4868
 9453SOL    HW239822   2.277   1.801   7.332 -2.1054 -0.3520 -0.1750
 9454SOL     OW39823   4.712   0.877   9.186 -0.5304 -0.8727 -0.1709
 9454SOL    HW139824   4.649   0.823   9.139  0.1447 -3.1793  1.6079
 9454SOL    HW239825   0.018   0.917   9.105 -0.0710 -1.7151 -0.4100
 9455SOL     OW39826   2.526   3.719   5.601  0.2386 -0.8908 -0.1081
 9455SOL    HW139827   2.519   3.651   5.668 -1.0024  0.5483  1.2105
 9455SOL    HW239828   2.621   3.730   5.594 -0.1510  2.8100  0.3287
 9456SOL     OW39829   3.452   2.854   5.044 -0.3366  0.1323  0.0497
 9456SOL    HW139830   3.546   2.833   5.045 -0.5758 -0.8959  0.9219
 9456SOL    HW239831   3.443   2.944   5.013  1.8747 -0.3678 -2.1167
 9457SOL     OW39832   1.637   2.083   5.430 -0.3537 -0.2437  0.0795
 9457SOL    HW139833   1.697   2.026   5.382  0.5357  0.7179  0.0700
 9457SOL    HW239834   1.698   2.134   5.483  1.3924  0.6802 -2.8163
 9458SOL     OW39835   2.128   0.448   8.747 -0.3496 -0.5418 -0.0455
 9458SOL    HW139836   2.134   0.353   8.741 -3.2825 -0.8804  2.4030
 9458SOL    HW239837   2.214   0.480   8.720  0.6967 -4.3722 -1.3087
 9459SOL     OW39838   2.161   2.800   1.717  0.2826  0.1882 -0.1795
 9459SOL    HW139839   2.145   2.822   1.808 -0.0337 -0.4339 -0.0845
 9459SOL    HW239840   2.138   2.878   1.666 -0.2542  0.3305  0.2857
 9460SOL     OW39841   2.957   0.934   9.118 -0.1642 -0.1722 -0.0446
 9460SOL    HW139842   3.015   0.871   9.160  1.0685 -0.3726 -2.0069
 9460SOL    HW239843   2.943   0.916   9.024 -1.5088 -0.2399  0.1696
 9461SOL     OW39844   3.223   1.849   5.648  0.3111 -0.0154 -0.5483
 9461SOL    HW139845   3.152   1.816   5.593 -0.9695 -0.6654  1.5026
 9461SOL    HW239846   3.273   1.777   5.686  0.1099  2.1603  3.8018
 9462SOL     OW39847   2.234   1.924   4.756 -0.0428 -0.4798  0.2397
 9462SOL    HW139848   2.235   1.993   4.690 -1.4344 -1.3858 -0.7187
 9462SOL    HW239849   2.306   1.958   4.810  1.3284  0.7080 -2.3107
 9463SOL     OW39850   1.711   1.203  17.051 -0.6923  0.0531 -0.2160
 9463SOL    HW139851   1.800   1.211  17.018 -0.6540 -2.8705 -0.7754
 9463SOL    HW239852   1.660   1.232  16.975 -0.7626 -0.6954 -0.4479
 9464SOL     OW39853   1.962   0.316   8.241 -0.0420 -0.0950  1.0122
 9464SOL    HW139854   2.008   0.256   8.182 -0.6550 -2.2612  2.7255
 9464SOL    HW239855   1.902   0.259   8.289 -0.6584 -1.5655 -1.5249
 9465SOL     OW39856   0.904   0.353   4.576 -0.1135 -0.3043 -0.1393
 9465SOL    HW139857   0.824   0.340   4.627  0.9631  0.8201  1.8262
 9465SOL    HW239858   0.891   0.439   4.537  0.8170 -0.8758 -1.7020
 9466SOL     OW39859   0.997   4.650   3.422  0.0195 -0.2898 -0.4855
 9466SOL    HW139860   1.087   4.672   3.397  0.0367 -0.4826 -0.5954
 9466SOL    HW239861   0.965   4.627   3.334 -0.4453 -0.8101 -0.1764
 9467SOL     OW39862   4.686   1.983   2.526 -0.0713 -0.4891 -0.2450
 9467SOL    HW139863   0.014   1.941   2.593  1.4323  0.6948 -0.7185
 9467SOL    HW239864   4.705   2.070   2.560  0.7406 -0.5422 -0.5700
 9468SOL     OW39865   1.400   4.515   5.948 -0.2199  0.4876 -0.0249
 9468SOL    HW139866   1.426   4.462   6.023 -0.1718 -0.3232 -0.6097
 9468SOL    HW239867   1.306   4.519   5.962 -0.3099 -1.6981 -0.0240
 9469SOL     OW39868   4.368   2.350   1.148  0.5362  0.0526 -0.3101
 9469SOL    HW139869   4.392   2.264   1.113  0.8617  0.1563 -0.3395
 9469SOL    HW239870   4.414   2.347   1.232  0.1130 -1.7835 -0.1303
 9470SOL     OW39871   1.709   2.223   0.785  0.2771 -0.0328  0.3431
 9470SOL    HW139872   1.674   2.222   0.695  0.0093  0.4310  0.4449
 9470SOL    HW239873   1.636   2.270   0.824 -2.6388 -2.1680 -2.4640
 9471SOL     OW39874   0.511   3.383   8.433  0.1529 -0.0196  0.1298
 9471SOL    HW139875   0.457   3.462   8.434  0.7213  0.3414  2.0387
 9471SOL    HW239876   0.599   3.411   8.458 -0.9063  2.2090  1.2764
 9472SOL     OW39877   3.057   1.523   8.643  0.2563  0.5099  0.7212
 9472SOL    HW139878   3.020   1.437   8.622 -0.2664  0.9910 -0.3379
 9472SOL    HW239879   3.101   1.512   8.727  0.9627  0.0311  0.2874
 9473SOL     OW39880   0.715   0.592   7.723  0.0016  0.1485 -0.2059
 9473SOL    HW139881   0.662   0.598   7.802  0.7931  0.5491  0.2866
 9473SOL    HW239882   0.753   0.504   7.724  4.0838  1.9330 -0.8807
 9474SOL     OW39883   3.072   2.626   9.402  0.8852  0.8202 -0.5137
 9474SOL    HW139884   3.141   2.692   9.394  2.3738 -0.7455 -0.4859
 9474SOL    HW239885   3.011   2.669   9.462 -2.2470 -2.6122 -1.2723
 9475SOL     OW39886   2.253   2.101   9.701  0.0007  0.0791 -0.1435
 9475SOL    HW139887   2.280   2.169   9.762  3.7221 -0.9319 -0.6799
 9475SOL    HW239888   2.339   2.060   9.688  0.1919  0.3796  0.1803
 9476SOL     OW39889   2.678   3.715   1.756  0.2365 -0.4966 -0.4494
 9476SOL    HW139890   2.747   3.654   1.784  0.4645 -0.1121 -0.1757
 9476SOL    HW239891   2.618   3.665   1.701  1.4240 -0.9881 -1.3097
 9477SOL     OW39892   0.497   1.221   2.082  0.3782  0.1851 -0.6267
 9477SOL    HW139893   0.575   1.166   2.091  0.8650  0.9968  0.1432
 9477SOL    HW239894   0.501   1.240   1.989  1.2569 -0.0867 -0.6461
 9478SOL     OW39895   1.587   4.467   6.985  0.0612  0.3562  0.4002
 9478SOL    HW139896   1.573   4.376   6.960 -1.4512  0.8864 -0.7385
 9478SOL    HW239897   1.517   4.479   7.048 -0.5524  0.0214 -0.2195
 9479SOL     OW39898   2.640   1.536   5.229  0.2381  0.4492  0.2478
 9479SOL    HW139899   2.640   1.558   5.136  0.8714  2.0260  0.6094
 9479SOL    HW239900   2.631   1.625   5.264  3.0355  0.2406  1.4660
 9480SOL     OW39901   2.876   2.423   8.175 -0.1701  0.0332  0.1284
 9480SOL    HW139902   2.877   2.476   8.254  1.3550 -0.0857  0.1789
 9480SOL    HW239903   2.876   2.330   8.199  2.0158 -0.3643 -1.4546
 9481SOL     OW39904   0.954   1.301   9.629 -0.1702  0.0040 -0.1551
 9481SOL    HW139905   0.909   1.323   9.547 -0.1462  1.3010  0.1752
 9481SOL    HW239906   1.046   1.305   9.606 -0.3218  1.0757 -0.5750
 9482SOL     OW39907   3.341   0.573  12.296 -0.2874 -0.2618  0.7004
 9482SOL    HW139908   3.429   0.605  12.279 -0.8385  1.8232  1.7009
 9482SOL    HW239909   3.353   0.507  12.365 -2.6794 -0.1493  1.2437
 9483SOL     OW39910   2.030   0.750   2.675  0.3431  0.2384 -0.0024
 9483SOL    HW139911   2.105   0.694   2.694 -1.0067 -0.7593  2.4515
 9483SOL    HW239912   2.067   0.829   2.636  0.8988 -0.0482 -0.0597
 9484SOL     OW39913   0.797   2.057   6.340  0.0648 -0.4794 -0.6870
 9484SOL    HW139914   0.823   2.140   6.300 -2.7448  0.3459 -0.7821
 9484SOL    HW239915   0.786   2.079   6.432  0.6584  1.2280 -1.0315
 9485SOL     OW39916   3.058   4.239  10.542  0.4638  0.0398  0.2077
 9485SOL    HW139917   3.038   4.186  10.619 -1.1250 -0.0435 -0.2511
 9485SOL    HW239918   3.092   4.317  10.586 -2.3476  1.6202 -0.4082
 9486SOL     OW39919   3.463   1.571   5.225 -0.2359  0.1538  0.1927
 9486SOL    HW139920   3.469   1.530   5.139 -0.2460  1.1223 -0.2667
 9486SOL    HW239921   3.546   1.616   5.240  0.6043 -1.6256  0.8704
 9487SOL     OW39922   3.641   1.295   4.750  0.4852  0.0982 -0.1561
 9487SOL    HW139923   3.585   1.321   4.677  0.7648 -0.8983 -0.7330
 9487SOL    HW239924   3.662   1.207   4.720  1.8091  0.6046 -0.7121
 9488SOL     OW39925   2.309   1.906   9.067  0.1414  0.1245  0.4866
 9488SOL    HW139926   2.295   2.000   9.079 -0.0061  0.0835  0.6407
 9488SOL    HW239927   2.288   1.867   9.152  4.1227 -0.1319  1.3299
 9489SOL     OW39928   3.336   3.364   9.941  0.1792  0.3496  0.0335
 9489SOL    HW139929   3.253   3.398   9.975  0.8424  2.1911 -0.1853
 9489SOL    HW239930   3.315   3.283   9.894  0.3409  0.9436 -1.0735
 9490SOL     OW39931   4.357   4.094  15.748 -0.8432  0.2275  0.0731
 9490SOL    HW139932   4.362   3.999  15.739 -0.3500  0.3909 -1.3864
 9490SOL    HW239933   4.439   4.118  15.792 -1.4874  3.4187 -0.4659
 9491SOL     OW39934   3.604   3.179   4.914 -0.4243 -0.3536 -0.3677
 9491SOL    HW139935   3.675   3.181   4.979 -0.6745  0.8864 -0.1227
 9491SOL    HW239936   3.578   3.270   4.928  0.7576 -0.1506  0.5221
 9492SOL     OW39937   2.610   3.568  17.582 -0.1924  0.0677  0.2026
 9492SOL    HW139938   2.517   3.572  17.559 -0.2437  1.8228  0.7277
 9492SOL    HW239939   2.626   3.583  17.675  0.0764 -0.5504  0.2579
 9493SOL     OW39940   3.849   4.348  10.313 -0.5755 -0.5384 -0.2215
 9493SOL    HW139941   3.895   4.296  10.378 -0.9343  1.3547  1.5626
 9493SOL    HW239942   3.761   4.343  10.352 -0.1394 -4.9435  0.2217
 9494SOL     OW39943   4.014   1.389  16.216 -0.1639  0.7787 -0.5893
 9494SOL    HW139944   3.993   1.305  16.257  0.1101  0.5240 -0.9721
 9494SOL    HW239945   3.932   1.438  16.227  0.1666  0.8547  1.5602
 9495SOL     OW39946   0.423   0.427  16.210  0.0020 -0.6342 -0.0966
 9495SOL    HW139947   0.433   0.466  16.123  1.8797 -1.0421 -0.0516
 9495SOL    HW239948   0.452   0.342  16.180  1.0848 -0.3044  0.0199
 9496SOL     OW39949   3.846   0.519   4.130  0.2424  0.2235  0.2424
 9496SOL    HW139950   3.796   0.515   4.212  1.1326 -1.0424  0.7219
 9496SOL    HW239951   3.912   0.586   4.149  0.3848 -0.1256  0.9984
 9497SOL     OW39952   0.461   1.630  16.534 -0.2169  0.0960 -0.6014
 9497SOL    HW139953   0.513   1.631  16.454  0.8148  1.3104  0.0697
 9497SOL    HW239954   0.509   1.568  16.590 -1.4066 -2.0289 -1.9756
 9498SOL     OW39955   2.128   2.620   7.615  0.3345 -0.1975 -0.1977
 9498SOL    HW139956   2.107   2.693   7.557  2.0129  1.6308  1.4951
 9498SOL    HW239957   2.106   2.671   7.693  0.7434 -1.7383  0.9341
 9499SOL     OW39958   3.170   0.259   7.582 -0.1181  0.5856  0.0733
 9499SOL    HW139959   3.167   0.167   7.605 -0.9891  0.8731  1.0863
 9499SOL    HW239960   3.261   0.275   7.555 -0.2441  2.7716  0.9620
 9500SOL     OW39961   4.022   2.069   9.233 -0.1872 -0.3652  0.1557
 9500SOL    HW139962   3.952   2.059   9.168  2.4716  0.4356 -2.8313
 9500SOL    HW239963   4.028   1.981   9.269  0.8313  0.7485  2.6693
 9501SOL     OW39964   0.060   4.159   8.965  0.0734 -0.0579 -0.2995
 9501SOL    HW139965   0.075   4.180   9.057  1.8788 -0.1533 -0.5734
 9501SOL    HW239966   0.135   4.099   8.966 -0.3294 -0.5440  0.3795
 9502SOL     OW39967   2.809   1.530   0.398 -0.8835  0.6223 -0.1008
 9502SOL    HW139968   2.808   1.457   0.460 -0.4362 -0.4066 -1.2826
 9502SOL    HW239969   2.755   1.594   0.443  0.3341  0.9317  0.9259
 9503SOL     OW39970   0.544   0.079  11.134 -0.1745  0.3138 -0.5788
 9503SOL    HW139971   0.616   0.018  11.147 -0.4865  0.0793  0.0769
 9503SOL    HW239972   0.568   0.110  11.047  0.0507  0.8098 -0.3409
 9504SOL     OW39973   2.527   1.853   4.530  0.2453 -0.1923  0.1587
 9504SOL    HW139974   2.522   1.887   4.619 -1.2010 -0.8969  0.3500
 9504SOL    HW239975   2.485   1.922   4.479  3.0273  0.6569 -0.9484
 9505SOL     OW39976   0.666   2.234   3.695 -0.3617 -0.6694 -0.1185
 9505SOL    HW139977   0.618   2.223   3.777  0.1569 -0.9666  0.1418
 9505SOL    HW239978   0.686   2.327   3.687  0.2253 -0.7988 -0.1717
 9506SOL     OW39979   1.506   2.838   6.965  0.7115 -0.3868 -0.5663
 9506SOL    HW139980   1.431   2.809   7.016 -0.6774 -1.1817 -3.0677
 9506SOL    HW239981   1.479   2.930   6.958  3.7925  0.5360 -0.5824
 9507SOL     OW39982   0.538   4.100   4.852 -0.2999  0.1675  0.1922
 9507SOL    HW139983   0.572   4.098   4.763  1.2352  0.7998  0.7549
 9507SOL    HW239984   0.443   4.096   4.847 -0.4215 -0.2663  2.5856
 9508SOL     OW39985   4.072   4.085   2.873 -0.4082  0.4565  0.1925
 9508SOL    HW139986   4.101   3.995   2.890 -1.6723 -0.0472 -0.2724
 9508SOL    HW239987   4.060   4.099   2.967 -1.8227  0.6195 -0.0141
 9509SOL     OW39988   3.684   1.091   8.269 -0.2120 -0.1098  0.1430
 9509SOL    HW139989   3.594   1.122   8.263 -0.3158 -0.5828 -0.8816
 9509SOL    HW239990   3.726   1.174   8.249  0.9420 -0.3857  1.4728
 9510SOL     OW39991   3.743   2.176   4.676 -0.7381  0.4066  0.1830
 9510SOL    HW139992   3.651   2.203   4.673 -1.0184 -0.6352 -0.6758
 9510SOL    HW239993   3.761   2.152   4.766  0.9428  1.4833  0.1299
 9511SOL     OW39994   4.374   1.449   5.011 -0.4119  0.6487 -0.1208
 9511SOL    HW139995   4.463   1.485   5.005 -0.6949  1.0564 -1.8109
 9511SOL    HW239996   4.324   1.502   4.950 -1.0928 -3.2036 -2.8604
 9512SOL     OW39997   4.212   0.790   2.197  0.7545 -0.3767 -0.3502
 9512SOL    HW139998   4.261   0.721   2.152 -0.2516 -1.7628  0.6596
 9512SOL    HW239999   4.129   0.796   2.151  0.4111  0.1519  0.3399
 9513SOL     OW40000   3.800   2.362   7.005  0.1160 -0.3258 -0.4072
 9513SOL    HW140001   3.854   2.439   6.990 -0.8366  0.2957 -0.6526
 9513SOL    HW240002   3.721   2.386   6.956 -0.5558 -3.4815 -0.9046
 9514SOL     OW40003   2.823   3.822   7.483  0.0729 -0.0422 -0.4910
 9514SOL    HW140004   2.845   3.903   7.529  0.0955  1.2792 -2.8500
 9514SOL    HW240005   2.753   3.778   7.532  0.2783  2.6525  2.2338
 9515SOL     OW40006   0.309   0.433  14.024  0.0527 -0.0710  0.0456
 9515SOL    HW140007   0.373   0.504  14.028  0.7887 -0.7845  0.9888
 9515SOL    HW240008   0.321   0.385  14.106 -1.3125 -1.1329 -0.3850
 9516SOL     OW40009   1.505   1.755  11.107  0.3809 -0.0694 -0.2928
 9516SOL    HW140010   1.418   1.715  11.111  1.2579 -1.5251  4.6789
 9516SOL    HW240011   1.498   1.817  11.036 -0.1674 -1.1231 -1.1629
 9517SOL     OW40012   3.441   3.183   0.365 -0.0742  0.4999  0.0542
 9517SOL    HW140013   3.470   3.225   0.283  2.1605  0.3170  0.7563
 9517SOL    HW240014   3.447   3.260   0.422  4.3289  0.1200  0.1499
 9518SOL     OW40015   2.883   0.024  13.206 -0.8061  0.4092  0.1372
 9518SOL    HW140016   2.908   4.658  13.222 -1.2250  0.0920 -1.0402
 9518SOL    HW240017   2.912   0.045  13.117  0.2437  0.9475  0.6132
 9519SOL     OW40018   0.248   3.574   4.094  0.5374  0.3550  0.2639
 9519SOL    HW140019   0.203   3.621   4.024 -0.0842 -1.1350 -0.3367
 9519SOL    HW240020   0.211   3.608   4.175 -0.1299 -0.0206  0.1168
 9520SOL     OW40021   2.228   0.037  10.124  0.5449  0.0390  0.8591
 9520SOL    HW140022   2.272   0.028  10.039  1.3069  2.0081  1.0522
 9520SOL    HW240023   2.274   4.695  10.176 -0.7956 -2.1182 -0.7265
 9521SOL     OW40024   0.070   1.372   6.847  0.3775  0.6250 -0.1266
 9521SOL    HW140025   0.140   1.350   6.786  0.0383  0.3174 -0.4112
 9521SOL    HW240026   0.118   1.371   6.929 -3.5345  1.5198  2.1673
 9522SOL     OW40027   3.631   1.284   6.984 -0.1883 -0.3090  0.0574
 9522SOL    HW140028   3.660   1.228   7.056 -1.4626  0.1797  0.9515
 9522SOL    HW240029   3.553   1.323   7.024 -1.3477 -0.2105 -2.2924
 9523SOL     OW40030   2.890   1.622   4.867  0.0495 -0.1196 -0.3620
 9523SOL    HW140031   2.965   1.680   4.879  0.0832 -0.3274  0.4431
 9523SOL    HW240032   2.930   1.538   4.845 -0.9855 -1.6913  3.7241
 9524SOL     OW40033   0.612   2.232  10.026  0.1393  0.0811 -0.2224
 9524SOL    HW140034   0.529   2.259  10.064  0.5082  0.6983  0.1505
 9524SOL    HW240035   0.586   2.188   9.945  0.7991  0.3430 -0.5819
 9525SOL     OW40036   2.755   2.269   8.445 -0.1788 -0.5669 -0.7647
 9525SOL    HW140037   2.751   2.217   8.525  3.1201  1.5498  0.7459
 9525SOL    HW240038   2.725   2.352   8.481 -0.1996 -0.1411 -1.7419
 9526SOL     OW40039   0.191   0.047   1.786 -0.1600 -0.3480  0.6105
 9526SOL    HW140040   0.101   0.022   1.804 -0.5710  0.7470  0.0352
 9526SOL    HW240041   0.181   0.137   1.756 -0.7694 -0.1110  1.5509
 9527SOL     OW40042   3.554   0.629   4.248  0.2080 -0.0669 -0.2911
 9527SOL    HW140043   3.515   0.585   4.173 -0.6786  0.8295 -0.3498
 9527SOL    HW240044   3.614   0.558   4.269  0.4546  0.1358 -0.3050
 9528SOL     OW40045   3.119   2.708   2.982 -0.4095  0.0889  0.3526
 9528SOL    HW140046   3.064   2.655   2.925  0.5254 -0.4103 -0.0907
 9528SOL    HW240047   3.133   2.779   2.920  1.2411 -1.1655 -0.7226
 9529SOL     OW40048   1.320   2.637   7.653 -0.2718 -0.1844 -0.0071
 9529SOL    HW140049   1.394   2.679   7.609 -1.4851  0.2466 -1.6388
 9529SOL    HW240050   1.329   2.545   7.628  0.1200 -0.3621  0.7953
 9530SOL     OW40051   3.997   4.424   4.858  0.2646  0.4086 -0.3070
 9530SOL    HW140052   4.086   4.427   4.891  0.4859 -0.3748 -0.8307
 9530SOL    HW240053   3.960   4.457   4.940 -0.0424 -0.7709  0.0321
 9531SOL     OW40054   2.730   4.676  10.162 -0.2734  0.1132  0.0193
 9531SOL    HW140055   2.689   4.667  10.248 -1.7092  0.8964 -0.5706
 9531SOL    HW240056   2.661   4.691  10.097  0.7648  0.5988 -0.9599
 9532SOL     OW40057   0.808   0.056  12.205 -0.3038 -0.4808 -0.8854
 9532SOL    HW140058   0.772   0.018  12.285 -2.5366 -2.7627 -2.9814
 9532SOL    HW240059   0.885   0.002  12.188  0.2889  0.0239  0.2066
 9533SOL     OW40060   3.650   4.483   4.983 -0.0931 -0.0474 -0.5193
 9533SOL    HW140061   3.592   4.502   5.057  2.1746  2.6547  0.5924
 9533SOL    HW240062   3.684   4.397   5.008 -0.7132 -0.9190 -2.7586
 9534SOL     OW40063   3.208   4.713   8.698  0.0321 -0.0726  0.3018
 9534SOL    HW140064   3.175   4.645   8.757 -0.4136  0.0790  0.2265
 9534SOL    HW240065   3.303   4.708   8.691  0.0998  0.8409  0.5908
 9535SOL     OW40066   1.874   3.347  13.144  0.3798  0.1598 -0.3086
 9535SOL    HW140067   1.881   3.252  13.154 -0.6312 -0.1073 -2.2736
 9535SOL    HW240068   1.785   3.366  13.117 -0.0340  0.8924  1.5723
 9536SOL     OW40069   0.414   2.408   2.110 -0.4888 -0.5799 -0.5289
 9536SOL    HW140070   0.387   2.335   2.055 -0.2612  0.4823 -2.0478
 9536SOL    HW240071   0.431   2.471   2.040  1.1634 -0.2475  0.1950
 9537SOL     OW40072   4.127   3.785   2.667  0.3317  0.7309  0.2122
 9537SOL    HW140073   4.188   3.776   2.739  2.4141 -0.3802 -1.7128
 9537SOL    HW240074   4.171   3.734   2.599 -0.1522 -0.2127  0.5984
 9538SOL     OW40075   3.024   1.973   1.727 -0.1314 -0.2691  0.2787
 9538SOL    HW140076   2.950   2.034   1.726 -0.0896 -0.2278 -0.2695
 9538SOL    HW240077   3.058   1.986   1.639 -1.4944  2.7836  0.2242
 9539SOL     OW40078   1.115   2.423   2.874  0.1507 -0.7150 -0.2268
 9539SOL    HW140079   1.101   2.396   2.965  0.2036  1.9655  0.5671
 9539SOL    HW240080   1.035   2.469   2.848 -0.0237  0.5394  2.5003
 9540SOL     OW40081   0.543   0.519   8.863 -0.9563  0.2966 -0.1705
 9540SOL    HW140082   0.631   0.506   8.900 -0.6453 -0.3331 -1.1430
 9540SOL    HW240083   0.507   0.432   8.880 -0.3258 -0.0291 -0.4879
 9541SOL     OW40084   4.289   1.009   4.776 -0.1021 -0.5194 -0.4939
 9541SOL    HW140085   4.301   1.103   4.758 -1.5185 -0.1365  0.5222
 9541SOL    HW240086   4.378   0.977   4.790 -1.0379 -2.0112  2.1111
 9542SOL     OW40087   1.320   4.427   5.333 -0.1276 -0.3844 -0.1568
 9542SOL    HW140088   1.413   4.415   5.310  0.1411  3.1373 -0.8345
 9542SOL    HW240089   1.288   4.446   5.245 -0.5977  0.1953  0.1452
 9543SOL     OW40090   1.110   0.231   5.706 -1.0575 -0.5093 -0.1841
 9543SOL    HW140091   1.118   0.159   5.644  2.1802  1.9667 -2.6576
 9543SOL    HW240092   1.203   0.234   5.728 -1.4679  0.1910  1.4740
 9544SOL     OW40093   0.744   3.705   5.992 -0.1658  0.5457  0.2727
 9544SOL    HW140094   0.750   3.638   6.061  0.9578  0.7113  0.3325
 9544SOL    HW240095   0.760   3.652   5.914  2.1617  0.0202  1.1223
 9545SOL     OW40096   2.428   0.257  12.307 -0.0337 -0.2207 -0.0598
 9545SOL    HW140097   2.512   0.303  12.310 -0.4368  0.4522  0.8904
 9545SOL    HW240098   2.427   0.222  12.396  2.3528  1.5851  0.6720
 9546SOL     OW40099   2.700   2.076   2.586  0.3172 -0.3429  0.1350
 9546SOL    HW140100   2.787   2.052   2.618  0.0406 -0.0896  1.0679
 9546SOL    HW240101   2.681   2.161   2.627  2.7141  0.7522 -1.0201
 9547SOL     OW40102   4.063   2.075  14.670  0.5029  0.3904  0.1755
 9547SOL    HW140103   4.044   2.129  14.746 -1.9583 -0.3762  0.0997
 9547SOL    HW240104   4.123   2.011  14.709  1.1170 -0.1137 -1.5702
 9548SOL     OW40105   1.701   0.205   5.326  0.1082 -0.1581  0.8634
 9548SOL    HW140106   1.696   0.270   5.256  0.1874 -1.4470 -0.3336
 9548SOL    HW240107   1.724   0.265   5.397 -2.9135 -0.9606  2.5230
 9549SOL     OW40108   0.378   1.488   8.238  0.2061  0.4006  0.2839
 9549SOL    HW140109   0.360   1.483   8.144  2.0114  0.5066 -0.0700
 9549SOL    HW240110   0.331   1.570   8.253 -0.2112  0.3542 -0.7909
 9550SOL     OW40111   1.748   3.351   5.369  1.0586 -0.5729  0.1160
 9550SOL    HW140112   1.829   3.333   5.320 -1.0022 -1.8531 -2.8534
 9550SOL    HW240113   1.742   3.262   5.404 -1.3025 -0.3024  0.3925
 9551SOL     OW40114   0.791   2.537   4.574  0.3160  0.3251 -0.0013
 9551SOL    HW140115   0.824   2.626   4.589  1.7307 -0.1503 -0.3308
 9551SOL    HW240116   0.722   2.559   4.511  1.8107  1.5050 -1.2193
 9552SOL     OW40117   4.597   2.243  15.577  0.3562  0.0490 -0.0813
 9552SOL    HW140118   4.552   2.311  15.626  1.5408  1.3700 -0.8165
 9552SOL    HW240119   4.606   2.164  15.630  2.4244  0.5307  0.2907
 9553SOL     OW40120   0.151   1.890   5.349  0.1459 -0.0246  0.1188
 9553SOL    HW140121   0.157   1.969   5.402  0.4745  0.8825 -1.2718
 9553SOL    HW240122   0.195   1.904   5.265  0.3717 -1.1673  0.0395
 9554SOL     OW40123   2.269   3.820   6.701 -0.8283 -0.4421  0.4304
 9554SOL    HW140124   2.337   3.887   6.690 -1.4866  0.0304 -0.7973
 9554SOL    HW240125   2.226   3.843   6.784 -1.6356 -0.3543 -0.0111
 9555SOL     OW40126   0.429   4.157  10.246 -0.1818  0.5068 -0.0081
 9555SOL    HW140127   0.352   4.116  10.205 -1.4480  2.8224  0.0572
 9555SOL    HW240128   0.480   4.079  10.266 -0.6365  0.1140 -0.3700
 9556SOL     OW40129   2.159   4.174   4.021  0.0669  0.7421 -0.3958
 9556SOL    HW140130   2.115   4.128   4.092  1.1220  1.5741  0.7863
 9556SOL    HW240131   2.183   4.260   4.053 -2.3926  1.4965 -0.6246
 9557SOL     OW40132   0.137   0.001  10.164 -0.1071 -0.2021  0.0706
 9557SOL    HW140133   0.101   0.069  10.107  0.6183  0.3214  0.2371
 9557SOL    HW240134   0.223   0.005  10.122 -0.8693 -1.5185 -1.6595
 9558SOL     OW40135   0.176   4.644   3.342  0.5196 -0.3961 -0.1770
 9558SOL    HW140136   0.246   4.654   3.278  0.4421 -1.2296 -0.3936
 9558SOL    HW240137   0.179   4.723   3.396 -2.1067  0.1934 -0.9051
 9559SOL     OW40138   4.586   3.484   8.297 -0.4307 -0.1134  0.3652
 9559SOL    HW140139   4.571   3.395   8.331  0.5705  0.3736  2.1154
 9559SOL    HW240140   4.676   3.497   8.329 -0.6879 -0.9783  1.4300
 9560SOL     OW40141   2.299   0.536  16.051  0.1870 -0.5750  0.2106
 9560SOL    HW140142   2.215   0.560  16.090  1.4346  5.2155 -0.7016
 9560SOL    HW240143   2.277   0.460  15.997 -0.1841  0.5333 -1.1690
 9561SOL     OW40144   3.112   2.134  14.785  0.9599  0.5825  0.7374
 9561SOL    HW140145   3.190   2.172  14.824  0.8615  0.5651  0.9512
 9561SOL    HW240146   3.064   2.118  14.866 -1.0008  0.1488 -0.5130
 9562SOL     OW40147   3.964   0.105  15.775  0.4437  0.0892  0.2958
 9562SOL    HW140148   3.910   0.173  15.735 -0.4240  0.3714  1.9212
 9562SOL    HW240149   3.909   0.030  15.753  4.4888 -2.4126 -1.3719
 9563SOL     OW40150   4.030   2.827   9.811 -0.3987  0.1273  0.1303
 9563SOL    HW140151   4.077   2.872   9.882  2.3906 -2.0597 -0.3602
 9563SOL    HW240152   4.073   2.871   9.737 -0.2406  0.7469  0.5822
 9564SOL     OW40153   4.621   4.108  11.353 -0.0819 -1.0356 -0.4035
 9564SOL    HW140154   4.616   4.123  11.448  1.8249  1.1347 -0.6433
 9564SOL    HW240155   4.634   4.197  11.319  2.3210 -1.3246 -0.2719
 9565SOL     OW40156   0.289   4.406  10.596  0.5323 -0.1467 -0.4132
 9565SOL    HW140157   0.313   4.326  10.643 -0.9250  0.3097  1.1014
 9565SOL    HW240158   0.367   4.417  10.542  2.0251 -2.4245  1.2867
 9566SOL     OW40159   3.074   3.962  15.503 -0.0888 -0.0503 -0.1518
 9566SOL    HW140160   3.067   3.870  15.478 -0.7825  0.0966 -0.5084
 9566SOL    HW240161   3.002   3.966  15.566  0.2129  0.4769  0.1551
 9567SOL     OW40162   3.078   0.659   4.939 -0.3101  0.5836 -0.6364
 9567SOL    HW140163   3.164   0.692   4.966  1.2695 -3.7660 -0.4005
 9567SOL    HW240164   3.035   0.643   5.023  1.9617 -1.8727  0.0693
 9568SOL     OW40165   0.091   1.877  14.545  0.2013  0.1271  0.0253
 9568SOL    HW140166   0.029   1.874  14.618  1.3774 -0.3669  0.9959
 9568SOL    HW240167   0.094   1.969  14.519  1.3880 -0.1305 -0.7383
   4.72509   4.72509  17.70175
