Membrane in water
40167
    1TCq1    O1    1   3.751   3.632  11.028 -0.0999 -0.7165  0.0367
    1TCq1    C1    2   3.816   3.655  11.144  0.1857 -0.5188 -0.6093
    1TCq1    O2    3   3.811   3.762  11.206 -0.3751 -0.3765  0.7603
    1TCq1    C2    4   3.808   3.537  11.226 -0.7762  0.2769 -0.6614
    1TCq1    C3    5   3.722   3.431  11.202 -0.2215 -0.0833  0.0508
    1TCq1    C4    6   3.733   3.323  11.290 -0.0569  0.5864 -0.0976
    1TCq1    C5    7   3.818   3.331  11.389  0.2544  0.5881  0.3465
    1TCq1    C6    8   3.897   3.438  11.415 -0.5309  0.5559  0.3014
    1TCq1    C7    9   3.905   3.540  11.321 -0.3265 -0.8342  0.6037
    1TCq1    C8   10   3.991   3.426  11.520  0.4099  0.0585 -0.7108
    1TCq1    O4   11   3.994   3.325  11.586  0.3875  0.3134 -0.5512
    1TCq1    C9   12   3.636   3.218  11.273 -0.1172  0.2825  0.1102
    1TCq1    O5   13   3.574   3.220  11.164 -0.3079  0.3600  0.1370
    1TCq1    O6   14   3.623   3.134  11.370 -0.0169 -0.6538 -0.3163
    1TCq1    H1   15   3.746   3.538  10.998 -0.0272 -0.6530 -0.1715
    1TCq1    H2   16   3.650   3.420  11.121 -0.3660 -0.8879  0.2955
    1TCq1    H3   17   3.819   3.251  11.462  1.2260  0.9696  0.7561
    1TCq1    H4   18   3.973   3.625  11.327 -0.0992 -0.9169 -0.9002
    2MPD2     C   19   4.408   3.539  11.795  0.3063 -0.0713  0.4150
    2MPD2    C1   20   4.303   3.450  11.815  0.2128  0.5399 -0.0128
    2MPD2    C2   21   4.196   3.441  11.721 -0.8654 -0.1037  0.2172
    2MPD2    C3   22   4.195   3.514  11.609 -0.1985  0.0191  0.7131
    2MPD2    C4   23   4.303   3.596  11.585  0.0114 -0.0972  0.5691
    2MPD2    C5   24   4.405   3.609  11.681 -0.3473  0.4537 -0.0928
    2MPD2     H   25   4.107   3.391  11.756 -0.9210 -0.1022  0.0770
    2MPD2    H1   26   4.304   3.650  11.491  1.9991  0.2477  0.7698
    2MPD2    H2   27   4.493   3.558  11.859  3.0083 -0.1494 -3.1263
    2MPD2    H3   28   4.486   3.676  11.658 -0.0947 -0.4543 -1.8506
    2MPD2     N   29   4.095   3.509  11.507 -0.2635 -0.0690 -0.5512
    2MPD2    H5   30   4.094   3.577  11.432 -0.6295 -2.5176 -2.7818
    2MPD2    N1   31   4.304   3.364  11.932 -0.1778  0.2501 -0.0722
    2MPD2    H7   32   4.226   3.299  11.927 -1.9507  2.4085 -0.1657
    3TCq1    O1   33   3.689   0.535  10.787 -0.3370 -1.1718  0.1908
    3TCq1    C1   34   3.662   0.422  10.854  0.1231  0.0390 -0.9775
    3TCq1    O2   35   3.744   0.359  10.924 -0.6004  0.2259  1.0471
    3TCq1    C2   36   3.565   0.354  10.774 -1.0931 -0.3600  0.8481
    3TCq1    C3   37   3.561   0.369  10.638  0.7353  0.4795 -0.3617
    3TCq1    C4   38   3.509   0.267  10.568  0.3184 -0.0572 -0.0766
    3TCq1    C5   39   3.448   0.158  10.626  0.0645  0.2668 -0.0644
    3TCq1    C6   40   3.455   0.148  10.761 -0.4263  0.7359 -0.4603
    3TCq1    C7   41   3.521   0.243  10.834  0.8693  0.4029 -0.4975
    3TCq1    C8   42   3.389   0.032  10.834 -0.0259 -0.2426 -0.2422
    3TCq1    O4   43   3.327   4.680  10.762 -0.6535  0.0538  0.8813
    3TCq1    C9   44   3.495   0.269  10.422  0.7412 -0.5167  0.1033
    3TCq1    O5   45   3.554   0.358  10.357 -0.3967  0.0500 -0.1833
    3TCq1    O6   46   3.414   0.190  10.373 -0.6125 -0.1639  0.1446
    3TCq1    H1   47   3.609   0.577  10.748  0.1013 -0.8722 -0.3911
    3TCq1    H2   48   3.604   0.457  10.592  1.3754  1.8887  2.8989
    3TCq1    H3   49   3.401   0.082  10.565  1.7282  0.5417 -1.6820
    3TCq1    H4   50   3.520   0.242  10.942  0.8993  1.0740 -0.4867
    4MPD2     C   51   3.214   4.515  11.253 -0.1943 -0.6622  0.0873
    4MPD2    C1   52   3.265   4.639  11.287 -0.6668  0.2289 -0.6497
    4MPD2    C2   53   3.332   4.709  11.199 -0.3301 -0.4069  0.1277
    4MPD2    C3   54   3.344   4.672  11.062 -0.0515  0.1041  0.2170
    4MPD2    C4   55   3.275   4.557  11.029  0.7226  0.0944  0.6959
    4MPD2    C5   56   3.217   4.474  11.126 -0.8257 -0.1984 -0.0117
    4MPD2     H   57   3.383   0.077  11.222 -0.2916 -0.1363 -1.0390
    4MPD2    H1   58   3.276   4.528  10.925  1.4908  1.2698  0.3756
    4MPD2    H2   59   3.165   4.447  11.322 -1.7892  1.7132  1.3044
    4MPD2    H3   60   3.176   4.377  11.098  1.1666 -1.2165  0.5597
    4MPD2     N   61   3.403   0.038  10.972  0.7916 -0.0945 -0.0764
    4MPD2    H5   62   3.458   0.113  11.014  0.6265 -0.8785  1.5349
    4MPD2    N1   63   3.252   4.686  11.416  0.5117 -0.3544  0.6472
    4MPD2    H7   64   3.285   0.056  11.434 -0.4884 -0.3167  2.2843
    5TCq1    O1   65   3.760   1.751  10.310 -0.1675 -0.1040  0.5160
    5TCq1    C1   66   3.750   1.755  10.179  0.5986  0.2035  0.2431
    5TCq1    O2   67   3.639   1.758  10.123 -0.7817 -0.1956 -0.1489
    5TCq1    C2   68   3.877   1.724  10.116 -0.1296 -0.3927 -0.0993
    5TCq1    C3   69   3.892   1.800  10.007 -0.6783  0.1494  0.2838
    5TCq1    C4   70   4.017   1.799   9.957 -0.2922 -0.2746  0.6359
    5TCq1    C5   71   4.131   1.742  10.012  0.0900  0.2767  0.0246
    5TCq1    C6   72   4.104   1.679  10.132 -0.2914  0.0402 -0.7413
    5TCq1    C7   73   3.980   1.667  10.184  0.1782 -0.5176 -0.2324
    5TCq1    C8   74   4.212   1.612  10.204 -0.2111 -0.5335 -0.2686
    5TCq1    O4   75   4.190   1.569  10.318 -0.2154 -0.6121 -0.1815
    5TCq1    C9   76   4.027   1.833   9.817 -0.8864 -0.1557  1.2452
    5TCq1    O5   77   4.133   1.805   9.755 -0.0413 -0.0131  0.0189
    5TCq1    O6   78   3.927   1.883   9.765 -0.0710 -0.5562  0.9510
    5TCq1    H1   79   3.847   1.737  10.353 -0.8037 -2.3955  1.0843
    5TCq1    H2   80   3.808   1.841   9.952 -0.6549 -0.6081 -0.3114
    5TCq1    H3   81   4.215   1.725   9.946  0.4982 -0.7839  0.8254
    5TCq1    H4   82   3.965   1.608  10.274 -2.0911 -0.8543 -0.8282
    6MPD2     C   83   4.563   1.613  10.101  0.2749  0.4244  0.3594
    6MPD2    C1   84   4.454   1.571  10.175 -0.2309 -0.0633  0.4304
    6MPD2    C2   85   4.476   1.510  10.297  0.0189 -0.1803 -0.0617
    6MPD2    C3   86   4.600   1.476  10.330 -0.3254  0.0473  0.8383
    6MPD2    C4   87   4.710   1.520  10.258  0.2227 -0.6707 -0.1519
    6MPD2    C5   88   4.690   1.594  10.148 -0.0316  0.6301  0.3614
    6MPD2     H   89   4.389   1.476  10.352 -0.6704 -0.3947 -1.2949
    6MPD2    H1   90   0.086   1.502  10.292 -0.2367 -1.3561  0.8576
    6MPD2    H2   91   4.553   1.668  10.008  0.8255  1.6764  1.0454
    6MPD2    H3   92   0.046   1.636  10.089 -0.4093 -1.5960 -1.7356
    6MPD2     N   93   4.616   1.402  10.444 -0.0476 -0.0434 -0.0868
    6MPD2    H5   94   4.538   1.381  10.506  1.1390 -0.7084  1.1959
    6MPD2    N1   95   4.328   1.609  10.132 -0.3012  0.3266  0.0947
    6MPD2    H7   96   4.314   1.651  10.040  1.3019  2.6456  0.8985
    7TCq1    O1   97   1.478   0.959  13.091 -0.0231  0.0385 -0.3699
    7TCq1    C1   98   1.506   0.916  13.216  0.2057 -0.0097 -0.4912
    7TCq1    O2   99   1.433   0.895  13.313 -0.1236 -0.2828  0.1403
    7TCq1    C2  100   1.649   0.895  13.219  0.3678  0.3990 -0.4334
    7TCq1    C3  101   1.729   0.984  13.150 -0.2304  0.4187  0.1330
    7TCq1    C4  102   1.866   0.964  13.159  0.0505 -0.2359 -0.1796
    7TCq1    C5  103   1.927   0.858  13.226 -0.4962 -0.8917  0.0183
    7TCq1    C6  104   1.836   0.767  13.287  0.1160  0.3278 -0.0674
    7TCq1    C7  105   1.702   0.781  13.282  0.7388 -0.2506 -0.1914
    7TCq1    C8  106   1.883   0.648  13.347 -0.5073 -0.9285 -0.4478
    7TCq1    O4  107   1.813   0.588  13.428 -1.0957 -0.2928  0.2444
    7TCq1    C9  108   1.945   1.061  13.093  0.3909  0.4452 -0.7072
    7TCq1    O5  109   2.069   1.043  13.107 -0.0560  0.5073 -0.7085
    7TCq1    O6  110   1.888   1.167  13.054 -0.1049 -0.4516 -0.1883
    7TCq1    H1  111   1.559   0.952  13.036 -1.2562 -1.1593 -2.0486
    7TCq1    H2  112   1.695   1.064  13.086 -0.7664 -0.6485 -0.9348
    7TCq1    H3  113   2.035   0.854  13.230 -0.6644 -4.0580  0.8900
    7TCq1    H4  114   1.634   0.707  13.324  0.2488 -0.8582 -2.0790
    8MPD2     C  115   2.239   0.280  13.391  0.3260  0.3403  0.1175
    8MPD2    C1  116   2.112   0.286  13.446  0.3650  0.0437 -0.9768
    8MPD2    C2  117   2.018   0.389  13.416 -0.1160  0.1697 -0.0170
    8MPD2    C3  118   2.078   0.493  13.341  0.2370  0.0933  0.4448
    8MPD2    C4  119   2.207   0.486  13.293 -0.4120 -0.5249  0.2234
    8MPD2    C5  120   2.285   0.377  13.310 -0.5965 -0.3346 -0.1884
    8MPD2     H  121   1.920   0.399  13.463  0.5818  1.1098  1.2577
    8MPD2    H1  122   2.227   0.562  13.218  0.0734 -1.6910 -0.8455
    8MPD2    H2  123   2.307   0.200  13.418  0.2681  0.8660  1.8071
    8MPD2    H3  124   2.384   0.374  13.266  0.0750 -0.1718  1.3096
    8MPD2     N  125   2.015   0.615  13.313 -0.3303  0.0887  0.0262
    8MPD2    H5  126   2.064   0.676  13.248  0.1368  0.1122  0.4018
    8MPD2    N1  127   2.074   0.185  13.541  0.0480 -0.1025  0.1921
    8MPD2    H7  128   2.154   0.123  13.550 -0.0033 -0.1083  0.5885
    9TCq1    O1  129   3.777   4.244  10.440 -0.2105 -0.2073 -0.0553
    9TCq1    C1  130   3.836   4.331  10.520  0.2787 -0.1833 -0.0611
    9TCq1    O2  131   3.788   4.379  10.621  0.0971  0.1290  0.1450
    9TCq1    C2  132   3.982   4.301  10.508 -0.0161 -0.1871 -0.2422
    9TCq1    C3  133   4.034   4.307  10.383  0.1680 -0.1305  0.0299
    9TCq1    C4  134   4.167   4.282  10.368 -0.5635 -0.9685  0.3874
    9TCq1    C5  135   4.243   4.250  10.480  0.2247  0.1465 -0.2268
    9TCq1    C6  136   4.186   4.257  10.604  0.0527 -0.2343  0.4071
    9TCq1    C7  137   4.057   4.290  10.620 -0.0145 -1.0508 -0.4417
    9TCq1    C8  138   4.284   4.280  10.705  0.6417  0.0034  0.7058
    9TCq1    O4  139   4.394   4.328  10.679 -0.2778 -0.2026 -0.2400
    9TCq1    C9  140   4.224   4.301  10.233 -0.0316  0.0571 -0.1967
    9TCq1    O5  141   4.343   4.246  10.223  0.2259 -0.3324  0.4409
    9TCq1    O6  142   4.149   4.334  10.139 -0.8128  0.1395  0.4818
    9TCq1    H1  143   3.831   4.187  10.381 -1.7483 -1.8966  0.1473
    9TCq1    H2  144   3.975   4.330  10.296  1.1041  1.3311 -0.2155
    9TCq1    H3  145   4.346   4.221  10.462  0.4463  0.7811  0.0043
    9TCq1    H4  146   4.007   4.311  10.714 -0.8766  2.5422 -1.6810
   10MPD2     C  147   4.446   4.289  10.957  0.2189 -0.0972  0.1062
   10MPD2    C1  148   4.318   4.241  10.956 -0.1366  0.1635  0.1635
   10MPD2    C2  149   4.271   4.176  11.070 -0.0683 -0.4392  0.3014
   10MPD2    C3  150   4.334   4.184  11.187 -0.1427  0.2767  0.3712
   10MPD2    C4  151   4.460   4.240  11.186 -0.4817  0.0222 -0.4237
   10MPD2    C5  152   4.511   4.291  11.072  0.0283 -0.2711  0.2919
   10MPD2     H  153   4.177   4.121  11.062 -0.2319 -0.3158  1.3516
   10MPD2    H1  154   4.513   4.238  11.280 -0.0562  0.8621 -0.6378
   10MPD2    H2  155   4.497   4.334  10.873 -0.5236  0.3682 -0.0902
   10MPD2    H3  156   4.612   4.329  11.058 -0.2785 -0.0216 -1.2467
   10MPD2     N  157   4.284   4.136  11.313  0.2927 -0.2359  0.2444
   10MPD2    H5  158   4.351   4.146  11.389 -1.6067  0.2934  1.8211
   10MPD2    N1  159   4.241   4.234  10.832  0.5351  0.2048 -0.3618
   10MPD2    H7  160   4.155   4.180  10.839  0.9179 -0.3071  0.4422
   11TCq1    O1  161   4.195   4.535  14.165  0.4106 -1.0349 -0.4776
   11TCq1    C1  162   4.283   4.488  14.259 -0.3323 -0.2162 -0.1020
   11TCq1    O2  163   4.286   4.527  14.376  0.6280 -0.1595  0.4340
   11TCq1    C2  164   4.374   4.394  14.197 -0.3819  0.5301 -0.0224
   11TCq1    C3  165   4.458   4.320  14.279 -0.8677 -0.5622 -0.2405
   11TCq1    C4  166   4.552   4.232  14.225 -0.2094  0.0567 -0.3349
   11TCq1    C5  167   4.566   4.209  14.093 -0.1703  0.2542  0.6251
   11TCq1    C6  168   4.488   4.289  14.010  0.0049 -0.3210  0.1974
   11TCq1    C7  169   4.392   4.372  14.063 -0.1282 -0.0448  0.1960
   11TCq1    C8  170   4.455   4.241  13.881  0.8798  0.4783  0.5336
   11TCq1    O4  171   4.437   4.320  13.788 -0.4099  0.4233 -0.0660
   11TCq1    C9  172   4.627   4.149  14.315 -0.6119 -0.1823  0.5718
   11TCq1    O5  173   4.595   4.154  14.438 -0.6725 -1.0961 -0.5923
   11TCq1    O6  174   4.694   4.061  14.263  0.8868 -0.2875 -0.2026
   11TCq1    H1  175   4.197   4.488  14.079 -1.0243  0.0189 -1.0781
   11TCq1    H2  176   4.461   4.348  14.384 -0.9846  2.6252 -1.0898
   11TCq1    H3  177   4.634   4.135  14.052  3.3490  3.4294  0.6839
   11TCq1    H4  178   4.348   4.431  13.984 -0.0012 -0.7769 -0.4277
   12MPD2     C  179   4.341   4.067  13.655 -0.0643 -0.3166  0.2593
   12MPD2    C1  180   4.367   4.024  13.788  0.0077 -0.2186 -0.3191
   12MPD2    C2  181   4.343   3.892  13.825  0.7393 -1.0316 -0.5363
   12MPD2    C3  182   4.283   3.810  13.725  0.2247 -0.0229 -0.4588
   12MPD2    C4  183   4.244   3.855  13.605 -0.2681  0.5956 -0.2355
   12MPD2    C5  184   4.280   3.984  13.565  0.2533 -0.0884  0.0298
   12MPD2     H  185   4.380   3.851  13.918  0.9909 -3.6298 -1.7771
   12MPD2    H1  186   4.201   3.797  13.524  0.1241 -2.5165  1.7865
   12MPD2    H2  187   4.369   4.159  13.605 -1.5601 -0.1672 -0.3152
   12MPD2    H3  188   4.269   4.014  13.462  0.2261 -0.4913 -0.0828
   12MPD2     N  189   4.265   3.674  13.758 -0.2374  0.1481 -0.2587
   12MPD2    H5  190   4.312   3.637  13.840  1.2486 -0.4930 -1.4072
   12MPD2    N1  191   4.425   4.102  13.886  0.2628 -0.5348 -0.0485
   12MPD2    H7  192   4.440   4.054  13.974 -0.6295 -0.3614  0.1960
   13TCq1    O1  193   4.044   3.458  10.312  0.5173  0.6764 -0.1690
   13TCq1    C1  194   3.933   3.390  10.349  0.3447  0.6305  0.2203
   13TCq1    O2  195   3.927   3.269  10.337 -0.5313 -0.4880 -0.6502
   13TCq1    C2  196   3.900   3.449  10.473 -0.1906 -0.4944  0.6324
   13TCq1    C3  197   3.880   3.367  10.587  0.7223 -0.0021  0.5919
   13TCq1    C4  198   3.835   3.429  10.699 -0.7852 -0.4560  0.3612
   13TCq1    C5  199   3.798   3.560  10.705  0.1100  0.5802 -0.1183
   13TCq1    C6  200   3.822   3.637  10.598 -0.3332 -0.8231 -0.6498
   13TCq1    C7  201   3.882   3.589  10.481  0.2652  0.3720  0.6014
   13TCq1    C8  202   3.771   3.776  10.602  0.0174 -0.9155 -0.9320
   13TCq1    O4  203   3.790   3.846  10.502  0.0968  0.0690 -0.0014
   13TCq1    C9  204   3.802   3.340  10.809 -0.3067 -0.2471  0.3745
   13TCq1    O5  205   3.741   3.387  10.909  0.5857 -0.0900  0.0671
   13TCq1    O6  206   3.827   3.214  10.807 -0.0259 -0.2433  0.2106
   13TCq1    H1  207   4.055   3.543  10.360 -1.3102  0.6465  0.2957
   13TCq1    H2  208   3.904   3.262  10.584  0.9475  0.1429 -2.6580
   13TCq1    H3  209   3.731   3.589  10.785  1.9898 -0.1146  1.6987
   13TCq1    H4  210   3.879   3.635  10.382  0.3258 -1.0789 -0.0736
   14MPD2     C  211   3.609   4.014  10.641  0.1861  0.5647  0.1915
   14MPD2    C1  212   3.648   3.931  10.748 -0.1328  0.0249 -0.3950
   14MPD2    C2  213   3.613   3.963  10.874 -0.2716  0.0253  0.3143
   14MPD2    C3  214   3.551   4.083  10.906 -0.9016  0.0833 -0.3487
   14MPD2    C4  215   3.510   4.162  10.799  0.4368  0.3064  0.2055
   14MPD2    C5  216   3.528   4.121  10.671 -0.4612 -0.1251 -0.6234
   14MPD2     H  217   3.644   3.888  10.946 -0.6782  0.1350  0.6016
   14MPD2    H1  218   3.454   4.254  10.813  0.6851  0.5278 -0.2809
   14MPD2    H2  219   3.621   3.992  10.536 -0.3608 -2.7478  0.8034
   14MPD2    H3  220   3.485   4.177  10.589  1.6640  2.1269 -0.2007
   14MPD2     N  221   3.524   4.121  11.038 -0.4948  0.4592 -0.4942
   14MPD2    H5  222   3.517   4.052  11.112 -1.0817  1.9535  0.8497
   14MPD2    N1  223   3.716   3.809  10.728  0.1405  0.8863  0.1193
   14MPD2    H7  224   3.730   3.740  10.801  2.5889  1.6787  0.4239
   15TCq1    O1  225   1.094   3.054   2.525  0.3863  0.1670  0.3019
   15TCq1    C1  226   1.151   3.068   2.402 -0.1673 -1.0910  0.4450
   15TCq1    O2  227   1.265   3.030   2.370  0.2261  0.0436 -0.3680
   15TCq1    C2  228   1.051   3.100   2.308 -0.6013  0.1539 -0.6942
   15TCq1    C3  229   0.947   3.182   2.344  0.1185 -0.1049  0.1691
   15TCq1    C4  230   0.844   3.196   2.256 -0.4371 -0.4973  0.2393
   15TCq1    C5  231   0.831   3.118   2.142  0.3113  0.1455 -0.0488
   15TCq1    C6  232   0.936   3.037   2.113 -0.5991  0.1882 -0.0861
   15TCq1    C7  233   1.052   3.032   2.191 -0.4033  0.5089 -0.7283
   15TCq1    C8  234   0.919   2.941   2.004  0.0302 -0.4091 -0.6088
   15TCq1    O4  235   0.804   2.929   1.962  0.1262 -0.0870 -0.1111
   15TCq1    C9  236   0.736   3.276   2.290 -0.2957  0.1312 -0.2323
   15TCq1    O5  237   0.632   3.270   2.217  0.0323  0.0705 -0.2671
   15TCq1    O6  238   0.739   3.323   2.408  0.0374 -0.4470  0.0267
   15TCq1    H1  239   0.996   3.048   2.525  0.3223  1.3141 -1.0103
   15TCq1    H2  240   0.947   3.245   2.433  1.3287  0.9299 -0.5738
   15TCq1    H3  241   0.743   3.133   2.081  1.5841 -3.1562 -2.6636
   15TCq1    H4  242   1.140   2.973   2.169 -1.3415 -1.1551 -0.0333
   16MPD2     C  243   0.921   2.726   1.797 -0.7037  0.0872  0.7193
   16MPD2    C1  244   1.032   2.767   1.868  0.4619  0.0668 -0.3627
   16MPD2    C2  245   1.144   2.695   1.841 -0.0190 -0.0990 -0.0280
   16MPD2    C3  246   1.157   2.609   1.734 -0.0067  0.6017 -0.3382
   16MPD2    C4  247   1.050   2.588   1.654 -0.7471  0.0268  0.0741
   16MPD2    C5  248   0.928   2.640   1.697 -0.0077  0.4345 -0.0904
   16MPD2     H  249   1.233   2.718   1.898  0.2033 -0.5930 -0.1739
   16MPD2    H1  250   1.062   2.545   1.556  2.5949  0.4357  0.2973
   16MPD2    H2  251   0.821   2.766   1.807 -0.2054  1.5153 -0.0237
   16MPD2    H3  252   0.844   2.641   1.628  1.0666 -0.7294 -1.4316
   16MPD2     N  253   1.285   2.553   1.708  0.2404  1.0372  0.2142
   16MPD2    H5  254   1.357   2.593   1.768  0.1893  1.3283  0.0792
   16MPD2    N1  255   1.033   2.874   1.960 -0.2195  0.3669 -0.0509
   16MPD2    H7  256   1.123   2.897   2.002 -0.9441  1.5766  0.8112
   17TCq1    O1  257   3.651   2.899  11.471 -0.2403 -0.4939  0.2283
   17TCq1    C1  258   3.735   2.809  11.432  0.7505  0.7162  0.4252
   17TCq1    O2  259   3.721   2.689  11.460  0.2417  0.1117  0.5472
   17TCq1    C2  260   3.794   2.859  11.310 -0.3861 -0.0966  0.0920
   17TCq1    C3  261   3.711   2.849  11.204  0.1285 -0.2084 -0.6568
   17TCq1    C4  262   3.724   2.929  11.094  0.0493 -0.4202 -0.1063
   17TCq1    C5  263   3.834   3.017  11.087  0.2921  1.0844 -0.0439
   17TCq1    C6  264   3.910   3.027  11.201 -0.7938 -0.1139  0.1090
   17TCq1    C7  265   3.885   2.956  11.316  0.7924 -0.6101  0.6151
   17TCq1    C8  266   4.022   3.124  11.212  1.3541 -1.0548 -0.5099
   17TCq1    O4  267   4.071   3.139  11.322 -0.4383  0.1039 -0.1058
   17TCq1    C9  268   3.642   2.903  10.979 -0.3960 -0.1341  0.1052
   17TCq1    O5  269   3.650   2.991  10.885  0.3079 -0.7722  0.0262
   17TCq1    O6  270   3.533   2.847  11.005 -0.3147 -0.1842 -0.1531
   17TCq1    H1  271   3.642   2.974  11.409 -4.7729 -0.1940  1.2258
   17TCq1    H2  272   3.639   2.768  11.211  0.0043 -0.0323  0.1851
   17TCq1    H3  273   3.862   3.061  10.992 -0.1535  2.9097  0.6880
   17TCq1    H4  274   3.940   2.962  11.409  1.3694 -2.2775  0.3934
   18MPD2     C  275   4.186   3.375  11.172 -0.4866  0.3447 -0.1600
   18MPD2    C1  276   4.132   3.301  11.066 -0.9584  0.0838 -0.6121
   18MPD2    C2  277   4.163   3.341  10.936  0.4951  0.1539 -0.1482
   18MPD2    C3  278   4.239   3.451  10.912 -0.2968  0.0265  0.5802
   18MPD2    C4  279   4.271   3.526  11.019 -0.3310  0.2211 -0.1339
   18MPD2    C5  280   4.257   3.486  11.143  0.3270  0.4715 -0.7252
   18MPD2     H  281   4.126   3.297  10.844 -1.0034  1.5169 -0.1960
   18MPD2    H1  282   4.332   3.614  11.001 -1.1060  0.9084  0.5610
   18MPD2    H2  283   4.173   3.334  11.272 -6.5475 -3.1076 -2.3348
   18MPD2    H3  284   4.295   3.551  11.221  0.0322 -1.9551  1.4479
   18MPD2     N  285   4.273   3.500  10.786  0.7354 -0.2607  0.0219
   18MPD2    H5  286   4.327   3.586  10.788 -1.5270  1.1671 -1.3462
   18MPD2    N1  287   4.054   3.184  11.089 -0.1311  0.6753  0.5558
   18MPD2    H7  288   4.026   3.144  11.000 -1.3797  2.5661  0.0882
   19TMC2    C1  289   0.872   4.198  14.137  0.1898 -0.2038 -0.0482
   19TMC2    C2  290   0.794   4.278  14.059 -0.7246  0.1345  0.1433
   19TMC2    C3  291   0.667   4.235  14.041 -0.1382  0.2860  0.2269
   19TMC2    C4  292   0.825   4.085  14.199  0.1502  0.2713 -0.0646
   19TMC2    C5  293   0.703   4.044  14.166  0.9234  0.7247 -0.2373
   19TMC2    C6  294   0.623   4.113  14.086  0.2049  0.0111  0.4543
   19TMC2     C  295   1.013   4.226  14.140 -0.0945  0.0779  0.5485
   19TMC2     O  296   1.060   4.274  14.040  0.2368  0.0996 -0.6027
   19TMC2     H  297   0.831   4.352  13.990  0.5901 -1.7691 -1.2043
   19TMC2    H1  298   0.888   4.021  14.259  2.1203  0.2048 -2.2304
   19TMC2    H2  299   0.521   4.079  14.071  0.7559 -0.2710 -2.5450
   19TMC2    C7  300   0.654   3.923  14.233  0.8131 -0.4143  0.1876
   19TMC2    C8  301   0.578   4.319  13.968  0.0517 -0.1807  0.4855
   19TMC2    O1  302   0.565   3.867  14.171 -0.3113 -0.1026  0.7016
   19TMC2    O2  303   0.484   4.259  13.915  0.3029 -0.3424  0.1839
   19TMC2    O5  304   0.605   4.452  13.969  0.2306  1.1976 -0.0598
   19TMC2    H5  305   0.679   4.468  14.031 -0.0314 -0.1779  0.6052
   20MPD2     C  306   1.313   4.262  14.195 -0.3455 -0.4674  0.4597
   20MPD2    C1  307   1.222   4.196  14.279 -0.2345  1.0046  0.2599
   20MPD2    C2  308   1.272   4.139  14.395 -0.1969 -0.3109 -0.2735
   20MPD2    C3  309   1.410   4.145  14.434 -0.4313  0.0207 -0.0998
   20MPD2    C4  310   1.493   4.213  14.346 -0.0482 -0.2194 -0.1764
   20MPD2    C5  311   1.445   4.277  14.233  0.2943  0.7005 -0.5175
   20MPD2     H  312   1.199   4.089  14.457 -2.0644  1.4465 -1.1029
   20MPD2    H1  313   1.599   4.224  14.362 -0.1519 -1.3795  1.2560
   20MPD2    H2  314   1.290   4.288  14.092  0.2327 -1.4369  0.0848
   20MPD2    H3  315   1.510   4.329  14.163  1.8283 -0.9202 -0.3078
   20MPD2     N  316   1.475   4.082  14.541  0.0687 -0.1114  0.0869
   20MPD2    H5  317   1.576   4.095  14.549 -0.1484  0.9896  1.0349
   20MPD2    N1  318   1.082   4.185  14.256 -0.2132  0.0786 -0.6624
   20MPD2    H7  319   1.035   4.123  14.322  0.7525 -0.8772 -0.8783
   21MPD2     C  320   3.411   4.183  14.324  0.8737  0.3265  0.7397
   21MPD2    C1  321   3.411   4.058  14.372  0.2161 -0.0516  0.2461
   21MPD2    C2  322   3.375   4.041  14.503  0.2416  1.1992  0.3616
   21MPD2    C3  323   3.326   4.148  14.590  0.0368 -0.0325  0.0958
   21MPD2    C4  324   3.321   4.275  14.534  0.2204  0.2356 -0.3035
   21MPD2    C5  325   3.369   4.290  14.404 -0.1031  0.3177 -0.3230
   21MPD2     H  326   3.385   3.940  14.541 -1.1035  1.1177  0.5092
   21MPD2    H1  327   3.291   4.359  14.597  1.0175 -0.3467  0.8523
   21MPD2    H2  328   3.445   4.206  14.224  1.6155  2.0958  1.4054
   21MPD2    H3  329   3.372   4.389  14.360 -0.0578  0.7309  0.6179
   21MPD2     N  330   3.287   4.131  14.727  0.4245  0.1298 -0.2341
   21MPD2    H5  331   3.282   4.214  14.785  2.9060 -0.6357  1.0722
   21MPD2    N1  332   3.476   3.951  14.307 -0.0618 -0.1318  0.2765
   21MPD2    H7  333   3.489   3.873  14.370  3.4750  0.8007  0.6934
   22TCq2    C1  334   3.267   4.010  14.791 -0.3009 -0.2317 -0.4436
   22TCq2    O2  335   3.282   3.895  14.753 -0.4921 -0.6328  0.4073
   22TCq2    C2  336   3.240   4.027  14.940  0.6681 -0.4743 -0.2284
   22TCq2    C3  337   3.251   3.913  15.015 -0.0426 -0.4888  0.4299
   22TCq2    C4  338   3.273   3.938  15.147 -0.3929  0.3638 -0.0953
   22TCq2    C5  339   3.275   4.059  15.202 -0.0296 -0.2775 -0.3742
   22TCq2    C6  340   3.258   4.168  15.123 -0.4437 -0.2943  0.1483
   22TCq2    C7  341   3.239   4.156  14.990  0.1027 -0.6002 -0.2466
   22TCq2    C8  342   3.225   4.289  15.200  0.5497  0.1115 -0.1676
   22TCq2    O4  343   3.253   4.280  15.319  0.1320 -0.2763  0.3660
   22TCq2    C9  344   3.304   3.827  15.239 -0.0529 -0.0857 -0.1860
   22TCq2    O5  345   3.377   3.862  15.338 -0.3730 -0.4105  0.3269
   22TCq2    O6  346   3.305   3.711  15.189 -0.0826 -0.1040  0.2715
   22TCq2    H2  347   3.274   3.814  14.977  0.0227 -0.8873  1.5039
   22TCq2    H3  348   3.293   4.064  15.309 -0.5313 -0.8476 -0.2654
   22TCq2    H4  349   3.243   4.245  14.928  0.9801  0.9194  1.9625
   23MPD2     C  350   0.630   1.008  15.035  0.7345 -0.6319 -0.3623
   23MPD2    C1  351   0.505   0.952  15.065 -0.3828  0.2401 -0.9858
   23MPD2    C2  352   0.387   1.005  15.011  0.5530 -0.1855 -0.4748
   23MPD2    C3  353   0.398   1.107  14.915  0.0009 -0.9624 -1.0055
   23MPD2    C4  354   0.523   1.155  14.885  0.3703  0.2199  0.4019
   23MPD2    C5  355   0.637   1.105  14.944 -0.6701 -0.2969 -0.2117
   23MPD2     H  356   0.290   0.962  15.031  1.2887 -0.6656  2.1742
   23MPD2    H1  357   0.540   1.224  14.803  0.5780  0.1775  0.4088
   23MPD2    H2  358   0.720   0.958  15.071 -1.2377 -3.5807  0.4899
   23MPD2    H3  359   0.734   1.146  14.918 -0.9660  0.6826  0.2751
   23MPD2     N  360   0.295   1.155  14.835  0.1591 -0.1657  0.7864
   23MPD2    H5  361   0.323   1.229  14.772 -1.8337 -0.7311 -0.7746
   23MPD2    N1  362   0.494   0.845  15.156  0.2651  0.0100  0.2957
   23MPD2    H7  363   0.409   0.830  15.209 -0.5810  1.3119 -0.7018
   24TCq2    C1  364   0.171   1.100  14.815  0.2629  0.0852 -0.1419
   24TCq2    O2  365   0.115   1.001  14.865  0.3427 -0.1647  0.5009
   24TCq2    C2  366   0.105   1.172  14.714  0.2507 -0.3059 -0.4064
   24TCq2    C3  367   0.180   1.248  14.629 -0.3246 -0.4296 -0.2381
   24TCq2    C4  368   0.110   1.327  14.542  0.2568 -0.1348 -0.2186
   24TCq2    C5  369   4.696   1.317  14.534 -0.4460  0.1436  0.7331
   24TCq2    C6  370   4.624   1.232  14.617 -0.9504 -0.2758  0.3228
   24TCq2    C7  371   4.694   1.148  14.706 -0.9606  0.5145  0.0239
   24TCq2    C8  372   4.488   1.193  14.572  0.2392  0.8717 -0.5846
   24TCq2    O4  373   4.456   1.080  14.601 -0.2702  0.0957 -0.4510
   24TCq2    C9  374   0.183   1.411  14.450 -0.6022  0.4259  0.3810
   24TCq2    O5  375   0.117   1.440  14.347  1.0215  0.2722  0.0843
   24TCq2    O6  376   0.305   1.408  14.467 -0.4746  0.3280 -0.2381
   24TCq2    H2  377   0.288   1.249  14.623 -0.3128  1.2311  0.0881
   24TCq2    H3  378   4.651   1.382  14.460  0.1177 -0.8848 -0.5174
   24TCq2    H4  379   4.639   1.080  14.770 -1.0506 -1.2776 -1.9203
   25TMC2    C1  380   4.060   2.280  11.588  0.6771  0.3989  0.7424
   25TMC2    C2  381   4.197   2.300  11.593  0.2613  0.5994 -0.1668
   25TMC2    C3  382   4.243   2.419  11.630  0.7107  0.4065 -0.1980
   25TMC2    C4  383   3.968   2.376  11.623  0.2177 -0.1314  0.2075
   25TMC2    C5  384   4.023   2.499  11.655  0.8834 -0.1296 -0.2222
   25TMC2    C6  385   4.157   2.527  11.643 -0.7524 -0.5677 -0.6711
   25TMC2     C  386   4.016   2.166  11.516 -0.1022 -0.2182  0.6445
   25TMC2     O  387   4.090   2.071  11.505  0.2817 -0.0255  0.4769
   25TMC2     H  388   4.272   2.221  11.591  0.7600  1.0527  1.0290
   25TMC2    H1  389   3.865   2.353  11.645  0.1145 -0.4734 -0.6423
   25TMC2    H2  390   4.207   2.612  11.687 -1.2736 -0.2901 -0.6103
   25TMC2    C7  391   3.942   2.600  11.717  0.0253 -0.2648 -0.2693
   25TMC2    C8  392   4.385   2.457  11.619 -0.9795  0.1799 -0.3066
   25TMC2    O1  393   3.843   2.558  11.775  0.2518 -0.2249 -0.3407
   25TMC2    O2  394   4.429   2.569  11.594  0.2434  0.0525 -0.1753
   25TMC2    O5  395   4.461   2.364  11.683  0.2976  0.1222 -0.0747
   25TMC2    H5  396   4.410   2.293  11.728  0.9515  0.1641  0.7424
   26MPD2     C  397   3.712   1.963  11.150  0.5757  0.2158 -0.3850
   26MPD2    C1  398   3.644   2.052  11.221 -0.0776  0.1007 -0.5444
   26MPD2    C2  399   3.706   2.120  11.328 -0.3030 -0.9348 -0.0667
   26MPD2    C3  400   3.838   2.098  11.360 -0.5650 -0.6882  0.1608
   26MPD2    C4  401   3.912   2.012  11.287 -0.1199  0.4618  0.4277
   26MPD2    C5  402   3.849   1.947  11.181  0.0414 -0.4060  0.0556
   26MPD2     H  403   3.647   2.195  11.380  1.2184  0.4078 -0.2811
   26MPD2    H1  404   4.016   1.981  11.291 -0.8508 -2.0845 -0.4369
   26MPD2    H2  405   3.686   1.910  11.059 -1.6217 -2.5715  1.8560
   26MPD2    H3  406   3.911   1.893  11.111 -0.5781 -1.1203  0.0593
   26MPD2     N  407   3.891   2.177  11.469 -0.6902  0.3289  0.3385
   26MPD2    H5  408   3.836   2.256  11.500 -2.1472 -1.0775  1.2861
   26MPD2    N1  409   3.509   2.076  11.191 -0.2232 -0.1577  0.4732
   26MPD2    H7  410   3.476   2.038  11.103 -1.2411  0.0957  0.7419
   27TMC2    C1  411   2.930   4.677  12.601  0.7686  0.2266  0.3569
   27TMC2    C2  412   2.854   4.717  12.496  0.3529  0.0429  0.0081
   27TMC2    C3  413   2.854   0.119  12.461 -0.1904  0.0377 -0.0736
   27TMC2    C4  414   3.014   0.040  12.662  0.0624  0.6642  0.3519
   27TMC2    C5  415   3.018   0.167  12.619  0.3798  0.3364  0.2981
   27TMC2    C6  416   2.930   0.214  12.524 -0.1245  0.2337  0.4727
   27TMC2     C  417   2.870   4.586  12.692 -0.2650  0.2062  0.2270
   27TMC2     O  418   2.935   4.494  12.740  0.1073 -0.3811  0.5245
   27TMC2     H  419   2.777   4.645  12.471 -0.2265  0.8099 -0.4094
   27TMC2    H1  420   3.074   0.007  12.746 -0.4008  1.7117  1.0824
   27TMC2    H2  421   2.936   0.318  12.496 -0.8468  0.1047 -0.1612
   27TMC2    C7  422   3.028   0.250  12.736  0.6447  0.2920  0.2532
   27TMC2    C8  423   2.752   0.166  12.370  0.7801 -0.7730  0.1632
   27TMC2    O1  424   3.102   0.212  12.825 -0.0444 -0.1541 -0.1639
   27TMC2    O2  425   2.725   0.284  12.349 -0.2444 -0.1747  0.2460
   27TMC2    O5  426   2.724   0.064  12.287 -0.5410  0.1288  0.4514
   27TMC2    H5  427   2.731   4.697  12.320 -0.5535  1.2374  3.4733
   28MPD2     C  428   2.480   4.458  13.005  0.5549 -1.0874 -0.4774
   28MPD2    C1  429   2.459   4.590  12.953 -0.9851 -0.0196 -0.7354
   28MPD2    C2  430   2.554   4.641  12.865  0.5080  0.8097 -0.3653
   28MPD2    C3  431   2.666   4.567  12.824  0.5196  0.6704 -0.8359
   28MPD2    C4  432   2.689   4.444  12.882 -0.6500  0.6575  0.0276
   28MPD2    C5  433   2.593   4.388  12.964 -0.6319 -0.4243  0.1224
   28MPD2     H  434   2.548   0.015  12.822  0.9018  0.0837 -2.0922
   28MPD2    H1  435   2.766   4.375  12.851 -0.7432  0.7547 -0.4149
   28MPD2    H2  436   2.408   4.406  13.067  0.1679 -1.2334 -1.0510
   28MPD2    H3  437   2.601   4.286  12.998  1.2322 -0.2406  0.2034
   28MPD2     N  438   2.742   4.632  12.726  0.0340  0.9061 -0.7539
   28MPD2    H5  439   2.694   4.714  12.691 -0.4107 -0.3049 -2.9877
   28MPD2    N1  440   2.343   4.653  12.996 -0.0723 -0.0206 -0.0839
   28MPD2    H7  441   2.271   4.606  13.050 -2.1291  1.5754 -1.4403
   29MPD2     C  442   1.857   2.606  13.783 -0.5890  0.3286  0.1690
   29MPD2    C1  443   1.952   2.558  13.870 -0.1129 -0.1375 -1.0099
   29MPD2    C2  444   1.998   2.644  13.970 -0.5620 -0.4583 -0.4525
   29MPD2    C3  445   1.938   2.774  13.985 -1.2219  0.0000 -0.4905
   29MPD2    C4  446   1.835   2.809  13.903 -0.2777  0.0512 -0.7658
   29MPD2    C5  447   1.796   2.725  13.802 -0.5862 -0.3608 -0.6346
   29MPD2     H  448   2.079   2.617  14.036 -1.5607 -0.0859  0.9411
   29MPD2    H1  449   1.779   2.898  13.926 -0.0936 -0.3028  1.0843
   29MPD2    H2  450   1.825   2.550  13.695  2.0227  0.5263 -0.8976
   29MPD2    H3  451   1.730   2.755  13.722 -0.1508 -1.5014 -1.4132
   29MPD2     N  452   1.964   2.853  14.102  0.2361  0.6099 -0.3932
   29MPD2    H5  453   1.919   2.943  14.117 -0.5883 -0.3394  2.9402
   29MPD2    N1  454   2.022   2.437  13.860 -0.2586  0.6707  0.6629
   29MPD2    H7  455   2.105   2.439  13.919 -1.0541 -1.2429  1.8742
   30TCq2    C1  456   2.064   2.822  14.192  0.1542  0.1889  0.4977
   30TCq2    O2  457   2.160   2.747  14.185 -0.2336  0.2058 -0.5751
   30TCq2    C2  458   2.066   2.916  14.302  0.2287 -0.1069  0.2433
   30TCq2    C3  459   1.952   2.942  14.375  0.3802  0.2114  0.0481
   30TCq2    C4  460   1.955   3.001  14.499  0.1280 -0.2610  0.0491
   30TCq2    C5  461   2.077   3.051  14.541  0.1349 -0.1107 -0.0241
   30TCq2    C6  462   2.187   3.025  14.470 -0.1978  0.4985  0.6250
   30TCq2    C7  463   2.186   2.960  14.346 -0.0194 -0.5665  0.2956
   30TCq2    C8  464   2.289   3.117  14.508  0.4564 -0.2253  0.2387
   30TCq2    O4  465   2.325   3.116  14.625 -0.5705  0.6909  0.0590
   30TCq2    C9  466   1.834   3.034  14.572 -0.3924  0.6150 -0.2546
   30TCq2    O5  467   1.843   3.121  14.657  0.6574  0.2965  0.5116
   30TCq2    O6  468   1.731   2.976  14.533  0.5359 -0.0834  0.7662
   30TCq2    H2  469   1.853   2.907  14.347 -0.0597  1.1478  0.4060
   30TCq2    H3  470   2.080   3.114  14.629 -1.1960  0.0048 -0.0616
   30TCq2    H4  471   2.273   2.941  14.284 -0.9307 -1.4021 -0.7268
   31MPD2     C  472   0.209   1.797  14.433  0.1191  0.1554  0.0212
   31MPD2    C1  473   0.076   1.796  14.428 -0.3173  0.1947  0.0044
   31MPD2    C2  474   0.010   1.745  14.540  0.2183  0.2993  0.1355
   31MPD2    C3  475   0.067   1.676  14.649 -0.1837 -0.3026  0.6201
   31MPD2    C4  476   0.204   1.671  14.644 -0.6253 -0.7881  0.3912
   31MPD2    C5  477   0.272   1.737  14.540 -0.4625  0.7125  0.1037
   31MPD2     H  478   4.627   1.755  14.536 -0.0102 -2.4414 -1.0835
   31MPD2    H1  479   0.257   1.620  14.723  2.7486  1.6237 -0.3077
   31MPD2    H2  480   0.276   1.839  14.358 -1.2766  3.3925  0.5833
   31MPD2    H3  481   0.378   1.744  14.556 -0.2357  1.2314 -1.6226
   31MPD2     N  482   0.004   1.615  14.761  0.3519  0.2851 -0.0122
   31MPD2    H5  483   0.060   1.578  14.837  1.0805  1.0761 -0.1554
   31MPD2    N1  484   0.017   1.877  14.328  0.3874  0.1840 -0.1812
   31MPD2    H7  485   0.077   1.914  14.255  1.4884  0.7089  0.9841
   32TCq2    C1  486   4.593   1.598  14.755  0.3526  0.7707 -0.7105
   32TCq2    O2  487   4.515   1.622  14.662  0.3052 -0.8467 -0.7482
   32TCq2    C2  488   4.535   1.514  14.856  0.4592  0.2833 -0.7971
   32TCq2    C3  489   4.414   1.453  14.825 -0.1963  0.7195 -0.3157
   32TCq2    C4  490   4.384   1.324  14.867 -0.4625 -1.0325  0.0444
   32TCq2    C5  491   4.457   1.266  14.965 -1.0502  0.1298  0.6936
   32TCq2    C6  492   4.570   1.330  15.009 -0.1401 -0.2807  0.3890
   32TCq2    C7  493   4.616   1.447  14.949  0.0521  0.0739 -0.3643
   32TCq2    C8  494   4.647   1.265  15.114 -0.1717  0.3305 -0.2134
   32TCq2    O4  495   4.613   1.161  15.164  0.5477  0.2043  0.6628
   32TCq2    C9  496   4.253   1.269  14.841  0.0228 -0.5652  0.1129
   32TCq2    O5  497   4.226   1.153  14.890 -0.0465 -0.1427 -0.4135
   32TCq2    O6  498   4.164   1.344  14.789 -0.0665 -0.1708 -0.1317
   32TCq2    H2  499   4.345   1.488  14.749 -1.3229 -0.5425  0.1285
   32TCq2    H3  500   4.442   1.166  15.004  1.9926 -0.1243  1.2327
   32TCq2    H4  501   4.699   1.504  14.988 -0.5643  0.3927  0.4740
   33MPD2     C  502   4.136   3.261  10.066 -0.5391 -0.1562 -0.1917
   33MPD2    C1  503   4.253   3.328  10.058 -0.5874  0.4190  0.1434
   33MPD2    C2  504   4.320   3.342   9.940  0.5967 -0.1991 -0.5703
   33MPD2    C3  505   4.266   3.292   9.827  0.2123  0.8529  0.0344
   33MPD2    C4  506   4.144   3.229   9.831 -0.1953  0.5393  0.2881
   33MPD2    C5  507   4.075   3.209   9.950  0.8392  0.5925  0.6335
   33MPD2     H  508   4.399   3.416   9.942 -0.7464  1.1598  1.4511
   33MPD2    H1  509   4.097   3.192   9.741 -0.8012  2.8022 -0.3148
   33MPD2    H2  510   4.082   3.238  10.157 -0.4684  0.1403 -0.0762
   33MPD2    H3  511   3.977   3.163   9.945 -0.0100  2.2221  2.1600
   33MPD2     N  512   4.331   3.307   9.701 -0.0043  0.3037 -0.3555
   33MPD2    H5  513   4.294   3.259   9.620 -0.9342  0.9293 -0.3027
   33MPD2    N1  514   4.293   3.381  10.183  0.4926 -0.2145 -0.2683
   33MPD2    H7  515   4.220   3.393  10.252  1.1920  2.3074  0.0230
   34TCq2    C1  516   4.444   3.380   9.687  0.8805 -0.9544 -0.1212
   34TCq2    O2  517   4.507   3.460   9.754 -0.0661  0.3336 -0.5936
   34TCq2    C2  518   4.497   3.370   9.550  0.1176 -0.8946  0.1267
   34TCq2    C3  519   4.442   3.291   9.453 -0.0594  0.1433  0.4223
   34TCq2    C4  520   4.507   3.266   9.338 -0.0439 -0.0454  0.4258
   34TCq2    C5  521   4.633   3.320   9.316 -0.4098  0.6864 -0.1069
   34TCq2    C6  522   4.686   3.396   9.414  0.2577  0.2976 -0.1323
   34TCq2    C7  523   4.616   3.427   9.522  0.6017 -1.1108 -0.1761
   34TCq2    C8  524   0.084   3.467   9.392  0.0991  0.1131  0.0921
   34TCq2    O4  525   0.136   3.518   9.490  0.1950  0.1717 -0.0302
   34TCq2    C9  526   4.440   3.189   9.235  0.4900  0.3063 -0.6223
   34TCq2    O5  527   4.500   3.189   9.125 -0.3579  0.9941 -0.4268
   34TCq2    O6  528   4.330   3.138   9.264 -0.5077 -0.1244 -0.0518
   34TCq2    H2  529   4.342   3.254   9.469 -0.5130  0.7870 -0.8788
   34TCq2    H3  530   4.687   3.303   9.223 -0.5602  2.9097 -0.5895
   34TCq2    H4  531   4.667   3.489   9.596  0.7308 -0.1544 -1.0734
   35MPD2     C  532   1.979   0.747  12.150 -0.0666 -0.1766 -0.5454
   35MPD2    C1  533   1.860   0.687  12.192  0.2170  0.9231  0.0618
   35MPD2    C2  534   1.775   0.642  12.084  0.0360 -0.3883 -0.4647
   35MPD2    C3  535   1.809   0.666  11.946  0.0092 -0.0782 -0.6865
   35MPD2    C4  536   1.928   0.732  11.914 -0.7730 -0.0387  0.4547
   35MPD2    C5  537   2.002   0.780  12.020 -0.0022 -0.0662 -0.0836
   35MPD2     H  538   1.676   0.600  12.095  1.0252 -3.0151 -1.6609
   35MPD2    H1  539   1.960   0.762  11.815 -1.8707  1.8038  0.6622
   35MPD2    H2  540   2.059   0.770  12.219  1.3313 -2.2778 -1.4606
   35MPD2    H3  541   2.097   0.829  11.999  0.0663 -0.4385 -0.6448
   35MPD2     N  542   1.734   0.621  11.838 -0.2275  0.3870  0.0443
   35MPD2    H5  543   1.774   0.640  11.747 -1.2482  0.1929 -0.4515
   35MPD2    N1  544   1.823   0.666  12.328 -0.4322 -0.0012  0.9061
   35MPD2    H7  545   1.889   0.681  12.403  1.1341 -0.0953 -0.4446
   36TCq2    C1  546   1.615   0.555  11.836 -0.4043 -0.3806  0.5700
   36TCq2    O2  547   1.546   0.529  11.936 -0.1469 -0.2134  0.1511
   36TCq2    C2  548   1.588   0.488  11.712 -0.4698  0.6255 -1.0917
   36TCq2    C3  549   1.625   0.548  11.593  1.2751  0.5869 -0.3066
   36TCq2    C4  550   1.594   0.480  11.480 -0.7158 -0.4364 -0.0539
   36TCq2    C5  551   1.519   0.363  11.492  0.6098 -0.1209 -0.0668
   36TCq2    C6  552   1.482   0.307  11.612 -0.4184 -0.0415 -0.2293
   36TCq2    C7  553   1.518   0.371  11.723  0.4960  0.3829 -0.3676
   36TCq2    C8  554   1.447   0.165  11.613 -0.5723 -0.6132  0.5099
   36TCq2    O4  555   1.421   0.127  11.498 -0.3003 -0.1974 -0.6688
   36TCq2    C9  556   1.635   0.534  11.356  0.2039  0.1888  0.8421
   36TCq2    O5  557   1.603   0.470  11.252  0.8654  0.5412 -0.0021
   36TCq2    O6  558   1.726   0.628  11.363 -0.4331  0.1911 -0.4521
   36TCq2    H2  559   1.691   0.634  11.584 -0.5216  2.0053  0.0237
   36TCq2    H3  560   1.501   0.314  11.397  0.0548  0.3053 -0.1796
   36TCq2    H4  561   1.483   0.344  11.821  1.5836  3.8830  1.0129
   37TMC2    C1  562   3.776   4.665  11.996  0.0269  1.0980  0.2357
   37TMC2    C2  563   3.689   4.564  11.979  0.8190 -0.0381 -0.3473
   37TMC2    C3  564   3.702   4.507  11.854  0.4912  0.1807 -0.0261
   37TMC2    C4  565   3.864   4.713  11.910 -0.2115  0.3737 -0.2515
   37TMC2    C5  566   3.859   4.662  11.786 -0.8383 -0.0877  0.1308
   37TMC2    C6  567   3.796   4.548  11.763 -0.2498 -0.0528 -0.2037
   37TMC2     C  568   3.761   4.721  12.124  0.1708 -0.2337 -0.3203
   37TMC2     O  569   3.658   4.706  12.185  0.0201 -0.1732  0.1071
   37TMC2     H  570   3.628   4.527  12.060  0.7906 -0.8523 -0.7481
   37TMC2    H1  571   3.899   0.089  11.928  1.1965 -0.3062  0.8778
   37TMC2    H2  572   3.799   4.494  11.669  0.0189 -1.4430  0.5902
   37TMC2    C7  573   3.967   4.711  11.706 -0.5692  0.2716  0.4905
   37TMC2    C8  574   3.618   4.397  11.815  0.2101  0.5541  0.0006
   37TMC2    O1  575   4.019   0.095  11.739 -0.4798  0.5259 -0.4155
   37TMC2    O2  576   3.640   4.308  11.739 -1.4260 -0.2467  0.2854
   37TMC2    O5  577   3.495   4.425  11.862 -0.4227 -0.2266 -0.1441
   37TMC2    H5  578   3.478   4.503  11.918  0.1190 -0.4443  0.3273
   38MPD2     C  579   3.957   0.268  12.512  0.0601  0.2847  0.0422
   38MPD2    C1  580   4.059   0.224  12.436 -0.1120  0.2236  0.3678
   38MPD2    C2  581   4.027   0.151  12.325  0.0370 -0.4491  0.3744
   38MPD2    C3  582   3.899   0.109  12.293  0.0680  0.2413 -0.3852
   38MPD2    C4  583   3.798   0.151  12.370 -1.0354 -0.2866 -0.2149
   38MPD2    C5  584   3.824   0.241  12.475  0.3591  0.2672  0.6547
   38MPD2     H  585   4.115   0.129  12.266  0.0908 -1.3330  0.7805
   38MPD2    H1  586   3.695   0.140  12.340 -0.3454 -1.2261 -2.2300
   38MPD2    H2  587   3.982   0.335  12.593 -0.9842  1.5006 -0.6468
   38MPD2    H3  588   3.745   0.275  12.541  1.7960  5.5044 -0.3248
   38MPD2     N  589   3.881   0.043  12.171 -0.4706  0.4493  0.0764
   38MPD2    H5  590   3.964   0.032  12.114  1.0195 -0.3061  2.3926
   38MPD2    N1  591   4.198   0.259  12.453 -0.0128  0.2172  0.0416
   38MPD2    H7  592   4.260   0.208  12.392  1.8704  0.0275  2.1164
   39MPD2     C  593   2.001   1.813   2.253 -0.1170  0.6156  0.0983
   39MPD2    C1  594   1.984   1.949   2.256  0.8409 -0.3359  0.1192
   39MPD2    C2  595   1.876   1.994   2.176 -0.4442  0.2991 -0.0527
   39MPD2    C3  596   1.796   1.915   2.099  0.1043 -0.2481 -0.1478
   39MPD2    C4  597   1.811   1.781   2.107 -0.0016  0.2812  0.2466
   39MPD2    C5  598   1.915   1.735   2.185  0.2341  0.6842  0.1195
   39MPD2     H  599   1.863   2.101   2.166 -0.3979  0.2201 -0.9837
   39MPD2    H1  600   1.753   1.712   2.047  0.6617 -2.0047  2.2265
   39MPD2    H2  601   2.063   1.768   2.329 -0.6168  1.1344  0.8159
   39MPD2    H3  602   1.933   1.629   2.200 -2.4369  0.3055  0.5888
   39MPD2     N  603   1.690   1.960   2.018 -0.2443  0.2959  0.4415
   39MPD2    H5  604   1.637   1.894   1.962  2.0667  0.2255 -1.6334
   39MPD2    N1  605   2.080   2.031   2.321 -0.0170  0.3126  0.5207
   39MPD2    H7  606   2.149   1.979   2.373  1.2034  0.5532 -0.8450
   40TCq2    C1  607   2.090   2.170   2.303 -0.3569  0.0038  0.7310
   40TCq2    O2  608   2.037   2.247   2.223  0.5933 -0.0732  0.0338
   40TCq2    C2  609   2.173   2.229   2.402 -0.0372 -0.3931 -0.1594
   40TCq2    C3  610   2.185   2.163   2.524 -0.1284 -0.1962 -0.3118
   40TCq2    C4  611   2.285   2.207   2.599  0.1717 -0.4045 -0.6607
   40TCq2    C5  612   2.363   2.322   2.573 -0.3350  0.0900  0.5227
   40TCq2    C6  613   2.333   2.388   2.460 -0.2220 -0.1075  0.3718
   40TCq2    C7  614   2.242   2.342   2.373 -0.5239  0.7975 -0.0382
   40TCq2    C8  615   2.421   2.504   2.426  0.1112  0.8286  0.5505
   40TCq2    O4  616   2.529   2.508   2.489 -0.2829  0.2896  0.0025
   40TCq2    C9  617   2.297   2.150   2.730  1.0960  0.0693  0.4051
   40TCq2    O5  618   2.264   2.029   2.742  0.1803 -0.0360  0.3909
   40TCq2    O6  619   2.355   2.216   2.819 -0.1556  0.0276 -0.0870
   40TCq2    H2  620   2.125   2.077   2.553 -0.6746  0.0249 -0.7852
   40TCq2    H3  621   2.431   2.359   2.649 -1.7307  2.4626  0.6134
   40TCq2    H4  622   2.225   2.395   2.280 -1.2094  1.1340  0.2851
   41TMC2    C1  623   0.884   0.370  13.565  0.2271 -0.2072 -0.8016
   41TMC2    C2  624   0.791   0.452  13.619  0.4163  0.5357  0.2507
   41TMC2    C3  625   0.688   0.503  13.544 -0.1151 -0.0523  0.4924
   41TMC2    C4  626   0.877   0.332  13.436 -0.2002 -0.3326 -0.2121
   41TMC2    C5  627   0.766   0.369  13.363  0.0490  0.9436 -0.2758
   41TMC2    C6  628   0.673   0.458  13.413 -0.7255 -0.1320  0.7848
   41TMC2     C  629   1.002   0.335  13.644 -0.6408  0.5422 -0.6914
   41TMC2     O  630   1.104   0.309  13.579 -0.0949  0.4946  0.2097
   41TMC2     H  631   0.813   0.505  13.711  0.0890  1.8551 -0.4255
   41TMC2    H1  632   0.943   0.256  13.397  0.9533  0.1553  0.7712
   41TMC2    H2  633   0.579   0.473  13.360 -0.6293  1.1168  0.9777
   41TMC2    C7  634   0.735   0.311  13.234  0.3338  0.1904 -0.0459
   41TMC2    C8  635   0.574   0.565  13.603  0.3977  0.7103 -0.5800
   41TMC2    O1  636   0.619   0.335  13.195 -0.2980 -0.1114 -0.2397
   41TMC2    O2  637   0.509   0.640  13.532  0.8730  0.3150 -0.6613
   41TMC2    O5  638   0.583   0.564  13.734 -0.4439 -0.5606 -0.1974
   41TMC2    H5  639   0.647   0.499  13.771 -1.5475 -0.3896  2.0543
   42MPD2     C  640   1.191   0.261  13.856  0.2366  0.0047 -0.1573
   42MPD2    C1  641   1.060   0.290  13.884 -0.9553  0.4360 -0.7877
   42MPD2    C2  642   1.016   0.287  14.015 -0.4364 -0.3451  0.5844
   42MPD2    C3  643   1.097   0.270  14.125  0.4541  0.3943 -0.0671
   42MPD2    C4  644   1.230   0.246  14.101 -0.0879  0.4649 -0.1826
   42MPD2    C5  645   1.270   0.231  13.965 -0.0451  0.4412 -0.2481
   42MPD2     H  646   0.911   0.308  14.026 -0.1400  2.3668 -1.9869
   42MPD2    H1  647   1.308   0.234  14.175  0.3515 -0.2122 -0.7599
   42MPD2    H2  648   1.232   0.261  13.756  1.9262 -1.2902  0.5355
   42MPD2    H3  649   1.367   0.189  13.943  0.1558  0.4670  0.5968
   42MPD2     N  650   1.063   0.272  14.260  0.9533  0.4025  0.0678
   42MPD2    H5  651   1.142   0.250  14.320  1.6642 -0.6434 -1.2479
   42MPD2    N1  652   0.964   0.317  13.780 -0.5931 -0.8477 -0.3027
   42MPD2    H7  653   0.866   0.325  13.807 -1.2074  1.7942 -3.2496
   43MPD2     C  654   1.637   3.217   0.502 -0.1216  0.3637 -0.0730
   43MPD2    C1  655   1.738   3.208   0.599 -0.0420 -0.4381 -0.1415
   43MPD2    C2  656   1.718   3.258   0.727 -1.0318  0.5311 -0.3752
   43MPD2    C3  657   1.603   3.338   0.751  0.5235  0.4875 -0.4953
   43MPD2    C4  658   1.503   3.345   0.653 -0.1672  0.3603  0.2360
   43MPD2    C5  659   1.518   3.281   0.532 -0.4399  0.2329 -0.4968
   43MPD2     H  660   1.799   3.261   0.800 -2.3974  1.8437  1.0966
   43MPD2    H1  661   1.409   3.394   0.675  0.0012 -0.0331  1.7986
   43MPD2    H2  662   1.636   3.160   0.409  1.2590 -0.0486  0.1680
   43MPD2    H3  663   1.437   3.276   0.460  0.0423 -0.2683 -1.0093
   43MPD2     N  664   1.569   3.401   0.867 -0.7468  0.1595  0.3208
   43MPD2    H5  665   1.472   3.421   0.892 -0.3282  2.3140  0.1784
   43MPD2    N1  666   1.862   3.151   0.575 -0.2290 -0.3803 -0.4566
   43MPD2    H7  667   1.924   3.144   0.655 -0.0362  0.7144 -0.5019
   44TCq2    C1  668   1.701   3.549   1.427 -0.4432 -0.1945 -0.5692
   44TCq2    O2  669   1.656   3.585   1.532  0.3350 -0.1419 -0.2311
   44TCq2    C2  670   1.620   3.547   1.308 -0.5808 -0.1214 -0.3897
   44TCq2    C3  671   1.505   3.619   1.300  0.1589  0.8786 -0.1543
   44TCq2    C4  672   1.440   3.623   1.184  0.2360  0.0360 -0.6427
   44TCq2    C5  673   1.484   3.562   1.073 -0.7607 -0.5947 -0.5115
   44TCq2    C6  674   1.590   3.480   1.087  0.1998  0.3484 -0.3908
   44TCq2    C7  675   1.665   3.463   1.201  0.2472  0.5685  0.3279
   44TCq2    C8  676   1.652   3.420   0.971 -0.3903 -0.3578  0.3169
   44TCq2    O4  677   1.775   3.397   0.976 -0.3484 -0.2397  0.3947
   44TCq2    C9  678   1.328   3.715   1.176  0.8084  0.1075  0.4655
   44TCq2    O5  679   1.310   3.799   1.270 -0.4447  0.1451  0.2442
   44TCq2    O6  680   1.290   3.734   1.057  0.7757  0.4685  0.2406
   44TCq2    H2  681   1.474   3.679   1.385  0.7847  0.8886  0.0728
   44TCq2    H3  682   1.434   3.583   0.979  0.9141 -1.0443 -1.5051
   44TCq2    H4  683   1.741   3.385   1.203 -0.6445 -0.2786  1.2762
   45TMC2    C1  684   2.771   0.938   9.288 -0.0892 -0.3442  0.2716
   45TMC2    C2  685   2.866   0.841   9.324  0.0397 -0.1883  0.1505
   45TMC2    C3  686   2.953   0.883   9.423  0.4711 -0.1808  0.4991
   45TMC2    C4  687   2.764   1.060   9.348 -0.3081 -0.2798 -0.1893
   45TMC2    C5  688   2.853   1.092   9.450  0.0611  0.4804 -0.3508
   45TMC2    C6  689   2.951   1.007   9.485 -0.1362 -0.6514  0.2536
   45TMC2     C  690   2.695   0.909   9.167  0.2592 -0.8449  0.3268
   45TMC2     O  691   2.740   0.831   9.087 -0.1030 -0.4548  0.3169
   45TMC2     H  692   2.879   0.753   9.261 -0.4435 -0.3398  0.2606
   45TMC2    H1  693   2.711   1.145   9.306 -1.1115 -0.3164  0.7364
   45TMC2    H2  694   3.027   1.036   9.557  0.1996 -0.8023 -0.0426
   45TMC2    C7  695   2.864   1.225   9.505 -0.1667  0.8813  0.1908
   45TMC2    C8  696   3.045   0.791   9.482 -0.4772  0.4722  0.2621
   45TMC2    O1  697   2.917   1.229   9.615 -0.5724 -0.5521  0.7388
   45TMC2    O2  698   3.054   0.761   9.599  0.2905  0.8763 -0.7713
   45TMC2    O5  699   3.089   0.711   9.380 -0.1978  0.6986 -0.2509
   45TMC2    H5  700   3.073   0.744   9.289  0.5743 -1.3493 -1.1240
   46MPD2     C  701   2.479   0.883   8.950  0.1168 -0.3775  0.2351
   46MPD2    C1  702   2.465   0.956   9.063 -1.0708  0.5042  0.5381
   46MPD2    C2  703   2.341   1.002   9.091 -0.7295  0.4086 -0.6004
   46MPD2    C3  704   2.231   0.984   9.014 -0.0731  0.2147 -0.4573
   46MPD2    C4  705   2.244   0.912   8.897  0.6717  0.3366  0.4666
   46MPD2    C5  706   2.371   0.861   8.869  0.2246  0.3499 -0.1434
   46MPD2     H  707   2.334   1.054   9.186  0.0015 -1.7655  0.6295
   46MPD2    H1  708   2.159   0.889   8.834 -0.0544  1.0242  1.1915
   46MPD2    H2  709   2.576   0.846   8.919  1.6564  1.9244  2.3974
   46MPD2    H3  710   2.390   0.799   8.782 -3.0881  1.2382 -1.5217
   46MPD2     N  711   2.109   1.042   9.054  0.4382  0.1891  0.6869
   46MPD2    H5  712   2.099   1.104   9.135  1.5847  1.1339  0.0959
   46MPD2    N1  713   2.570   0.974   9.158 -0.5921 -1.1524  0.8548
   46MPD2    H7  714   2.555   1.032   9.241  1.7315  0.3808  0.2191
   47TMC2    C1  715   0.209   4.550   9.410  0.2851  0.2938  0.9093
   47TMC2    C2  716   0.276   4.541   9.294 -0.6861 -0.5252 -0.4831
   47TMC2    C3  717   0.263   4.431   9.216 -0.5017  0.2093 -0.1574
   47TMC2    C4  718   0.134   4.451   9.459  0.1548 -0.6797  0.3336
   47TMC2    C5  719   0.131   4.331   9.386  0.7360  0.0856  0.5079
   47TMC2    C6  720   0.193   4.327   9.267  0.3481 -0.2203  0.1691
   47TMC2     C  721   0.259   4.637   9.520  0.5072 -0.1525 -0.1394
   47TMC2     O  722   0.196   4.649   9.619  0.4487 -0.6000 -0.4046
   47TMC2     H  723   0.329   4.629   9.259 -1.5741 -0.1119 -0.7947
   47TMC2    H1  724   0.103   4.452   9.562 -0.1780  2.8865  0.1974
   47TMC2    H2  725   0.190   4.240   9.203  0.7623  1.5099 -2.2103
   47TMC2    C7  726   0.038   4.232   9.431  0.0587 -0.0520 -0.4529
   47TMC2    C8  727   0.351   4.414   9.102  0.4083  0.0473 -0.1932
   47TMC2    O1  728   4.691   4.253   9.529 -0.4841  0.9450 -0.0907
   47TMC2    O2  729   0.451   4.479   9.076  0.2110 -0.1901  0.7850
   47TMC2    O5  730   0.281   4.345   9.002 -0.3004 -0.0137 -0.8926
   47TMC2    H5  731   0.190   4.314   9.019 -0.1045  0.6902  1.4607
   48MPD2     C  732   0.391   0.114   9.686 -0.5209  0.6732  0.6247
   48MPD2    C1  733   0.456   0.044   9.585 -0.6308 -0.6074  0.1894
   48MPD2    C2  734   0.597   0.062   9.571 -0.6039  0.3339 -0.3991
   48MPD2    C3  735   0.666   0.158   9.646  0.6670 -0.5107  0.1308
   48MPD2    C4  736   0.594   0.223   9.746 -0.2021 -0.1896  0.2458
   48MPD2    C5  737   0.462   0.194   9.766 -0.5161  0.3143  0.3988
   48MPD2     H  738   0.647   4.716   9.505  0.4972  1.9604 -1.3160
   48MPD2    H1  739   0.651   0.272   9.824 -0.7522  0.8076  0.0322
   48MPD2    H2  740   0.285   0.108   9.708 -0.2310 -1.3261  1.4086
   48MPD2    H3  741   0.417   0.243   9.852  0.7181 -0.6785  1.6114
   48MPD2     N  742   0.806   0.157   9.634 -0.4850  0.9807  0.1108
   48MPD2    H5  743   0.847   0.102   9.559 -2.4571 -2.2394  1.3771
   48MPD2    N1  744   0.387   4.681   9.499 -0.1560  0.7666  0.0058
   48MPD2    H7  745   0.440   4.642   9.422 -1.6044 -0.9904 -0.0978
   49MPD2     C  746   3.363   3.446   9.951  0.1543 -0.6175  0.3560
   49MPD2    C1  747   3.441   3.544  10.004  0.4957 -0.0417 -0.2515
   49MPD2    C2  748   3.460   3.549  10.136  0.6391  0.4918 -0.0413
   49MPD2    C3  749   3.409   3.450  10.221  0.4315  0.0894 -0.1920
   49MPD2    C4  750   3.339   3.347  10.157 -0.0988  0.5092  0.8194
   49MPD2    C5  751   3.324   3.338  10.023  0.3735  0.2492 -0.4894
   49MPD2     H  752   3.517   3.628  10.183 -2.7725  2.0033  1.5333
   49MPD2    H1  753   3.304   3.260  10.213 -2.3266  0.8728 -0.0221
   49MPD2    H2  754   3.358   3.439   9.843  2.7915 -2.3235  0.3269
   49MPD2    H3  755   3.278   3.247   9.986  2.1951  0.3727 -3.1358
   49MPD2     N  756   3.430   3.460  10.364  0.0940 -0.2646  0.2993
   49MPD2    H5  757   3.397   3.385  10.423 -0.3271  0.9339  1.5951
   49MPD2    N1  758   3.505   3.646   9.940  0.1862  0.5598  0.0225
   49MPD2    H7  759   3.565   3.697  10.003  0.1950  0.6953 -0.0960
   50TCq2    C1  760   3.504   3.675   9.804  0.0749  0.1638 -0.3201
   50TCq2    O2  761   3.430   3.634   9.715  0.1306 -0.2327  0.2467
   50TCq2    C2  762   3.587   3.789   9.768  0.2167 -0.0924 -0.0874
   50TCq2    C3  763   3.708   3.796   9.828 -0.0896 -0.8465 -0.8906
   50TCq2    C4  764   3.798   3.884   9.780  0.0634  0.0319  0.1965
   50TCq2    C5  765   3.772   3.964   9.677  0.9545  0.3742 -0.7713
   50TCq2    C6  766   3.650   3.954   9.616  0.1378  0.5735  0.4198
   50TCq2    C7  767   3.557   3.867   9.657 -0.1584  0.0035 -0.7973
   50TCq2    C8  768   3.610   4.060   9.523 -0.1031 -0.1613 -0.0590
   50TCq2    O4  769   3.709   4.127   9.483 -0.2019  0.1394 -0.3821
   50TCq2    C9  770   3.929   3.893   9.835  0.2343 -0.2120  0.2062
   50TCq2    O5  771   3.952   3.852   9.950 -0.1210  0.0410  0.1226
   50TCq2    O6  772   4.010   3.961   9.765 -0.2279 -0.1145 -0.2741
   50TCq2    H2  773   3.737   3.733   9.911 -1.9391  0.2711  0.6039
   50TCq2    H3  774   3.831   4.052   9.655 -1.4234  1.9440 -0.9033
   50TCq2    H4  775   3.463   3.848   9.607 -1.3101 -2.3437  2.2742
   51MPD2     C  776   3.635   1.996   1.309  0.5200 -0.1953  0.5286
   51MPD2    C1  777   3.539   1.923   1.368  0.3374  0.0909 -0.6572
   51MPD2    C2  778   3.521   1.932   1.512 -1.4274  0.5236  0.2651
   51MPD2    C3  779   3.583   2.032   1.586  0.6001  0.8221  0.2626
   51MPD2    C4  780   3.667   2.114   1.519 -0.0580  0.6451 -0.5725
   51MPD2    C5  781   3.698   2.085   1.386  0.1570  0.2457 -0.6858
   51MPD2     H  782   3.458   1.855   1.555  1.8760 -1.1094  2.1958
   51MPD2    H1  783   3.721   2.195   1.566 -1.7399  0.3533  1.8965
   51MPD2    H2  784   3.665   1.995   1.204  1.1226 -1.6016  0.7169
   51MPD2    H3  785   3.769   2.153   1.339 -0.1796  1.2524  0.2379
   51MPD2     N  786   3.567   2.051   1.725  0.4495 -0.5566 -1.0436
   51MPD2    H5  787   3.628   2.120   1.768 -1.1080 -0.0287  0.2973
   51MPD2    N1  788   3.469   1.826   1.292 -0.2666 -0.3951  0.0389
   51MPD2    H7  789   3.420   1.754   1.345  0.8433 -0.6869  0.6812
   52TCq2    C1  790   3.514   1.962   1.815 -0.9859 -0.5983  0.2354
   52TCq2    O2  791   3.454   1.860   1.782 -0.5327  0.1184 -0.1158
   52TCq2    C2  792   3.512   1.996   1.955  0.3879  0.3487  0.1157
   52TCq2    C3  793   3.472   1.892   2.039  0.2084  0.1026 -0.1535
   52TCq2    C4  794   3.498   1.901   2.170 -0.4129  0.6856 -0.2444
   52TCq2    C5  795   3.553   2.015   2.223  0.1486 -0.8456 -0.3758
   52TCq2    C6  796   3.578   2.113   2.139  0.2050  0.1778  0.0309
   52TCq2    C7  797   3.557   2.112   2.004  0.4350  0.8180  0.6314
   52TCq2    C8  798   3.664   2.218   2.196 -0.0296  0.1411  0.4630
   52TCq2    O4  799   3.677   2.226   2.317 -0.0519 -0.8184  0.3272
   52TCq2    C9  800   3.463   1.791   2.259  0.0041 -0.2273 -0.0169
   52TCq2    O5  801   3.422   1.686   2.200 -0.6651  0.4031  0.0115
   52TCq2    O6  802   3.458   1.818   2.383  0.0072  0.6161  0.1174
   52TCq2    H2  803   3.439   1.793   2.006  1.8246 -0.5169  0.0966
   52TCq2    H3  804   3.566   2.017   2.331 -0.8315 -1.2119 -0.2432
   52TCq2    H4  805   3.579   2.192   1.935 -1.9459 -0.3534 -1.5083
   53TMC2    C1  806   4.609   0.257  11.473 -0.6146  0.3409  0.3261
   53TMC2    C2  807   0.023   0.245  11.472  0.1104 -0.3269  0.0892
   53TMC2    C3  808   0.090   0.311  11.574 -0.4811  0.5071  0.1312
   53TMC2    C4  809   4.540   0.343  11.562 -0.5758 -0.2715 -0.0874
   53TMC2    C5  810   4.614   0.394  11.662  0.1872  0.4578 -0.2932
   53TMC2    C6  811   0.028   0.390  11.658  0.2210  0.2573 -0.3402
   53TMC2     C  812   4.531   0.145  11.419  0.5625  0.0807  0.5640
   53TMC2     O  813   4.598   0.055  11.367  0.3599  0.3965 -0.2169
   53TMC2     H  814   0.067   0.168  11.411  1.4124  0.7339 -0.2974
   53TMC2    H1  815   4.432   0.354  11.557 -0.4749  0.2930 -0.9157
   53TMC2    H2  816   0.085   0.454  11.725 -0.6745 -1.2478  1.8619
   53TMC2    C7  817   4.539   0.448  11.770  0.1412  0.0211 -0.1666
   53TMC2    C8  818   0.237   0.321  11.571 -0.5990  0.2257 -0.2243
   53TMC2    O1  819   4.422   0.408  11.778  0.4799  0.8283 -0.1191
   53TMC2    O2  820   0.295   0.381  11.659 -0.1715 -0.1990  0.3135
   53TMC2    O5  821   0.269   0.339  11.439 -0.5409 -0.0987 -0.1550
   53TMC2    H5  822   0.185   0.344  11.388  0.1448  2.2844 -1.0326
   54MPD2     C  823   4.332   4.653  11.365  0.3955 -0.2241  0.5414
   54MPD2    C1  824   4.318   0.031  11.453 -0.2428 -0.5892 -0.3195
   54MPD2    C2  825   4.209   0.022  11.539  0.2572  0.2137 -0.1855
   54MPD2    C3  826   4.120   4.637  11.533 -0.8892  0.2161 -0.1458
   54MPD2    C4  827   4.138   4.533  11.436 -0.1558  0.0015 -0.2738
   54MPD2    C5  828   4.248   4.543  11.361 -0.5190 -0.1479 -0.0803
   54MPD2     H  829   4.192   0.095  11.617 -1.0780 -1.7133  1.3369
   54MPD2    H1  830   4.069   4.450  11.430  0.9473 -0.9910  0.9591
   54MPD2    H2  831   4.414   4.660  11.295 -0.8931  1.0621 -0.8207
   54MPD2    H3  832   4.268   4.470  11.283  2.3098 -0.8752  1.3348
   54MPD2     N  833   3.999   4.626  11.601 -0.3506 -0.7424  0.1710
   54MPD2    H5  834   3.944   4.545  11.574 -1.4262  0.0946 -0.1645
   54MPD2    N1  835   4.403   0.142  11.461  0.0407 -0.5409  0.0013
   54MPD2    H7  836   4.370   0.218  11.519  0.6561 -1.3424  1.3840
   55MPD2     C  837   4.389   3.560   0.013 -0.1602 -0.0270  0.0699
   55MPD2    C1  838   4.387   3.461   0.110  0.0428  0.0335 -0.2890
   55MPD2    C2  839   4.286   3.460   0.209 -0.1330  0.2197 -0.3839
   55MPD2    C3  840   4.173   3.548   0.197 -0.2343  1.0784  0.7028
   55MPD2    C4  841   4.175   3.640   0.096 -0.1198 -0.3487 -0.2003
   55MPD2    C5  842   4.277   3.639   0.003 -0.4419 -0.1491  0.8622
   55MPD2     H  843   4.299   3.390   0.291 -0.8056  0.4158 -0.1081
   55MPD2    H1  844   4.099   3.717   0.090 -1.4613 -1.6787 -0.2591
   55MPD2    H2  845   4.462   3.565  17.634  0.8034 -1.2164  0.8870
   55MPD2    H3  846   4.279   3.721  17.632 -0.8653 -2.1473 -1.4668
   55MPD2     N  847   4.070   3.559   0.289  0.6097 -0.3923 -0.0814
   55MPD2    H5  848   3.996   3.627   0.273  1.3364  0.4126 -0.0375
   55MPD2    N1  849   4.489   3.360   0.110  0.2185 -0.4238 -0.6285
   55MPD2    H7  850   4.562   3.375   0.041  0.0575 -0.0382 -0.7165
   56TCq2    C1  851   4.485   3.238   0.166  0.2900  0.5506  0.4412
   56TCq2    O2  852   4.394   3.185   0.233  0.3483 -0.9843  0.3109
   56TCq2    C2  853   4.616   3.171   0.161  0.0298 -0.1823 -0.0617
   56TCq2    C3  854   4.723   3.245   0.121  0.3371  0.0694  0.2049
   56TCq2    C4  855   0.124   3.183   0.123 -0.0510  0.3842  0.1706
   56TCq2    C5  856   0.135   3.067   0.187 -0.1732 -0.5195 -0.6425
   56TCq2    C6  857   0.030   2.997   0.232 -0.6201  0.2118  0.3695
   56TCq2    C7  858   4.628   3.045   0.216  0.7193 -0.2562 -0.7203
   56TCq2    C8  859   0.055   2.868   0.290  0.7475 -0.6058 -0.1492
   56TCq2    O4  860   0.170   2.827   0.275 -0.2626  0.5197 -0.2919
   56TCq2    C9  861   0.234   3.250   0.064  0.4934  0.4378 -0.5206
   56TCq2    O5  862   0.349   3.198   0.081 -0.2610 -0.4263  0.5657
   56TCq2    O6  863   0.215   3.376   0.047 -0.4508 -0.1981  0.3953
   56TCq2    H2  864   4.717   3.342   0.073 -0.1448 -0.0589  0.0109
   56TCq2    H3  865   0.238   3.035   0.200 -0.3556 -0.7551  0.2822
   56TCq2    H4  866   4.536   3.004   0.256  2.1722 -1.5706  1.2628
   57TMC2    C1  867   4.051   4.223  13.788  0.5392 -0.0497 -0.4594
   57TMC2    C2  868   4.126   4.304  13.703  0.1003 -0.1402 -0.4826
   57TMC2    C3  869   4.098   4.309  13.568  0.0078 -0.3207  0.1503
   57TMC2    C4  870   3.945   4.156  13.740  0.2295 -0.2273  0.2973
   57TMC2    C5  871   3.927   4.150  13.607  0.1501  0.4303  0.2120
   57TMC2    C6  872   4.002   4.223  13.518 -0.2644  0.0578 -0.3543
   57TMC2     C  873   4.038   4.263  13.926 -0.6805 -0.0159 -0.1364
   57TMC2     O  874   4.109   4.360  13.962 -0.6174  0.1258  0.1209
   57TMC2     H  875   4.202   4.372  13.741 -1.7556  0.8299  1.5138
   57TMC2    H1  876   3.879   4.091  13.797 -3.4195  0.1747 -3.4885
   57TMC2    H2  877   3.985   4.201  13.414  1.7177 -1.1697 -0.4214
   57TMC2    C7  878   3.842   4.045  13.555  0.1685  0.3907 -0.7184
   57TMC2    C8  879   4.192   4.370  13.480  0.5237  0.1662  0.1313
   57TMC2    O1  880   3.740   4.021  13.623 -0.0392 -0.5433  0.1984
   57TMC2    O2  881   4.303   4.403  13.520 -0.2485 -0.1008  0.2851
   57TMC2    O5  882   4.125   4.413  13.374 -0.0378  0.0009 -0.2547
   57TMC2    H5  883   4.030   4.392  13.371 -0.1709  0.8140 -1.3124
   58MPD2     C  884   3.806   4.278  14.383 -0.0843  0.1227  0.8253
   58MPD2    C1  885   3.869   4.379  14.313 -0.0416 -0.2591 -0.0375
   58MPD2    C2  886   3.916   4.346  14.188  0.8136 -0.2096 -0.0523
   58MPD2    C3  887   3.926   4.212  14.142 -0.0367 -0.3480  0.1171
   58MPD2    C4  888   3.867   4.122  14.221 -0.2384 -0.1751 -0.3453
   58MPD2    C5  889   3.812   4.149  14.339  0.1336  0.6312  0.4257
   58MPD2     H  890   3.958   4.427  14.129  1.4849 -0.4043  0.1517
   58MPD2    H1  891   3.868   4.015  14.203 -0.3783 -0.1343 -0.6033
   58MPD2    H2  892   3.758   4.308  14.475 -0.8351 -0.6484  0.6822
   58MPD2    H3  893   3.770   4.072  14.402 -2.0690  2.3708  1.0907
   58MPD2     N  894   3.969   4.182  14.009 -0.0347 -0.1289  0.5545
   58MPD2    H5  895   3.952   4.089  13.973 -0.9332 -0.4567  1.8468
   58MPD2    N1  896   3.877   4.512  14.366 -0.4524  0.5042 -0.4872
   58MPD2    H7  897   3.921   4.573  14.297 -0.0015  1.6502  0.8009
   59MPD2     C  898   2.041   4.238  13.630  0.1557  0.0934 -0.1646
   59MPD2    C1  899   2.037   4.350  13.550  0.0386 -0.2525  0.2984
   59MPD2    C2  900   2.118   4.460  13.587  0.2273  0.2680 -0.0693
   59MPD2    C3  901   2.200   4.456  13.691  1.0826  0.4592  0.4210
   59MPD2    C4  902   2.208   4.341  13.770  0.2846  0.4078  0.0851
   59MPD2    C5  903   2.121   4.236  13.738 -0.1354 -0.6531 -0.5024
   59MPD2     H  904   2.106   4.547  13.524  0.7959 -0.5504 -1.3017
   59MPD2    H1  905   2.281   4.331  13.850 -0.8971 -0.2682  1.0744
   59MPD2    H2  906   1.994   4.147  13.595 -0.0111 -0.9557  2.8400
   59MPD2    H3  907   2.123   4.140  13.788  1.1505 -1.0124 -1.2506
   59MPD2     N  908   2.299   4.558  13.720  0.0782 -0.4833 -0.6450
   59MPD2    H5  909   2.358   4.537  13.800 -1.2625 -1.4461  0.0880
   59MPD2    N1  910   1.971   4.355  13.424 -0.2222 -0.1255  0.0330
   59MPD2    H7  911   2.001   4.427  13.359 -1.0794  0.0193 -0.1961
   60TCq2    C1  912   1.864   4.278  13.394  0.8700  1.0083 -0.2318
   60TCq2    O2  913   1.788   4.219  13.474 -0.1147 -0.1275  0.4483
   60TCq2    C2  914   1.834   4.293  13.250  0.1100  0.1591  0.0412
   60TCq2    C3  915   1.716   4.249  13.207 -0.8553 -0.5758  0.4850
   60TCq2    C4  916   1.685   4.284  13.079 -0.1091  0.5966 -0.1085
   60TCq2    C5  917   1.768   4.357  12.998 -0.8403  0.5517  0.0124
   60TCq2    C6  918   1.891   4.392  13.039 -0.6050 -0.8628 -0.2742
   60TCq2    C7  919   1.930   4.356  13.166 -0.3479 -0.1837  0.0205
   60TCq2    C8  920   1.984   4.472  12.959  0.4108 -0.3717 -0.1824
   60TCq2    O4  921   2.102   4.444  12.969  0.0709 -0.2908 -0.1951
   60TCq2    C9  922   1.560   4.236  13.015 -0.5127  0.7020  0.0715
   60TCq2    O5  923   1.471   4.192  13.093  0.4636 -1.4353  0.8820
   60TCq2    O6  924   1.554   4.212  12.893  0.1249 -0.2610 -0.4327
   60TCq2    H2  925   1.654   4.187  13.270 -1.3179 -0.2567  0.3404
   60TCq2    H3  926   1.738   4.382  12.897  2.1680  2.2744 -0.4714
   60TCq2    H4  927   2.032   4.373  13.200 -0.5364  0.8189  0.0866
   61MPD2     C  928   1.259   0.595  14.404 -0.5172  0.7075  0.2479
   61MPD2    C1  929   1.347   0.683  14.463  0.2352  0.0978  0.2502
   61MPD2    C2  930   1.395   0.798  14.396  0.1465 -0.3734 -0.4514
   61MPD2    C3  931   1.344   0.820  14.266  0.8028 -0.8587 -0.0609
   61MPD2    C4  932   1.251   0.729  14.214  0.0830 -0.0900  0.0008
   61MPD2    C5  933   1.210   0.617  14.281 -0.6697 -0.1310 -0.2214
   61MPD2     H  934   1.469   0.861  14.444 -0.5037 -1.3390  1.8493
   61MPD2    H1  935   1.203   0.749  14.119  0.6041 -1.5079 -0.5584
   61MPD2    H2  936   1.219   0.507  14.452  1.0272 -0.2517 -0.2244
   61MPD2    H3  937   1.154   0.545  14.222  0.9848 -1.4480 -0.1656
   61MPD2     N  938   1.370   0.930  14.182 -0.2770 -0.7887 -0.3141
   61MPD2    H5  939   1.298   0.957  14.116 -1.1328 -1.3124  0.4071
   61MPD2    N1  940   1.390   0.669  14.598  0.4562  0.3274  0.3493
   61MPD2    H7  941   1.449   0.741  14.640 -0.9411  1.5741  0.1909
   62TCq2    C1  942   1.351   0.563  14.682  0.3884 -0.5224 -0.1455
   62TCq2    O2  943   1.300   0.460  14.650  0.3048 -0.4871 -0.3938
   62TCq2    C2  944   1.344   0.617  14.816  0.5848 -0.0821 -0.1300
   62TCq2    C3  945   1.274   0.533  14.892 -0.1065  0.3973 -0.3424
   62TCq2    C4  946   1.223   0.584  15.012  0.2019  1.2823 -0.2540
   62TCq2    C5  947   1.230   0.720  15.031 -0.2053 -0.4956  0.8160
   62TCq2    C6  948   1.296   0.801  14.951 -0.5406 -0.0016  0.4052
   62TCq2    C7  949   1.356   0.755  14.840  0.5149 -0.0758 -0.4682
   62TCq2    C8  950   1.287   0.944  14.957  0.0858 -0.5009  1.1599
   62TCq2    O4  951   1.356   1.010  14.879  0.4687 -0.2755  0.4864
   62TCq2    C9  952   1.145   0.503  15.095  0.4126 -0.1633 -0.8000
   62TCq2    O5  953   1.076   0.568  15.179 -0.9229  0.2218 -0.2778
   62TCq2    O6  954   1.160   0.380  15.079 -0.0972 -0.2494 -0.0310
   62TCq2    H2  955   1.278   0.427  14.868 -1.8682  0.3378 -0.3666
   62TCq2    H3  956   1.196   0.752  15.129 -0.6789 -0.1867  0.5504
   62TCq2    H4  957   1.401   0.823  14.770  1.2221  0.2094  0.2584
   63TMC2    C1  958   0.920   0.792  10.148  0.9357 -0.6808  0.2709
   63TMC2    C2  959   1.010   0.768  10.242  0.0774  0.1542 -0.3293
   63TMC2    C3  960   1.044   0.872  10.329  0.0231  0.8061  0.0433
   63TMC2    C4  961   0.875   0.917  10.110  0.2242 -0.1198  1.1076
   63TMC2    C5  962   0.921   1.017  10.188  0.8358 -0.9684  0.1739
   63TMC2    C6  963   0.989   1.002  10.307 -0.0772  0.1773  0.1058
   63TMC2     C  964   0.836   0.685  10.111  0.0461  0.4631 -0.4063
   63TMC2     O  965   0.760   0.690  10.016  0.5497 -0.0514 -0.5411
   63TMC2     H  966   1.067   0.677  10.235  0.9670  0.6286  0.6762
   63TMC2    H1  967   0.824   0.937  10.017  2.0994 -2.9347 -0.5325
   63TMC2    H2  968   1.010   1.078  10.382 -0.1058  1.3647 -1.0790
   63TMC2    C7  969   0.894   1.150  10.131  0.6105  0.1993  0.3114
   63TMC2    C8  970   1.107   0.821  10.456  0.1826 -0.5917  0.0109
   63TMC2    O1  971   0.801   1.173  10.060  0.0537 -0.3793  0.6282
   63TMC2    O2  972   1.067   0.846  10.571  0.0371 -0.2000  0.3184
   63TMC2    O5  973   1.201   0.727  10.423 -0.5322  0.0892 -0.3112
   63TMC2    H5  974   1.243   0.745  10.336  1.1401 -0.4735  0.3717
   64MPD2     C  975   0.591   0.262  10.269 -0.1591  0.2007 -0.1319
   64MPD2    C1  976   0.662   0.312  10.374 -0.3611  0.3933  0.3453
   64MPD2    C2  977   0.734   0.431  10.356  0.2092  0.9510  0.1202
   64MPD2    C3  978   0.740   0.489  10.231  0.6561 -0.1070  0.7012
   64MPD2    C4  979   0.656   0.444  10.127 -0.3829  0.3881  0.2680
   64MPD2    C5  980   0.589   0.328  10.145  0.6831  0.2838 -0.2527
   64MPD2     H  981   0.774   0.474  10.448 -0.7762 -0.4124  1.1926
   64MPD2    H1  982   0.665   0.489  10.028  1.4921 -3.1456 -1.1594
   64MPD2    H2  983   0.530   0.172  10.269  1.1170 -0.6634  1.6506
   64MPD2    H3  984   0.542   0.268  10.067  1.1533  0.9406 -1.0498
   64MPD2     N  985   0.810   0.613  10.219 -0.3045  0.6560 -0.5986
   64MPD2    H5  986   0.846   0.643  10.309  0.0176 -1.0934 -0.1437
   64MPD2    N1  987   0.675   0.250  10.503 -0.2478  0.5013 -0.1232
   64MPD2    H7  988   0.735   0.292  10.574  0.0584  2.8052 -1.7491
   65MPD2     C  989   1.780   0.467  15.967  0.0334  0.1716  0.6591
   65MPD2    C1  990   1.664   0.429  15.900  0.1655  0.3288  0.1811
   65MPD2    C2  991   1.674   0.305  15.838  0.2749  1.0739 -0.4788
   65MPD2    C3  992   1.778   0.221  15.836  0.4887 -0.3603  0.4439
   65MPD2    C4  993   1.892   0.268  15.885 -0.1307  0.3742  0.3898
   65MPD2    C5  994   1.894   0.388  15.953 -0.4868  0.7256 -0.8815
   65MPD2     H  995   1.577   0.262  15.816  0.1677  0.0489  1.9376
   65MPD2    H1  996   1.990   0.222  15.885 -0.3001  0.0119 -1.7159
   65MPD2    H2  997   1.771   0.545  16.041  0.1891  0.7610  0.0642
   65MPD2    H3  998   1.984   0.423  16.002  1.0153 -2.5782 -1.3346
   65MPD2     N  999   1.778   0.090  15.775 -0.0241 -0.1653 -0.2839
   65MPD2    H5 1000   1.864   0.036  15.785  1.1168  1.4956 -1.0552
   65MPD2    N1 1001   1.536   0.498  15.910  0.1381 -0.2744 -0.2262
   65MPD2    H7 1002   1.465   0.463  15.847  0.1702 -0.2297 -0.2875
   66TCq2    C1 1003   1.506   0.617  15.975 -0.5800 -0.1813 -0.5439
   66TCq2    O2 1004   1.575   0.689  16.045 -0.3370 -0.4997 -0.3517
   66TCq2    C2 1005   1.371   0.660  15.937  0.3867  0.4079  0.1897
   66TCq2    C3 1006   1.291   0.567  15.876  0.0535 -0.5361  0.2352
   66TCq2    C4 1007   1.229   0.601  15.757  0.0050  0.1837  0.5981
   66TCq2    C5 1008   1.236   0.730  15.716  0.7459 -0.2060  0.1111
   66TCq2    C6 1009   1.293   0.827  15.791 -0.5629  0.4508  0.1169
   66TCq2    C7 1010   1.373   0.795  15.896 -0.2208 -0.7498 -0.0851
   66TCq2    C8 1011   1.292   0.963  15.744  0.1530 -0.0615 -0.6113
   66TCq2    O4 1012   1.246   0.978  15.634  0.2012 -0.2187 -0.1654
   66TCq2    C9 1013   1.182   0.499  15.670  0.4717 -0.1479 -0.5170
   66TCq2    O5 1014   1.186   0.380  15.709  0.0689 -0.2525  0.1771
   66TCq2    O6 1015   1.191   0.528  15.546  0.8714 -0.0751  0.0473
   66TCq2    H2 1016   1.280   0.464  15.908  2.0556 -0.3346  1.5424
   66TCq2    H3 1017   1.198   0.755  15.618 -0.5515 -0.7463  0.4836
   66TCq2    H4 1018   1.447   0.857  15.946  0.7060 -2.4064  0.6254
   67MPD2     C 1019   1.872   0.329  14.096  0.3045  0.1202 -0.0306
   67MPD2    C1 1020   1.851   0.241  14.203  0.3755  0.4189  0.0677
   67MPD2    C2 1021   1.755   0.139  14.189 -0.1238  0.3188 -0.2204
   67MPD2    C3 1022   1.681   0.117  14.069  0.2740 -0.2361 -0.5420
   67MPD2    C4 1023   1.709   0.205  13.960 -0.2710  0.4673  0.2936
   67MPD2    C5 1024   1.798   0.314  13.978 -0.0568  0.4490  0.1699
   67MPD2     H 1025   1.742   0.077  14.277 -1.7612  2.0305  0.7373
   67MPD2    H1 1026   1.664   0.189  13.863 -0.0930  4.1687 -0.4163
   67MPD2    H2 1027   1.951   0.403  14.104  0.0897  0.5417 -1.8929
   67MPD2    H3 1028   1.819   0.375  13.891 -1.0076 -1.6928 -1.5703
   67MPD2     N 1029   1.570   0.037  14.049  0.3995 -0.2125  0.5210
   67MPD2    H5 1030   1.530   0.038  13.956  2.3274 -1.0316 -0.3214
   67MPD2    N1 1031   1.936   0.259  14.318 -0.5083  0.2657 -0.4761
   67MPD2    H7 1032   1.993   0.343  14.313 -0.3996  0.3817  2.4156
   68TCq2    C1 1033   1.953   0.168  14.421 -0.2108 -0.6792  0.1403
   68TCq2    O2 1034   1.931   0.052  14.414 -0.5872  0.0761 -0.3557
   68TCq2    C2 1035   2.040   0.218  14.531 -0.1818  0.1068  0.1586
   68TCq2    C3 1036   2.052   0.351  14.553  0.0398  0.1173 -0.3884
   68TCq2    C4 1037   2.137   0.391  14.655 -0.1518  0.2080  0.3956
   68TCq2    C5 1038   2.221   0.304  14.720  0.3655 -0.2769 -0.7130
   68TCq2    C6 1039   2.204   0.173  14.693 -0.1663  0.2591 -0.2928
   68TCq2    C7 1040   2.121   0.126  14.593 -0.4786 -0.3508 -0.0006
   68TCq2    C8 1041   2.301   0.075  14.746 -0.0025 -0.0884 -0.2447
   68TCq2    O4 1042   2.324   4.706  14.674  0.2176  0.0500 -0.4909
   68TCq2    C9 1043   2.150   0.532  14.684 -0.6299  0.2827 -0.2067
   68TCq2    O5 1044   2.072   0.608  14.619 -0.4450 -0.3313  0.2208
   68TCq2    O6 1045   2.239   0.569  14.763 -0.0726 -0.0392  0.0520
   68TCq2    H2 1046   1.992   0.427  14.504  0.9189  1.9871  1.4302
   68TCq2    H3 1047   2.297   0.346  14.785  1.9246  0.7883 -3.2632
   68TCq2    H4 1048   2.117   0.020  14.570 -0.9451 -0.6025  1.2378
   69TMC2    C1 1049   4.128   0.933  12.177  0.1349  0.2243  0.0192
   69TMC2    C2 1050   4.015   0.885  12.115 -0.4726  0.3585  0.0229
   69TMC2    C3 1051   4.031   0.845  11.983  0.6028 -0.3524 -0.2592
   69TMC2    C4 1052   4.254   0.944  12.110  0.0988 -0.5641  0.0607
   69TMC2    C5 1053   4.264   0.898  11.985  0.2484 -0.4155  0.7258
   69TMC2    C6 1054   4.152   0.847  11.923 -0.0115  0.5134 -0.0711
   69TMC2     C 1055   4.119   0.968  12.316  0.1687 -0.0928 -0.3701
   69TMC2     O 1056   4.018   0.941  12.371  0.3440 -0.4433  0.1433
   69TMC2     H 1057   3.918   0.900  12.161 -0.9337  0.9312 -1.1306
   69TMC2    H1 1058   4.343   0.962  12.170  0.0015  0.0218  0.0254
   69TMC2    H2 1059   4.158   0.839  11.815  3.6226 -1.2869  0.3011
   69TMC2    C7 1060   4.358   0.953  11.898  0.3636 -0.0858  0.5183
   69TMC2    C8 1061   3.915   0.797  11.915 -0.6802 -0.7772 -0.2335
   69TMC2    O1 1062   4.375   0.906  11.785 -0.1937 -0.1801  0.0359
   69TMC2    O2 1063   3.801   0.836  11.934 -0.1941  0.6618  0.1556
   69TMC2    O5 1064   3.944   0.688  11.833 -0.4235  0.5421  0.1421
   69TMC2    H5 1065   4.030   0.641  11.840 -1.4766 -0.9723  2.8933
   70MPD2     C 1066   4.304   1.171  12.546  0.2742  0.0053  0.2288
   70MPD2    C1 1067   4.247   1.060  12.505 -0.5313 -0.6817 -0.3136
   70MPD2    C2 1068   4.210   0.963  12.599 -0.3009  0.6013 -0.6577
   70MPD2    C3 1069   4.239   0.986  12.736 -0.1809  0.5318  1.0485
   70MPD2    C4 1070   4.289   1.110  12.774  0.7463 -0.0866  0.5150
   70MPD2    C5 1071   4.316   1.202  12.679 -0.7124  0.7360 -0.1340
   70MPD2     H 1072   4.178   0.863  12.570  1.6806 -0.5404  1.1094
   70MPD2    H1 1073   4.317   1.134  12.876  3.3756  0.8664 -0.4341
   70MPD2    H2 1074   4.332   1.249  12.475 -2.4494  0.7595 -0.0079
   70MPD2    H3 1075   4.356   1.299  12.706 -0.3816  0.6973 -0.4827
   70MPD2     N 1076   4.251   0.881  12.831 -0.7487  0.1437  1.1985
   70MPD2    H5 1077   4.310   0.900  12.911  0.9020  2.2000 -0.4943
   70MPD2    N1 1078   4.226   1.039  12.368  0.5313  0.1838  0.3593
   70MPD2    H7 1079   4.278   1.102  12.308  0.0298  0.6833  0.4498
   71TMC2    C1 1080   2.124   1.367   2.103  0.1332  0.3832  0.2040
   71TMC2    C2 1081   2.246   1.406   2.132 -0.3335  0.3216 -0.8106
   71TMC2    C3 1082   2.263   1.446   2.264 -0.4023 -0.0017  0.5433
   71TMC2    C4 1083   2.013   1.373   2.184 -0.4870  0.5809  0.0507
   71TMC2    C5 1084   2.033   1.417   2.309  0.2048 -0.5312 -0.1753
   71TMC2    C6 1085   2.164   1.449   2.357  0.2339  0.2928 -0.1543
   71TMC2     C 1086   2.100   1.326   1.959  0.0667  0.2774 -0.2312
   71TMC2     O 1087   2.185   1.354   1.874 -0.1062 -0.0284  1.2020
   71TMC2     H 1088   2.321   1.400   2.055 -1.9228  1.5628 -2.4644
   71TMC2    H1 1089   1.919   1.334   2.147  0.1030 -0.0596 -0.7809
   71TMC2    H2 1090   2.178   1.473   2.462 -2.3125 -0.0173  0.2530
   71TMC2    C7 1091   1.915   1.453   2.387 -0.5980 -1.0442 -0.4422
   71TMC2    C8 1092   2.386   1.513   2.296 -0.5300  0.4424  0.8674
   71TMC2    O1 1093   1.940   1.503   2.495  0.2503 -0.2152  0.2346
   71TMC2    O2 1094   2.401   1.524   2.417  0.2149 -0.3847  0.0351
   71TMC2    O5 1095   2.376   1.611   2.205 -0.4889  0.1857 -0.2762
   71TMC2    H5 1096   2.329   1.599   2.119 -0.2126 -0.7797 -0.2818
   72MPD2     C 1097   1.729   1.127   1.654  0.3185  0.8445 -1.0203
   72MPD2    C1 1098   1.830   1.217   1.618  0.5764 -0.1461 -0.3506
   72MPD2    C2 1099   1.927   1.249   1.706 -0.0991  0.1143 -0.2580
   72MPD2    C3 1100   1.924   1.196   1.834  0.2781  0.3916 -0.3492
   72MPD2    C4 1101   1.829   1.107   1.863  0.3271 -0.4424  0.8836
   72MPD2    C5 1102   1.731   1.081   1.775  0.6189 -0.2658 -0.9126
   72MPD2     H 1103   1.998   1.327   1.679  1.2251 -0.9408  0.1928
   72MPD2    H1 1104   1.819   1.060   1.961  0.4136 -0.5869  0.8237
   72MPD2    H2 1105   1.634   1.113   1.603  1.0043 -0.1631 -2.0274
   72MPD2    H3 1106   1.652   1.019   1.817 -1.6757  0.8107 -3.5837
   72MPD2     N 1107   2.002   1.231   1.948 -0.1522  0.3820 -0.2187
   72MPD2    H5 1108   1.979   1.189   2.038 -0.3567 -1.1225 -0.9808
   72MPD2    N1 1109   1.815   1.290   1.493  0.0597 -0.8806  0.1080
   72MPD2    H7 1110   1.869   1.376   1.490 -1.2331 -0.1025 -0.7779
   73TMC2    C1 1111   0.869   3.476  14.432  0.2559  0.1570 -0.3268
   73TMC2    C2 1112   0.840   3.351  14.387 -0.5612 -0.0930 -0.9432
   73TMC2    C3 1113   0.897   3.247  14.454  0.8846  0.4374  0.1090
   73TMC2    C4 1114   0.938   3.492  14.551 -0.2689  0.5659  0.5710
   73TMC2    C5 1115   0.996   3.392  14.613 -0.2841 -0.0305  0.1805
   73TMC2    C6 1116   0.967   3.267  14.571 -0.1892  0.6919 -0.2160
   73TMC2     C 1117   0.909   3.569  14.331 -0.1847  0.4679  0.6667
   73TMC2     O 1118   1.001   3.644  14.361 -0.0857  0.1130  0.4464
   73TMC2     H 1119   0.781   3.341  14.297 -2.4526 -0.3833  0.3295
   73TMC2    H1 1120   0.949   3.589  14.599 -2.9073  1.5087 -0.6852
   73TMC2    H2 1121   1.012   3.191  14.634  0.9179  1.5305  0.0077
   73TMC2    C7 1122   1.140   3.408  14.627  0.3495  0.6667 -0.0085
   73TMC2    C8 1123   0.837   3.114  14.448  0.7929  0.6731 -0.3673
   73TMC2    O1 1124   1.202   3.315  14.675  0.4110  0.1978  0.2048
   73TMC2    O2 1125   0.734   3.086  14.393 -0.0241 -0.3524 -0.0221
   73TMC2    O5 1126   0.951   3.055  14.431 -0.0973  0.5282  0.2435
   73TMC2    H5 1127   1.032   3.096  14.466  0.0474  0.0819  0.4254
   74MPD2     C 1128   0.918   3.815  13.881 -0.3027 -0.2584 -0.7044
   74MPD2    C1 1129   1.014   3.812  13.982  0.6251  0.5427 -0.0417
   74MPD2    C2 1130   0.985   3.738  14.095  0.1346 -0.3083 -0.3275
   74MPD2    C3 1131   0.867   3.661  14.110  0.5396 -0.2026 -0.4874
   74MPD2    C4 1132   0.768   3.679  14.016 -0.8807 -0.2914  0.3841
   74MPD2    C5 1133   0.796   3.753  13.904 -0.2956 -0.2593 -1.1142
   74MPD2     H 1134   1.059   3.726  14.173  0.7660 -0.9749 -1.0244
   74MPD2    H1 1135   0.672   3.630  14.017 -1.7150  1.3334 -0.2733
   74MPD2    H2 1136   0.926   3.866  13.786  0.0919  0.1903 -0.4338
   74MPD2    H3 1137   0.716   3.760  13.831 -2.6600  0.4555  1.5637
   74MPD2     N 1138   0.835   3.571  14.215  0.4842 -0.2181  0.4036
   74MPD2    H5 1139   0.755   3.509  14.210 -0.0797  0.4913  0.4998
   74MPD2    N1 1140   1.140   3.873  13.964 -0.6435 -0.1496 -0.0235
   74MPD2    H7 1141   1.159   3.901  13.868 -1.2350 -1.9074 -0.6675
   75TCq2    C1 1142   1.512   4.695  14.151  0.8120  0.2276 -0.7971
   75TCq2    O2 1143   1.558   4.680  14.264  0.1503 -0.1750 -0.4637
   75TCq2    C2 1144   1.376   4.636  14.136 -0.1276 -0.5680  0.2573
   75TCq2    C3 1145   1.300   4.610  14.246  0.2928  0.1488 -0.1275
   75TCq2    C4 1146   1.172   4.576  14.228 -0.3665 -0.1254  0.0277
   75TCq2    C5 1147   1.113   4.571  14.106  0.9097  0.7531 -0.3211
   75TCq2    C6 1148   1.193   4.599  14.001  0.5959  0.1101  0.4953
   75TCq2    C7 1149   1.323   4.631  14.011  0.3811 -0.6651  0.1655
   75TCq2    C8 1150   1.129   4.639  13.878 -0.2855 -0.3454 -0.3783
   75TCq2    O4 1151   1.196   4.639  13.775  0.2849 -0.0758 -0.4632
   75TCq2    C9 1152   1.098   4.545  14.346 -0.1198  0.4329  0.0110
   75TCq2    O5 1153   1.153   4.522  14.454  0.2133 -0.0935 -0.5321
   75TCq2    O6 1154   0.973   4.562  14.329  0.0665  0.6720 -0.4958
   75TCq2    H2 1155   1.340   4.617  14.347  2.5355 -0.6556 -0.9745
   75TCq2    H3 1156   1.013   4.528  14.100 -0.1768  3.2232  0.0399
   75TCq2    H4 1157   1.371   4.668  13.921 -0.7634  0.2279 -0.0735
   76MPD2     C 1158   0.666   0.441  11.955  0.0068  0.4553 -0.3111
   76MPD2    C1 1159   0.614   0.406  11.834 -0.5666 -0.1351 -0.6390
   76MPD2    C2 1160   0.626   0.275  11.802 -0.3391 -0.2264  0.1084
   76MPD2    C3 1161   0.672   0.181  11.892 -0.0393 -0.1549 -0.5428
   76MPD2    C4 1162   0.726   0.221  12.013  0.2178 -0.3190 -1.0416
   76MPD2    C5 1163   0.723   0.355  12.045  0.3116 -0.4457  0.8984
   76MPD2     H 1164   0.580   0.253  11.706  0.5855 -0.2967 -0.3244
   76MPD2    H1 1165   0.769   0.157  12.090 -0.0688  1.0455  0.2562
   76MPD2    H2 1166   0.656   0.547  11.977  1.7248  1.3707 -3.9690
   76MPD2    H3 1167   0.778   0.392  12.132  2.5385  1.0964 -1.1614
   76MPD2     N 1168   0.693   0.043  11.853 -0.3804  0.0996 -0.0898
   76MPD2    H5 1169   0.734   4.711  11.927 -0.4669  0.7114  0.4148
   76MPD2    N1 1170   0.544   0.496  11.748 -0.6965 -0.2198  0.0448
   76MPD2    H7 1171   0.480   0.456  11.679 -0.1952 -1.6471  0.3933
   77TCq2    C1 1172   0.665   4.713  11.730 -0.1772  0.1434  0.3634
   77TCq2    O2 1173   0.610   0.035  11.630 -0.1237 -0.6382  0.2786
   77TCq2    C2 1174   0.716   4.580  11.721  0.2644 -0.5120  0.0275
   77TCq2    C3 1175   0.650   4.496  11.634  0.0405 -0.1242 -0.2594
   77TCq2    C4 1176   0.685   4.369  11.623 -0.8327 -0.1479  0.7987
   77TCq2    C5 1177   0.793   4.312  11.696  0.0392  0.1033 -0.1903
   77TCq2    C6 1178   0.861   4.401  11.779  0.1184 -0.3785 -0.1414
   77TCq2    C7 1179   0.822   4.535  11.797 -0.6343  0.1542 -0.3488
   77TCq2    C8 1180   0.983   4.352  11.841 -0.4327  0.1336  0.7626
   77TCq2    O4 1181   1.022   4.240  11.808 -0.6717 -0.5588  0.4423
   77TCq2    C9 1182   0.622   4.292  11.523  0.0399 -0.5767  0.2438
   77TCq2    O5 1183   0.517   4.334  11.475 -0.2089  0.5688  0.8181
   77TCq2    O6 1184   0.662   4.171  11.498 -0.6075 -1.0154  0.1735
   77TCq2    H2 1185   0.564   4.528  11.578  1.4289  0.4824 -2.0363
   77TCq2    H3 1186   0.835   4.213  11.685 -2.9568 -1.0694 -1.1043
   77TCq2    H4 1187   0.882   4.610  11.846  0.8086 -1.1959 -0.0471
   78MPD1     C 1188   1.130   1.034   1.801 -0.6093  0.6056  0.1799
   78MPD1    C1 1189   1.044   1.061   1.901  0.2942  0.7996 -0.0117
   78MPD1    C2 1190   1.096   1.105   2.020 -0.0837  0.1625  0.4284
   78MPD1    C3 1191   1.227   1.131   2.039 -0.0111  0.5842  0.2080
   78MPD1    C4 1192   1.310   1.114   1.932  0.8721  0.4110 -0.3371
   78MPD1    C5 1193   1.257   1.069   1.816 -0.1743 -0.4969 -0.1634
   78MPD1     H 1194   1.027   1.108   2.103  1.0941 -1.6299  1.4556
   78MPD1    H1 1195   1.416   1.136   1.931  0.3666  2.9006  1.7708
   78MPD1    H2 1196   1.100   0.981   1.711 -0.2574  3.1050 -1.3931
   78MPD1    H3 1197   1.332   1.057   1.738  1.5656 -2.8576  1.8654
   78MPD1     N 1198   1.279   1.171   2.169 -0.4934  0.3969  0.1118
   78MPD1    H5 1199   1.377   1.197   2.176 -0.5973  0.7901  0.0890
   78MPD1    N1 1200   0.914   1.015   1.881 -0.0353  0.0839 -0.0153
   78MPD1    H6 1201   0.907   0.997   1.781 -4.7319  2.2720 -0.0503
   78MPD1    H7 1202   0.845   1.074   1.926  1.4331 -0.3444  2.8057
   79TCq2    C1 1203   1.216   1.196   2.296 -0.5415 -0.7326  0.4084
   79TCq2    O2 1204   1.095   1.207   2.313 -0.1127  0.6034 -0.3216
   79TCq2    C2 1205   1.310   1.203   2.405 -0.2319  0.5139  0.0654
   79TCq2    C3 1206   1.265   1.284   2.508  0.4365  0.6151 -0.0918
   79TCq2    C4 1207   1.350   1.311   2.609  0.1750  0.2343  0.8225
   79TCq2    C5 1208   1.475   1.262   2.613  0.0931 -0.0270 -0.0693
   79TCq2    C6 1209   1.516   1.176   2.513 -1.0805  0.1336  0.3714
   79TCq2    C7 1210   1.429   1.143   2.409 -0.4320 -0.2914  0.6923
   79TCq2    C8 1211   1.656   1.141   2.499  0.1828  0.6164  0.4769
   79TCq2    O4 1212   1.683   1.101   2.389 -0.0585  0.4001  0.1105
   79TCq2    C9 1213   1.300   1.390   2.721  0.2294  0.5082 -0.6509
   79TCq2    O5 1214   1.377   1.413   2.819  0.1249  0.0988 -0.1815
   79TCq2    O6 1215   1.179   1.423   2.729  0.6230 -1.0402 -0.2505
   79TCq2    H2 1216   1.162   1.316   2.511  0.3101  0.4097 -2.0594
   79TCq2    H3 1217   1.536   1.300   2.695 -0.6699  0.6939  0.1652
   79TCq2    H4 1218   1.462   1.078   2.329  0.3823  4.1411 -2.6084
   80MPD2     C 1219   0.195   0.139  11.857  0.0844  0.5440  0.4056
   80MPD2    C1 1220   0.066   0.092  11.871  0.0794 -0.0927  0.5551
   80MPD2    C2 1221   4.717   0.121  11.987 -0.4477 -0.6294  0.3945
   80MPD2    C3 1222   0.049   0.199  12.078 -0.3299 -0.7157 -0.0977
   80MPD2    C4 1223   0.172   0.256  12.060  0.1805 -0.1939 -0.9184
   80MPD2    C5 1224   0.251   0.226  11.947 -0.7609  0.8871  0.3605
   80MPD2     H 1225   4.623   0.073  12.010 -1.2386  1.0816  0.7714
   80MPD2    H1 1226   0.223   0.324  12.127  2.3159 -0.2784 -2.4543
   80MPD2    H2 1227   0.261   0.092  11.785  0.5236 -1.2974  1.9951
   80MPD2    H3 1228   0.356   0.253  11.945 -0.4692 -0.1595  1.7221
   80MPD2     N 1229   4.706   0.227  12.202  0.6453 -0.1158 -0.5027
   80MPD2    H5 1230   0.045   0.265  12.272 -1.1592  0.7692  0.6632
   80MPD2    N1 1231   0.001   4.725  11.782  0.0363  0.5537  0.0430
   80MPD2    H7 1232   4.652   4.664  11.816  0.2609 -0.2800 -0.9456
   81TCq2    C1 1233   0.050   4.689  11.659 -0.2632 -0.1526 -0.3162
   81TCq2    O2 1234   0.140   0.004  11.587  0.0250 -0.0001 -0.7063
   81TCq2    C2 1235   4.718   4.558  11.627  0.1388  1.0685 -0.1067
   81TCq2    C3 1236   0.069   4.494  11.539  0.0187  0.0491 -0.1008
   81TCq2    C4 1237   0.035   4.367  11.502  0.9891  0.6958 -0.5814
   81TCq2    C5 1238   4.647   4.305  11.553  0.4050  0.2033 -0.9305
   81TCq2    C6 1239   4.566   4.381  11.639  0.1302 -0.3714 -0.2067
   81TCq2    C7 1240   4.603   4.504  11.676 -0.2154  0.7340  1.0429
   81TCq2    C8 1241   4.423   4.349  11.637  0.0233  0.1821  0.4303
   81TCq2    O4 1242   4.378   4.292  11.536  0.2562 -0.3735  0.4426
   81TCq2    C9 1243   0.120   4.289  11.419  0.1440  0.0127  0.1519
   81TCq2    O5 1244   0.238   4.332  11.400 -0.4545 -0.1548 -0.6913
   81TCq2    O6 1245   0.083   4.174  11.395 -0.5808 -0.6475 -0.2232
   81TCq2    H2 1246   0.157   4.533  11.489 -1.2898  1.5624 -1.1958
   81TCq2    H3 1247   4.620   4.207  11.516 -0.8038  0.3486 -0.4351
   81TCq2    H4 1248   4.537   4.552  11.748  0.3449  2.0949  0.6503
   82MPD2     C 1249   2.196   4.686  10.678 -0.4720  0.4114 -0.2476
   82MPD2    C1 1250   2.149   4.555  10.675  0.4127 -0.3918  0.4782
   82MPD2    C2 1251   2.177   4.472  10.772 -0.0231 -0.6555  0.0711
   82MPD2    C3 1252   2.242   4.508  10.889 -0.2731 -0.4059 -0.2906
   82MPD2    C4 1253   2.275   4.641  10.906  0.4484  0.2134 -0.0110
   82MPD2    C5 1254   2.260   4.723  10.796  0.0004 -0.3575 -0.8079
   82MPD2     H 1255   2.138   4.371  10.767 -1.2752 -0.2619  2.0297
   82MPD2    H1 1256   2.309   4.674  11.003  2.9865 -0.2578 -0.7535
   82MPD2    H2 1257   2.184   0.037  10.602  1.1300  0.9741  0.0577
   82MPD2    H3 1258   2.294   0.100  10.812 -1.3567  0.1019 -0.8743
   82MPD2     N 1259   2.258   4.432  11.005 -0.8773  0.5133 -0.2359
   82MPD2    H5 1260   2.277   4.473  11.096  2.4096 -0.7307 -0.3519
   82MPD2    N1 1261   2.063   4.514  10.576  0.5065  0.1946 -0.5107
   82MPD2    H7 1262   2.030   4.583  10.509 -0.9275 -1.3818 -1.4255
   83TCq2    C1 1263   2.240   4.303  11.012  0.0653  0.1194  0.1862
   83TCq2    O2 1264   2.235   4.225  10.920 -0.3666  0.2305 -0.0411
   83TCq2    C2 1265   2.228   4.260  11.146 -0.5400 -0.0850  0.7814
   83TCq2    C3 1266   2.210   4.351  11.247 -0.4810 -0.1289  0.4112
   83TCq2    C4 1267   2.201   4.298  11.372  0.4459 -0.4142 -1.1982
   83TCq2    C5 1268   2.203   4.165  11.394 -0.4633  0.3187 -0.2023
   83TCq2    C6 1269   2.206   4.074  11.291  0.3083  0.3993 -0.0678
   83TCq2    C7 1270   2.220   4.122  11.167 -0.3670  0.4398 -0.1620
   83TCq2    C8 1271   2.177   3.938  11.318 -0.2005  0.8348 -0.9861
   83TCq2    O4 1272   2.130   3.913  11.430 -0.2935  1.0647  0.3392
   83TCq2    C9 1273   2.180   4.381  11.481 -0.3473  0.4127 -0.1155
   83TCq2    O5 1274   2.161   4.322  11.593 -0.1898  0.2634 -0.3542
   83TCq2    O6 1275   2.200   4.504  11.457 -0.1359  0.2408 -0.1157
   83TCq2    H2 1276   2.205   4.459  11.237  0.6600 -0.2515 -1.4548
   83TCq2    H3 1277   2.184   4.130  11.495 -3.9550  1.4258 -0.5073
   83TCq2    H4 1278   2.213   4.055  11.083  2.8309  1.4771 -1.2711
   84TCq2    C1 1279   3.487   3.567  10.429 -0.2729  0.4029  0.9871
   84TCq2    O2 1280   3.516   3.679  10.397  0.2097 -0.2330 -1.1362
   84TCq2    C2 1281   3.482   3.547  10.575  0.2514  0.0337 -0.4420
   84TCq2    C3 1282   3.482   3.418  10.614 -0.2536 -0.1132  0.7073
   84TCq2    C4 1283   3.450   3.391  10.744  0.0508 -0.5079  0.8654
   84TCq2    C5 1284   3.414   3.489  10.833  0.3630  1.3045 -0.1516
   84TCq2    C6 1285   3.403   3.615  10.781  0.3511 -0.2529 -0.8120
   84TCq2    C7 1286   3.434   3.649  10.649  0.7569 -0.2136  0.1365
   84TCq2    C8 1287   3.350   3.708  10.885  0.1177 -0.6165 -0.4148
   84TCq2    O4 1288   3.340   3.662  10.999 -0.3212 -0.7279 -0.0923
   84TCq2    C9 1289   3.432   3.255  10.787  0.2556 -0.4515 -0.2765
   84TCq2    O5 1290   3.428   3.160  10.706 -0.2149  0.8100  0.0241
   84TCq2    O6 1291   3.449   3.234  10.911 -0.1641  0.0026 -0.0531
   84TCq2    H2 1292   3.515   3.335  10.552 -1.0003 -0.0211  0.1842
   84TCq2    H3 1293   3.384   3.458  10.932 -0.2312  2.2790 -0.0291
   84TCq2    H4 1294   3.445   3.751  10.615 -0.4679 -1.0031 -2.5876
   85MPD2     C 1295   3.533   1.592  16.159 -0.6328 -1.1526 -0.0332
   85MPD2    C1 1296   3.638   1.507  16.121  0.4650 -0.9912 -0.5163
   85MPD2    C2 1297   3.741   1.560  16.049 -0.3149  0.4681 -0.7526
   85MPD2    C3 1298   3.756   1.691  16.013 -0.2938 -0.6467  0.1864
   85MPD2    C4 1299   3.649   1.778  16.052 -0.8016 -1.1989 -0.3425
   85MPD2    C5 1300   3.539   1.721  16.118 -0.6143  0.1498  0.4826
   85MPD2     H 1301   3.812   1.488  16.009  0.9391  0.6240  1.1725
   85MPD2    H1 1302   3.658   1.885  16.038  0.3439 -1.2970 -0.3162
   85MPD2    H2 1303   3.445   1.563  16.214  0.1321 -0.5800  1.4860
   85MPD2    H3 1304   3.455   1.788  16.134 -3.1811 -2.8132 -0.5073
   85MPD2     N 1305   3.882   1.740  15.966  0.4375 -0.2973  0.6222
   85MPD2    H5 1306   3.949   1.666  15.985  0.2327 -0.3447  1.1746
   85MPD2    N1 1307   3.639   1.368  16.148 -0.7269  0.0439  0.2924
   85MPD2    H7 1308   3.720   1.313  16.121 -0.6825 -0.1770  0.8751
   86TCq2    C1 1309   3.895   1.860  15.907 -0.0219 -0.7624  0.1519
   86TCq2    O2 1310   3.807   1.937  15.873 -0.1909 -0.7374 -0.2631
   86TCq2    C2 1311   4.029   1.880  15.858  0.6098  0.2298  0.0066
   86TCq2    C3 1312   4.055   1.999  15.805 -0.2170 -0.1775 -0.0242
   86TCq2    C4 1313   4.153   2.011  15.712  0.0667  0.2771 -0.3212
   86TCq2    C5 1314   4.236   1.909  15.688 -0.5634 -0.2348  0.0356
   86TCq2    C6 1315   4.212   1.785  15.742  0.0987  0.2076  0.4631
   86TCq2    C7 1316   4.104   1.770  15.822 -0.7433  0.1740  0.2212
   86TCq2    C8 1317   4.288   1.667  15.687  0.1333  0.4378 -0.0256
   86TCq2    O4 1318   4.313   1.576  15.760 -0.2631  0.1491  0.2417
   86TCq2    C9 1319   4.176   2.138  15.645  0.2438 -0.0812 -0.8339
   86TCq2    O5 1320   4.137   2.249  15.691  0.7502  0.2225  0.1592
   86TCq2    O6 1321   4.252   2.123  15.543 -1.0006  0.2324  0.2889
   86TCq2    H2 1322   3.996   2.085  15.835  1.0136 -0.0613  2.0533
   86TCq2    H3 1323   4.324   1.914  15.624 -0.7536  0.6027 -0.1678
   86TCq2    H4 1324   4.089   1.669  15.859  1.7748  0.0445  0.8675
   87MPD2     C 1325   2.178   4.644   0.925 -0.3822  0.1725 -0.3883
   87MPD2    C1 1326   2.115   4.663   1.048 -0.4932 -0.8580  0.1765
   87MPD2    C2 1327   2.009   0.032   1.061  0.1231 -0.0885  0.2104
   87MPD2    C3 1328   1.976   0.106   0.945 -0.2395 -0.7838  0.1907
   87MPD2    C4 1329   2.057   0.093   0.833 -0.6835 -0.3267  0.2255
   87MPD2    C5 1330   2.154   4.724   0.817 -0.3703 -0.0972  0.3413
   87MPD2     H 1331   1.974   0.045   1.162  1.8152  1.0605  0.6389
   87MPD2    H1 1332   2.036   0.158   0.749  1.1048  0.8521  0.7057
   87MPD2    H2 1333   2.248   4.564   0.904 -0.3983  0.0290  0.1048
   87MPD2    H3 1334   2.214   4.708   0.728 -0.6350 -1.5396  0.4183
   87MPD2     N 1335   1.888   0.217   0.948 -0.5602 -0.0480  0.1123
   87MPD2    H5 1336   1.908   0.285   0.875 -1.3120  0.7577  0.6631
   87MPD2    N1 1337   2.159   4.583   1.156  0.8092  0.1149 -0.3466
   87MPD2    H7 1338   2.243   4.529   1.139  0.8012 -0.3315  1.0633
   88TCq2    C1 1339   2.112   4.575   1.282 -0.1520  0.4346  0.1336
   88TCq2    O2 1340   2.056   4.666   1.342  0.0081  0.0680 -0.2523
   88TCq2    C2 1341   2.181   4.467   1.362 -0.6214  0.1620  0.2444
   88TCq2    C3 1342   2.252   4.499   1.471  0.3464  0.0974  0.1597
   88TCq2    C4 1343   2.352   4.424   1.521 -0.2718 -0.1620 -0.1569
   88TCq2    C5 1344   2.391   4.307   1.459 -0.2027 -0.5838  0.3853
   88TCq2    C6 1345   2.318   4.268   1.349  0.6762  0.1904  0.1020
   88TCq2    C7 1346   2.214   4.351   1.303  0.6817 -0.1021 -0.1482
   88TCq2    C8 1347   2.366   4.172   1.254 -0.8889 -0.1404 -0.2756
   88TCq2    O4 1348   2.299   4.154   1.154 -0.0486  0.0475 -0.4905
   88TCq2    C9 1349   2.446   4.484   1.609  0.4141 -0.3315 -0.8597
   88TCq2    O5 1350   2.415   4.602   1.641 -1.2352 -0.8454 -0.5013
   88TCq2    O6 1351   2.539   4.414   1.661 -0.6029  0.3524 -0.1275
   88TCq2    H2 1352   2.236   4.595   1.518  0.0549 -0.4139  1.1067
   88TCq2    H3 1353   2.474   4.250   1.501  0.0980  0.8339  1.7416
   88TCq2    H4 1354   2.153   4.322   1.218 -0.9457 -2.9684  1.9966
   89MPD2     C 1355   2.556   2.748   2.306 -0.2858 -0.0224 -0.5787
   89MPD2    C1 1356   2.428   2.711   2.284  0.0699  0.0892  0.1803
   89MPD2    C2 1357   2.342   2.802   2.218 -0.1823 -0.3248 -0.4850
   89MPD2    C3 1358   2.392   2.907   2.145  0.1741  0.3265  0.9171
   89MPD2    C4 1359   2.524   2.940   2.175 -0.1421 -0.2785  0.4008
   89MPD2    C5 1360   2.600   2.867   2.259 -0.3382 -0.6843 -0.0325
   89MPD2     H 1361   2.239   2.769   2.202 -0.0710 -1.4761  1.1952
   89MPD2    H1 1362   2.564   3.024   2.120  0.2051  0.8671  2.3841
   89MPD2    H2 1363   2.636   2.684   2.341  2.5308  3.6261 -0.3689
   89MPD2    H3 1364   2.703   2.893   2.281  0.1840 -0.3025 -2.8398
   89MPD2     N 1365   2.307   2.979   2.054 -0.4183  0.1994  0.3713
   89MPD2    H5 1366   2.206   2.968   2.060 -0.4637  0.5277  0.1918
   89MPD2    N1 1367   2.364   2.590   2.332  0.2683 -0.3068 -0.9544
   89MPD2    H7 1368   2.264   2.589   2.312  0.0759 -1.5323  0.0228
   90TCq2    C1 1369   2.347   3.074   1.962 -0.4970  0.1226  0.3829
   90TCq2    O2 1370   2.458   3.104   1.925  0.4601  0.7754  0.0892
   90TCq2    C2 1371   2.231   3.133   1.890 -0.3995  0.4306 -0.1682
   90TCq2    C3 1372   2.106   3.119   1.951  0.5324  0.7678  0.7938
   90TCq2    C4 1373   1.986   3.121   1.881 -0.1088  0.1037  0.3817
   90TCq2    C5 1374   1.995   3.142   1.749  0.1183 -0.7175 -0.1665
   90TCq2    C6 1375   2.116   3.135   1.686 -0.1341 -0.1406  0.0085
   90TCq2    C7 1376   2.239   3.144   1.751 -0.1717 -0.0208 -0.0266
   90TCq2    C8 1377   2.118   3.141   1.538  0.3749  0.5519  0.1545
   90TCq2    O4 1378   2.212   3.175   1.472  0.4853 -0.1617 -0.3770
   90TCq2    C9 1379   1.867   3.102   1.954  0.0440 -0.1801 -0.5828
   90TCq2    O5 1380   1.760   3.139   1.899  0.1905 -0.6471 -0.0758
   90TCq2    O6 1381   1.877   3.041   2.060 -0.6574  0.8516  0.0817
   90TCq2    H2 1382   2.094   3.123   2.058  2.5802  0.1878  1.0505
   90TCq2    H3 1383   1.896   3.167   1.711  0.1335  1.0883  0.9416
   90TCq2    H4 1384   2.324   3.121   1.689  0.8643 -2.8535  2.4787
   91TMC2    C1 1385   4.119   2.521  16.868  0.6832  0.0358 -0.4064
   91TMC2    C2 1386   4.172   2.546  16.742  0.5329  0.3570  0.7499
   91TMC2    C3 1387   4.093   2.607  16.655  0.9820  0.2015 -0.4147
   91TMC2    C4 1388   3.992   2.568  16.905 -0.4989  0.5960 -0.1596
   91TMC2    C5 1389   3.931   2.646  16.819  0.5063 -1.1545  0.4960
   91TMC2    C6 1390   3.971   2.659  16.689  0.2984  0.1739  0.9604
   91TMC2     C 1391   4.201   2.489  16.985  0.2816 -0.4217  0.3522
   91TMC2     O 1392   4.136   2.456  17.080 -0.2864  0.3466 -0.8182
   91TMC2     H 1393   4.261   2.491  16.714  0.5367  0.8148 -0.1310
   91TMC2    H1 1394   3.950   2.550  17.004 -0.3060 -1.0776 -0.3843
   91TMC2    H2 1395   3.922   2.717  16.612 -0.1491  0.5833  1.5576
   91TMC2    C7 1396   3.783   2.655  16.845 -0.5824  0.1899 -0.1740
   91TMC2    C8 1397   4.147   2.617  16.524 -0.4235 -0.0100 -0.4488
   91TMC2    O1 1398   3.739   2.676  16.960  0.1495 -0.3907  0.1074
   91TMC2    O2 1399   4.078   2.653  16.426 -0.2906  0.2799 -1.1837
   91TMC2    O5 1400   4.281   2.656  16.540  0.2954  0.0896 -0.4570
   91TMC2    H5 1401   4.311   2.654  16.633  1.4360  0.7738 -0.8009
   92MPD2     C 1402   4.406   2.400  17.192 -0.7259 -0.1901  0.9065
   92MPD2    C1 1403   4.430   2.464  17.074 -0.5764 -0.0106  0.1449
   92MPD2    C2 1404   4.563   2.485  17.043 -0.2487 -0.1600 -0.3729
   92MPD2    C3 1405   4.660   2.466  17.135 -0.5991  0.3440 -0.4108
   92MPD2    C4 1406   4.635   2.409  17.256 -0.9557  0.0440 -0.5186
   92MPD2    C5 1407   4.507   2.376  17.279 -1.1141 -0.4016  0.1668
   92MPD2     H 1408   4.602   2.538  16.957  0.1400  0.7911  0.3903
   92MPD2    H1 1409   4.699   2.379  17.337 -0.5456  1.0002 -0.4812
   92MPD2    H2 1410   4.305   2.388  17.230 -1.2607  0.9336 -0.1725
   92MPD2    H3 1411   4.476   2.322  17.367  1.1640  1.6214  2.1776
   92MPD2     N 1412   0.061   2.526  17.106  0.1176 -0.2201 -0.4114
   92MPD2    H5 1413   0.064   2.565  17.012  1.8831 -1.9824 -1.0814
   92MPD2    N1 1414   4.336   2.503  16.973 -0.2163  0.0682 -0.1875
   92MPD2    H7 1415   4.371   2.559  16.895 -0.9261  2.6213  1.3684
   93MPD2     C 1416   0.723   3.349  13.930 -0.0983  0.0625  0.4360
   93MPD2    C1 1417   0.753   3.234  14.005  0.5170 -0.2245  0.2246
   93MPD2    C2 1418   0.651   3.144  14.030  0.4942  0.1050  0.0051
   93MPD2    C3 1419   0.522   3.170  13.992 -0.0281  0.0151  0.3572
   93MPD2    C4 1420   0.492   3.283  13.916  0.4282 -0.1864 -0.3451
   93MPD2    C5 1421   0.597   3.370  13.888 -0.7547  0.1305  0.0796
   93MPD2     H 1422   0.673   3.057  14.091 -0.0745  0.3644  0.5775
   93MPD2    H1 1423   0.390   3.306  13.889  0.5657 -0.1655 -0.8404
   93MPD2    H2 1424   0.794   3.426  13.902 -0.2070 -0.6761 -1.8828
   93MPD2    H3 1425   0.580   3.457  13.826 -1.0284 -0.8578 -1.2278
   93MPD2     N 1426   0.421   3.071  14.013  0.2673  0.3374 -0.2638
   93MPD2    H5 1427   0.339   3.081  13.954 -0.3398 -1.1532  0.3379
   93MPD2    N1 1428   0.881   3.194  14.048 -0.0609 -0.6689 -0.0816
   93MPD2    H7 1429   0.883   3.117  14.114  0.2423 -0.2392  0.4151
   94TCq2    C1 1430   0.994   3.241  13.984  0.5631  0.1253 -0.0816
   94TCq2    O2 1431   1.003   3.321  13.894 -0.5217  0.1096 -0.3271
   94TCq2    C2 1432   1.122   3.194  14.035 -0.3344  0.5042  0.5351
   94TCq2    C3 1433   1.141   3.189  14.174 -0.0441  0.5396  0.5569
   94TCq2    C4 1434   1.262   3.166  14.218 -0.4132  0.3660 -0.5620
   94TCq2    C5 1435   1.366   3.143  14.128  0.5024  0.2291  0.0221
   94TCq2    C6 1436   1.350   3.156  13.996 -0.2140 -0.0602 -0.0358
   94TCq2    C7 1437   1.227   3.186  13.945  0.2085  0.6420 -0.4603
   94TCq2    C8 1438   1.470   3.130  13.912 -0.2750  0.3631  0.5522
   94TCq2    O4 1439   1.578   3.105  13.961 -0.2139  0.3702 -0.6072
   94TCq2    C9 1440   1.292   3.161  14.360  0.3127 -0.5313  0.7282
   94TCq2    O5 1441   1.415   3.194  14.395  0.1992  0.2082  0.4198
   94TCq2    O6 1442   1.193   3.136  14.440  0.3010 -0.5175 -0.7212
   94TCq2    H2 1443   1.061   3.195  14.246 -2.4146 -0.1678 -2.0061
   94TCq2    H3 1444   1.465   3.128  14.171  0.5823  0.5349 -0.0551
   94TCq2    H4 1445   1.212   3.190  13.838 -0.7161  0.0417 -0.3531
   95TMC2    C1 1446   0.912   4.133  16.041 -0.1809 -0.6932 -0.4111
   95TMC2    C2 1447   0.929   4.140  16.181  0.0661 -0.4235  0.3494
   95TMC2    C3 1448   0.821   4.101  16.260  0.4536 -0.0189  0.3072
   95TMC2    C4 1449   0.794   4.083  15.984  0.3341  0.1377  0.2846
   95TMC2    C5 1450   0.702   4.034  16.069  0.3235  0.5642 -0.5383
   95TMC2    C6 1451   0.716   4.030  16.202 -0.5820 -0.3514 -0.5680
   95TMC2     C 1452   1.028   4.171  15.955  0.1434 -0.1529  0.1794
   95TMC2     O 1453   1.122   4.244  15.992 -0.8200  0.5007 -0.5241
   95TMC2     H 1454   1.019   4.184  16.222 -0.4258 -0.6072  1.6110
   95TMC2    H1 1455   0.783   4.076  15.876 -1.7424 -1.8238  0.6266
   95TMC2    H2 1456   0.629   4.004  16.261  0.2345  0.1131  0.8541
   95TMC2    C7 1457   0.578   3.984  16.014 -0.8034  1.1839 -0.1519
   95TMC2    C8 1458   0.840   4.091  16.399  0.1584  0.2358  0.2235
   95TMC2    O1 1459   0.540   3.884  16.076  0.7650  0.3915 -0.0754
   95TMC2    O2 1460   0.739   4.089  16.468 -0.0367  0.1668  0.0717
   95TMC2    O5 1461   0.933   3.993  16.401  0.1759  0.1542  0.7779
   95TMC2    H5 1462   0.982   3.993  16.316  1.0073  4.4615  1.2625
   96MPD2     C 1463   1.311   4.066  15.526  0.5512  0.5863  0.1057
   96MPD2    C1 1464   1.335   4.163  15.619  0.1690  0.2895 -0.6834
   96MPD2    C2 1465   1.236   4.183  15.719 -0.2714  0.3574 -0.4631
   96MPD2    C3 1466   1.130   4.090  15.738 -0.1997  0.2402  0.1787
   96MPD2    C4 1467   1.114   4.000  15.639  0.0449  0.2300  0.2988
   96MPD2    C5 1468   1.198   3.983  15.536  0.0581 -0.2024 -0.1454
   96MPD2     H 1469   1.240   4.270  15.784 -0.6670  1.4126 -1.8660
   96MPD2    H1 1470   1.031   3.932  15.657  0.2906 -0.3129 -0.6197
   96MPD2    H2 1471   1.376   4.063  15.439 -0.6622  1.2180 -0.8188
   96MPD2    H3 1472   1.177   3.911  15.458 -0.6463  1.8244 -1.8203
   96MPD2     N 1473   1.034   4.090  15.846  0.0595 -0.0538  0.8570
   96MPD2    H5 1474   0.963   4.018  15.838  1.0926 -1.0175  0.1930
   96MPD2    N1 1475   1.443   4.248  15.590  0.2681 -0.0832 -0.1985
   96MPD2    H7 1476   1.493   4.233  15.503 -1.3387  2.1496 -1.5165
   97MPD2     C 1477   3.954   2.460   1.352  0.1338 -0.5831  0.6126
   97MPD2    C1 1478   3.825   2.461   1.316 -0.8022 -0.5900  0.4210
   97MPD2    C2 1479   3.794   2.376   1.214 -0.6376 -0.3860 -0.2069
   97MPD2    C3 1480   3.883   2.300   1.145  0.2610  0.8763 -0.6300
   97MPD2    C4 1481   4.017   2.321   1.171 -0.0934 -0.3447  0.1301
   97MPD2    C5 1482   4.050   2.405   1.271  0.6367 -0.3904 -0.2586
   97MPD2     H 1483   3.687   2.367   1.198  0.1640 -0.9085 -4.9783
   97MPD2    H1 1484   4.098   2.271   1.120  1.3106  1.7623  0.2750
   97MPD2    H2 1485   3.984   2.513   1.442 -2.5482 -0.0743  1.1949
   97MPD2    H3 1486   4.155   2.415   1.296  0.5894 -2.7324  0.9142
   97MPD2     N 1487   3.849   2.200   1.046  0.4945 -0.0235  0.0851
   97MPD2    H5 1488   3.922   2.142   1.006  0.0181 -0.6677  0.1485
   97MPD2    N1 1489   3.734   2.526   1.400  0.4325  0.4286 -0.6379
   97MPD2    H7 1490   3.763   2.565   1.489 -0.4441 -0.0846 -0.1289
   98TCq2    C1 1491   3.727   2.184   0.991  0.3763  0.0448 -0.1414
   98TCq2    O2 1492   3.626   2.258   0.996 -0.8220 -0.5650 -0.1901
   98TCq2    C2 1493   3.729   2.067   0.905  0.3016  0.0117  0.9833
   98TCq2    C3 1494   3.804   1.954   0.933 -0.2612 -0.4165  0.1042
   98TCq2    C4 1495   3.782   1.845   0.852 -0.5392  0.3516 -0.1556
   98TCq2    C5 1496   3.702   1.849   0.744 -0.2928 -0.2897 -0.2495
   98TCq2    C6 1497   3.619   1.959   0.724  0.8082  0.0532 -0.2199
   98TCq2    C7 1498   3.645   2.073   0.792 -0.7392 -1.1084  0.0148
   98TCq2    C8 1499   3.575   1.983   0.592  0.0674  0.3231 -0.1293
   98TCq2    O4 1500   3.638   1.926   0.505 -0.7049 -0.4048 -0.4415
   98TCq2    C9 1501   3.849   1.725   0.885  1.0109 -0.0521 -0.0207
   98TCq2    O5 1502   3.849   1.626   0.808  0.4865  0.3236 -0.3396
   98TCq2    O6 1503   3.920   1.737   0.991 -1.0000 -0.9455 -0.3884
   98TCq2    H2 1504   3.868   1.956   1.021  1.0940  1.2624 -0.9007
   98TCq2    H3 1505   3.685   1.764   0.679 -0.3065 -1.8705  1.8045
   98TCq2    H4 1506   3.577   2.157   0.779  1.1290  0.5418  0.8379
   99MPD2     C 1507   2.147   3.483   1.686 -0.1643 -0.0114  0.0808
   99MPD2    C1 1508   2.013   3.487   1.729 -0.3394  0.0764  0.1757
   99MPD2    C2 1509   1.906   3.518   1.644 -0.8706  0.1868 -1.0576
   99MPD2    C3 1510   1.932   3.523   1.506 -0.2356 -0.2885 -0.2900
   99MPD2    C4 1511   2.063   3.517   1.460 -0.0696 -0.9705  0.2514
   99MPD2    C5 1512   2.163   3.508   1.550 -0.3302  1.1166 -0.3191
   99MPD2     H 1513   1.806   3.531   1.682  0.3438 -0.6092  2.3796
   99MPD2    H1 1514   2.090   3.522   1.355 -2.5797  1.4007 -0.2823
   99MPD2    H2 1515   2.230   3.466   1.754  1.4642 -0.5514 -2.0231
   99MPD2    H3 1516   2.265   3.521   1.516  0.4658  0.2159  1.7368
   99MPD2     N 1517   1.833   3.527   1.409  0.6451 -1.0195 -0.3688
   99MPD2    H5 1518   1.853   3.535   1.310 -0.1933 -1.3368 -0.5629
   99MPD2    N1 1519   1.987   3.463   1.862  0.0510  0.4227  0.3606
   99MPD2    H7 1520   1.891   3.463   1.895  0.2372  0.7999  0.9153
  100TCq2    C1 1521   2.075   3.486   1.963  0.8472 -0.1715 -0.7115
  100TCq2    O2 1522   2.189   3.529   1.961  0.1862 -0.2873 -0.8054
  100TCq2    C2 1523   2.018   3.496   2.097 -0.4918 -0.0836  0.2970
  100TCq2    C3 1524   2.108   3.475   2.200 -0.1341  0.1812 -0.0580
  100TCq2    C4 1525   2.053   3.462   2.332  0.8008 -0.3454  0.3722
  100TCq2    C5 1526   1.923   3.481   2.354  0.8977 -0.0044  0.2163
  100TCq2    C6 1527   1.840   3.500   2.249 -1.0363 -0.1410  0.2416
  100TCq2    C7 1528   1.884   3.508   2.120  0.0159  0.2480 -0.6781
  100TCq2    C8 1529   1.701   3.518   2.287  0.2092  0.5644  0.2313
  100TCq2    O4 1530   1.671   3.557   2.401  0.1029 -0.2162  0.1541
  100TCq2    C9 1531   2.140   3.434   2.448 -0.3945  0.5101  0.7080
  100TCq2    O5 1532   2.095   3.468   2.558 -0.4106 -0.0899  0.3707
  100TCq2    O6 1533   2.265   3.429   2.420  0.0549  0.1632  0.1471
  100TCq2    H2 1534   2.212   3.458   2.178  0.0559  0.9722  0.2534
  100TCq2    H3 1535   1.889   3.470   2.456  0.2016 -4.2971 -0.4913
  100TCq2    H4 1536   1.815   3.535   2.041 -2.2795 -1.8207  0.6252
  101MPD2     C 1537   3.089   0.170  13.224 -0.3635 -0.4376 -0.4809
  101MPD2    C1 1538   3.013   0.282  13.225  0.3206 -0.2037  0.6279
  101MPD2    C2 1539   2.897   0.279  13.304  0.5440  0.1781  0.0397
  101MPD2    C3 1540   2.881   0.190  13.406 -0.5341  0.2003 -0.3466
  101MPD2    C4 1541   2.971   0.087  13.413 -0.1945  0.6174 -0.0203
  101MPD2    C5 1542   3.067   0.073  13.317 -0.0792 -0.1573  0.0090
  101MPD2     H 1543   2.825   0.359  13.294  1.4413  1.0300  0.4791
  101MPD2    H1 1544   2.958   0.003  13.479  0.5818 -0.0030 -0.6565
  101MPD2    H2 1545   3.179   0.161  13.164 -0.2821 -2.7733 -0.0156
  101MPD2    H3 1546   3.132   4.711  13.312 -0.5825 -0.6002  1.2862
  101MPD2     N 1547   2.768   0.199  13.489 -0.1107 -0.0166  0.4789
  101MPD2    H5 1548   2.691   0.261  13.468 -0.5501 -0.4122  0.9577
  101MPD2    N1 1549   3.041   0.388  13.134  0.5777 -0.1212 -0.2881
  101MPD2    H7 1550   3.120   0.385  13.070 -1.5223 -0.5339 -2.8723
  102TCq2    C1 1551   3.311   0.660  12.799 -0.4150  0.1853  0.7013
  102TCq2    O2 1552   3.342   0.731  12.704  0.2738  0.2905 -0.0264
  102TCq2    C2 1553   3.172   0.650  12.843  0.6899  0.7052 -0.0835
  102TCq2    C3 1554   3.095   0.764  12.814  0.0967  0.2446 -0.0709
  102TCq2    C4 1555   2.978   0.780  12.878 -0.1136 -0.1600  0.1697
  102TCq2    C5 1556   2.942   0.701  12.982  0.3434  0.3843 -0.1732
  102TCq2    C6 1557   3.022   0.590  13.015  0.5428  0.1440 -0.3121
  102TCq2    C7 1558   3.137   0.558  12.940  0.5386  0.6555 -0.1075
  102TCq2    C8 1559   2.972   0.509  13.120 -0.0143 -0.4652 -0.5901
  102TCq2    O4 1560   2.880   0.555  13.191 -0.4737 -0.0034 -0.2180
  102TCq2    C9 1561   2.899   0.898  12.850 -0.0239 -0.0562 -0.1127
  102TCq2    O5 1562   2.789   0.913  12.916  0.7095  0.4876 -0.1429
  102TCq2    O6 1563   2.954   0.980  12.769  0.1970  0.5298  0.8283
  102TCq2    H2 1564   3.119   0.834  12.735 -3.5103  1.6996  0.1255
  102TCq2    H3 1565   2.847   0.720  13.031  0.8646  1.8739  0.2692
  102TCq2    H4 1566   3.192   0.466  12.955  0.0632  0.1640 -1.4127
  103TMC2    C1 1567   1.294   4.676  12.510 -0.7745 -0.0927 -0.3100
  103TMC2    C2 1568   1.393   4.607  12.576  0.0058 -0.4505 -0.3790
  103TMC2    C3 1569   1.452   4.663  12.689 -0.2110  0.3316  0.0615
  103TMC2    C4 1570   1.247   0.065  12.565 -0.1540 -0.3405  0.4620
  103TMC2    C5 1571   1.297   0.114  12.679 -0.0643 -0.2222  0.3981
  103TMC2    C6 1572   1.403   0.059  12.742 -0.1372 -0.0442 -0.2301
  103TMC2     C 1573   1.239   4.623  12.382 -0.3975  0.5304 -0.5202
  103TMC2     O 1574   1.160   4.688  12.319 -0.4524  0.3362 -0.2325
  103TMC2     H 1575   1.456   4.528  12.537 -1.0851 -1.9958  0.9807
  103TMC2    H1 1576   1.167   0.113  12.510 -1.4596 -0.2143  2.4713
  103TMC2    H2 1577   1.448   0.110  12.826  0.7432 -0.5899 -0.3648
  103TMC2    C7 1578   1.214   0.191  12.774 -0.0207  0.0392 -0.8845
  103TMC2    C8 1579   1.564   4.595  12.737  0.1599  0.1029  0.0420
  103TMC2    O1 1580   1.266   0.233  12.880 -0.4814 -0.4681 -0.1117
  103TMC2    O2 1581   1.642   4.529  12.674 -0.3643  0.1294 -0.2678
  103TMC2    O5 1582   1.575   4.635  12.865 -0.3550 -0.1707 -0.0096
  103TMC2    H5 1583   1.489   4.660  12.907 -0.8689 -0.3816 -0.9442
  104MPD2     C 1584   1.342   4.321  12.206 -0.1555  0.2386 -0.2956
  104MPD2    C1 1585   1.258   4.423  12.233 -0.4180  0.9360  0.0168
  104MPD2    C2 1586   1.158   4.456  12.143 -0.7317  0.4235  0.3212
  104MPD2    C3 1587   1.133   4.385  12.037 -0.3186 -0.1096  0.7478
  104MPD2    C4 1588   1.205   4.270  12.023  0.1814  0.3338  0.0445
  104MPD2    C5 1589   1.313   4.244  12.102 -0.1765  0.0250 -0.4982
  104MPD2     H 1590   1.095   4.541  12.164 -2.4969 -0.7322 -0.3035
  104MPD2    H1 1591   1.186   4.189  11.954 -0.4555 -0.8791  1.6535
  104MPD2    H2 1592   1.429   4.292  12.264 -0.1390  0.1264 -0.3785
  104MPD2    H3 1593   1.371   4.159  12.068  0.5814  0.8608 -1.2833
  104MPD2     N 1594   1.029   4.425  11.949  0.6413  0.2097 -0.2448
  104MPD2    H5 1595   0.980   4.512  11.971  0.9276  0.6987 -1.5298
  104MPD2    N1 1596   1.293   4.502  12.343  0.0140  0.0216  0.0677
  104MPD2    H7 1597   1.374   4.477  12.398 -0.3428  0.1157  0.6380
  105MPD2     C 1598   2.840   4.144  17.468  0.0783 -1.0165 -1.3687
  105MPD2    C1 1599   2.721   4.204  17.510 -0.0630 -0.0879  0.8011
  105MPD2    C2 1600   2.688   4.190  17.645 -0.1991 -0.0375 -0.1362
  105MPD2    C3 1601   2.772   4.127   0.037  0.2294 -0.3483  0.3128
  105MPD2    C4 1602   2.893   4.070  17.693 -0.1266  0.1596  0.3421
  105MPD2    C5 1603   2.922   4.087  17.559 -0.5505  0.9589  0.0613
  105MPD2     H 1604   2.592   4.223  17.681  0.4043 -1.4283  2.7267
  105MPD2    H1 1605   2.972   4.021   0.049  0.6229  1.5561  0.5330
  105MPD2    H2 1606   2.892   4.179  17.379  0.2982 -1.7134 -1.5138
  105MPD2    H3 1607   3.008   4.034  17.520  0.0844  1.9150  0.1763
  105MPD2     N 1608   2.717   4.109   0.167 -0.2546 -0.4232 -0.0389
  105MPD2    H5 1609   2.630   4.156   0.187 -0.2470  0.3480 -1.7506
  105MPD2    N1 1610   2.637   4.280  17.428 -0.3561  0.7925  0.2768
  105MPD2    H7 1611   2.577   4.344  17.479 -0.3853  1.6731 -0.8764
  106TCq2    C1 1612   2.769   4.025   0.264 -0.2717  0.2610  0.5879
  106TCq2    O2 1613   2.870   3.955   0.267  0.1769 -0.1923  0.3576
  106TCq2    C2 1614   2.681   4.018   0.382  0.2588  0.1119  0.0366
  106TCq2    C3 1615   2.557   4.080   0.375 -0.2554 -0.0805 -0.7047
  106TCq2    C4 1616   2.472   4.068   0.483 -0.3883  0.4127  0.1643
  106TCq2    C5 1617   2.504   4.001   0.597 -0.0044  0.2926 -0.0586
  106TCq2    C6 1618   2.628   3.948   0.607  0.1089 -0.2952 -0.5401
  106TCq2    C7 1619   2.714   3.947   0.496  0.3310  0.2480  0.3236
  106TCq2    C8 1620   2.693   3.916   0.739 -0.2084  0.0042  0.3490
  106TCq2    O4 1621   2.808   3.877   0.739 -0.7771  0.0580 -0.3940
  106TCq2    C9 1622   2.342   4.133   0.472  0.6179 -0.4624 -0.0727
  106TCq2    O5 1623   2.307   4.153   0.352  0.1845 -0.2159  0.4050
  106TCq2    O6 1624   2.280   4.177   0.572  0.3174 -0.4946 -0.6210
  106TCq2    H2 1625   2.523   4.133   0.288 -0.9988 -0.0020 -0.3686
  106TCq2    H3 1626   2.435   3.991   0.680 -0.6204 -0.2386 -0.6305
  106TCq2    H4 1627   2.806   3.890   0.496  0.4412  0.4212  1.3070
  107TMC2    C1 1628   2.895   4.023  11.654 -0.2908 -0.3277 -0.0986
  107TMC2    C2 1629   2.897   3.890  11.668 -0.2836  1.3157 -0.4362
  107TMC2    C3 1630   2.914   3.811  11.557 -0.3130  0.2920 -0.5889
  107TMC2    C4 1631   2.931   4.079  11.533 -0.0155 -0.7227  0.6242
  107TMC2    C5 1632   2.966   3.998  11.422  0.2123 -0.0799  0.3196
  107TMC2    C6 1633   2.950   3.861  11.431 -1.0711 -0.0822  0.2406
  107TMC2     C 1634   2.824   4.097  11.758 -0.0777  0.2911  0.6960
  107TMC2     O 1635   2.796   4.026  11.850 -0.0157 -0.0907 -0.0081
  107TMC2     H 1636   2.871   3.841  11.761  0.7785 -1.0885 -1.3886
  107TMC2    H1 1637   2.925   4.186  11.514 -0.1237 -0.8627 -0.1319
  107TMC2    H2 1638   2.962   3.797  11.344 -0.7740 -1.6111  1.4184
  107TMC2    C7 1639   3.011   4.069  11.302  0.3441 -0.3798 -0.1547
  107TMC2    C8 1640   2.923   3.672  11.587 -0.1219 -0.7621  0.7960
  107TMC2    O1 1641   2.999   4.187  11.288  0.1488  0.3399 -0.5711
  107TMC2    O2 1642   2.856   3.610  11.671 -0.4873 -0.0209 -0.2238
  107TMC2    O5 1643   3.009   3.613  11.500 -0.4183 -0.1749 -0.0075
  107TMC2    H5 1644   3.074   3.678  11.466 -0.1662  0.3629  1.5135
  108MPD2     C 1645   2.693   4.441  11.780  0.4840 -0.1657 -0.1175
  108MPD2    C1 1646   2.705   4.308  11.811 -0.2631  0.2527  0.3720
  108MPD2    C2 1647   2.629   4.259  11.915 -0.4651  0.1539  0.5491
  108MPD2    C3 1648   2.538   4.331  11.992  0.5947 -0.3987  0.3444
  108MPD2    C4 1649   2.528   4.462  11.956  0.5268 -0.5654  0.1205
  108MPD2    C5 1650   2.608   4.518  11.859 -0.5842  0.1048 -0.5933
  108MPD2     H 1651   2.639   4.156  11.946  0.9075 -0.1873 -1.0521
  108MPD2    H1 1652   2.465   4.540  11.998  1.9826 -0.3108  1.8008
  108MPD2    H2 1653   2.765   4.479  11.708  0.6126 -0.4219 -0.1233
  108MPD2    H3 1654   2.587   4.623  11.844  3.0536  1.0980  1.3264
  108MPD2     N 1655   2.468   4.268  12.097 -0.1085 -0.2031  0.4281
  108MPD2    H5 1656   2.489   4.171  12.115 -1.4463 -0.8183 -1.2470
  108MPD2    N1 1657   2.794   4.227  11.733  0.2520  0.6441 -0.7499
  108MPD2    H7 1658   2.832   4.277  11.653 -2.1021  0.7939 -1.7497
  109MPD2     C 1659   2.686   1.243   1.715  0.1137  0.0398 -0.2100
  109MPD2    C1 1660   2.646   1.276   1.843  0.4838 -0.5006 -0.1612
  109MPD2    C2 1661   2.712   1.375   1.910  0.1009  0.4677 -0.2335
  109MPD2    C3 1662   2.810   1.458   1.849 -0.3097  0.3117  0.0358
  109MPD2    C4 1663   2.839   1.432   1.716 -0.0738  0.0784 -0.2006
  109MPD2    C5 1664   2.777   1.322   1.651  0.6127 -0.1400  0.1321
  109MPD2     H 1665   2.671   1.397   2.008  0.8214  2.5944 -0.4083
  109MPD2    H1 1666   2.900   1.492   1.649 -2.2163  0.6144 -1.6718
  109MPD2    H2 1667   2.646   1.164   1.653  1.5150 -0.4417 -0.4927
  109MPD2    H3 1668   2.802   1.302   1.548 -1.0988 -2.8549  0.2318
  109MPD2     N 1669   2.876   1.549   1.931  0.1810  0.0140 -0.2538
  109MPD2    H5 1670   2.857   1.556   2.030  2.4017  0.3849  0.1622
  109MPD2    N1 1671   2.547   1.189   1.893  0.5528  0.1474 -0.1133
  109MPD2    H7 1672   2.513   1.118   1.829  1.3211 -0.5807  0.2948
  110TCq2    C1 1673   2.977   1.634   1.883  0.3953 -0.4536  0.2713
  110TCq2    O2 1674   3.009   1.668   1.769 -0.2145  0.4462  0.1285
  110TCq2    C2 1675   3.029   1.725   1.989 -0.2502 -0.7935 -0.0148
  110TCq2    C3 1676   3.026   1.678   2.121 -0.0646  0.5715  0.4343
  110TCq2    C4 1677   3.072   1.759   2.223  0.5433  0.2242 -0.3138
  110TCq2    C5 1678   3.118   1.886   2.194 -0.2490 -0.4712  0.6006
  110TCq2    C6 1679   3.116   1.929   2.064  0.0545  0.4254 -0.1889
  110TCq2    C7 1680   3.072   1.853   1.964 -0.2580 -0.1194  0.6563
  110TCq2    C8 1681   3.180   2.057   2.042  0.1836  0.1242 -0.4473
  110TCq2    O4 1682   3.186   2.086   1.924 -0.0041  0.5153 -0.7089
  110TCq2    C9 1683   3.075   1.712   2.356 -0.1782  0.0876  0.0863
  110TCq2    O5 1684   3.141   1.788   2.436  0.3571 -0.3939 -0.1531
  110TCq2    O6 1685   3.026   1.591   2.382  0.0654 -0.0444  0.7417
  110TCq2    H2 1686   2.989   1.581   2.152 -0.0584  0.8634  1.3737
  110TCq2    H3 1687   3.160   1.942   2.277  3.7864  1.3629 -2.6632
  110TCq2    H4 1688   3.052   1.886   1.862  0.0666 -1.8897  0.0225
  111TMC2    C1 1689   3.119   0.965  11.538 -0.1930 -0.6146 -0.9126
  111TMC2    C2 1690   3.094   1.075  11.606  0.7549  0.3492  0.2396
  111TMC2    C3 1691   3.140   1.083  11.734  0.2178 -0.7652 -0.0915
  111TMC2    C4 1692   3.195   0.859  11.591 -0.4464 -0.3903 -0.2911
  111TMC2    C5 1693   3.215   0.864  11.728  0.3052  0.8158 -0.5294
  111TMC2    C6 1694   3.184   0.975  11.795  0.1715 -0.2637 -0.0893
  111TMC2     C 1695   3.060   0.936  11.408  0.0669 -0.1707  0.1808
  111TMC2     O 1696   3.111   0.852  11.334 -0.5621 -0.0982 -0.4744
  111TMC2     H 1697   3.061   1.166  11.557 -1.0338  0.0524  0.8694
  111TMC2    H1 1698   3.234   0.779  11.529 -1.9161 -0.8988 -0.5777
  111TMC2    H2 1699   3.204   0.977  11.902  0.2661 -1.0467 -0.0891
  111TMC2    C7 1700   3.330   0.789  11.781 -0.0213 -0.9342  0.0368
  111TMC2    C8 1701   3.090   1.192  11.813 -0.3293 -0.2708  0.5213
  111TMC2    O1 1702   3.384   0.836  11.878 -0.4516  0.1201 -0.0429
  111TMC2    O2 1703   3.006   1.266  11.763 -0.8678  0.8729  0.1446
  111TMC2    O5 1704   3.194   1.224  11.898 -0.1107 -0.2906  0.4646
  111TMC2    H5 1705   3.262   1.153  11.898 -1.0912 -1.2312 -0.1997
  112MPD2     C 1706   2.654   0.960  11.097  0.3412  0.2466  0.5556
  112MPD2    C1 1707   2.781   0.923  11.071 -0.0492 -0.3465 -0.1064
  112MPD2    C2 1708   2.879   0.925  11.169 -0.4400 -0.2724  0.8040
  112MPD2    C3 1709   2.847   0.975  11.295 -0.4257  0.4519 -0.5815
  112MPD2    C4 1710   2.719   1.016  11.320  0.1412  0.0640  0.1067
  112MPD2    C5 1711   2.626   1.021  11.222 -0.4697  0.2651  0.4718
  112MPD2     H 1712   2.983   0.902  11.150 -1.0917 -1.5296 -1.2744
  112MPD2    H1 1713   2.685   1.064  11.411  0.1127  2.3744 -1.1063
  112MPD2    H2 1714   2.569   0.962  11.031  1.5364  1.0338 -0.9688
  112MPD2    H3 1715   2.529   1.054  11.257  0.4141 -0.3677  3.6028
  112MPD2     N 1716   2.935   0.984  11.406  0.0349  0.6094 -0.1569
  112MPD2    H5 1717   2.895   1.037  11.483 -0.5418 -1.2281  0.8103
  112MPD2    N1 1718   2.825   0.876  10.947  0.2924  0.0623  0.3426
  112MPD2    H7 1719   2.918   0.835  10.941  0.0276 -0.4863  0.0268
  113MPD2     C 1720   1.298   3.380   1.427  0.1814  0.3826  0.2210
  113MPD2    C1 1721   1.181   3.453   1.433 -0.0286 -0.0343 -0.3438
  113MPD2    C2 1722   1.068   3.413   1.359  0.3112 -0.7261  0.0719
  113MPD2    C3 1723   1.069   3.291   1.294 -0.0169 -0.0891 -0.2058
  113MPD2    C4 1724   1.181   3.219   1.301 -0.1317 -0.0746  0.5640
  113MPD2    C5 1725   1.300   3.265   1.361 -0.4681  0.1958  0.4665
  113MPD2     H 1726   0.979   3.475   1.372 -0.2346 -1.1454 -1.6357
  113MPD2    H1 1727   1.181   3.120   1.256 -0.4567  1.0750 -1.9511
  113MPD2    H2 1728   1.393   3.406   1.473 -0.4227 -0.5195  1.9664
  113MPD2    H3 1729   1.388   3.202   1.355 -1.1596 -0.8225  1.0782
  113MPD2     N 1730   0.951   3.237   1.247  0.4024 -0.0532  0.3507
  113MPD2    H5 1731   0.952   3.137   1.229 -0.7367  0.2374 -1.3225
  113MPD2    N1 1732   1.176   3.563   1.511  0.1299 -0.5573 -0.1203
  113MPD2    H7 1733   1.112   3.639   1.491  1.7310  0.7592 -0.2347
  114TCq2    C1 1734   0.831   3.306   1.246  0.0982 -0.8337  0.2846
  114TCq2    O2 1735   0.808   3.428   1.248 -0.8077  0.5426  0.2000
  114TCq2    C2 1736   0.704   3.225   1.229  0.4141  0.7804 -0.1596
  114TCq2    C3 1737   0.587   3.279   1.282 -0.1721 -0.7862 -0.3410
  114TCq2    C4 1738   0.481   3.201   1.305 -0.2116 -0.4263  0.0735
  114TCq2    C5 1739   0.488   3.065   1.297  0.6901 -1.3786  0.3468
  114TCq2    C6 1740   0.606   3.014   1.251  0.0077 -0.1014  0.6199
  114TCq2    C7 1741   0.716   3.092   1.211 -0.4424  0.2464  0.3982
  114TCq2    C8 1742   0.642   2.879   1.279 -0.4252 -0.5437 -0.0140
  114TCq2    O4 1743   0.749   2.839   1.232 -0.2585  0.0356  0.3305
  114TCq2    C9 1744   0.354   3.260   1.334 -0.2644  0.6433  0.8361
  114TCq2    O5 1745   0.267   3.179   1.385 -0.4834  0.3972 -0.0225
  114TCq2    O6 1746   0.362   3.383   1.354 -0.7546 -0.0136 -0.5078
  114TCq2    H2 1747   0.579   3.386   1.299 -0.7530 -0.9252  0.2656
  114TCq2    H3 1748   0.401   3.006   1.322  0.2873 -1.5580 -1.5311
  114TCq2    H4 1749   0.806   3.049   1.168 -0.2054  0.9895  0.1522
  115TMC2    C1 1750   1.959   1.699   0.076 -0.6443 -0.0232 -0.2890
  115TMC2    C2 1751   2.089   1.720   0.094 -0.1732  0.2412 -0.5839
  115TMC2    C3 1752   2.150   1.833   0.045  0.3713 -0.6741  0.5729
  115TMC2    C4 1753   1.886   1.799   0.019  0.2914  0.2085  0.5979
  115TMC2    C5 1754   1.939   1.915  17.673  0.1442 -0.4949  0.1827
  115TMC2    C6 1755   2.075   1.933  17.680  0.2834 -0.2437 -0.2369
  115TMC2     C 1756   1.905   1.568   0.101  0.0583  0.2241  0.5119
  115TMC2     O 1757   1.978   1.476   0.128 -0.5385 -0.2715  0.1995
  115TMC2     H 1758   2.144   1.633   0.127 -0.2507  0.7905  1.0224
  115TMC2    H1 1759   1.779   1.788   0.021  0.5629 -2.1899  1.3883
  115TMC2    H2 1760   2.130   2.008  17.625 -0.7084 -1.5139 -3.0115
  115TMC2    C7 1761   1.859   2.033  17.683  0.3343 -0.9339 -0.3116
  115TMC2    C8 1762   2.275   1.813  17.683 -1.0217 -0.7469 -0.7813
  115TMC2    O1 1763   1.746   2.025   0.030  0.4565  0.2331 -0.2120
  115TMC2    O2 1764   2.369   1.882   0.024 -0.0465  0.1982 -0.4932
  115TMC2    O5 1765   2.237   1.811  17.557  0.1139 -0.7495  0.0595
  115TMC2    H5 1766   2.152   1.763  17.543 -0.0838 -0.0200 -1.2642
  116MPD2     C 1767   1.512   1.248  17.683  0.3280  0.4037  0.0008
  116MPD2    C1 1768   1.651   1.244  17.661 -0.1581  0.1234 -0.2046
  116MPD2    C2 1769   1.734   1.344   0.012  0.1394  0.3018 -0.3828
  116MPD2    C3 1770   1.679   1.457   0.072  0.7251  0.8119 -0.2299
  116MPD2    C4 1771   1.540   1.469   0.081  0.1214 -0.8047 -0.1674
  116MPD2    C5 1772   1.460   1.361   0.043 -0.2372 -0.1521  0.7233
  116MPD2     H 1773   1.841   1.348  17.696 -0.2741  1.5789 -2.8227
  116MPD2    H1 1774   1.500   1.562   0.118  0.0366 -0.4584 -1.1151
  116MPD2    H2 1775   1.442   1.167  17.668 -0.7261  1.2982  0.0489
  116MPD2    H3 1776   1.353   1.377   0.057 -0.3359 -1.0577  1.0404
  116MPD2     N 1777   1.766   1.568   0.092 -0.2031 -0.3061 -0.3652
  116MPD2    H5 1778   1.707   1.646   0.122  2.1183  1.6595 -0.8875
  116MPD2    N1 1779   1.691   1.128  17.588  1.0246 -0.9704 -0.0607
  116MPD2    H7 1780   1.627   1.058  17.553  0.4320 -1.7357  2.6157
  117TMC2    C1 1781   0.243   3.165  14.294 -0.5915 -0.5082  0.4960
  117TMC2    C2 1782   0.280   3.064  14.381 -1.4177  0.3448 -0.1458
  117TMC2    C3 1783   0.394   3.088  14.449 -0.7461  0.4124  0.2878
  117TMC2    C4 1784   0.313   3.284  14.258  0.3222 -0.3306  0.1756
  117TMC2    C5 1785   0.418   3.300  14.344  0.2950  1.0194 -0.1380
  117TMC2    C6 1786   0.456   3.208  14.442  0.0499  0.4114  1.0446
  117TMC2     C 1787   0.127   3.139  14.212 -0.3411  0.4112 -0.6330
  117TMC2     O 1788   0.104   3.233  14.134  0.2381  0.5455 -0.5445
  117TMC2     H 1789   0.206   2.992  14.414  0.5592 -1.3512  0.6471
  117TMC2    H1 1790   0.294   3.351  14.175 -0.2099 -0.1417  0.4530
  117TMC2    H2 1791   0.550   3.222  14.494  1.7017 -0.6866 -1.6510
  117TMC2    C7 1792   0.483   3.434  14.342 -0.1292  0.1709  0.7253
  117TMC2    C8 1793   0.424   3.005  14.561 -0.0509  0.1724 -0.3435
  117TMC2    O1 1794   0.468   3.497  14.232 -0.8946 -0.2550 -0.2785
  117TMC2    O2 1795   0.342   2.942  14.619  0.2994 -0.2462 -0.1057
  117TMC2    O5 1796   0.553   2.973  14.556  0.2521  0.2244  0.3042
  117TMC2    H5 1797   0.595   3.020  14.481 -1.6614 -1.3247 -1.7073
  118MPD2     C 1798   0.615   3.617  14.638 -0.3801  0.4541  0.1609
  118MPD2    C1 1799   0.594   3.589  14.504  0.4952 -0.2728 -0.4893
  118MPD2    C2 1800   0.612   3.690  14.410  0.0774 -0.1931 -0.4484
  118MPD2    C3 1801   0.680   3.800  14.445 -0.0913  0.0663 -0.2245
  118MPD2    C4 1802   0.711   3.822  14.574  0.6932  0.3885  0.3914
  118MPD2    C5 1803   0.684   3.730  14.669 -0.0158 -0.5810  0.4330
  118MPD2     H 1804   0.580   3.670  14.308 -0.4339  0.6274 -0.4479
  118MPD2    H1 1805   0.760   3.915  14.601 -0.0144  0.7741  0.3607
  118MPD2    H2 1806   0.597   3.555  14.725  1.5831  0.7451  0.7559
  118MPD2    H3 1807   0.736   3.745  14.763 -0.4742 -0.0191  0.5945
  118MPD2     N 1808   0.707   3.910  14.359 -0.1669 -0.0725 -0.2508
  118MPD2    H5 1809   0.773   3.981  14.390 -0.9602  0.3668  0.4371
  118MPD2    N1 1810   0.540   3.465  14.468 -0.4733 -0.6795  0.2009
  118MPD2    H7 1811   0.522   3.399  14.543 -1.0083  0.0434  0.7136
  119MPD2     C 1812   4.220   0.082  14.001  0.0269 -0.5797 -0.1861
  119MPD2    C1 1813   4.093   0.094  14.042  0.6513 -0.2480 -0.1723
  119MPD2    C2 1814   3.989   0.035  13.969  0.1171 -0.0526 -0.2846
  119MPD2    C3 1815   4.012   4.703  13.844 -0.3977 -0.0541  0.0287
  119MPD2    C4 1816   4.143   4.699  13.801 -0.4302  0.2039  0.1975
  119MPD2    C5 1817   4.241   0.017  13.884  0.5075  0.1412  0.5842
  119MPD2     H 1818   3.890   0.028  14.012 -0.3940  1.5349 -1.2129
  119MPD2    H1 1819   4.167   4.644  13.711 -0.1126  1.5375 -0.5354
  119MPD2    H2 1820   4.303   0.128  14.053 -1.4865  1.4903  0.3978
  119MPD2    H3 1821   4.345   4.720  13.862  0.0835  0.0335 -1.3956
  119MPD2     N 1822   3.916   4.632  13.769  0.3259  0.5110 -0.3147
  119MPD2    H5 1823   3.950   4.598  13.679 -1.2117 -0.2022 -0.6243
  119MPD2    N1 1824   4.069   0.137  14.172  0.1820  0.0075 -0.1917
  119MPD2    H7 1825   4.147   0.144  14.237 -1.0676  0.3187  1.2763
  120TCq2    C1 1826   3.790   4.599  13.815 -0.0782  0.2676  0.5655
  120TCq2    O2 1827   3.721   4.647  13.905 -0.7498 -0.1966  0.5304
  120TCq2    C2 1828   3.710   4.519  13.718 -0.2863  0.6980  0.2724
  120TCq2    C3 1829   3.773   4.491  13.596 -0.0894 -0.8425  0.0648
  120TCq2    C4 1830   3.694   4.432  13.502 -0.5095 -0.0715  1.2320
  120TCq2    C5 1831   3.561   4.397  13.525 -0.8031  0.1831  0.2566
  120TCq2    C6 1832   3.503   4.425  13.642 -0.4099 -0.0371  0.5118
  120TCq2    C7 1833   3.577   4.491  13.743  0.8550  0.4643 -0.0117
  120TCq2    C8 1834   3.366   4.375  13.671  0.5664 -0.4439 -0.1466
  120TCq2    O4 1835   3.299   4.340  13.578  0.2917  0.4878  0.2027
  120TCq2    C9 1836   3.746   4.406  13.375  0.3810  0.5501 -0.0100
  120TCq2    O5 1837   3.865   4.427  13.348 -0.2858 -0.4113 -0.6507
  120TCq2    O6 1838   3.660   4.382  13.291  0.5094  0.2639 -0.2599
  120TCq2    H2 1839   3.876   4.505  13.565 -0.1840 -1.5676 -0.5824
  120TCq2    H3 1840   3.505   4.354  13.442 -0.6484  0.4224  0.0280
  120TCq2    H4 1841   3.545   4.504  13.846 -0.5228 -2.2225 -0.0904
  121TMC2    C1 1842   0.160   1.707  14.014  0.0624  0.5250  0.5631
  121TMC2    C2 1843   0.076   1.648  14.112  0.5322  0.0374  0.1908
  121TMC2    C3 1844   4.685   1.591  14.064  0.0928 -0.1473  0.5513
  121TMC2    C4 1845   0.118   1.712  13.883 -0.0720  0.0677  0.0628
  121TMC2    C5 1846   4.721   1.655  13.842 -0.1438 -0.5390  0.9139
  121TMC2    C6 1847   4.635   1.605  13.937  0.8201 -0.4620 -0.0502
  121TMC2     C 1848   0.304   1.693  14.041  0.0595  1.4146 -0.1360
  121TMC2     O 1849   0.333   1.645  14.148 -0.1665 -0.0775  0.1910
  121TMC2     H 1850   0.091   1.644  14.219  3.7472  0.0183 -0.2695
  121TMC2    H1 1851   0.170   1.772  13.809  2.2905 -1.0802  0.7799
  121TMC2    H2 1852   4.537   1.563  13.916  0.5365  0.9332 -1.4739
  121TMC2    C7 1853   4.667   1.698  13.719  0.6050 -1.2380 -0.4405
  121TMC2    C8 1854   4.584   1.541  14.154 -0.2518  0.1385  0.3946
  121TMC2    O1 1855   0.009   1.774  13.650 -0.0801 -0.7568  0.5534
  121TMC2    O2 1856   4.469   1.559  14.117  0.7703 -0.1041 -0.0146
  121TMC2    O5 1857   4.631   1.424  14.197  0.3728  0.4130  0.4877
  121TMC2    H5 1858   4.718   1.436  14.239  1.1737 -0.1337 -1.0035
  122MPD2     C 1859   0.587   1.612  14.016  0.0461  0.0786  0.0634
  122MPD2    C1 1860   0.524   1.685  13.919  0.5352  0.5114 -0.9965
  122MPD2    C2 1861   0.586   1.722  13.806  0.0011 -0.0740  0.0538
  122MPD2    C3 1862   0.709   1.671  13.770 -0.5643 -0.2846  0.1490
  122MPD2    C4 1863   0.775   1.589  13.861 -0.5250 -0.1337 -0.2493
  122MPD2    C5 1864   0.714   1.566  13.980  0.3182  0.0827 -0.0284
  122MPD2     H 1865   0.528   1.777  13.734  1.2008  1.6175  0.3909
  122MPD2    H1 1866   0.879   1.562  13.854 -0.4579  0.5396 -1.9857
  122MPD2    H2 1867   0.557   1.597  14.119 -2.8730  1.8746 -0.5203
  122MPD2    H3 1868   0.786   1.531  14.054  0.3879  0.1421 -0.0686
  122MPD2     N 1869   0.768   1.681  13.644 -0.3093 -0.4921 -1.1808
  122MPD2    H5 1870   0.852   1.626  13.630  0.7685  1.1865 -1.3089
  122MPD2    N1 1871   0.391   1.725  13.934 -0.5461  0.2291 -0.1957
  122MPD2    H7 1872   0.347   1.776  13.858 -2.3044 -2.6759 -1.1114
  123MPD2     C 1873   3.238   0.087   9.216 -0.3815 -0.0167  0.2748
  123MPD2    C1 1874   3.161   0.020   9.306 -0.3478 -0.1958  0.0566
  123MPD2    C2 1875   3.232   4.677   9.406  0.1958 -0.7590  1.0487
  123MPD2    C3 1876   3.368   4.674   9.414 -0.3022 -0.2511 -0.3998
  123MPD2    C4 1877   3.440   0.029   9.324 -0.2343  0.2825 -0.3987
  123MPD2    C5 1878   3.374   0.091   9.223 -0.0844 -0.1452 -0.5455
  123MPD2     H 1879   3.180   4.635   9.491 -2.0607  1.3545  0.7248
  123MPD2    H1 1880   3.548   0.038   9.328 -0.1304 -0.7095 -0.9864
  123MPD2    H2 1881   3.199   0.148   9.135 -0.0429 -0.0293  0.0988
  123MPD2    H3 1882   3.430   0.149   9.151  0.8719  0.6747  0.8701
  123MPD2     N 1883   3.421   4.592   9.518 -0.4316 -0.9843 -0.1454
  123MPD2    H5 1884   3.355   4.536   9.571  1.4036 -2.8707  0.0964
  123MPD2    N1 1885   3.020   0.029   9.284  0.3112  0.5522  0.4090
  123MPD2    H7 1886   2.978   0.082   9.208  1.4288 -1.8997 -1.9168
  124TCq2    C1 1887   3.555   4.567   9.526  0.7619 -0.3067 -0.1035
  124TCq2    O2 1888   3.642   4.615   9.457  0.4430  0.1894 -0.2974
  124TCq2    C2 1889   3.597   4.471   9.624  0.0303 -1.3892  1.1738
  124TCq2    C3 1890   3.722   4.504   9.668 -0.1797 -0.8461 -0.0187
  124TCq2    C4 1891   3.783   4.409   9.748 -0.0377 -0.6262 -0.0881
  124TCq2    C5 1892   3.711   4.306   9.802 -0.5363  0.3902 -0.3847
  124TCq2    C6 1893   3.579   4.288   9.766  0.0173 -0.6279 -0.1269
  124TCq2    C7 1894   3.522   4.361   9.671 -0.4512 -0.0470  0.1126
  124TCq2    C8 1895   3.501   4.191   9.834  0.1349  0.8500 -0.5490
  124TCq2    O4 1896   3.394   4.161   9.787 -0.0212  0.3182 -0.4503
  124TCq2    C9 1897   3.923   4.425   9.795  0.1736  0.0557  0.1939
  124TCq2    O5 1898   3.965   4.543   9.794 -0.3777 -0.0619  0.3427
  124TCq2    O6 1899   3.953   4.346   9.889  0.4015  0.5253 -0.0896
  124TCq2    H2 1900   3.785   4.585   9.635  2.1629 -2.4128  0.5748
  124TCq2    H3 1901   3.769   4.236   9.861 -1.8304 -0.1676  0.2133
  124TCq2    H4 1902   3.416   4.353   9.646 -0.5571  1.0350  0.2147
  125TMC2    C1 1903   4.093   3.598   9.768  0.0742  0.1089  0.7749
  125TMC2    C2 1904   4.142   3.633   9.897 -0.6744  0.5043  0.4520
  125TMC2    C3 1905   4.259   3.703   9.899 -0.1218  0.4057 -0.3355
  125TMC2    C4 1906   4.165   3.628   9.655  0.1037  0.1439  0.5982
  125TMC2    C5 1907   4.284   3.688   9.665  0.6236  1.0253  0.0610
  125TMC2    C6 1908   4.329   3.741   9.787  0.5504 -0.3593  0.4093
  125TMC2     C 1909   3.988   3.504   9.756 -0.7405 -0.5959 -0.0582
  125TMC2     O 1910   3.978   3.443   9.648  0.7256 -0.2808  0.5919
  125TMC2     H 1911   4.103   3.589   9.988  0.8543 -1.6549  0.0873
  125TMC2    H1 1912   4.126   3.594   9.559 -0.5504 -0.1259  0.9563
  125TMC2    H2 1913   4.422   3.795   9.807  1.0864 -1.4278  0.8093
  125TMC2    C7 1914   4.354   3.714   9.542  0.0985 -0.1206 -0.3415
  125TMC2    C8 1915   4.293   3.767  10.020  0.3186  0.2766  0.3291
  125TMC2    O1 1916   4.326   3.644   9.444 -0.1667  0.0860 -0.0005
  125TMC2    O2 1917   4.408   3.775  10.055 -0.2806  0.9769 -0.3745
  125TMC2    O5 1918   4.182   3.812  10.078  1.0397 -0.0742 -0.1712
  125TMC2    H5 1919   4.102   3.808  10.022 -0.8384 -3.5183  2.7204
  126MPD1     C 1920   3.637   3.170   9.943  0.7256 -0.0090  0.5806
  126MPD1    C1 1921   3.679   3.187   9.809 -0.0008 -0.2954 -0.4203
  126MPD1    C2 1922   3.761   3.297   9.785  0.0677  1.2019  0.4532
  126MPD1    C3 1923   3.810   3.384   9.881  0.0025 -0.4755 -0.4982
  126MPD1    C4 1924   3.760   3.370  10.011 -0.3317  0.7622  0.1300
  126MPD1    C5 1925   3.677   3.266  10.042  0.1291 -0.6907 -0.0563
  126MPD1     H 1926   3.814   3.296   9.690 -0.8426 -2.7648 -0.0266
  126MPD1    H1 1927   3.798   3.419  10.100  1.0177  0.2601 -0.1699
  126MPD1    H2 1928   3.565   3.092   9.967 -2.9347  2.8154 -1.2667
  126MPD1    H3 1929   3.644   3.258  10.145  0.8087  1.4331  0.3189
  126MPD1     N 1930   3.913   3.481   9.870 -0.4544 -0.6425  0.2262
  126MPD1    H5 1931   3.936   3.527   9.957  0.7604 -0.4755 -0.1756
  126MPD1    N1 1932   3.661   3.081   9.717  0.0089 -0.5575  0.1230
  126MPD1    H6 1933   3.636   3.116   9.625  1.6720  1.7780  0.5628
  126MPD1    H7 1934   3.580   3.034   9.758 -0.3625 -0.0147  0.0158
  127MPD2     C 1935   1.151   4.264   9.271  0.0578 -0.3148 -0.4520
  127MPD2    C1 1936   1.064   4.276   9.377  0.5140  0.5395  0.2973
  127MPD2    C2 1937   1.078   4.385   9.464 -0.3880  0.2893  0.5509
  127MPD2    C3 1938   1.174   4.482   9.436 -0.1179  0.7331  0.2580
  127MPD2    C4 1939   1.259   4.466   9.327 -0.2065  0.1361  0.7988
  127MPD2    C5 1940   1.248   4.356   9.252 -0.2232  0.4521 -0.1877
  127MPD2     H 1941   1.007   4.411   9.541 -1.0998 -0.6379  0.2054
  127MPD2    H1 1942   1.321   4.550   9.297 -2.0587  1.8156  1.6755
  127MPD2    H2 1943   1.141   4.187   9.195  1.5241 -1.3932  0.4565
  127MPD2    H3 1944   1.318   4.358   9.169  0.0863 -0.9883  0.0358
  127MPD2     N 1945   1.168   4.599   9.513  0.1097  0.1668  0.0742
  127MPD2    H5 1946   1.091   4.599   9.580 -0.6066  2.3150 -0.7502
  127MPD2    N1 1947   0.973   4.165   9.402 -0.2280  0.2893  0.1993
  127MPD2    H7 1948   0.986   4.085   9.339 -1.6750  0.2614 -0.0630
  128TCq2    C1 1949   0.891   4.160   9.517  1.4365  1.0124  0.0333
  128TCq2    O2 1950   0.894   4.240   9.613 -0.0730 -0.3567 -0.5154
  128TCq2    C2 1951   0.794   4.045   9.516 -0.0018  0.1211 -0.0918
  128TCq2    C3 1952   0.718   4.045   9.629  0.5314 -0.6399 -0.1155
  128TCq2    C4 1953   0.625   3.942   9.637 -0.4566  0.0221  0.1599
  128TCq2    C5 1954   0.617   3.840   9.547 -0.1737  0.3433 -0.4999
  128TCq2    C6 1955   0.699   3.842   9.436 -0.3873  0.3243  0.6726
  128TCq2    C7 1956   0.784   3.952   9.415 -0.3593  0.1868  0.6477
  128TCq2    C8 1957   0.662   3.764   9.313 -0.1482 -0.4594  0.2271
  128TCq2    O4 1958   0.743   3.759   9.220 -0.4744 -0.3304 -0.1668
  128TCq2    C9 1959   0.544   3.940   9.752  0.0889 -0.6032  0.6838
  128TCq2    O5 1960   0.491   3.831   9.791 -0.4369  0.0942 -0.5302
  128TCq2    O6 1961   0.525   4.043   9.822  0.3636  0.5773 -0.3627
  128TCq2    H2 1962   0.726   4.118   9.709 -1.7362  0.8395 -1.2198
  128TCq2    H3 1963   0.543   3.764   9.572 -0.2758  0.5872 -0.0614
  128TCq2    H4 1964   0.823   3.968   9.315 -0.0875  0.3349  0.7759
  129MPD2     C 1965   3.255   1.028   1.514 -0.3309  0.5517 -0.4549
  129MPD2    C1 1966   3.230   1.155   1.546 -0.2559  0.2201 -0.5712
  129MPD2    C2 1967   3.265   1.256   1.456 -0.3848 -0.3580 -0.3757
  129MPD2    C3 1968   3.343   1.227   1.347 -0.2772  0.3302  0.6995
  129MPD2    C4 1969   3.375   1.098   1.319 -0.2335 -0.4672  0.0659
  129MPD2    C5 1970   3.334   1.000   1.400  1.1911  0.6065  0.2022
  129MPD2     H 1971   3.231   1.359   1.465 -0.4547 -0.4830  0.8043
  129MPD2    H1 1972   3.435   1.072   1.233  0.4360 -0.7900  0.6310
  129MPD2    H2 1973   3.214   0.941   1.564  0.3201  1.2511  1.2698
  129MPD2    H3 1974   3.349   0.895   1.377 -4.3015  0.4138 -2.5030
  129MPD2     N 1975   3.385   1.338   1.268  0.6856 -0.3937 -0.3269
  129MPD2    H5 1976   3.349   1.425   1.306 -1.2049 -0.7167 -1.3628
  129MPD2    N1 1977   3.149   1.191   1.662 -0.0825 -0.7068  0.1057
  129MPD2    H7 1978   3.151   1.286   1.698 -0.7619 -0.6903  0.0900
  130TCq2    C1 1979   3.070   1.097   1.726  0.1066 -0.0946 -0.0850
  130TCq2    O2 1980   3.010   1.003   1.678  0.2594  0.3397 -0.4591
  130TCq2    C2 1981   3.013   1.141   1.855 -0.6554  0.2122 -0.3952
  130TCq2    C3 1982   3.086   1.214   1.943 -0.4142  0.0237  1.1169
  130TCq2    C4 1983   3.039   1.232   2.073  0.4175 -0.8331  0.0362
  130TCq2    C5 1984   2.922   1.169   2.110 -0.5823 -0.4329  0.4239
  130TCq2    C6 1985   2.852   1.084   2.028 -0.7498  1.0218 -0.1423
  130TCq2    C7 1986   2.904   1.069   1.900  0.8690 -0.0869 -0.6187
  130TCq2    C8 1987   2.753   0.983   2.077 -0.0545 -0.2493 -0.0879
  130TCq2    O4 1988   2.683   0.917   2.000 -0.1361  0.3715 -0.0893
  130TCq2    C9 1989   3.118   1.310   2.174 -0.4814 -0.7632 -0.1123
  130TCq2    O5 1990   3.083   1.299   2.297 -0.0459 -0.3277  0.3602
  130TCq2    O6 1991   3.216   1.378   2.132  0.3033  0.2476  0.7205
  130TCq2    H2 1992   3.178   1.260   1.908  0.0732 -0.3527  1.9062
  130TCq2    H3 1993   2.879   1.190   2.207 -0.2450 -0.0513  0.4904
  130TCq2    H4 1994   2.859   0.993   1.836 -0.0372  0.5653 -0.7660
  131MPD2     C 1995   2.397   4.065   9.581  0.1597 -0.9571 -0.7451
  131MPD2    C1 1996   2.528   4.091   9.610 -0.6640  0.2201 -0.3902
  131MPD2    C2 1997   2.572   4.215   9.565  0.0091 -0.2954  0.2607
  131MPD2    C3 1998   2.489   4.304   9.497 -0.3322  0.4697  0.8084
  131MPD2    C4 1999   2.357   4.270   9.476 -1.1911  0.3598  0.4108
  131MPD2    C5 2000   2.311   4.152   9.523  1.0270  0.0764  0.6537
  131MPD2     H 2001   2.672   4.254   9.581 -0.4510  0.6038  0.9061
  131MPD2    H1 2002   2.298   4.315   9.397 -1.7196  0.6803  0.9872
  131MPD2    H2 2003   2.360   3.965   9.601 -2.3282  0.1447  0.1539
  131MPD2    H3 2004   2.210   4.124   9.496  0.5670  1.0573  1.3573
  131MPD2     N 2005   2.542   4.426   9.455  0.1973 -0.0113 -0.6499
  131MPD2    H5 2006   2.643   4.425   9.457  0.2205 -1.2791 -2.4548
  131MPD2    N1 2007   2.601   4.001   9.695  0.4326 -0.1734 -0.8665
  131MPD2    H7 2008   2.554   3.914   9.718  1.2273 -0.4262 -0.2345
  132TCq2    C1 2009   2.934   4.010  10.184  0.0927  0.7326  0.1127
  132TCq2    O2 2010   2.919   3.952  10.291 -0.4170 -0.5963 -0.4482
  132TCq2    C2 2011   2.859   3.955  10.069 -0.6037  0.4507 -0.7475
  132TCq2    C3 2012   2.799   3.830  10.088  0.1414  0.2109  0.1152
  132TCq2    C4 2013   2.716   3.779   9.995 -0.2670 -0.4991  0.6885
  132TCq2    C5 2014   2.707   3.835   9.869 -0.3741  0.7607  0.5283
  132TCq2    C6 2015   2.775   3.955   9.850 -0.2662 -0.0537  0.0432
  132TCq2    C7 2016   2.850   4.016   9.949 -0.3113 -0.1450 -0.9046
  132TCq2    C8 2017   2.728   4.037   9.741  0.3407  0.0598  0.3189
  132TCq2    O4 2018   2.799   4.136   9.718  0.6372  0.6349  0.8712
  132TCq2    C9 2019   2.660   3.648  10.008 -0.3200 -0.3701  0.1838
  132TCq2    O5 2020   2.583   3.603   9.917  0.2093 -0.0319 -0.4074
  132TCq2    O6 2021   2.666   3.591  10.118 -0.0130  0.1488 -0.6087
  132TCq2    H2 2022   2.802   3.774  10.181 -1.7121  1.2335  0.8078
  132TCq2    H3 2023   2.659   3.777   9.791  0.8462  0.5823 -0.1002
  132TCq2    H4 2024   2.872   4.122   9.937 -0.2295 -0.1385 -0.7079
  133MPD2     C 2025   2.211   1.662   9.534  1.0879 -0.0866  0.4665
  133MPD2    C1 2026   2.096   1.694   9.468  0.2593 -0.4274  0.6612
  133MPD2    C2 2027   2.018   1.588   9.427 -0.2313 -0.4575 -0.4022
  133MPD2    C3 2028   2.059   1.456   9.439 -0.0278 -0.2263  0.2379
  133MPD2    C4 2029   2.181   1.430   9.496 -0.1854  0.8752  0.0890
  133MPD2    C5 2030   2.257   1.533   9.543 -0.4333  0.1317  0.2115
  133MPD2     H 2031   1.922   1.606   9.380 -0.3004 -1.5564 -0.6832
  133MPD2    H1 2032   2.211   1.327   9.513  1.4168  1.4864  0.9175
  133MPD2    H2 2033   2.273   1.740   9.577  1.8372 -0.6342  0.3777
  133MPD2    H3 2034   2.346   1.530   9.605  0.2820 -1.5539 -0.8939
  133MPD2     N 2035   1.985   1.356   9.371  0.7177  0.6834 -0.1447
  133MPD2    H5 2036   1.900   1.386   9.325  0.8929 -0.3707 -1.1558
  133MPD2    N1 2037   2.061   1.831   9.466  0.1255  0.5530  0.1202
  133MPD2    H7 2038   2.128   1.894   9.509 -0.9376  1.2937  0.6973
  134TCq2    C1 2039   1.944   1.893   9.440  0.7668 -0.3010  0.1569
  134TCq2    O2 2040   1.835   1.845   9.416 -0.3279 -0.1331 -0.4890
  134TCq2    C2 2041   1.964   2.035   9.448  0.0507  0.3656 -0.6489
  134TCq2    C3 2042   2.088   2.088   9.465 -0.0273 -0.1547  0.2478
  134TCq2    C4 2043   2.093   2.228   9.471  0.6276  0.1819 -0.0383
  134TCq2    C5 2044   1.983   2.310   9.465 -0.5750 -0.7973  0.2402
  134TCq2    C6 2045   1.857   2.257   9.444 -0.2259 -0.2309 -0.0680
  134TCq2    C7 2046   1.856   2.116   9.443  0.0595 -0.7613 -0.1566
  134TCq2    C8 2047   1.745   2.332   9.399 -0.7365 -0.5913  0.3949
  134TCq2    O4 2048   1.638   2.277   9.386  0.3113  0.2000  0.0282
  134TCq2    C9 2049   2.223   2.291   9.470  0.4809  0.7255  0.5656
  134TCq2    O5 2050   2.229   2.414   9.436 -0.1387 -0.1062  0.7559
  134TCq2    O6 2051   2.322   2.216   9.484 -0.6860  0.5069  0.0115
  134TCq2    H2 2052   2.186   2.042   9.463  0.8254  1.6025  0.9405
  134TCq2    H3 2053   2.002   2.415   9.486 -2.5731 -0.1358 -1.1691
  134TCq2    H4 2054   1.763   2.069   9.415  0.4195 -1.4115 -0.2601
  135MPD2     C 2055   0.354   1.183   9.598  0.3697  0.2006 -0.5307
  135MPD2    C1 2056   0.277   1.101   9.527 -0.6156 -0.3952  0.0570
  135MPD2    C2 2057   0.306   0.961   9.535  0.6056  0.3978 -0.3236
  135MPD2    C3 2058   0.400   0.908   9.626 -0.1040 -0.3520 -0.2775
  135MPD2    C4 2059   0.467   0.998   9.713  0.5461 -0.1158  0.0643
  135MPD2    C5 2060   0.442   1.131   9.691  0.3968 -0.2164  0.8712
  135MPD2     H 2061   0.255   0.888   9.473 -0.9103  0.9320  0.3002
  135MPD2    H1 2062   0.531   0.963   9.793 -1.6397 -1.3187  1.2969
  135MPD2    H2 2063   0.344   1.289   9.576 -2.5224 -0.1779 -1.0821
  135MPD2    H3 2064   0.512   1.197   9.741 -0.0285 -1.0703  2.6123
  135MPD2     N 2065   0.436   0.766   9.623 -0.0643 -0.4416 -0.0213
  135MPD2    H5 2066   0.522   0.747   9.674  0.8965 -0.9869 -1.8509
  135MPD2    N1 2067   0.178   1.151   9.436  0.4657  0.2120 -1.0408
  135MPD2    H7 2068   0.176   1.249   9.408  0.0445  0.1328 -1.2849
  136TCq2    C1 2069   0.096   1.077   9.355  0.5603 -0.2898  0.0196
  136TCq2    O2 2070   0.073   0.956   9.373 -0.3405  0.4911 -0.0746
  136TCq2    C2 2071   0.015   1.151   9.263 -0.5839  0.7342  0.0215
  136TCq2    C3 2072   0.076   1.243   9.185 -0.2818  0.8859 -0.1832
  136TCq2    C4 2073   0.014   1.277   9.067  0.0021  0.0551 -0.8818
  136TCq2    C5 2074   4.618   1.221   9.031  0.0772  0.1108  0.0566
  136TCq2    C6 2075   4.559   1.143   9.122  0.1201  0.4027  0.0781
  136TCq2    C7 2076   4.615   1.104   9.241  0.2232  0.0053 -0.7846
  136TCq2    C8 2077   4.428   1.093   9.086 -0.4429 -0.2550 -0.6678
  136TCq2    O4 2078   4.419   1.087   8.964  0.1062 -0.2803  0.7968
  136TCq2    C9 2079   0.075   1.371   8.975 -0.0540  0.6577 -0.1699
  136TCq2    O5 2080   0.120   1.465   9.043  0.3781 -0.6856  0.5271
  136TCq2    O6 2081   0.019   1.384   8.867  0.0178  0.1291 -0.3080
  136TCq2    H2 2082   0.179   1.273   9.194  0.1411 -0.9378  1.1236
  136TCq2    H3 2083   4.577   1.249   8.935 -0.9006 -0.3830  0.3313
  136TCq2    H4 2084   4.567   1.037   9.312  1.8029  1.7009  1.8989
  137MPD2     C 2085   0.280   0.369  10.490 -0.2054  0.5290  0.5306
  137MPD2    C1 2086   0.149   0.374  10.530  0.4718 -0.2350  0.0331
  137MPD2    C2 2087   0.083   0.496  10.532  0.3135  0.1810 -0.0047
  137MPD2    C3 2088   0.146   0.615  10.497  0.3345  0.4871 -0.8443
  137MPD2    C4 2089   0.282   0.610  10.468  0.2340  0.5590 -0.5095
  137MPD2    C5 2090   0.349   0.487  10.468 -0.2670 -0.4650 -0.0298
  137MPD2     H 2091   4.701   0.505  10.552 -0.4405 -1.7212 -3.0611
  137MPD2    H1 2092   0.344   0.698  10.462  0.8622  0.1356 -0.2553
  137MPD2    H2 2093   0.333   0.275  10.479 -0.8371  0.1644  0.6074
  137MPD2    H3 2094   0.455   0.481  10.447 -0.2458 -0.9824  0.2062
  137MPD2     N 2095   0.062   0.729  10.499 -0.0349 -0.2737  0.3846
  137MPD2    H5 2096   4.690   0.709  10.521  0.0447 -1.7811 -0.6800
  137MPD2    N1 2097   0.079   0.251  10.541 -0.4889  0.5390 -0.6987
  137MPD2    H7 2098   0.122   0.163  10.515 -3.7210 -1.3317  0.3134
  138TCq2    C1 2099   4.678   0.236  10.585 -0.1265  0.3352 -0.7020
  138TCq2    O2 2100   4.616   0.318  10.654  0.6237  0.0567  0.5866
  138TCq2    C2 2101   4.626   0.103  10.564 -0.4506 -1.0145  0.0197
  138TCq2    C3 2102   4.657   0.043  10.447 -0.1516 -0.3181  0.2466
  138TCq2    C4 2103   4.571   4.665  10.407  0.1353  0.8493  0.4148
  138TCq2    C5 2104   4.460   4.633  10.476  0.6727  0.6290  1.2417
  138TCq2    C6 2105   4.422   4.704  10.584 -0.0835  0.8708 -0.3318
  138TCq2    C7 2106   4.513   0.066  10.636  1.0905  0.0416 -0.6497
  138TCq2    C8 2107   4.285   4.719  10.626  0.6687 -0.0534 -0.1503
  138TCq2    O4 2108   4.253   0.080  10.707  0.0301  0.5326 -0.3756
  138TCq2    C9 2109   4.594   4.606  10.271 -0.1176  0.2077  1.0421
  138TCq2    O5 2110   4.671   4.670  10.194  0.5487  0.3579 -0.4146
  138TCq2    O6 2111   4.519   4.520  10.228 -0.5800 -0.1419  0.4416
  138TCq2    H2 2112   0.017   0.070  10.385 -0.2994 -0.2600  0.0663
  138TCq2    H3 2113   4.412   4.545  10.436  2.4541 -0.6466  1.8673
  138TCq2    H4 2114   4.477   0.132  10.714  2.6536 -0.0204  0.1284
  139TMC2    C1 2115   0.520   4.212  13.491 -0.2845 -0.0591 -0.1357
  139TMC2    C2 2116   0.534   4.261  13.364 -0.1051  0.3917  0.4842
  139TMC2    C3 2117   0.500   4.392  13.341  0.2617  0.0161 -0.8320
  139TMC2    C4 2118   0.458   4.287  13.586 -0.0080 -0.2485 -0.8730
  139TMC2    C5 2119   0.435   4.423  13.566 -0.4851  0.0425 -0.4462
  139TMC2    C6 2120   0.454   4.468  13.442  0.7460  0.0013  0.3077
  139TMC2     C 2121   0.583   4.085  13.531  0.6895  0.0680  0.1025
  139TMC2     O 2122   0.590   4.055  13.650  0.4463 -0.2025 -0.6928
  139TMC2     H 2123   0.581   4.208  13.283  2.1793  1.1859  1.2843
  139TMC2    H1 2124   0.447   4.241  13.684  0.5610  0.3438 -0.5341
  139TMC2    H2 2125   0.422   4.569  13.420 -2.7446 -0.7395  1.8854
  139TMC2    C7 2126   0.349   4.497  13.657 -0.5504  0.3353  0.4162
  139TMC2    C8 2127   0.501   4.437  13.206  0.3525  0.9033  0.5946
  139TMC2    O1 2128   0.330   4.613  13.639 -0.1357 -0.5025  0.4837
  139TMC2    O2 2129   0.604   4.451  13.145  0.1860  0.1924  0.4844
  139TMC2    O5 2130   0.393   4.371  13.156 -0.4778 -0.3183  0.4161
  139TMC2    H5 2131   0.322   4.343  13.218 -0.2279 -1.0100  0.3988
  140MPD2     C 2132   0.722   3.804  13.547 -0.2902 -0.0779 -0.8037
  140MPD2    C1 2133   0.657   3.859  13.433 -0.0888 -0.0638  0.0394
  140MPD2    C2 2134   0.636   3.776  13.326 -0.1084 -0.0351  0.4485
  140MPD2    C3 2135   0.680   3.643  13.330 -0.1363 -0.2113  0.7805
  140MPD2    C4 2136   0.748   3.589  13.435 -0.2427  0.2035  0.5774
  140MPD2    C5 2137   0.774   3.675  13.540  0.0349  0.3862 -0.5147
  140MPD2     H 2138   0.595   3.825  13.238 -0.6815 -1.8356 -0.3081
  140MPD2    H1 2139   0.776   3.485  13.445  2.1372  1.0755  3.0915
  140MPD2    H2 2140   0.747   3.861  13.636  0.9874  0.9633 -1.8309
  140MPD2    H3 2141   0.838   3.648  13.624  0.5398 -1.7023 -1.5613
  140MPD2     N 2142   0.638   3.562  13.219  0.2789  0.4974 -0.1784
  140MPD2    H5 2143   0.581   3.608  13.149 -1.4647 -1.1598  0.1751
  140MPD2    N1 2144   0.600   3.986  13.429 -0.5152  0.0943  0.2571
  140MPD2    H7 2145   0.569   4.019  13.338  2.4669  3.5618  0.4426
  141TCq2    C1 2146   0.946   0.324  14.308 -0.5035  0.0649 -0.2648
  141TCq2    O2 2147   0.854   0.373  14.250  0.5368 -0.0511 -0.3751
  141TCq2    C2 2148   0.949   0.326  14.450 -0.6161  0.2381  0.7543
  141TCq2    C3 2149   0.975   0.210  14.519 -0.1596  0.4961 -0.6798
  141TCq2    C4 2150   0.985   0.225  14.655 -0.2416  0.3346 -0.2084
  141TCq2    C5 2151   0.973   0.345  14.722 -0.1001  0.4056 -0.0330
  141TCq2    C6 2152   0.949   0.456  14.643 -0.0823  0.3026 -0.2558
  141TCq2    C7 2153   0.948   0.450  14.505 -0.3355 -0.0186 -0.1703
  141TCq2    C8 2154   0.931   0.586  14.712 -0.0362 -0.1075 -0.2029
  141TCq2    O4 2155   0.887   0.591  14.825 -0.1561  0.3692 -0.2211
  141TCq2    C9 2156   1.008   0.103  14.731  0.1290  0.1957 -0.1811
  141TCq2    O5 2157   1.019   0.002  14.660  0.3172  0.1536 -0.0876
  141TCq2    O6 2158   1.013   0.113  14.856 -0.0179  0.3889  0.6322
  141TCq2    H2 2159   0.989   0.117  14.466  0.7177  0.1230  0.2065
  141TCq2    H3 2160   0.978   0.355  14.830  0.9621  1.2913 -0.1689
  141TCq2    H4 2161   0.927   0.533  14.438 -2.0465  2.0522  2.9399
  142MPD2     C 2162   3.080   3.182  10.614 -0.4730  0.1457 -0.2683
  142MPD2    C1 2163   3.052   3.113  10.499  0.0862 -0.0761 -0.6176
  142MPD2    C2 2164   3.043   3.184  10.381 -0.5633 -0.2529  0.7322
  142MPD2    C3 2165   3.046   3.327  10.388 -0.3377 -0.3844  0.4279
  142MPD2    C4 2166   3.068   3.391  10.509 -1.1597  0.1138  0.7282
  142MPD2    C5 2167   3.094   3.315  10.612  0.0639  0.2130 -0.4058
  142MPD2     H 2168   3.027   3.133  10.287  1.4205 -0.3920  0.4547
  142MPD2    H1 2169   3.063   3.499  10.515  0.3804  0.4088 -3.5651
  142MPD2    H2 2170   3.101   3.131  10.708  0.4249 -0.9262 -1.0461
  142MPD2    H3 2171   3.101   3.377  10.701  1.1007  1.6171 -1.4844
  142MPD2     N 2172   3.031   3.410  10.275  0.6789 -0.0881 -0.4088
  142MPD2    H5 2173   3.022   3.510  10.291 -0.7758 -0.6095  1.9610
  142MPD2    N1 2174   3.035   2.977  10.509 -0.1411  0.1525  0.7507
  142MPD2    H7 2175   3.026   2.939  10.603  0.4886  1.5591  1.3793
  143TCq2    C1 2176   3.016   3.368  10.144  0.5311  0.2701  0.3003
  143TCq2    O2 2177   3.006   3.257  10.104 -0.2458  0.0268 -1.0148
  143TCq2    C2 2178   3.010   3.469  10.040 -0.1420 -0.4821  0.0822
  143TCq2    C3 2179   2.946   3.442   9.929  0.0052  1.1706 -0.2543
  143TCq2    C4 2180   2.932   3.540   9.833  0.7091 -0.3348 -0.6366
  143TCq2    C5 2181   3.001   3.655   9.846 -0.3623 -0.7115 -0.3168
  143TCq2    C6 2182   3.078   3.677   9.958  0.2302 -0.1536 -0.1076
  143TCq2    C7 2183   3.084   3.583  10.059 -0.8494 -0.1115  0.5560
  143TCq2    C8 2184   3.161   3.794   9.948 -0.0295 -0.0060  0.3506
  143TCq2    O4 2185   3.168   3.862   9.846 -0.0272 -0.0417 -0.7763
  143TCq2    C9 2186   2.858   3.515   9.715 -0.4887  0.0824  0.0676
  143TCq2    O5 2187   2.781   3.419   9.710  0.2586 -0.4410  0.1708
  143TCq2    O6 2188   2.877   3.603   9.626 -0.1745  0.1746 -0.8672
  143TCq2    H2 2189   2.896   3.346   9.918 -1.4352  1.9754 -0.7637
  143TCq2    H3 2190   2.992   3.731   9.769  1.2806  1.2139  1.3842
  143TCq2    H4 2191   3.148   3.596  10.146 -3.3327  1.1906  2.1770
  144MPD2     C 2192   0.471   2.340   0.808 -0.3159  0.8306  0.8636
  144MPD2    C1 2193   0.549   2.448   0.773 -0.1357  0.1046 -0.1407
  144MPD2    C2 2194   0.686   2.440   0.796 -0.1316  0.1165 -0.2910
  144MPD2    C3 2195   0.743   2.328   0.852 -0.1539  0.5057  0.1226
  144MPD2    C4 2196   0.655   2.219   0.879  0.2418 -0.7039  0.0144
  144MPD2    C5 2197   0.530   2.223   0.855  0.5334 -0.7734 -0.8969
  144MPD2     H 2198   0.754   2.521   0.775  0.4282  0.2056  1.7785
  144MPD2    H1 2199   0.703   2.126   0.907  2.0514  0.1670 -0.2134
  144MPD2    H2 2200   0.364   2.339   0.787 -0.3944 -1.1846  1.3204
  144MPD2    H3 2201   0.477   2.129   0.869  2.0723 -1.2222  1.9944
  144MPD2     N 2202   0.879   2.312   0.887  0.4949 -0.1839  0.3758
  144MPD2    H5 2203   0.910   2.217   0.900 -0.3535 -0.2617  1.9771
  144MPD2    N1 2204   0.495   2.560   0.712 -0.1142  0.5132 -1.2530
  144MPD2    H7 2205   0.561   2.630   0.678  0.0758  2.0393  2.2411
  145TCq2    C1 2206   0.953   2.413   0.941  0.9253 -0.8575 -0.2747
  145TCq2    O2 2207   0.935   2.533   0.958  0.6599 -0.1414 -0.5194
  145TCq2    C2 2208   1.087   2.358   0.959  0.3764  0.2706 -0.4224
  145TCq2    C3 2209   1.149   2.296   0.851 -0.3869  0.2794 -0.1367
  145TCq2    C4 2210   1.283   2.309   0.825  0.3999  0.6335 -0.2292
  145TCq2    C5 2211   1.348   2.389   0.906 -0.5641  0.4892 -0.8668
  145TCq2    C6 2212   1.289   2.452   1.027  0.0283 -0.2532 -0.2027
  145TCq2    C7 2213   1.154   2.425   1.055  1.0001 -0.2607  0.2310
  145TCq2    C8 2214   1.383   2.502   1.130 -0.9677 -0.0087 -0.2418
  145TCq2    O4 2215   1.500   2.470   1.121 -0.2274  0.0518  0.3713
  145TCq2    C9 2216   1.337   2.260   0.707 -0.1112  0.0852  0.2205
  145TCq2    O5 2217   1.270   2.178   0.637 -0.0327  0.7178  0.5744
  145TCq2    O6 2218   1.449   2.302   0.665 -0.2460 -0.3853 -0.3994
  145TCq2    H2 2219   1.092   2.262   0.765 -0.0410 -1.2588  0.2324
  145TCq2    H3 2220   1.451   2.413   0.882  0.3489 -0.3236  2.2780
  145TCq2    H4 2221   1.098   2.475   1.133  0.3514  0.2835 -0.5923
  146TMC2    C1 2222   3.086   1.720  11.835  0.1180  0.0515 -0.1593
  146TMC2    C2 2223   2.961   1.661  11.851  0.6891  0.8892  0.0757
  146TMC2    C3 2224   2.919   1.573  11.753 -0.2196 -0.5565 -0.3854
  146TMC2    C4 2225   3.169   1.692  11.726  0.1770  0.1105  0.6871
  146TMC2    C5 2226   3.119   1.612  11.631  0.9335  0.4555  0.6523
  146TMC2    C6 2227   2.994   1.550  11.642 -0.1279  0.0437  0.0113
  146TMC2     C 2228   3.131   1.811  11.937  0.0781  0.1326  0.0645
  146TMC2     O 2229   3.229   1.889  11.914 -0.5797  0.6886 -0.5657
  146TMC2     H 2230   2.893   1.690  11.930 -1.8184  0.0637 -1.7742
  146TMC2    H1 2231   3.264   1.739  11.705 -1.0611  1.9332 -0.7727
  146TMC2    H2 2232   2.948   1.498  11.559 -0.5428  0.9903 -0.3491
  146TMC2    C7 2233   3.202   1.526  11.565 -0.2920 -0.7495  0.4086
  146TMC2    C8 2234   2.816   1.485  11.796 -0.1365 -0.2457  0.2849
  146TMC2    O1 2235   3.215   1.536  11.444 -0.4994 -0.5824 -0.2450
  146TMC2    O2 2236   2.761   1.508  11.901 -0.3604  0.1250 -0.3345
  146TMC2    O5 2237   2.752   1.420  11.699 -0.0526  0.3990 -0.3405
  146TMC2    H5 2238   2.803   1.381  11.626 -0.5946  1.3882 -1.2441
  147MPD2     C 2239   3.573   1.185  11.554 -0.1826 -0.2244  0.2844
  147MPD2    C1 2240   3.539   1.218  11.678  0.2727 -0.0886 -0.1486
  147MPD2    C2 2241   3.445   1.313  11.709  0.4692 -0.3037 -0.0612
  147MPD2    C3 2242   3.360   1.358  11.612 -0.4645 -0.0350 -0.0426
  147MPD2    C4 2243   3.388   1.317  11.482 -0.2475  0.4943  0.4421
  147MPD2    C5 2244   3.497   1.235  11.453  0.2545  0.3810 -0.5534
  147MPD2     H 2245   3.415   1.346  11.808  0.7270  1.8941 -0.7269
  147MPD2    H1 2246   3.341   1.353  11.391  0.1678 -0.9742 -0.3415
  147MPD2    H2 2247   3.662   1.127  11.533 -0.3091 -0.2720 -0.1250
  147MPD2    H3 2248   3.532   1.206  11.354  4.3898 -1.8865  1.5951
  147MPD2     N 2249   3.260   1.447  11.650 -0.6832  0.1828  0.2590
  147MPD2    H5 2250   3.255   1.465  11.750  1.0341  1.6277  0.0987
  147MPD2    N1 2251   3.607   1.156  11.783  0.1533  0.3551 -0.3631
  147MPD2    H7 2252   3.702   1.126  11.763  0.4839  1.1145  0.0513
  148MPD2     C 2253   2.815   0.807  10.183 -0.4116  0.9419 -0.2696
  148MPD2    C1 2254   2.891   0.689  10.186 -0.1180 -0.3953  0.3217
  148MPD2    C2 2255   2.849   0.587  10.101  0.0363 -0.0335 -0.3944
  148MPD2    C3 2256   2.734   0.597  10.026 -0.7013 -0.0197  0.0895
  148MPD2    C4 2257   2.663   0.712  10.026  0.1585  0.2196  0.9413
  148MPD2    C5 2258   2.700   0.814  10.107 -0.2421 -0.5572 -0.1227
  148MPD2     H 2259   2.913   0.500  10.107  0.6345  0.3697 -0.8516
  148MPD2    H1 2260   2.568   0.723   9.975  0.1662 -3.3841  0.1470
  148MPD2    H2 2261   2.834   0.885  10.255  0.2173  0.5701 -0.0398
  148MPD2    H3 2262   2.649   0.910  10.110  1.2666  0.2921 -1.2346
  148MPD2     N 2263   2.672   0.491   9.955  0.2897  0.6161 -0.0207
  148MPD2    H5 2264   2.571   0.498   9.940  0.3973 -1.2273 -1.6403
  148MPD2    N1 2265   2.995   0.658  10.280  0.2617  0.0426  0.3336
  148MPD2    H7 2266   3.043   0.571  10.262 -3.1984 -1.8047  0.2142
  149TCq2    C1 2267   3.042   0.743  10.378  0.4759 -0.3342 -0.5626
  149TCq2    O2 2268   3.020   0.860  10.408 -0.5301 -0.0158  0.0182
  149TCq2    C2 2269   3.125   0.670  10.474 -0.3215 -0.8907  0.5421
  149TCq2    C3 2270   3.209   0.742  10.556  0.3233 -0.2326  0.2380
  149TCq2    C4 2271   3.284   0.678  10.647  0.6572 -0.6254  0.3666
  149TCq2    C5 2272   3.282   0.540  10.662  0.0261 -1.3630  0.3166
  149TCq2    C6 2273   3.181   0.480  10.596 -0.0563 -0.2810  0.6252
  149TCq2    C7 2274   3.103   0.539  10.502 -0.3244 -0.4039  0.0594
  149TCq2    C8 2275   3.145   0.345  10.644 -0.7149  0.1475  0.4371
  149TCq2    O4 2276   3.084   0.279  10.563  1.0923 -0.2052 -0.1927
  149TCq2    C9 2277   3.406   0.747  10.681  0.1641 -0.0767 -0.0232
  149TCq2    O5 2278   3.409   0.873  10.672 -0.8930 -0.1567  0.2849
  149TCq2    O6 2279   3.487   0.679  10.744 -0.0744  0.0503  0.3884
  149TCq2    H2 2280   3.211   0.850  10.553  0.5304 -0.2492 -0.2209
  149TCq2    H3 2281   3.350   0.483  10.724  1.3601  0.9660  1.0070
  149TCq2    H4 2282   3.016   0.492  10.458  1.2768  1.2649 -4.8110
  150MPD2     C 2283   4.356   4.164  12.076 -0.2072 -0.7746  0.0537
  150MPD2    C1 2284   4.417   4.118  11.961  1.1749 -0.0319 -0.3470
  150MPD2    C2 2285   4.544   4.170  11.927  0.2938 -0.1650 -0.1408
  150MPD2    C3 2286   4.603   4.274  12.001 -0.5777  0.3200  0.3671
  150MPD2    C4 2287   4.529   4.329  12.105 -0.2416 -0.3109 -0.6192
  150MPD2    C5 2288   4.408   4.270  12.146  0.1343  0.8486 -0.0031
  150MPD2     H 2289   4.593   4.138  11.836  3.2445  0.3619  1.2714
  150MPD2    H1 2290   4.573   4.414  12.154  1.8722 -1.9603  0.3603
  150MPD2    H2 2291   4.256   4.130  12.100 -0.9353  0.8184 -0.7764
  150MPD2    H3 2292   4.351   4.320  12.223  1.5593  2.9513 -0.3167
  150MPD2     N 2293   4.721   4.323  11.952 -0.6113  0.0538 -0.0228
  150MPD2    H5 2294   0.029   4.272  11.870 -2.2107  1.0591 -1.2826
  150MPD2    N1 2295   4.338   4.036  11.879  0.3778  0.1146  0.0372
  150MPD2    H7 2296   4.239   4.022  11.899  0.0116  1.4665 -0.8534
  151TCq2    C1 2297   0.072   4.432  11.986  0.4205  0.2581  0.5027
  151TCq2    O2 2298   0.054   4.512  12.075  0.1096  0.1294  0.3388
  151TCq2    C2 2299   0.194   4.446  11.915  0.0812 -0.4568 -0.6809
  151TCq2    C3 2300   0.240   4.336  11.848  0.2551 -0.1001 -0.5049
  151TCq2    C4 2301   0.372   4.309  11.839 -0.3998 -0.4970  0.0078
  151TCq2    C5 2302   0.460   4.394  11.897 -0.4678  0.3081  0.1819
  151TCq2    C6 2303   0.411   4.510  11.962 -0.3499 -0.0701  0.5789
  151TCq2    C7 2304   0.278   4.537  11.970  0.4950  0.1204  0.1862
  151TCq2    C8 2305   0.495   4.588  12.049 -0.2016 -0.1205  0.7845
  151TCq2    O4 2306   0.450   4.694  12.091  0.0435  0.2553  0.6795
  151TCq2    C9 2307   0.422   4.192  11.770  0.0419  0.0842  0.3029
  151TCq2    O5 2308   0.533   4.141  11.794  0.9673  0.3323 -0.0380
  151TCq2    O6 2309   0.345   4.144  11.689  0.0274 -0.2953 -0.0313
  151TCq2    H2 2310   0.180   4.248  11.825 -0.9500  1.6314 -4.1346
  151TCq2    H3 2311   0.565   4.377  11.878 -0.3479 -2.1190  3.1198
  151TCq2    H4 2312   0.246   4.627  12.021  0.3104  0.6353 -0.8409
  152MPD2     C 2313   4.211   3.905  12.902  0.6358 -0.3748 -0.1407
  152MPD2    C1 2314   4.289   3.991  12.834 -0.2777  0.2241  0.1174
  152MPD2    C2 2315   4.238   4.070  12.728  0.0850  1.0283  0.1250
  152MPD2    C3 2316   4.108   4.061  12.703  0.3639 -0.3655  0.3726
  152MPD2    C4 2317   4.020   3.982  12.781  1.2195  0.1108 -0.1932
  152MPD2    C5 2318   4.079   3.899  12.877 -0.0212  0.0703  0.2355
  152MPD2     H 2319   4.295   4.137  12.665 -3.0189  2.9150 -0.6705
  152MPD2    H1 2320   3.912   3.991  12.780  1.3954  2.2102 -0.2734
  152MPD2    H2 2321   4.248   3.851  12.989 -0.5413 -0.8690  0.0510
  152MPD2    H3 2322   4.015   3.832  12.934  1.6685 -3.7979 -2.3941
  152MPD2     N 2323   4.061   4.161  12.612 -0.6015  0.4039  0.4874
  152MPD2    H5 2324   4.134   4.213  12.565  0.4074 -1.9817 -0.5558
  152MPD2    N1 2325   4.424   4.004  12.869 -0.7426  0.5278 -0.2513
  152MPD2    H7 2326   4.460   3.953  12.949  0.6844  2.4454  0.3411
  153TCq2    C1 2327   4.518   4.065  12.788  0.4791 -0.3046 -0.1429
  153TCq2    O2 2328   4.517   4.119  12.679 -0.2039  0.6216 -0.3810
  153TCq2    C2 2329   4.648   4.069  12.841 -0.2876 -0.0042 -0.1359
  153TCq2    C3 2330   4.666   4.055  12.975 -0.4794 -0.4729  0.3068
  153TCq2    C4 2331   0.062   4.075  13.030  0.6983  0.4416  0.5645
  153TCq2    C5 2332   0.165   4.132  12.960 -0.1293  0.1390  0.0256
  153TCq2    C6 2333   0.147   4.146  12.822  0.9278  0.2871  0.1447
  153TCq2    C7 2334   0.026   4.127  12.759  1.0384 -0.2589  0.4164
  153TCq2    C8 2335   0.253   4.193  12.739  0.4696 -0.2206  0.1719
  153TCq2    O4 2336   0.233   4.201  12.617  0.4208  0.0488 -0.2608
  153TCq2    C9 2337   0.093   4.034  13.166  1.1950  0.3701 -0.0137
  153TCq2    O5 2338   0.008   3.970  13.230 -0.3603  0.2756 -0.0900
  153TCq2    O6 2339   0.208   4.059  13.210 -0.1521  0.2924  0.2965
  153TCq2    H2 2340   4.590   4.012  13.040  0.3563  0.1994  1.7442
  153TCq2    H3 2341   0.262   4.144  13.007  0.3880 -3.8694 -0.0265
  153TCq2    H4 2342   0.023   4.144  12.652  0.3011  0.9687  0.6329
  154MPD2     C 2343   1.790   4.239   0.551  0.3871 -0.7275 -0.4086
  154MPD2    C1 2344   1.731   4.358   0.596  0.2380 -0.3962 -0.5123
  154MPD2    C2 2345   1.609   4.360   0.664  0.0089  0.2131 -0.0311
  154MPD2    C3 2346   1.541   4.243   0.690  0.1682  0.6436 -0.0844
  154MPD2    C4 2347   1.590   4.128   0.633  0.5159  0.1411  0.4247
  154MPD2    C5 2348   1.714   4.125   0.571 -0.0099 -0.2790  0.2522
  154MPD2     H 2349   1.566   4.456   0.693 -0.4069 -0.4732  1.5898
  154MPD2    H1 2350   1.535   4.035   0.645  2.3750 -1.2482 -1.7822
  154MPD2    H2 2351   1.885   4.237   0.499  0.4231  3.5562 -0.4874
  154MPD2    H3 2352   1.749   4.031   0.530 -1.8754 -0.8495 -0.0530
  154MPD2     N 2353   1.422   4.265   0.765 -0.0967 -0.0968  0.1097
  154MPD2    H5 2354   1.400   4.360   0.794  1.6722  0.4015 -0.2109
  154MPD2    N1 2355   1.798   4.477   0.568  0.7862 -0.4764  0.1908
  154MPD2    H7 2356   1.875   4.469   0.502  2.0428 -0.0624  1.5943
  155TCq2    C1 2357   1.778   4.606   0.611  0.3842  1.3811  0.5138
  155TCq2    O2 2358   1.694   4.653   0.686 -0.5955  0.1974  0.5395
  155TCq2    C2 2359   1.888   4.692   0.556  0.8337  0.0308  0.1474
  155TCq2    C3 2360   2.001   4.639   0.503 -0.4294  0.5510 -0.6144
  155TCq2    C4 2361   2.078   4.709   0.419  0.6899 -0.6432  0.0628
  155TCq2    C5 2362   2.044   0.114   0.385  0.3305 -0.0566 -0.1454
  155TCq2    C6 2363   1.926   0.161   0.436  0.0401  0.1811  0.4692
  155TCq2    C7 2364   1.855   0.094   0.532  0.4869  0.0607 -0.3342
  155TCq2    C8 2365   1.891   0.294   0.395  0.0304  0.2844 -0.3800
  155TCq2    O4 2366   1.814   0.357   0.467  0.5214  0.8626  0.4213
  155TCq2    C9 2367   2.203   4.650   0.372 -0.2195 -0.2691  0.2196
  155TCq2    O5 2368   2.256   4.552   0.440  0.1844  0.2800 -1.1389
  155TCq2    O6 2369   2.246   4.694   0.266  0.0871 -0.1517  0.4365
  155TCq2    H2 2370   2.027   4.541   0.541  2.2264  1.5710  0.2109
  155TCq2    H3 2371   2.121   0.182   0.349 -0.5733  0.9666 -0.1278
  155TCq2    H4 2372   1.752   0.127   0.542  0.4329  0.3257 -1.7096
  156MPD2     C 2373   4.603   1.476  11.431  0.2609 -0.6068  0.6954
  156MPD2    C1 2374   4.626   1.609  11.420  0.7214 -0.1603 -0.1515
  156MPD2    C2 2375   4.715   1.678  11.494 -0.0293 -0.2546  0.0000
  156MPD2    C3 2376   0.062   1.602  11.588 -0.7083 -0.5697  0.4188
  156MPD2    C4 2377   0.048   1.466  11.598 -0.0634 -0.2115 -0.4383
  156MPD2    C5 2378   4.684   1.401  11.519  0.1825 -0.4944  0.8680
  156MPD2     H 2379   0.010   1.783  11.477  1.0148 -0.1921  1.5683
  156MPD2    H1 2380   0.122   1.402  11.645 -0.8030 -0.1871  0.7693
  156MPD2    H2 2381   4.537   1.417  11.368  0.4404  1.8077 -1.7531
  156MPD2    H3 2382   4.673   1.293  11.527  0.5217 -0.7156 -1.5382
  156MPD2     N 2383   0.155   1.676  11.657 -0.2589  0.4000 -0.3264
  156MPD2    H5 2384   0.156   1.775  11.633 -0.5795  0.6233  0.5794
  156MPD2    N1 2385   4.551   1.673  11.319 -0.1879 -0.2677  0.1313
  156MPD2    H7 2386   4.469   1.619  11.295 -2.0605  2.9413 -0.5656
  157TCq2    C1 2387   4.573   1.794  11.265  0.2678  0.2232 -0.1895
  157TCq2    O2 2388   4.670   1.866  11.273  0.5568  0.1367 -0.5009
  157TCq2    C2 2389   4.458   1.841  11.193 -0.4024 -0.4084  0.0490
  157TCq2    C3 2390   4.361   1.753  11.153 -0.0320 -0.2965 -0.1389
  157TCq2    C4 2391   4.250   1.800  11.089  0.3335  0.6181  0.2558
  157TCq2    C5 2392   4.245   1.934  11.045 -0.6132  0.2862 -0.6704
  157TCq2    C6 2393   4.357   2.015  11.070 -0.0174 -0.3531 -1.2832
  157TCq2    C7 2394   4.461   1.970  11.151 -0.8779  0.1818  0.2230
  157TCq2    C8 2395   4.328   2.151  11.100 -0.0841 -0.0836 -0.2469
  157TCq2    O4 2396   4.429   2.221  11.111  0.4796 -0.1597 -0.0695
  157TCq2    C9 2397   4.150   1.701  11.048 -0.3020  0.4415  0.3045
  157TCq2    O5 2398   4.059   1.732  10.963 -0.0682  0.4405  0.1084
  157TCq2    O6 2399   4.155   1.595  11.117  0.4877  0.4754 -0.0728
  157TCq2    H2 2400   4.367   1.648  11.176 -1.3982 -0.3254  0.0691
  157TCq2    H3 2401   4.160   1.960  10.983 -1.4255 -0.6455  0.0493
  157TCq2    H4 2402   4.548   2.029  11.176 -1.1672  1.0170 -0.7625
  158TMC2    C1 2403   0.033   1.156  13.221 -0.0645 -0.1962  0.1113
  158TMC2    C2 2404   0.064   1.188  13.089  0.4726 -0.0027  0.4014
  158TMC2    C3 2405   4.694   1.159  12.998  0.2885  0.0726 -0.8052
  158TMC2    C4 2406   4.642   1.097  13.255 -0.9590 -0.2069  0.1963
  158TMC2    C5 2407   4.563   1.054  13.153 -0.1626 -0.4537  0.0375
  158TMC2    C6 2408   4.584   1.090  13.028  0.3888 -0.0559 -0.6696
  158TMC2     C 2409   0.106   1.227  13.327 -0.1318  0.2817  1.0668
  158TMC2     O 2410   0.186   1.308  13.276  0.3621 -0.4710  0.3112
  158TMC2     H 2411   0.156   1.238  13.061  1.1034 -2.3188 -1.7006
  158TMC2    H1 2412   4.595   1.096  13.353 -0.8828  0.7839  0.2395
  158TMC2    H2 2413   4.513   1.081  12.947  2.2249  1.4860 -2.4224
  158TMC2    C7 2414   4.439   0.974  13.172 -0.5504  0.8236 -0.1216
  158TMC2    C8 2415   4.711   1.225  12.873 -0.1360 -1.6404 -0.3230
  158TMC2    O1 2416   4.357   0.962  13.080  0.1294  0.0109 -0.2848
  158TMC2    O2 2417   4.713   1.348  12.862  0.2921 -0.2794  0.0948
  158TMC2    O5 2418   4.651   1.135  12.787 -0.2512 -0.3036  0.0919
  158TMC2    H5 2419   4.676   1.041  12.802 -0.4232 -0.2643  0.6538
  159MPD2     C 2420   0.248   1.390  13.791  0.5358  0.1604  0.3600
  159MPD2    C1 2421   0.168   1.281  13.810  0.0201  0.0266 -0.6460
  159MPD2    C2 2422   0.111   1.223  13.701 -0.2821  0.1254  0.7073
  159MPD2    C3 2423   0.135   1.273  13.572 -0.5658  0.1306  0.4248
  159MPD2    C4 2424   0.225   1.377  13.557 -0.8488  0.4477  0.6470
  159MPD2    C5 2425   0.276   1.439  13.670 -0.1377  0.5582 -0.0600
  159MPD2     H 2426   0.040   1.142  13.713  0.6978 -0.6883  1.0153
  159MPD2    H1 2427   0.259   1.411  13.460  2.5162  1.6363  2.2123
  159MPD2    H2 2428   0.293   1.430  13.881  0.8899 -0.6191  0.5296
  159MPD2    H3 2429   0.349   1.518  13.658 -0.4721  0.8530 -0.1523
  159MPD2     N 2430   0.077   1.206  13.459 -0.0610 -0.2129 -0.4232
  159MPD2    H5 2431   0.024   1.125  13.491  0.4321 -1.8197 -3.7003
  159MPD2    N1 2432   0.146   1.241  13.946  0.3249 -0.3175 -0.3018
  159MPD2    H7 2433   0.191   1.283  14.027 -0.4593 -0.1139  0.0235
  160TMC2    C1 2434   4.513   3.159   1.057  0.6228 -0.4339 -0.0447
  160TMC2    C2 2435   4.413   3.086   0.989 -0.0080  0.5846  0.6922
  160TMC2    C3 2436   4.451   2.977   0.920  0.1295  0.1853 -0.2032
  160TMC2    C4 2437   4.644   3.122   1.054  0.2000  0.2461  0.3926
  160TMC2    C5 2438   4.672   3.016   0.974 -0.4869 -0.4151  0.3686
  160TMC2    C6 2439   4.578   2.940   0.910  0.4420  0.3973  0.2438
  160TMC2     C 2440   4.480   3.275   1.136  0.1867  0.0876  0.0879
  160TMC2     O 2441   4.568   3.327   1.204  0.1514 -0.0091 -0.1960
  160TMC2     H 2442   4.305   3.097   0.996  0.0600  1.0747  0.9714
  160TMC2    H1 2443   4.720   3.165   1.118  0.6787 -2.1653  1.4529
  160TMC2    H2 2444   4.600   2.855   0.846  1.9459  1.4906 -0.7067
  160TMC2    C7 2445   0.092   2.995   0.954  0.2183 -0.1885 -0.1682
  160TMC2    C8 2446   4.377   2.932   0.804 -0.2099 -0.3452  0.0060
  160TMC2    O1 2447   0.137   2.881   0.945 -0.7862  0.2996  0.6867
  160TMC2    O2 2448   4.398   2.828   0.747 -0.0705 -0.1051 -0.3777
  160TMC2    O5 2449   4.302   3.038   0.756 -0.0542  0.7267  0.4510
  160TMC2    H5 2450   4.299   3.119   0.810 -0.7185  0.8657  0.2056
  161MPD2     C 2451   4.324   3.485   1.296  0.0795  0.2780 -0.4351
  161MPD2    C1 2452   4.286   3.428   1.176 -0.0956  0.4789 -0.1230
  161MPD2    C2 2453   4.176   3.484   1.110 -0.1541 -0.6020  0.4815
  161MPD2    C3 2454   4.098   3.598   1.149 -0.2478  0.1106 -0.1052
  161MPD2    C4 2455   4.142   3.657   1.267 -0.1983  0.6731 -0.5490
  161MPD2    C5 2456   4.257   3.594   1.339 -0.4613  0.0376 -1.6488
  161MPD2     H 2457   4.149   3.442   1.014  0.4376  1.9669 -0.8160
  161MPD2    H1 2458   4.098   3.747   1.309  1.5818  0.6585  1.3633
  161MPD2    H2 2459   4.388   3.441   1.372  1.9984  1.4404 -1.4171
  161MPD2    H3 2460   4.278   3.633   1.439 -2.7735 -2.3135 -0.2575
  161MPD2     N 2461   3.989   3.654   1.091 -0.2327  0.2721  0.6009
  161MPD2    H5 2462   3.966   3.744   1.132 -1.6253 -0.5158  1.5344
  161MPD2    N1 2463   4.353   3.319   1.114  0.3152  0.4560  0.3123
  161MPD2    H7 2464   4.307   3.287   1.029  1.4269 -1.5877  0.4824
  162TMC2    C1 2465   2.321   0.364   1.040 -0.5497 -0.7435 -0.3988
  162TMC2    C2 2466   2.413   0.264   1.062 -0.0976 -0.0043  0.2556
  162TMC2    C3 2467   2.387   0.179   1.166 -0.7548  0.0770 -0.2982
  162TMC2    C4 2468   2.211   0.386   1.114  0.1819 -0.2570 -0.7576
  162TMC2    C5 2469   2.195   0.307   1.222 -0.0406 -0.3993  0.6154
  162TMC2    C6 2470   2.280   0.201   1.251 -0.3401 -0.4320  1.0025
  162TMC2     C 2471   2.320   0.402   0.905 -0.0146 -0.3340 -0.2569
  162TMC2     O 2472   2.402   0.358   0.827  0.4239 -0.1979  0.1887
  162TMC2     H 2473   2.496   0.245   0.994 -0.4414  1.7772 -0.6554
  162TMC2    H1 2474   2.130   0.453   1.086 -1.0834 -1.4258  0.1034
  162TMC2    H2 2475   2.246   0.116   1.308 -0.1966 -0.1006  1.5884
  162TMC2    C7 2476   2.078   0.330   1.302  0.8064  0.2335 -0.1336
  162TMC2    C8 2477   2.459   0.055   1.169  0.5747 -0.1980 -0.1454
  162TMC2    O1 2478   1.979   0.399   1.261 -0.3374  0.2944  0.3106
  162TMC2    O2 2479   2.519   0.005   1.077 -0.6085 -0.2863 -0.0423
  162TMC2    O5 2480   2.432   4.715   1.283 -0.2325 -0.3979 -0.0464
  162TMC2    H5 2481   2.386   0.042   1.352 -0.7140 -2.2424  1.0115
  163MPD2     C 2482   2.171   0.684   0.506 -0.2348 -0.4919 -0.6832
  163MPD2    C1 2483   2.245   0.564   0.512  0.5632  0.0562 -0.2206
  163MPD2    C2 2484   2.259   0.512   0.641  0.0327 -0.1850  0.5916
  163MPD2    C3 2485   2.211   0.568   0.757 -0.3104 -0.6833  0.1754
  163MPD2    C4 2486   2.141   0.688   0.740  0.1848 -0.0772  0.6470
  163MPD2    C5 2487   2.122   0.746   0.614  0.0998 -0.1088 -0.4000
  163MPD2     H 2488   2.312   0.418   0.635  1.2489  0.3817  2.6270
  163MPD2    H1 2489   2.109   0.749   0.823  1.3371  0.8477  0.4026
  163MPD2    H2 2490   2.142   0.729   0.412 -0.8953 -0.5265 -0.4933
  163MPD2    H3 2491   2.073   0.842   0.604 -0.1473 -0.1533  0.3995
  163MPD2     N 2492   2.226   0.503   0.877  0.6797  0.7413  0.1648
  163MPD2    H5 2493   2.183   0.552   0.955  1.3297  0.9290  0.4088
  163MPD2    N1 2494   2.300   0.506   0.390 -0.0283  0.1814  0.1300
  163MPD2    H7 2495   2.286   0.567   0.309  1.9666  0.4688 -0.0032
  164TCq2    C1 2496   3.204   4.619  11.524 -0.4527  0.5410 -0.1582
  164TCq2    O2 2497   3.174   4.503  11.544  0.1713 -0.1882 -0.1712
  164TCq2    C2 2498   3.206   4.712  11.633 -0.3478 -0.4213 -0.5404
  164TCq2    C3 2499   3.283   4.683  11.737  0.2365  0.5982 -0.0233
  164TCq2    C4 2500   3.299   0.053  11.842  0.2911 -0.3832  0.2483
  164TCq2    C5 2501   3.229   0.172  11.835 -0.2590 -0.6438 -0.0090
  164TCq2    C6 2502   3.154   0.192  11.722  0.3554  0.5382  0.1779
  164TCq2    C7 2503   3.142   0.100  11.623 -0.5903 -0.0831  0.0803
  164TCq2    C8 2504   3.097   0.322  11.687  0.3993 -0.0408 -0.5041
  164TCq2    O4 2505   3.071   0.340  11.569 -0.3231  0.2246  0.1462
  164TCq2    C9 2506   3.382   0.022  11.950  0.0888  0.1430  0.8021
  164TCq2    O5 2507   3.405   0.113  12.028  0.2466 -0.2420 -0.7876
  164TCq2    O6 2508   3.396   4.630  11.982  0.7959 -0.0652 -0.4058
  164TCq2    H2 2509   3.319   4.581  11.747 -1.7551 -0.1376 -0.2889
  164TCq2    H3 2510   3.218   0.241  11.919 -0.9560  0.5236 -1.0556
  164TCq2    H4 2511   3.079   0.131  11.541  2.0618 -0.6535 -2.1763
  165MPD2     C 2512   3.835   2.484   2.021  0.6314  0.2505 -1.0865
  165MPD2    C1 2513   3.806   2.400   2.124 -0.0490 -0.3217 -0.1600
  165MPD2    C2 2514   3.875   2.420   2.240 -0.0423 -0.1928  1.2298
  165MPD2    C3 2515   3.971   2.519   2.260 -0.4208  0.3235 -0.0902
  165MPD2    C4 2516   4.002   2.600   2.151  0.0508  0.4808 -0.2035
  165MPD2    C5 2517   3.928   2.582   2.039  0.4271  1.0817  0.1348
  165MPD2     H 2518   3.859   2.359   2.329  0.3036  0.3102  1.6314
  165MPD2    H1 2519   4.076   2.679   2.156 -0.2105  0.8412 -2.0285
  165MPD2    H2 2520   3.799   2.467   1.919 -2.0448  0.5784 -0.1989
  165MPD2    H3 2521   3.943   2.636   1.947 -1.8734  0.8499 -0.3897
  165MPD2     N 2522   4.058   2.520   2.373 -0.2157  0.2287  0.1255
  165MPD2    H5 2523   4.133   2.589   2.372 -1.1391  1.2387  0.4624
  165MPD2    N1 2524   3.713   2.302   2.102  0.0954 -0.1591 -0.1625
  165MPD2    H7 2525   3.703   2.279   2.004 -1.0810 -0.6864  0.0844
  166TCq2    C1 2526   4.042   2.452   2.485 -0.0441 -0.2258 -0.2194
  166TCq2    O2 2527   3.949   2.388   2.524  0.3678  0.3104  0.1984
  166TCq2    C2 2528   4.153   2.468   2.570 -0.5126  0.9383 -0.0251
  166TCq2    C3 2529   4.146   2.420   2.705 -0.4249  0.5037 -0.3425
  166TCq2    C4 2530   4.259   2.424   2.781  1.2756 -0.8327 -0.1851
  166TCq2    C5 2531   4.382   2.464   2.731 -0.5969  1.1675 -0.1532
  166TCq2    C6 2532   4.389   2.487   2.594 -0.0616 -0.1752  0.4522
  166TCq2    C7 2533   4.276   2.495   2.518  0.1828 -0.4917  0.2935
  166TCq2    C8 2534   4.519   2.488   2.527 -0.1794 -0.4679  0.5222
  166TCq2    O4 2535   4.536   2.564   2.430 -0.1929 -0.0981  0.3099
  166TCq2    C9 2536   4.248   2.391   2.928  0.2561  0.8908 -0.1735
  166TCq2    O5 2537   4.136   2.371   2.975 -0.0881  0.3230  0.0313
  166TCq2    O6 2538   4.353   2.416   2.993  0.7216  0.6543  0.5331
  166TCq2    H2 2539   4.051   2.397   2.752  0.1940  0.6420  0.9813
  166TCq2    H3 2540   4.466   2.492   2.793 -0.5383  1.4338 -0.3503
  166TCq2    H4 2541   4.297   2.511   2.413 -1.3016  0.7554  0.1877
  167TMC2    C1 2542   2.622   4.657  13.257  0.1987  0.1282  0.1048
  167TMC2    C2 2543   2.504   4.603  13.301 -0.4991 -0.4331  0.0718
  167TMC2    C3 2544   2.498   4.473  13.342  0.0966 -1.2193 -0.5126
  167TMC2    C4 2545   2.740   4.579  13.267  0.5489  0.0040  0.2459
  167TMC2    C5 2546   2.729   4.446  13.307  0.0214 -0.0481  0.1895
  167TMC2    C6 2547   2.615   4.393  13.355 -0.1234  0.7012 -0.3757
  167TMC2     C 2548   2.614   0.069  13.207  0.2909 -0.3079 -0.6763
  167TMC2     O 2549   2.529   0.148  13.242  0.1067  0.0376 -0.2975
  167TMC2     H 2550   2.419   4.669  13.288  1.6058  2.1049 -0.7301
  167TMC2    H1 2551   2.838   4.613  13.234  1.5006 -2.4805  0.5214
  167TMC2    H2 2552   2.620   4.291  13.391 -1.4482  1.1791  1.1593
  167TMC2    C7 2553   2.834   4.348  13.279 -0.4397 -0.1571 -0.0447
  167TMC2    C8 2554   2.364   4.410  13.334 -1.2956 -0.7954 -0.7570
  167TMC2    O1 2555   2.849   4.253  13.355 -0.1172 -0.1021 -0.3089
  167TMC2    O2 2556   2.273   4.454  13.266  0.0561  0.4533  0.5574
  167TMC2    O5 2557   2.385   4.285  13.365 -0.4597  0.2403 -0.1641
  167TMC2    H5 2558   2.456   4.266  13.430 -1.6105 -1.3169  0.6277
  168MPD2     C 2559   2.622   0.315  13.033  0.3732  0.0522  0.6911
  168MPD2    C1 2560   2.718   0.210  13.031 -0.7016  0.0677  0.2680
  168MPD2    C2 2561   2.822   0.218  12.944  0.2097  0.6064  0.7995
  168MPD2    C3 2562   2.829   0.324  12.849 -0.0215 -0.2290 -0.4312
  168MPD2    C4 2563   2.735   0.429  12.856  0.5381  0.1528 -0.6939
  168MPD2    C5 2564   2.640   0.418  12.951 -0.6273 -0.0567  0.5310
  168MPD2     H 2565   2.895   0.138  12.949 -1.6825 -1.2576 -1.2572
  168MPD2    H1 2566   2.737   0.515  12.790  1.3998  0.0309 -0.8273
  168MPD2    H2 2567   2.534   0.317  13.096  0.4975  0.5701  0.8490
  168MPD2    H3 2568   2.566   0.497  12.950 -2.7608 -2.0814 -0.0732
  168MPD2     N 2569   2.924   0.335  12.745 -0.2651  0.9333  0.4109
  168MPD2    H5 2570   2.901   0.391  12.664 -0.1325  2.9362  1.7619
  168MPD2    N1 2571   2.702   0.093  13.103  0.0335 -0.1598 -0.1393
  168MPD2    H7 2572   2.773   0.025  13.078  0.4550  0.2052  0.0621
  169MPD1     C 2573   0.409   2.922   8.778  1.6152 -0.2055 -0.4400
  169MPD1    C1 2574   0.528   2.953   8.830  0.4447  0.6451 -0.4498
  169MPD1    C2 2575   0.524   3.030   8.950 -0.3938 -0.1452 -0.1371
  169MPD1    C3 2576   0.408   3.077   9.007 -0.2884  0.3522 -0.3291
  169MPD1    C4 2577   0.291   3.059   8.943  0.2339  0.2069 -0.2400
  169MPD1    C5 2578   0.293   2.985   8.827  0.2086 -0.1383  0.0708
  169MPD1     H 2579   0.613   3.041   9.012 -0.1340 -1.5637 -0.2612
  169MPD1    H1 2580   0.193   3.097   8.971  0.7398  1.7300 -0.5620
  169MPD1    H2 2581   0.408   2.860   8.689  0.0612 -1.0429  0.1610
  169MPD1    H3 2582   0.204   2.981   8.766  0.2332  2.2990 -0.1214
  169MPD1     N 2583   0.422   3.134   9.134  0.4518  0.6712 -0.6115
  169MPD1    H5 2584   0.519   3.146   9.161  0.6079 -1.5375 -0.1521
  169MPD1    N1 2585   0.646   2.883   8.790  1.0149 -0.1439  0.2815
  169MPD1    H6 2586   0.647   2.876   8.688 -0.1117 -0.1411  0.2704
  169MPD1    H7 2587   0.725   2.943   8.811  1.1693  0.4577 -2.0140
  170MPD1     C 2588   4.122   3.353  13.375  0.1795 -0.3966  0.3343
  170MPD1    C1 2589   4.171   3.226  13.394  0.2833  0.3373  0.6887
  170MPD1    C2 2590   4.081   3.124  13.364  0.2693  0.0379  0.6423
  170MPD1    C3 2591   3.947   3.149  13.341 -0.8002  0.6179  0.1826
  170MPD1    C4 2592   3.894   3.276  13.345 -1.0596  0.8053  0.0382
  170MPD1    C5 2593   3.985   3.381  13.355  0.3028  0.1579 -0.4582
  170MPD1     H 2594   4.118   3.022  13.354  2.3459  0.8432  0.1263
  170MPD1    H1 2595   3.789   3.303  13.339 -1.2419  0.5054  2.1437
  170MPD1    H2 2596   4.189   3.438  13.376  0.0491 -0.3008  1.6569
  170MPD1    H3 2597   3.952   3.484  13.347 -0.6361 -0.0675  0.5484
  170MPD1     N 2598   3.862   3.038  13.344 -0.0584 -0.1245 -0.3703
  170MPD1    H5 2599   3.904   2.947  13.360  0.1787  0.1659  0.6980
  170MPD1    N1 2600   4.307   3.202  13.414 -0.2239  0.0297 -0.0919
  170MPD1    H6 2601   4.315   3.124  13.479 -0.3429 -0.8864 -1.1856
  170MPD1    H7 2602   4.358   3.278  13.459  0.7150  0.1487 -1.3700
  171MPD1     C 2603   1.892   3.164  15.237  0.3359  0.5149  0.1630
  171MPD1    C1 2604   1.925   3.227  15.352 -0.2398 -0.4088  0.2622
  171MPD1    C2 2605   1.941   3.147  15.466  0.0132 -0.7031 -0.1454
  171MPD1    C3 2606   1.931   3.010  15.466 -0.2204  0.1240 -0.0496
  171MPD1    C4 2607   1.929   2.951  15.340  0.6099 -0.1462  0.5763
  171MPD1    C5 2608   1.886   3.031  15.236  0.2959 -0.1308 -0.3811
  171MPD1     H 2609   1.960   3.194  15.562 -2.3167  0.8306 -0.4597
  171MPD1    H1 2610   1.933   2.845  15.319  0.5423  0.2409 -1.4146
  171MPD1    H2 2611   1.855   3.213  15.148 -0.0803  2.5430  1.4642
  171MPD1    H3 2612   1.863   2.979  15.144 -0.6285  1.2846 -0.9461
  171MPD1     N 2613   1.949   2.924  15.586 -0.1957  0.1317  0.1990
  171MPD1    H5 2614   1.938   2.825  15.571 -1.6506  0.4125 -0.4989
  171MPD1    N1 2615   1.906   3.368  15.363  0.1324  0.2619 -0.1024
  171MPD1    H6 2616   1.938   3.420  15.282 -2.1773 -0.3829 -1.4221
  171MPD1    H7 2617   1.964   3.408  15.437  0.3432 -2.2234  1.0645
  172MPD1     C 2618   1.249   2.917   1.075  0.2139 -0.3651 -0.1328
  172MPD1    C1 2619   1.135   2.849   1.022  0.5038  0.9835  0.1295
  172MPD1    C2 2620   1.056   2.912   0.929 -0.3272 -0.4576 -0.3402
  172MPD1    C3 2621   1.098   3.033   0.873 -1.0306  0.4308  0.2643
  172MPD1    C4 2622   1.218   3.088   0.908  0.0754 -0.2650 -0.0917
  172MPD1    C5 2623   1.288   3.033   1.019  0.0695 -0.7167 -0.0035
  172MPD1     H 2624   0.962   2.867   0.901 -0.0278 -1.3919  0.1516
  172MPD1    H1 2625   1.257   3.174   0.855  1.7334  0.3726  2.1969
  172MPD1    H2 2626   1.307   2.882   1.160 -0.0924 -0.2331  0.1302
  172MPD1    H3 2627   1.373   3.089   1.056  0.2883 -2.7943  2.6194
  172MPD1     N 2628   1.029   3.092   0.766  0.4312  0.3429 -0.5026
  172MPD1    H5 2629   1.071   3.162   0.705 -1.4955  0.7171 -1.3864
  172MPD1    N1 2630   1.083   2.738   1.092  0.4530 -0.2729 -0.6065
  172MPD1    H6 2631   1.020   2.767   1.167  0.1504 -2.2551 -0.0974
  172MPD1    H7 2632   1.033   2.677   1.027  3.2386  0.1050 -3.1154
  173MPD1     C 2633   2.254   3.098  13.886 -0.0349  0.6935  0.5285
  173MPD1    C1 2634   2.341   3.165  13.965  0.4834  0.5572 -0.4412
  173MPD1    C2 2635   2.415   3.090  14.050 -0.6895 -0.2449  0.2489
  173MPD1    C3 2636   2.416   2.951  14.044  0.1111  0.0403 -0.3263
  173MPD1    C4 2637   2.332   2.886  13.962  0.2561 -0.0418  0.6925
  173MPD1    C5 2638   2.249   2.962  13.884  0.2796 -0.5081 -0.7404
  173MPD1     H 2639   2.485   3.136  14.119 -0.6065 -1.5730  1.0691
  173MPD1    H1 2640   2.313   2.779  13.950 -0.8057  0.5195 -2.5853
  173MPD1    H2 2641   2.180   3.160  13.835  1.1608 -0.3175 -2.4367
  173MPD1    H3 2642   2.169   2.911  13.830 -1.3026  0.3624  0.7928
  173MPD1     N 2643   2.502   2.890  14.138  0.6843 -0.0013 -0.1686
  173MPD1    H5 2644   2.536   2.951  14.211 -1.7623  1.4125 -0.2035
  173MPD1    N1 2645   2.322   3.298  13.981  0.0644  0.1599  0.0462
  173MPD1    H6 2646   2.289   3.351  13.901  0.2682 -2.0001 -1.4696
  173MPD1    H7 2647   2.407   3.344  14.013  1.0842 -2.9518  1.8152
  174MPD1     C 2648   3.335   2.400  14.199 -0.0228 -0.1315 -0.2032
  174MPD1    C1 2649   3.287   2.404  14.323  0.4775  0.4495  0.2506
  174MPD1    C2 2650   3.149   2.430  14.340 -0.2205 -0.3027  0.7273
  174MPD1    C3 2651   3.066   2.439  14.230  0.9208  0.0384 -0.2846
  174MPD1    C4 2652   3.118   2.436  14.103 -0.5809  0.8500 -0.2504
  174MPD1    C5 2653   3.252   2.419  14.090  0.0620  0.1101 -0.2427
  174MPD1     H 2654   3.120   2.443  14.444  1.0815 -0.4448  1.1196
  174MPD1    H1 2655   3.058   2.441  14.013 -0.4833 -0.7947 -0.4067
  174MPD1    H2 2656   3.439   2.389  14.172 -0.0730 -1.1114 -0.0037
  174MPD1    H3 2657   3.292   2.424  13.989  0.5744 -0.2424 -0.0580
  174MPD1     N 2658   2.928   2.462  14.239 -0.4454 -0.1714  0.6447
  174MPD1    H5 2659   2.882   2.471  14.149  0.7529  0.5159  0.0891
  174MPD1    N1 2660   3.377   2.410  14.434 -1.0304  0.4281 -0.5562
  174MPD1    H6 2661   3.462   2.356  14.421  0.8302  2.9727  0.9571
  174MPD1    H7 2662   3.328   2.395  14.522 -0.6966  1.2223 -0.2351
  175MPD1     C 2663   0.681   3.592  15.625  0.3556 -0.4361 -0.0720
  175MPD1    C1 2664   0.768   3.507  15.698 -0.1114  0.3903 -0.1171
  175MPD1    C2 2665   0.768   3.512  15.833 -0.5044 -0.2210 -0.1591
  175MPD1    C3 2666   0.681   3.586  15.907 -0.5736 -0.1886  0.6456
  175MPD1    C4 2667   0.591   3.660  15.827  0.8533  0.3564  0.2883
  175MPD1    C5 2668   0.599   3.668  15.697  0.0607 -0.3171 -0.0439
  175MPD1     H 2669   0.831   3.454  15.899  0.4429 -0.3016 -1.1376
  175MPD1    H1 2670   0.521   3.726  15.878 -0.5664 -0.3278 -0.7600
  175MPD1    H2 2671   0.695   3.601  15.518  1.6916  1.1930  0.2471
  175MPD1    H3 2672   0.539   3.742  15.646  1.0785  0.6101  0.1249
  175MPD1     N 2673   0.680   3.603  16.046  0.0490  0.0783 -0.7056
  175MPD1    H5 2674   0.609   3.668  16.077 -0.5005 -0.3872 -0.9860
  175MPD1    N1 2675   0.892   3.462  15.639  0.1050 -0.0843  0.6161
  175MPD1    H6 2676   0.940   3.386  15.687 -0.8008  0.1827  1.9396
  175MPD1    H7 2677   0.870   3.423  15.547 -0.4573  1.1286  0.2375
  176MPD1     C 2678   2.711   0.930  17.033  0.8647 -0.4564 -0.1216
  176MPD1    C1 2679   2.786   0.976  16.930 -0.2820 -0.3330 -0.3662
  176MPD1    C2 2680   2.865   1.091  16.951  1.3597  0.4895 -0.5972
  176MPD1    C3 2681   2.874   1.139  17.084 -0.1425 -0.5312 -0.3176
  176MPD1    C4 2682   2.806   1.082  17.185  0.6930 -0.6104  0.5793
  176MPD1    C5 2683   2.719   0.987  17.152  0.0047  0.2291  0.2843
  176MPD1     H 2684   2.920   1.139  16.870 -0.1624  1.2943 -1.1522
  176MPD1    H1 2685   2.808   1.116  17.289 -1.9208  0.0266  0.4302
  176MPD1    H2 2686   2.642   0.848  17.013  0.0211  0.1740  0.2046
  176MPD1    H3 2687   2.664   0.941  17.233  1.8520 -2.3020  0.0811
  176MPD1     N 2688   2.940   1.266  17.106  0.2783 -0.5894  0.1388
  176MPD1    H5 2689   2.973   1.313  17.022 -0.6421 -0.1685  0.0068
  176MPD1    N1 2690   2.774   0.919  16.803  0.5272  0.3011  0.2805
  176MPD1    H6 2691   2.722   0.832  16.803  3.2970 -1.3536 -1.8656
  176MPD1    H7 2692   2.862   0.905  16.753  0.1556  1.6717 -0.7703
  177MPD1     C 2693   1.491   0.662  10.161  0.2117  0.0262 -0.5443
  177MPD1    C1 2694   1.379   0.717  10.112  1.0365 -0.1180 -0.1444
  177MPD1    C2 2695   1.308   0.644  10.020 -0.3534 -1.0688  0.0076
  177MPD1    C3 2696   1.356   0.528   9.961  0.5589  0.5225  0.1088
  177MPD1    C4 2697   1.479   0.485  10.001 -0.2121 -0.0669  0.1602
  177MPD1    C5 2698   1.538   0.549  10.099  0.1406 -0.0702  0.8819
  177MPD1     H 2699   1.206   0.680  10.009 -1.0724 -2.9110  0.5187
  177MPD1    H1 2700   1.530   0.407   9.946  0.4857 -0.1624  0.9521
  177MPD1    H2 2701   1.556   0.696  10.240  0.3903 -0.7386 -0.3599
  177MPD1    H3 2702   1.640   0.517  10.113  0.6736  0.7797 -1.0174
  177MPD1     N 2703   1.280   0.462   9.863  0.1232 -0.1066  0.2689
  177MPD1    H5 2704   1.183   0.485   9.847  0.1134  1.0279  2.0125
  177MPD1    N1 2705   1.320   0.830  10.172 -0.2010  0.1499 -0.3633
  177MPD1    H6 2706   1.266   0.874  10.097 -0.7092  0.8257  0.4110
  177MPD1    H7 2707   1.390   0.902  10.191 -1.2202  1.5557 -1.9236
  178MPD1     C 2708   3.175   2.399  17.540 -0.3538 -0.0949  0.0254
  178MPD1    C1 2709   3.296   2.459  17.505  0.4500  0.1969  0.0438
  178MPD1    C2 2710   3.396   2.371  17.458  0.3662 -0.0806 -0.0221
  178MPD1    C3 2711   3.366   2.235  17.458 -0.0125 -0.2624 -0.1011
  178MPD1    C4 2712   3.250   2.177  17.504  0.0605  0.9127 -0.8141
  178MPD1    C5 2713   3.157   2.265  17.549  0.3830 -1.2108 -0.1774
  178MPD1     H 2714   3.490   2.406  17.416  1.1346 -0.5039  1.3137
  178MPD1    H1 2715   3.230   2.071  17.511 -0.2033  1.0727  0.7893
  178MPD1    H2 2716   3.086   2.449  17.576  0.4252  0.9578  0.4827
  178MPD1    H3 2717   3.061   2.226  17.579  0.5733 -0.7951  0.9723
  178MPD1     N 2718   3.446   2.135  17.395 -0.0306  0.0169 -0.3156
  178MPD1    H5 2719   3.413   2.040  17.407 -1.8850  0.5577 -1.1845
  178MPD1    N1 2720   3.304   2.599  17.471  0.7296  0.4052  0.1636
  178MPD1    H6 2721   3.395   2.619  17.511  1.3992  1.3344 -1.8303
  178MPD1    H7 2722   3.234   2.647  17.526 -1.8043 -0.3708 -2.3730
  179MPD1     C 2723   2.648   0.649  16.613 -0.4285  0.2132 -0.3253
  179MPD1    C1 2724   2.589   0.635  16.487  1.2329 -0.0568  0.9590
  179MPD1    C2 2725   2.615   0.531  16.407 -0.5334  0.2532 -0.5568
  179MPD1    C3 2726   2.714   0.446  16.446 -1.1132  0.3002 -0.3061
  179MPD1    C4 2727   2.770   0.454  16.574  0.7344  0.2614  0.5319
  179MPD1    C5 2728   2.728   0.553  16.660 -0.5897 -0.4273 -0.0200
  179MPD1     H 2729   2.569   0.529  16.309 -1.4341  2.1621 -0.1810
  179MPD1    H1 2730   2.833   0.373  16.607 -0.3271 -1.0156 -0.5700
  179MPD1    H2 2731   2.636   0.745  16.662 -1.8415  0.4650 -1.1412
  179MPD1    H3 2732   2.768   0.554  16.761  0.5143 -1.5797 -0.4400
  179MPD1     N 2733   2.740   0.331  16.369 -0.7128  0.4128 -0.2207
  179MPD1    H5 2734   2.801   0.269  16.421  0.1180  0.8744 -0.6406
  179MPD1    N1 2735   2.522   0.751  16.433 -0.0343  0.2824  0.3874
  179MPD1    H6 2736   2.459   0.733  16.356  0.8533  0.4680 -0.3749
  179MPD1    H7 2737   2.473   0.807  16.503  1.5052  0.2238  1.5284
  180MPD1     C 2738   2.357   1.381  13.768 -0.0260 -0.2606  0.3541
  180MPD1    C1 2739   2.361   1.261  13.697 -0.5833 -0.3283 -0.3270
  180MPD1    C2 2740   2.435   1.158  13.753  0.3424 -0.2066 -0.2571
  180MPD1    C3 2741   2.496   1.167  13.879  0.1030 -0.2707 -0.5280
  180MPD1    C4 2742   2.469   1.284  13.956 -0.0070 -0.2889 -0.8963
  180MPD1    C5 2743   2.401   1.386  13.897 -0.0973 -0.1225  0.8174
  180MPD1     H 2744   2.447   1.066  13.695  1.0590  0.0007 -0.4407
  180MPD1    H1 2745   2.507   1.296  14.056  0.0407  2.2559 -1.2182
  180MPD1    H2 2746   2.312   1.470  13.726  0.5396  0.4151  1.1850
  180MPD1    H3 2747   2.392   1.479  13.952  0.2923 -0.2016  1.0130
  180MPD1     N 2748   2.567   1.047  13.930 -0.2687  0.7908  0.5470
  180MPD1    H5 2749   2.582   0.971  13.864 -0.5821  1.1295  0.0852
  180MPD1    N1 2750   2.309   1.249  13.567 -0.3345  0.6748  0.2076
  180MPD1    H6 2751   2.293   1.151  13.545  2.7922  0.4601 -1.0815
  180MPD1    H7 2752   2.225   1.303  13.545 -0.0010  1.4855  0.9324
  181MPD1     C 2753   4.621   2.615  10.157  0.5731 -0.0334 -0.2661
  181MPD1    C1 2754   4.625   2.494  10.094  0.1848  0.0792  0.5270
  181MPD1    C2 2755   0.012   2.455  10.016  0.0863  0.4373 -0.2656
  181MPD1    C3 2756   0.112   2.553   9.983  0.6544 -0.2609 -0.2807
  181MPD1    C4 2757   0.097   2.674  10.046  0.3410 -0.2373 -0.0321
  181MPD1    C5 2758   4.724   2.703  10.140  0.2357 -0.7372 -0.6413
  181MPD1     H 2759   0.007   2.356   9.970  1.5433 -0.1895  0.9383
  181MPD1    H1 2760   0.180   2.745  10.045  0.1430 -0.0452 -2.3646
  181MPD1    H2 2761   4.544   2.646  10.228 -0.3969 -2.1412 -0.3861
  181MPD1    H3 2762   0.001   2.801  10.185 -1.2798 -0.5219 -1.0583
  181MPD1     N 2763   0.227   2.524   9.907  0.2923 -0.4754 -0.5326
  181MPD1    H5 2764   0.297   2.596   9.901  0.0209 -0.3464 -2.2712
  181MPD1    N1 2765   4.542   2.388  10.127 -0.2121 -0.6163  0.0528
  181MPD1    H6 2766   4.558   2.301  10.077 -0.6407 -1.0731  0.7043
  181MPD1    H7 2767   4.443   2.408  10.140  0.5274  1.6330  2.2460
  182MPD1     C 2768   1.365   1.859   2.091 -1.3765  0.1397  0.1431
  182MPD1    C1 2769   1.397   1.785   1.977 -0.0653 -0.6205 -0.2457
  182MPD1    C2 2770   1.303   1.792   1.872 -0.1994 -0.6107 -0.2499
  182MPD1    C3 2771   1.184   1.864   1.895 -0.3027  0.4197  0.7647
  182MPD1    C4 2772   1.163   1.937   2.009 -0.1193  0.4711 -0.0810
  182MPD1    C5 2773   1.255   1.930   2.108  0.1554 -0.0112  0.1527
  182MPD1     H 2774   1.320   1.737   1.780 -1.2917  0.7615 -1.2640
  182MPD1    H1 2775   1.071   1.992   2.027 -1.2367 -0.3456 -3.3552
  182MPD1    H2 2776   1.431   1.864   2.177 -0.5932 -0.8822 -0.4012
  182MPD1    H3 2777   1.261   1.989   2.199 -1.0029 -0.8005  0.7504
  182MPD1     N 2778   1.079   1.869   1.802  0.4152 -0.1034  0.9745
  182MPD1    H5 2779   1.012   1.940   1.828  0.3326  0.0524  0.3485
  182MPD1    N1 2780   1.524   1.728   1.961  0.2728 -0.1405 -0.0321
  182MPD1    H6 2781   1.532   1.651   1.895  0.1985 -1.5489  1.5818
  182MPD1    H7 2782   1.571   1.699   2.046  1.5928 -0.6475 -0.9437
  183MPD1     C 2783   1.154   1.840   9.846 -0.3849  0.6684 -0.4405
  183MPD1    C1 2784   1.277   1.854   9.782  1.0021  0.0515  0.4468
  183MPD1    C2 2785   1.322   1.979   9.756 -0.1787 -0.0563 -1.2135
  183MPD1    C3 2786   1.253   2.091   9.795 -0.1129 -0.9861  0.1290
  183MPD1    C4 2787   1.136   2.080   9.870  0.1320 -0.3116  0.1288
  183MPD1    C5 2788   1.088   1.954   9.886 -0.4877 -0.7694 -0.3286
  183MPD1     H 2789   1.419   2.000   9.713  2.0646 -0.8114  3.5264
  183MPD1    H1 2790   1.074   2.165   9.897  1.6999  0.6846  0.5671
  183MPD1    H2 2791   1.109   1.744   9.870 -1.0878  1.5952  1.9336
  183MPD1    H3 2792   0.992   1.943   9.936 -0.3330  2.1622  0.6212
  183MPD1     N 2793   1.299   2.210   9.755  0.0550  0.2581  0.3697
  183MPD1    H5 2794   1.381   2.204   9.695 -0.5881  0.5685 -0.5387
  183MPD1    N1 2795   1.341   1.733   9.742  0.4806 -0.5821 -0.0504
  183MPD1    H6 2796   1.315   1.655   9.801  0.6747  0.0208  0.8300
  183MPD1    H7 2797   1.442   1.741   9.733  0.3503  1.9441  0.7670
  184MPD1     C 2798   0.167   4.500  10.427  0.3638 -0.0626  0.2244
  184MPD1    C1 2799   0.251   4.612  10.411 -0.0598  0.0438  0.3049
  184MPD1    C2 2800   0.326   4.622  10.292 -0.2447  0.7455  0.2854
  184MPD1    C3 2801   0.320   4.532  10.190  0.8961 -0.9778  0.0527
  184MPD1    C4 2802   0.237   4.426  10.210  0.6056 -0.6646  0.1947
  184MPD1    C5 2803   0.168   4.406  10.333  0.2988 -0.0502 -0.2520
  184MPD1     H 2804   0.394   4.707  10.288  0.3589  0.3107  1.2502
  184MPD1    H1 2805   0.242   4.349  10.133 -0.5886  0.0640 -0.6155
  184MPD1    H2 2806   0.097   4.499  10.509 -1.5134  0.5451 -1.3646
  184MPD1    H3 2807   0.104   4.320  10.354 -0.4419  0.4624 -0.4074
  184MPD1     N 2808   0.387   4.532  10.065 -0.2958  0.1244  0.0955
  184MPD1    H5 2809   0.386   4.461   9.992 -0.3586 -1.0419  1.2433
  184MPD1    N1 2810   0.242   4.718  10.502  0.2117 -0.5649 -0.4567
  184MPD1    H6 2811   0.230   4.689  10.598  0.6764  1.7799  0.3282
  184MPD1    H7 2812   0.327   0.050  10.511  0.9579 -1.8010  0.3603
  185MPD1     C 2813   0.542   4.133   9.168 -0.5910 -0.1458  0.4619
  185MPD1    C1 2814   0.464   4.111   9.277 -0.0467 -0.8996  0.0079
  185MPD1    C2 2815   0.476   4.197   9.389 -0.0385  1.2486 -0.3658
  185MPD1    C3 2816   0.568   4.290   9.386 -0.0300  0.0714  0.8595
  185MPD1    C4 2817   0.656   4.304   9.278  0.4320 -0.3566 -0.4108
  185MPD1    C5 2818   0.637   4.224   9.176  0.2746 -0.3391 -0.0578
  185MPD1     H 2819   0.406   4.181   9.470 -0.4564  0.2115 -0.9255
  185MPD1    H1 2820   0.738   4.375   9.288 -0.7284  0.7858  0.9639
  185MPD1    H2 2821   0.518   4.089   9.072 -0.6295  0.8347  0.0224
  185MPD1    H3 2822   0.710   4.229   9.096  1.3921  0.6161  1.0311
  185MPD1     N 2823   0.591   4.379   9.496  0.5974  0.6068 -1.1339
  185MPD1    H5 2824   0.672   4.440   9.492  1.5341 -0.5117  0.9830
  185MPD1    N1 2825   0.350   4.032   9.270  0.6577 -0.1167 -0.0036
  185MPD1    H6 2826   0.323   3.998   9.362 -0.0703  0.7580  0.1211
  185MPD1    H7 2827   0.359   3.951   9.210  2.3769  0.1977 -0.1615
  186MPD1     C 2828   2.772   4.683  15.756  0.2907 -0.1753  0.3041
  186MPD1    C1 2829   2.905   4.638  15.748  0.4539 -0.2506  0.6703
  186MPD1    C2 2830   3.003   4.705  15.815  0.4828 -0.3215 -0.0763
  186MPD1    C3 2831   2.977   0.097  15.877  0.3576 -0.2898 -0.7299
  186MPD1    C4 2832   2.854   0.153  15.872 -0.7519 -0.5316 -0.2604
  186MPD1    C5 2833   2.748   0.081  15.804  0.3649 -0.1414  0.1747
  186MPD1     H 2834   3.104   4.666  15.814  0.3624 -0.5867 -2.2055
  186MPD1    H1 2835   2.826   0.252  15.904  2.5335 -0.2049  1.6443
  186MPD1    H2 2836   2.697   4.622  15.708 -0.7680 -0.7027  2.6505
  186MPD1    H3 2837   2.648   0.124  15.807  0.6213  0.5152 -0.9329
  186MPD1     N 2838   3.070   0.173  15.942 -0.3528  0.3159 -0.0953
  186MPD1    H5 2839   3.038   0.252  15.997 -2.1260  0.1742 -0.9145
  186MPD1    N1 2840   2.927   4.511  15.705  0.2237  0.8094 -0.3578
  186MPD1    H6 2841   3.025   4.500  15.678  0.8892  0.5843  2.1579
  186MPD1    H7 2842   2.871   4.481  15.625  0.0256  0.9141 -0.2556
  187MPD1     C 2843   2.733   2.548  17.633  0.3701  0.1097  1.0341
  187MPD1    C1 2844   2.761   2.410  17.633  0.5952  0.1636  0.1390
  187MPD1    C2 2845   2.737   2.338  17.519  0.6723  0.6592 -0.0047
  187MPD1    C3 2846   2.672   2.399  17.413 -0.8809 -0.2958 -0.2033
  187MPD1    C4 2847   2.639   2.533  17.421  0.1256  0.6749  0.1036
  187MPD1    C5 2848   2.675   2.610  17.524 -0.5440  0.4778 -0.0791
  187MPD1     H 2849   2.766   2.234  17.505  1.6155  0.9083  0.0657
  187MPD1    H1 2850   2.587   2.579  17.338  0.8643 -1.0366 -1.3025
  187MPD1    H2 2851   2.753   2.606   0.022 -0.2462  1.5200  0.2650
  187MPD1    H3 2852   2.645   2.714  17.524 -0.8923  0.3919  2.3801
  187MPD1     N 2853   2.649   2.323  17.289  0.0212 -0.0565  0.4936
  187MPD1    H5 2854   2.601   2.369  17.212  0.0979 -2.1022 -0.7654
  187MPD1    N1 2855   2.803   2.347   0.047  0.2027 -0.2173 -0.1569
  187MPD1    H6 2856   2.829   2.248   0.046  1.2103  0.0328  0.4361
  187MPD1    H7 2857   2.873   2.396   0.103  1.9914 -0.3584 -2.2535
  188MPD1     C 2858   2.791   1.710  10.285 -0.5133  0.9703 -0.5649
  188MPD1    C1 2859   2.821   1.605  10.364  0.6678 -0.5359 -0.8521
  188MPD1    C2 2860   2.852   1.484  10.301  0.1699 -0.5080 -0.0832
  188MPD1    C3 2861   2.832   1.459  10.170 -0.0062  0.1200 -0.6840
  188MPD1    C4 2862   2.784   1.572  10.097  0.2227 -0.5372 -0.4265
  188MPD1    C5 2863   2.771   1.694  10.150 -0.3746 -0.6152 -0.1288
  188MPD1     H 2864   2.888   1.402  10.362  0.9548  0.7758  1.1739
  188MPD1    H1 2865   2.781   1.563   9.989  0.4099  0.3170 -0.5046
  188MPD1    H2 2866   2.782   1.808  10.331 -0.0835  0.9587 -0.4582
  188MPD1    H3 2867   2.742   1.776  10.085  1.6820  0.8695  0.8359
  188MPD1     N 2868   2.862   1.337  10.106 -0.0427 -0.2562  0.5863
  188MPD1    H5 2869   2.860   1.340  10.005  0.8822 -1.8562  0.5342
  188MPD1    N1 2870   2.851   1.626  10.499 -0.1887  0.0479  0.4056
  188MPD1    H6 2871   2.858   1.548  10.564  2.6956  1.3701  1.6964
  188MPD1    H7 2872   2.801   1.705  10.540 -0.5715 -0.2084  0.4348
  189MPD1     C 2873   4.458   2.344   0.348  0.4401 -0.1954  0.4180
  189MPD1    C1 2874   4.365   2.270   0.423  0.1320  0.2959  0.3970
  189MPD1    C2 2875   4.234   2.272   0.366 -0.2561 -0.3368  0.2290
  189MPD1    C3 2876   4.201   2.360   0.264  0.7978  0.4105 -0.5815
  189MPD1    C4 2877   4.298   2.429   0.201 -0.5154 -0.1558 -0.3688
  189MPD1    C5 2878   4.428   2.428   0.250  0.0567  0.4066  0.0341
  189MPD1     H 2879   4.158   2.205   0.405 -0.6012 -0.4355 -0.6247
  189MPD1    H1 2880   4.290   2.481   0.107  1.7402  2.3536  0.8352
  189MPD1    H2 2881   4.562   2.341   0.380  0.7145 -0.1218 -0.4781
  189MPD1    H3 2882   4.515   2.447   0.188  0.5279  0.6963  0.7907
  189MPD1     N 2883   4.065   2.359   0.216 -0.2515 -0.3022 -0.1945
  189MPD1    H5 2884   4.005   2.281   0.241 -1.8763  1.0096 -0.0291
  189MPD1    N1 2885   4.396   2.180   0.519 -0.6194  0.5347 -0.2085
  189MPD1    H6 2886   4.317   2.143   0.572  0.1356  1.8959  1.8777
  189MPD1    H7 2887   4.445   2.229   0.594 -0.3766 -0.5468  0.3408
  190MPD1     C 2888   3.040   0.934  16.118  0.7526  0.0828  0.2101
  190MPD1    C1 2889   3.116   1.045  16.167  0.2691 -0.7570  0.0175
  190MPD1    C2 2890   3.187   1.112  16.074  0.4447  0.1077 -0.1401
  190MPD1    C3 2891   3.210   1.068  15.945 -0.2906 -0.0880  0.4241
  190MPD1    C4 2892   3.164   0.939  15.915  0.0138  0.1254 -0.2957
  190MPD1    C5 2893   3.076   0.879  15.999  0.1762 -0.3641 -0.3440
  190MPD1     H 2894   3.235   1.204  16.106 -0.3989  0.4670  0.0800
  190MPD1    H1 2895   3.180   0.889  15.821 -0.9898  0.3957 -0.6061
  190MPD1    H2 2896   2.975   0.878  16.185  0.5013 -0.7414 -0.7263
  190MPD1    H3 2897   3.014   0.800  15.956  1.2640 -2.3023  1.6354
  190MPD1     N 2898   3.295   1.149  15.866 -0.5750  0.3310  0.5942
  190MPD1    H5 2899   3.326   1.237  15.906 -2.5475  0.9160  0.8550
  190MPD1    N1 2900   3.086   1.103  16.286  0.3981  0.3773 -0.1902
  190MPD1    H6 2901   3.026   1.059  16.356  0.6151 -0.5338 -0.5800
  190MPD1    H7 2902   3.157   1.166  16.324  1.7605 -2.1900  1.5706
  191MPD1     C 2903   2.245   2.678  13.084 -0.1217 -0.0660 -0.9789
  191MPD1    C1 2904   2.140   2.757  13.125  0.2847 -0.1763 -0.3068
  191MPD1    C2 2905   2.126   2.885  13.083  0.0341 -0.0999  0.2897
  191MPD1    C3 2906   2.228   2.951  13.016 -0.2390  0.9035  0.5139
  191MPD1    C4 2907   2.329   2.870  12.969 -0.4557 -0.5974  0.3602
  191MPD1    C5 2908   2.336   2.736  13.004  0.4035  0.0110  0.4297
  191MPD1     H 2909   2.044   2.949  13.116 -1.0564 -1.2238 -0.2444
  191MPD1    H1 2910   2.411   2.902  12.906 -0.3161 -1.0085  0.3346
  191MPD1    H2 2911   2.252   2.580  13.129  0.0766  0.3655 -0.0623
  191MPD1    H3 2912   2.411   2.664  12.972 -0.3079 -0.4485 -0.1995
  191MPD1     N 2913   2.219   3.089  12.994 -0.1679  0.0938 -0.3414
  191MPD1    H5 2914   2.133   3.134  13.024  0.7599  0.3145  1.9821
  191MPD1    N1 2915   2.034   2.701  13.198  0.0602 -0.1671  0.1209
  191MPD1    H6 2916   2.041   2.624  13.264  1.5065 -0.4539 -0.3872
  191MPD1    H7 2917   1.969   2.771  13.234  0.4323  0.1386  0.1962
  192MPD1     C 2918   1.951   3.448  13.664 -0.2319 -0.4760 -0.3089
  192MPD1    C1 2919   2.034   3.550  13.631 -0.8201  0.2852  0.6413
  192MPD1    C2 2920   2.081   3.544  13.504  0.1566 -0.4663  0.5109
  192MPD1    C3 2921   2.041   3.450  13.413  0.2597 -0.7751  0.0383
  192MPD1    C4 2922   1.948   3.356  13.450  0.1978  0.7883  1.0092
  192MPD1    C5 2923   1.908   3.351  13.575  0.4313 -0.0844  0.3941
  192MPD1     H 2924   2.164   3.607  13.474 -0.8192  0.4740 -0.2087
  192MPD1    H1 2925   1.909   3.285  13.378 -0.6046  1.9895  0.2685
  192MPD1    H2 2926   1.916   3.438  13.767 -1.7586 -0.0831 -0.7876
  192MPD1    H3 2927   1.840   3.270  13.599  1.8420 -1.4941 -0.3304
  192MPD1     N 2928   2.095   3.438  13.284 -0.0192 -0.7148  0.2314
  192MPD1    H5 2929   2.071   3.366  13.216 -1.4490  0.2825 -0.3229
  192MPD1    N1 2930   2.089   3.642  13.726 -0.9555  0.0086 -0.7772
  192MPD1    H6 2931   2.105   3.737  13.695 -1.9396  0.2333 -0.6053
  192MPD1    H7 2932   2.031   3.650  13.810 -1.0067 -0.4546 -0.7673
  193MPD1     C 2933   1.453   3.361  17.057 -0.0029 -0.6261  0.3561
  193MPD1    C1 2934   1.469   3.449  16.954 -0.9846  0.0288  0.6937
  193MPD1    C2 2935   1.582   3.532  16.951 -0.3802  0.3411  0.7827
  193MPD1    C3 2936   1.663   3.545  17.065 -1.2466  0.1979  0.0302
  193MPD1    C4 2937   1.626   3.478  17.176 -0.2385  0.2718  0.1079
  193MPD1    C5 2938   1.522   3.387  17.170 -0.4071  0.9397 -0.5423
  193MPD1     H 2939   1.620   3.584  16.863 -0.1122  0.7780  1.1515
  193MPD1    H1 2940   1.688   3.479  17.265 -0.0666  1.7488 -0.0323
  193MPD1    H2 2941   1.383   3.279  17.054 -0.7003 -0.0292  0.1317
  193MPD1    H3 2942   1.516   3.317  17.252  3.0017  1.5214  0.2146
  193MPD1     N 2943   1.779   3.618  17.074 -0.2229 -0.1282 -0.8170
  193MPD1    H5 2944   1.824   3.632  17.164  1.7241  1.1392 -1.9733
  193MPD1    N1 2945   1.393   3.431  16.843 -0.3970 -0.2223  0.6713
  193MPD1    H6 2946   1.300   3.396  16.863 -0.7169  0.0407 -0.3527
  193MPD1    H7 2947   1.390   3.520  16.793 -2.4723 -0.2745  0.7094
  194MPD1     C 2948   1.102   0.965  16.642  0.0603 -0.0225 -0.0917
  194MPD1    C1 2949   1.022   0.863  16.603  0.0337 -0.0420 -0.1256
  194MPD1    C2 2950   0.944   0.805  16.694  0.7598 -0.1714  0.2827
  194MPD1    C3 2951   0.962   0.827  16.834 -0.2917 -0.5885  0.3345
  194MPD1    C4 2952   1.057   0.918  16.872  0.6540 -0.0471  0.4178
  194MPD1    C5 2953   1.117   0.992  16.774 -1.2344 -0.2726 -0.6462
  194MPD1     H 2954   0.873   0.734  16.652  1.9007 -0.0651 -1.8739
  194MPD1    H1 2955   1.073   0.933  16.978  2.6600  2.0152 -0.1756
  194MPD1    H2 2956   1.168   1.015  16.571  0.0190 -0.1753 -0.2359
  194MPD1    H3 2957   1.186   1.072  16.794 -1.3103  0.2810 -2.6622
  194MPD1     N 2958   0.892   0.745  16.926 -0.1304  0.1941 -0.1509
  194MPD1    H5 2959   0.894   0.767  17.025  1.4435  0.8612 -0.3295
  194MPD1    N1 2960   1.005   0.837  16.464 -0.0862 -0.9813  0.3082
  194MPD1    H6 2961   0.985   0.739  16.449  0.4896 -0.6819 -2.4763
  194MPD1    H7 2962   1.087   0.872  16.414  0.2274  0.9257  2.1091
  195MPD1     C 2963   2.242   2.742  17.366  0.1584 -0.3359 -0.2830
  195MPD1    C1 2964   2.244   2.755  17.505  0.3783 -0.6407  0.1878
  195MPD1    C2 2965   2.270   2.641  17.581  0.3000 -0.3091 -0.1541
  195MPD1    C3 2966   2.313   2.526  17.522 -0.2861 -0.0469  0.2657
  195MPD1    C4 2967   2.320   2.518  17.384 -0.5032 -0.1966  0.0560
  195MPD1    C5 2968   2.287   2.627  17.307 -0.0732  0.6798 -0.0622
  195MPD1     H 2969   2.266   2.644  17.689 -0.0298 -0.7836 -0.1529
  195MPD1    H1 2970   2.352   2.425  17.337 -3.3549  0.0675 -2.3812
  195MPD1    H2 2971   2.202   2.820  17.303 -2.0890 -0.0209  1.5319
  195MPD1    H3 2972   2.301   2.611  17.201 -2.3998 -1.2971 -0.0642
  195MPD1     N 2973   2.337   2.410  17.599 -0.5586 -0.2911 -0.2502
  195MPD1    H5 2974   2.349   2.327  17.543 -0.9124  0.7717 -1.9178
  195MPD1    N1 2975   2.191   2.870  17.560  0.3366 -0.2577 -0.2658
  195MPD1    H6 2976   2.198   2.948  17.495 -0.5825 -0.9160 -1.1670
  195MPD1    H7 2977   2.226   2.901  17.650  1.4168 -1.5028 -0.2475
  196MPD1     C 2978   1.403   1.096   0.582 -0.1656 -0.2412 -0.0135
  196MPD1    C1 2979   1.459   1.219   0.576  0.1952  0.1144  0.5419
  196MPD1    C2 2980   1.553   1.254   0.670 -0.0843  0.4705 -0.4260
  196MPD1    C3 2981   1.569   1.180   0.786  0.5665  0.2161  0.1012
  196MPD1    C4 2982   1.509   1.056   0.799  0.4988  0.3658 -0.2330
  196MPD1    C5 2983   1.435   1.015   0.696  0.5988 -0.6194 -0.3382
  196MPD1     H 2984   1.607   1.347   0.657  0.4404  0.3124  0.5999
  196MPD1    H1 2985   1.526   0.992   0.884 -0.3893  0.2920 -0.1090
  196MPD1    H2 2986   1.339   1.064   0.501  0.0712 -0.6223 -0.0492
  196MPD1    H3 2987   1.400   0.912   0.686 -2.2187  0.3475 -0.3255
  196MPD1     N 2988   1.654   1.221   0.896  0.3808 -0.4023  0.6988
  196MPD1    H5 2989   1.656   1.164   0.980 -1.6686 -1.0120  0.3382
  196MPD1    N1 2990   1.442   1.299   0.464 -0.3173  0.2114 -0.1641
  196MPD1    H6 2991   1.476   1.394   0.474  2.6362 -0.7099 -1.1865
  196MPD1    H7 2992   1.350   1.287   0.423  0.8742 -0.4892 -2.6088
  197MPD1     C 2993   0.538   4.190   0.036 -0.3197 -0.1146  0.0880
  197MPD1    C1 2994   0.641   4.261   0.093  0.0856 -0.2158 -0.5547
  197MPD1    C2 2995   0.744   4.291   0.011  0.4351 -0.4522 -0.5863
  197MPD1    C3 2996   0.752   4.268  17.572 -0.3248 -0.7661 -0.3185
  197MPD1    C4 2997   0.647   4.189  17.518  0.3084 -0.5158  0.0334
  197MPD1    C5 2998   0.544   4.159  17.603  0.0877 -0.1331 -0.1824
  197MPD1     H 2999   0.821   4.351   0.058  1.2789 -0.2197 -2.2436
  197MPD1    H1 3000   0.653   4.169  17.412 -0.6766 -0.1863 -0.0921
  197MPD1    H2 3001   0.446   4.164   0.087 -0.7041 -0.9639 -1.0385
  197MPD1    H3 3002   0.462   4.103  17.560 -0.2672 -0.4482  0.9110
  197MPD1     N 3003   0.859   4.303  17.489 -0.0401  0.2149  0.3970
  197MPD1    H5 3004   0.837   4.281  17.392 -0.6149  1.2647  0.2892
  197MPD1    N1 3005   0.630   4.296   0.231  0.1715  0.2548  0.3810
  197MPD1    H6 3006   0.723   4.296   0.272  0.2569 -0.9479  0.2110
  197MPD1    H7 3007   0.575   4.231   0.288  2.5077 -1.4002  0.7516
  198MPD1     C 3008   2.619   2.421  15.591 -0.0615  0.0996 -0.4313
  198MPD1    C1 3009   2.740   2.355  15.566 -0.0891 -0.3378 -0.0556
  198MPD1    C2 3010   2.851   2.377  15.646  0.2181 -0.4773 -0.0093
  198MPD1    C3 3011   2.830   2.465  15.756  0.4197 -0.3371 -0.6233
  198MPD1    C4 3012   2.711   2.525  15.781 -0.6035  0.4838  0.3439
  198MPD1    C5 3013   2.609   2.493  15.703  0.1710  0.5119  0.4938
  198MPD1     H 3014   2.944   2.327  15.623  0.2685  0.1094 -1.1277
  198MPD1    H1 3015   2.702   2.595  15.863 -0.3731  0.5638  0.3014
  198MPD1    H2 3016   2.532   2.401  15.531  0.6816 -1.4734 -0.9767
  198MPD1    H3 3017   2.511   2.534  15.724 -0.2715 -0.2898  0.0119
  198MPD1     N 3018   2.943   2.490  15.836  0.9426 -0.2778  0.3401
  198MPD1    H5 3019   3.018   2.429  15.805 -0.3320  0.1166 -3.5522
  198MPD1    N1 3020   2.752   2.276  15.447 -0.5044  0.2369  0.1126
  198MPD1    H6 3021   2.793   2.186  15.470  2.1861  1.5784  0.6079
  198MPD1    H7 3022   2.660   2.264  15.406 -1.1171  1.1158  1.2081
  199MPD1     C 3023   3.900   2.144  10.188 -0.1007  0.4446  0.4044
  199MPD1    C1 3024   3.895   2.272  10.139  0.5477  0.2326 -0.4814
  199MPD1    C2 3025   3.995   2.327  10.062 -0.8867  0.3379  0.1918
  199MPD1    C3 3026   4.107   2.241  10.039  0.2021  0.6712  0.1447
  199MPD1    C4 3027   4.108   2.119  10.093 -0.4165 -0.3903 -0.1570
  199MPD1    C5 3028   4.006   2.060  10.162  0.3108 -0.2596  0.0927
  199MPD1     H 3029   3.990   2.432  10.037 -1.7286  0.0028 -1.0626
  199MPD1    H1 3030   4.194   2.054  10.077  0.6669  1.0728 -0.2917
  199MPD1    H2 3031   3.815   2.094  10.234  0.6524 -1.6569 -0.4516
  199MPD1    H3 3032   4.019   1.955  10.184 -0.4661 -0.1358  1.1520
  199MPD1     N 3033   4.227   2.291   9.976 -0.5564 -0.0115  0.3768
  199MPD1    H5 3034   4.306   2.230   9.959 -1.4894 -1.4061  1.0463
  199MPD1    N1 3035   3.774   2.342  10.152  0.1134  0.5596  0.4255
  199MPD1    H6 3036   3.687   2.289  10.147 -0.8153  2.1902 -1.0213
  199MPD1    H7 3037   3.763   2.427  10.097  1.4056 -0.0668 -0.8095
  200MPD1     C 3038   4.342   3.635  15.388 -0.4050  0.2156 -0.3460
  200MPD1    C1 3039   4.269   3.521  15.378 -0.2377  0.2972 -0.2523
  200MPD1    C2 3040   4.241   3.481  15.250  1.0477  0.3898  0.2649
  200MPD1    C3 3041   4.301   3.533  15.135  0.2032 -0.0090 -0.2708
  200MPD1    C4 3042   4.376   3.652  15.150 -0.2917  0.1433 -0.2742
  200MPD1    C5 3043   4.389   3.694  15.276  0.1870  0.2532 -0.3629
  200MPD1     H 3044   4.171   3.398  15.243 -1.6500  2.8469 -2.2647
  200MPD1    H1 3045   4.430   3.698  15.068  0.9022 -1.8634 -0.6010
  200MPD1    H2 3046   4.367   3.685  15.481  0.8461 -0.0878 -0.5147
  200MPD1    H3 3047   4.460   3.774  15.297  0.8637  0.2098 -2.5174
  200MPD1     N 3048   4.280   3.462  15.017  0.4452 -0.2603 -0.3401
  200MPD1    H5 3049   4.236   3.371  15.031  2.0561 -0.7682  1.4182
  200MPD1    N1 3050   4.204   3.466  15.488  0.2061 -0.4546  0.0385
  200MPD1    H6 3051   4.168   3.371  15.481  0.6191 -0.7785  2.0422
  200MPD1    H7 3052   4.253   3.483  15.577  0.9005 -0.8205 -0.2739
  201MPD1     C 3053   0.984   2.728  12.866 -0.8233  0.8791  0.6235
  201MPD1    C1 3054   0.986   2.620  12.785 -0.4996  0.5787  0.2345
  201MPD1    C2 3055   1.086   2.519  12.805  0.4756 -0.1900 -0.1650
  201MPD1    C3 3056   1.182   2.525  12.908  0.1557 -0.5973  0.8366
  201MPD1    C4 3057   1.177   2.640  12.987  0.3940  0.5254 -0.3190
  201MPD1    C5 3058   1.079   2.740  12.967 -0.0303  0.2316 -0.3317
  201MPD1     H 3059   1.074   2.430  12.745 -2.8016  0.7952 -0.9968
  201MPD1    H1 3060   1.255   2.654  13.061  0.9260 -1.6333 -0.4758
  201MPD1    H2 3061   0.904   2.801  12.859 -1.1140  0.4214 -0.8522
  201MPD1    H3 3062   1.085   2.825  13.034  0.3121  0.6740 -0.9209
  201MPD1     N 3063   1.270   2.415  12.927 -0.6386  0.2828 -0.1270
  201MPD1    H5 3064   1.246   2.329  12.879  0.1972 -0.0815  0.1104
  201MPD1    N1 3065   0.893   2.612  12.678 -0.2915 -0.6067 -0.1666
  201MPD1    H6 3066   0.852   2.702  12.656 -1.4880 -1.1294 -0.1120
  201MPD1    H7 3067   0.938   2.585  12.590  1.4239  0.9561  0.2504
  202MPD1     C 3068   1.409   1.240   9.470  0.2748 -0.4568 -0.3365
  202MPD1    C1 3069   1.388   1.370   9.513 -0.0137  0.2160  0.1600
  202MPD1    C2 3070   1.506   1.434   9.565 -0.7922 -0.5543 -0.4217
  202MPD1    C3 3071   1.626   1.371   9.587 -0.3918 -0.1735  0.3016
  202MPD1    C4 3072   1.630   1.237   9.551  0.1805  0.4827 -0.9965
  202MPD1    C5 3073   1.529   1.169   9.494 -0.1831 -0.0588 -0.2789
  202MPD1     H 3074   1.501   1.537   9.597  2.5482 -0.5188 -0.0327
  202MPD1    H1 3075   1.722   1.180   9.557  0.4560  0.9426 -0.8640
  202MPD1    H2 3076   1.329   1.192   9.414  0.1341 -1.3085  0.5872
  202MPD1    H3 3077   1.538   1.068   9.454 -1.3448 -0.6272  0.8879
  202MPD1     N 3078   1.744   1.429   9.648  0.0907 -0.4723 -0.3583
  202MPD1    H5 3079   1.814   1.361   9.676 -0.3821 -1.3954 -1.3968
  202MPD1    N1 3080   1.289   1.442   9.450 -0.1920  0.4710 -0.2005
  202MPD1    H6 3081   1.205   1.387   9.434  0.0286  0.5404 -1.6040
  202MPD1    H7 3082   1.257   1.517   9.510  0.2005  0.2738  0.2513
  203MPD1     C 3083   4.539   2.583  12.396 -0.2954  0.2074  0.3443
  203MPD1    C1 3084   4.624   2.581  12.506 -0.5834 -0.2069  0.0634
  203MPD1    C2 3085   0.018   2.510  12.496  0.9777  0.4292 -0.2952
  203MPD1    C3 3086   0.031   2.425  12.389 -0.2849  0.2112  0.2362
  203MPD1    C4 3087   4.662   2.418  12.290  0.7818 -0.8378 -0.4358
  203MPD1    C5 3088   4.556   2.509  12.289 -0.1340 -0.0790 -0.3984
  203MPD1     H 3089   0.080   2.516  12.584 -0.8095  0.2754  0.9817
  203MPD1    H1 3090   4.674   2.352  12.204  1.3748  0.3381 -1.2493
  203MPD1    H2 3091   4.454   2.650  12.392 -0.7092 -0.3312  0.1127
  203MPD1    H3 3092   4.484   2.508  12.208 -0.6842 -1.4732  0.0881
  203MPD1     N 3093   0.158   2.351  12.388  0.0108 -0.2157  0.0512
  203MPD1    H5 3094   0.216   2.340  12.470 -0.6815  2.9516  0.9557
  203MPD1    N1 3095   4.619   2.677  12.607 -0.9350 -0.1209  0.4004
  203MPD1    H6 3096   4.654   2.649  12.698 -1.7554  2.6872  1.5815
  203MPD1    H7 3097   4.520   2.695  12.622 -1.5833 -1.3789 -2.3140
  204MPD1     C 3098   3.380   3.626  17.520  0.1484 -0.1557 -0.7118
  204MPD1    C1 3099   3.445   3.535  17.608 -0.4999 -0.0656  0.2290
  204MPD1    C2 3100   3.567   3.490  17.571 -0.0971 -0.5777  0.1223
  204MPD1    C3 3101   3.627   3.545  17.459 -0.1808 -0.2364 -0.6279
  204MPD1    C4 3102   3.562   3.634  17.378  0.3462 -0.3352  0.0275
  204MPD1    C5 3103   3.440   3.683  17.409  0.0666 -0.3086 -0.8070
  204MPD1     H 3104   3.623   3.420  17.631  0.6705  0.7341  0.9404
  204MPD1    H1 3105   3.605   3.675  17.287 -1.4095  0.4826 -0.4251
  204MPD1    H2 3106   3.276   3.648  17.541  0.7864  1.1792  1.0579
  204MPD1    H3 3107   3.393   3.757  17.347 -1.6636 -1.8185 -1.3085
  204MPD1     N 3108   3.767   3.507  17.440 -0.2145  0.2580 -0.2014
  204MPD1    H5 3109   3.812   3.451  17.512 -0.7499 -0.3211 -0.3241
  204MPD1    N1 3110   3.377   3.469   0.010 -0.0530 -0.5643 -0.2618
  204MPD1    H6 3111   3.431   3.463   0.096  0.3384 -0.9529 -0.5386
  204MPD1    H7 3112   3.291   3.515   0.040 -0.6817 -2.6140  1.0868
  205MPD1     C 3113   0.768   2.910  17.382  0.9248  0.9135 -0.3471
  205MPD1    C1 3114   0.660   2.957  17.304 -0.1265  0.6012  0.8066
  205MPD1    C2 3115   0.534   2.909  17.337  0.0307 -0.4209 -0.4633
  205MPD1    C3 3116   0.511   2.824  17.443  0.0522 -0.1207 -0.4696
  205MPD1    C4 3117   0.619   2.779  17.515  0.2830  0.1618  0.3155
  205MPD1    C5 3118   0.746   2.827  17.490 -0.3224 -0.1941 -0.3227
  205MPD1     H 3119   0.445   2.941  17.284  1.0628  3.1909 -0.0515
  205MPD1    H1 3120   0.601   2.707  17.593 -1.9806  1.5769  1.1296
  205MPD1    H2 3121   0.870   2.929  17.351  1.5427  0.7382  1.6326
  205MPD1    H3 3122   0.821   2.780  17.553  0.5387 -0.9311 -1.9065
  205MPD1     N 3123   0.386   2.777  17.486 -0.3286 -0.6936 -0.5532
  205MPD1    H5 3124   0.378   2.731  17.577 -1.2438 -1.6939 -1.1439
  205MPD1    N1 3125   0.679   3.043  17.195 -0.2020 -0.0892 -0.4143
  205MPD1    H6 3126   0.768   3.092  17.199  0.5480 -1.4024 -1.0389
  205MPD1    H7 3127   0.606   3.114  17.191 -0.9108 -0.8384 -0.7887
  206MPD1     C 3128   4.267   0.781  16.193  0.3742  0.5330 -0.1227
  206MPD1    C1 3129   4.316   0.895  16.127  0.6506  0.7463 -0.4436
  206MPD1    C2 3130   4.424   0.879  16.041  0.4949 -0.3663 -0.4357
  206MPD1    C3 3131   4.500   0.762  16.036  0.4676 -0.3505 -0.0657
  206MPD1    C4 3132   4.453   0.653  16.105  0.6073 -0.1597 -0.3516
  206MPD1    C5 3133   4.339   0.659  16.178  0.8081  0.3066  0.3521
  206MPD1     H 3134   4.465   0.966  15.992  2.4200 -0.6212  0.7415
  206MPD1    H1 3135   4.517   0.566  16.107  2.3303  1.1573  1.8965
  206MPD1    H2 3136   4.179   0.775  16.256  0.8406 -1.2652  0.3707
  206MPD1    H3 3137   4.295   0.562  16.201  0.6448  0.3956  0.4152
  206MPD1     N 3138   4.612   0.740  15.957 -0.0645  0.9975 -0.2139
  206MPD1    H5 3139   4.669   0.658  15.977  1.5359  2.3475  0.7472
  206MPD1    N1 3140   4.251   1.019  16.126  0.0446  0.3085 -0.8078
  206MPD1    H6 3141   4.190   1.038  16.205  2.9341  0.5667  1.3537
  206MPD1    H7 3142   4.316   1.096  16.112  0.8563 -0.3151 -0.4822
  207MPD1     C 3143   2.556   2.085  10.092 -0.9029 -0.5962 -0.0380
  207MPD1    C1 3144   2.531   2.211  10.062  0.1856 -0.0609 -0.3857
  207MPD1    C2 3145   2.597   2.306  10.138  0.5669  0.0444 -0.4927
  207MPD1    C3 3146   2.692   2.266  10.235  0.3293 -0.1879 -0.3804
  207MPD1    C4 3147   2.717   2.133  10.258  0.1828 -0.0311  0.4999
  207MPD1    C5 3148   2.648   2.042  10.182  0.4865  0.2883 -0.6585
  207MPD1     H 3149   2.576   2.411  10.122  1.8097  0.2926 -0.4595
  207MPD1    H1 3150   2.790   2.101  10.330  1.4790  2.1799  0.1586
  207MPD1    H2 3151   2.496   2.005  10.049 -1.6239 -0.9460  1.6289
  207MPD1    H3 3152   2.662   1.939  10.212  0.0120  0.1306 -0.9780
  207MPD1     N 3153   2.758   2.356  10.315  0.1211  0.2916  0.1964
  207MPD1    H5 3154   2.819   2.315  10.385 -0.7155 -1.7199 -0.2468
  207MPD1    N1 3155   2.428   2.245   9.969 -0.3816 -0.1587 -0.7405
  207MPD1    H6 3156   2.444   2.333   9.921  0.6032  0.6047  0.9739
  207MPD1    H7 3157   2.409   2.173   9.900  3.6949  1.2250 -3.3073
  208MPD1     C 3158   1.226   2.728   0.628  0.2457  0.8153  0.4728
  208MPD1    C1 3159   1.285   2.646   0.531  0.2990  0.5306 -0.7995
  208MPD1    C2 3160   1.225   2.527   0.494  0.0173  0.0968 -0.0525
  208MPD1    C3 3161   1.099   2.494   0.539  0.2417 -0.0169  0.1123
  208MPD1    C4 3162   1.038   2.588   0.614 -1.2050  0.1498 -0.2449
  208MPD1    C5 3163   1.104   2.697   0.665 -0.2843 -0.5632  0.1071
  208MPD1     H 3164   1.268   2.452   0.429 -0.2063  1.5750 -1.8988
  208MPD1    H1 3165   0.944   2.567   0.664 -1.4117 -0.1196 -0.7427
  208MPD1    H2 3166   1.266   2.813   0.683 -0.1131  0.1577  1.7612
  208MPD1    H3 3167   1.059   2.744   0.752  0.5697 -0.0291  0.2532
  208MPD1     N 3168   1.026   2.384   0.493  0.2641  0.1053  0.8915
  208MPD1    H5 3169   1.078   2.306   0.456  0.1316 -0.5280  2.0461
  208MPD1    N1 3170   1.422   2.658   0.507 -0.0579 -0.6910  0.5788
  208MPD1    H6 3171   1.456   2.613   0.421  1.0631 -0.4031  0.8667
  208MPD1    H7 3172   1.465   2.750   0.518  0.1143 -0.6710 -0.2419
  209MPD1     C 3173   2.690   2.419  12.191  0.0746 -0.4113 -0.0532
  209MPD1    C1 3174   2.769   2.524  12.207  0.5917  0.2173 -0.2081
  209MPD1    C2 3175   2.832   2.570  12.095  0.5785 -0.0104 -0.2770
  209MPD1    C3 3176   2.807   2.525  11.975  0.2951 -0.8489  0.1924
  209MPD1    C4 3177   2.725   2.410  11.958  0.5568 -0.3028 -0.3299
  209MPD1    C5 3178   2.666   2.360  12.074 -0.8908 -0.6495 -0.1605
  209MPD1     H 3179   2.904   2.650  12.109 -0.6898  0.5922  2.8458
  209MPD1    H1 3180   2.714   2.357  11.865  1.9459  0.8405 -1.1523
  209MPD1    H2 3181   2.650   2.365  12.276  0.6773  0.0065  0.4935
  209MPD1    H3 3182   2.594   2.280  12.060 -2.5091  1.1829 -2.3606
  209MPD1     N 3183   2.865   2.595  11.864 -0.0487 -0.6112 -0.0903
  209MPD1    H5 3184   2.920   2.675  11.894 -0.9199 -0.1049  0.1616
  209MPD1    N1 3185   2.816   2.558  12.332  0.4830 -0.3877 -0.6245
  209MPD1    H6 3186   2.863   2.649  12.339 -0.4071 -0.1241  1.8601
  209MPD1    H7 3187   2.748   2.549  12.406  0.3613 -4.8624 -1.2659
  210MPD1     C 3188   3.513   3.105  11.885  0.2144  0.5139  0.3607
  210MPD1    C1 3189   3.537   3.076  11.753  0.3894  0.3277  0.1949
  210MPD1    C2 3190   3.429   3.030  11.691 -0.0119 -0.6256 -0.0648
  210MPD1    C3 3191   3.311   2.986  11.760 -0.7294  0.3646 -0.7814
  210MPD1    C4 3192   3.297   3.016  11.895 -0.1878 -0.0933 -0.3876
  210MPD1    C5 3193   3.395   3.082  11.950  0.2150 -0.3890  0.0476
  210MPD1     H 3194   3.432   3.015  11.583 -1.5652 -0.3417 -0.1489
  210MPD1    H1 3195   3.200   3.005  11.943  1.0671 -1.2533  1.8562
  210MPD1    H2 3196   3.582   3.160  11.948 -0.1866  1.6002 -0.1707
  210MPD1    H3 3197   3.388   3.114  12.054 -0.3317 -0.6678  0.0977
  210MPD1     N 3198   3.199   2.923  11.707 -0.3675 -0.2810 -0.3910
  210MPD1    H5 3199   3.121   2.913  11.772  1.5547 -1.9572  1.6892
  210MPD1    N1 3200   3.638   3.150  11.685  0.3857  0.3289  0.0999
  210MPD1    H6 3201   3.718   3.152  11.749  1.1117 -1.0405 -0.7520
  210MPD1    H7 3202   3.669   3.112  11.596  0.0039 -1.2240  0.6255
  211MPD1     C 3203   1.026   2.445  17.454  0.7525 -0.6784 -0.6055
  211MPD1    C1 3204   0.908   2.369  17.468 -0.5575  1.0243  0.0694
  211MPD1    C2 3205   0.796   2.405  17.398  0.2167 -0.5303 -0.2782
  211MPD1    C3 3206   0.801   2.503  17.302 -0.2055  0.1727 -0.0642
  211MPD1    C4 3207   0.912   2.584  17.286 -0.4206  0.7003  0.3131
  211MPD1    C5 3208   1.021   2.559  17.369  0.4804  0.1486 -0.1467
  211MPD1     H 3209   0.705   2.346  17.408 -1.4127  1.3874 -3.8283
  211MPD1    H1 3210   0.918   2.671  17.221  3.4400  0.0343 -0.2556
  211MPD1    H2 3211   1.114   2.420  17.512 -0.1946 -2.4206  0.0898
  211MPD1    H3 3212   1.107   2.625  17.366  0.6128 -0.0855 -1.4306
  211MPD1     N 3213   0.675   2.527  17.237 -0.0622  0.2975  0.2881
  211MPD1    H5 3214   0.596   2.472  17.268  0.6332  0.1554  1.8111
  211MPD1    N1 3215   0.906   2.267  17.563 -0.4167 -0.0348  0.3364
  211MPD1    H6 3216   0.833   2.199  17.541 -0.2094  0.4936 -2.0073
  211MPD1    H7 3217   0.994   2.217  17.570 -0.4505  0.0624  1.4115
  212MPD1     C 3218   4.317   0.905  16.530 -0.1650 -0.5049  0.6304
  212MPD1    C1 3219   4.199   0.948  16.589 -1.2164  0.3167  0.5557
  212MPD1    C2 3220   4.121   0.850  16.646 -0.0661  0.7013  0.3090
  212MPD1    C3 3221   4.167   0.722  16.668 -0.4257 -0.3101  0.7971
  212MPD1    C4 3222   4.299   0.689  16.625  0.1536 -0.2260 -0.1478
  212MPD1    C5 3223   4.366   0.781  16.549  0.4051  0.2062  0.3019
  212MPD1     H 3224   4.021   0.881  16.672 -0.9899 -2.3573  0.3498
  212MPD1    H1 3225   4.346   0.593  16.638 -0.4428 -0.6158 -0.8540
  212MPD1    H2 3226   4.379   0.980  16.482  0.2993 -0.7997  0.7660
  212MPD1    H3 3227   4.452   0.755  16.489  0.3056  1.2671 -0.2904
  212MPD1     N 3228   4.086   0.629  16.735 -0.6530 -0.2324  0.2205
  212MPD1    H5 3229   4.121   0.534  16.740  0.3223  0.0891 -0.3747
  212MPD1    N1 3230   4.140   1.077  16.570  0.3343 -0.0177  0.0990
  212MPD1    H6 3231   4.208   1.150  16.548 -0.9098  1.1247  0.0539
  212MPD1    H7 3232   4.077   1.100  16.646 -0.6530 -0.5533 -0.5603
  213MPD1     C 3233   2.227   1.560  16.096 -0.3182 -0.0893 -0.2818
  213MPD1    C1 3234   2.215   1.424  16.066 -0.4484  0.5541 -0.7336
  213MPD1    C2 3235   2.157   1.401  15.945 -0.3665 -0.0926 -0.4797
  213MPD1    C3 3236   2.158   1.493  15.843  0.0697  0.2435  0.6528
  213MPD1    C4 3237   2.198   1.624  15.877  0.4942 -0.0275  0.1886
  213MPD1    C5 3238   2.226   1.661  16.005  0.1984  0.2348  0.3074
  213MPD1     H 3239   2.125   1.300  15.920  0.9826 -1.0315  1.5409
  213MPD1    H1 3240   2.220   1.699  15.802  1.6235  0.2471  0.7987
  213MPD1    H2 3241   2.258   1.588  16.196 -0.9790 -0.2710 -0.0248
  213MPD1    H3 3242   2.234   1.767  16.027  3.0711 -0.3514  2.0395
  213MPD1     N 3243   2.125   1.457  15.708 -0.1265  0.7329 -0.4238
  213MPD1    H5 3244   2.104   1.358  15.701  1.3291  0.3158  0.9927
  213MPD1    N1 3245   2.189   1.336  16.171  0.5074 -0.0452 -0.8149
  213MPD1    H6 3246   2.260   1.336  16.244  0.6097 -1.3303 -0.9212
  213MPD1    H7 3247   2.194   1.243  16.131 -1.8490  0.3742 -2.1297
  214MPD1     C 3248   1.621   0.771  15.533  0.7435 -0.2730  0.2808
  214MPD1    C1 3249   1.679   0.795  15.409  0.2720  0.2534 -0.2518
  214MPD1    C2 3250   1.764   0.896  15.394  0.2439 -0.7917 -0.6793
  214MPD1    C3 3251   1.771   0.997  15.487 -0.5878  0.0496  0.4210
  214MPD1    C4 3252   1.717   0.986  15.609  0.1310  0.1077 -0.1245
  214MPD1    C5 3253   1.637   0.871  15.635  0.5720 -0.0024  0.0704
  214MPD1     H 3254   1.806   0.903  15.294  1.0848 -1.1527 -0.3489
  214MPD1    H1 3255   1.733   1.064  15.682  3.0416 -1.8979  1.3918
  214MPD1    H2 3256   1.553   0.693  15.565  1.8077 -1.1804  0.3696
  214MPD1    H3 3257   1.581   0.871  15.728  1.0207  0.2132  0.3403
  214MPD1     N 3258   1.854   1.112  15.474 -0.2819  0.0046 -0.1547
  214MPD1    H5 3259   1.864   1.167  15.559  1.3734  2.0227 -1.6448
  214MPD1    N1 3260   1.668   0.696  15.305  0.2610  0.8004 -0.0292
  214MPD1    H6 3261   1.656   0.725  15.208 -0.8943  2.7400  0.6977
  214MPD1    H7 3262   1.579   0.653  15.330  0.5231 -0.6321 -1.5387
  215MPD1     C 3263   2.316   1.731  10.448  0.1022  0.4849  0.3002
  215MPD1    C1 3264   2.224   1.768  10.543 -1.0131 -0.9140 -0.4451
  215MPD1    C2 3265   2.231   1.895  10.605  0.8761 -0.0531 -0.1417
  215MPD1    C3 3266   2.341   1.979  10.584  0.4467 -0.1959 -0.5156
  215MPD1    C4 3267   2.424   1.944  10.481  0.3192  0.0013  0.8557
  215MPD1    C5 3268   2.418   1.816  10.424  0.1038 -0.3433  0.1278
  215MPD1     H 3269   2.153   1.923  10.675  2.5074  4.1744 -0.0213
  215MPD1    H1 3270   2.492   2.023  10.452  0.6378 -0.9473 -1.0160
  215MPD1    H2 3271   2.318   1.630  10.408 -0.3039  1.0890 -1.2577
  215MPD1    H3 3272   2.494   1.786  10.353  0.8152  1.2120  0.2367
  215MPD1     N 3273   2.346   2.104  10.641  0.6007  0.8030  0.3483
  215MPD1    H5 3274   2.261   2.136  10.687  0.5503  0.1069  0.7388
  215MPD1    N1 3275   2.113   1.679  10.560 -0.3583 -0.2602  0.4139
  215MPD1    H6 3276   2.066   1.690  10.649  1.5525 -1.0268  1.5054
  215MPD1    H7 3277   2.124   1.579  10.547  1.5714  0.1318 -0.9311
  216MPD1     C 3278   0.133   0.714  17.124 -0.2403 -0.4000 -0.0682
  216MPD1    C1 3279   0.211   0.655  17.227  1.4351  0.4964  0.0458
  216MPD1    C2 3280   0.166   0.536  17.288  0.6872 -0.1970  0.4560
  216MPD1    C3 3281   0.045   0.483  17.255 -0.3306  0.0667 -0.7325
  216MPD1    C4 3282   4.694   0.543  17.154  0.0365  0.3028 -0.1053
  216MPD1    C5 3283   0.013   0.657  17.086  0.4226 -0.3671 -0.2258
  216MPD1     H 3284   0.238   0.482  17.349  0.4339 -1.2221 -0.1577
  216MPD1    H1 3285   4.595   0.502  17.140 -0.1570  0.6877  0.1268
  216MPD1    H2 3286   0.166   0.794  17.058  1.4573 -0.6348  0.4881
  216MPD1    H3 3287   4.685   0.693  16.999  0.3170 -1.6669 -0.7026
  216MPD1     N 3288   0.005   0.365  17.326  0.8933 -0.4164  0.6752
  216MPD1    H5 3289   0.074   0.333  17.394  0.0352  0.4321  1.9242
  216MPD1    N1 3290   0.343   0.694  17.233 -0.3333 -0.3433  0.5589
  216MPD1    H6 3291   0.399   0.672  17.315 -2.2108 -1.7887  1.4467
  216MPD1    H7 3292   0.348   0.795  17.219 -1.7576  0.0727  3.0399
  217MPD1     C 3293   0.067   0.017   9.042 -0.0746 -0.5621  0.0304
  217MPD1    C1 3294   0.203   0.018   9.028  0.0631 -0.0065 -0.1469
  217MPD1    C2 3295   0.279   0.087   9.114  0.0392  0.7627  0.2009
  217MPD1    C3 3296   0.225   0.162   9.218  0.2265 -0.1362  0.4482
  217MPD1    C4 3297   0.085   0.163   9.231 -0.4312 -0.5939  0.2544
  217MPD1    C5 3298   0.006   0.092   9.140 -0.6407 -0.5555 -0.1776
  217MPD1     H 3299   0.386   0.080   9.096  0.0329 -0.2527  0.6118
  217MPD1    H1 3300   0.042   0.225   9.309 -1.4425 -2.4820  1.1902
  217MPD1    H2 3301   0.007   4.679   8.977  0.6452 -0.2800 -0.8918
  217MPD1    H3 3302   4.623   0.095   9.150 -0.7642 -2.0767 -1.2024
  217MPD1     N 3303   0.293   0.245   9.312 -0.3896 -0.3407  1.0978
  217MPD1    H5 3304   0.239   0.296   9.381  1.5948 -0.3362  2.6351
  217MPD1    N1 3305   0.258   4.682   8.916 -0.5607  0.0087 -0.0202
  217MPD1    H6 3306   0.341   4.631   8.944 -1.6069 -2.1428 -0.8607
  217MPD1    H7 3307   0.191   4.619   8.873  0.7748 -2.6416  1.8121
  218MPD1     C 3308   2.948   3.142  11.405 -0.3290  0.8603 -0.2405
  218MPD1    C1 3309   2.818   3.088  11.402 -0.2116 -0.0482 -0.3728
  218MPD1    C2 3310   2.773   3.031  11.520  0.0221  0.0777  0.1622
  218MPD1    C3 3311   2.836   3.050  11.644 -0.2259  0.3317  0.7274
  218MPD1    C4 3312   2.952   3.119  11.644  0.1641 -0.1068 -0.4488
  218MPD1    C5 3313   3.010   3.158  11.527  0.6066 -0.7516 -0.2878
  218MPD1     H 3314   2.683   2.971  11.519 -0.8015  1.2458  2.9250
  218MPD1    H1 3315   3.016   3.136  11.730  2.3998 -0.7485 -1.9842
  218MPD1    H2 3316   2.992   3.178  11.312  0.3077 -3.6104 -1.6762
  218MPD1    H3 3317   3.105   3.209  11.536  0.8132 -1.0029 -1.0067
  218MPD1     N 3318   2.778   2.996  11.764  0.1854  0.1841  0.1840
  218MPD1    H5 3319   2.682   2.966  11.753  0.7489 -1.2814 -0.7287
  218MPD1    N1 3320   2.744   3.065  11.282  0.0102  0.2586  0.1271
  218MPD1    H6 3321   2.753   3.126  11.202 -2.0955 -1.3000 -1.3002
  218MPD1    H7 3322   2.647   3.042  11.304  1.1781 -4.1188  0.7262
  219MPD1     C 3323   2.130   2.377  12.229 -0.7740 -0.4104 -0.6784
  219MPD1    C1 3324   2.175   2.400  12.102  0.0131 -0.2397 -0.4018
  219MPD1    C2 3325   2.260   2.505  12.088 -0.5480 -0.1443 -0.1086
  219MPD1    C3 3326   2.303   2.587  12.190  0.0004  0.7110 -0.5142
  219MPD1    C4 3327   2.248   2.566  12.315  0.2520 -0.0939 -0.3672
  219MPD1    C5 3328   2.158   2.457  12.335 -0.1121 -0.1213 -0.1121
  219MPD1     H 3329   2.301   2.516  11.988 -0.7666  1.1220 -0.0646
  219MPD1    H1 3330   2.267   2.626  12.404 -2.4543  2.5783 -1.5956
  219MPD1    H2 3331   2.054   2.302  12.252 -2.3488  1.4075  0.0500
  219MPD1    H3 3332   2.135   2.435  12.439 -2.2965  1.8362 -0.1743
  219MPD1     N 3333   2.393   2.694  12.179  0.0007 -0.0149 -0.1013
  219MPD1    H5 3334   2.412   2.747  12.263 -0.5810  1.2314 -0.7489
  219MPD1    N1 3335   2.110   2.345  11.993 -0.3243  0.5969 -1.3005
  219MPD1    H6 3336   2.156   2.368  11.905 -0.0770  2.4594 -0.6765
  219MPD1    H7 3337   2.024   2.397  11.985 -0.1826  1.0767  0.2711
  220MPD1     C 3338   1.669   3.405   9.560 -0.0385  0.4145  0.3577
  220MPD1    C1 3339   1.657   3.398   9.696  0.2847  0.5744 -0.3546
  220MPD1    C2 3340   1.746   3.321   9.764 -0.0573  0.5222  0.4610
  220MPD1    C3 3341   1.849   3.255   9.709  0.0413  0.1492  0.0734
  220MPD1    C4 3342   1.870   3.270   9.575 -0.1589 -0.3160  0.0353
  220MPD1    C5 3343   1.780   3.348   9.502  0.3291 -0.1912 -0.3715
  220MPD1     H 3344   1.728   3.300   9.869  0.0158 -2.2411 -0.0780
  220MPD1    H1 3345   1.948   3.221   9.518 -0.0446 -0.0606 -0.0292
  220MPD1    H2 3346   1.591   3.444   9.497 -1.4290 -0.9570  1.2201
  220MPD1    H3 3347   1.805   3.373   9.400 -0.8178 -1.8637 -1.0611
  220MPD1     N 3348   1.931   3.169   9.786  0.4991  0.1429  0.6224
  220MPD1    H5 3349   1.886   3.128   9.868  1.7826  0.0040  1.2552
  220MPD1    N1 3350   1.532   3.438   9.750 -0.3724 -0.4109 -1.1371
  220MPD1    H6 3351   1.492   3.519   9.703 -0.7066 -1.3756 -2.4876
  220MPD1    H7 3352   1.535   3.464   9.849 -0.2412  0.6295 -1.4077
  221MPD1     C 3353   4.283   1.912  16.573  0.1163 -0.1953 -0.2269
  221MPD1    C1 3354   4.276   1.857  16.701  0.3497 -0.1453 -0.0991
  221MPD1    C2 3355   4.370   1.759  16.734 -0.2289  1.2872 -0.3860
  221MPD1    C3 3356   4.460   1.707  16.645  0.5600  0.3684 -0.4532
  221MPD1    C4 3357   4.458   1.759  16.520  0.0878 -0.1081  0.0227
  221MPD1    C5 3358   4.372   1.860  16.484 -0.1384  0.0126 -0.3720
  221MPD1     H 3359   4.367   1.731  16.839  2.7481 -1.9203 -1.1653
  221MPD1    H1 3360   4.527   1.727  16.443  0.2243 -0.5714  0.3378
  221MPD1    H2 3361   4.232   2.004  16.546  1.2387  0.5656  0.2211
  221MPD1    H3 3362   4.369   1.904  16.385  0.9495  1.6329  0.3058
  221MPD1     N 3363   4.556   1.610  16.673 -0.2222  0.3537 -0.3681
  221MPD1    H5 3364   4.624   1.605  16.598 -0.3259 -0.6763 -0.3905
  221MPD1    N1 3365   4.199   1.923  16.796  0.4373 -0.2074  0.7381
  221MPD1    H6 3366   4.130   1.985  16.753  1.2461  0.0244 -0.2204
  221MPD1    H7 3367   4.156   1.859  16.863 -2.3368  0.0857 -0.7765
  222MPD1     C 3368   4.015   0.077  17.061 -0.7162 -0.6964  0.0006
  222MPD1    C1 3369   4.065   0.201  17.040 -0.4624 -0.4484 -0.3501
  222MPD1    C2 3370   4.004   0.295  17.116  0.0357  0.3453  1.0546
  222MPD1    C3 3371   3.901   0.272  17.206 -0.1384  0.3419  0.2769
  222MPD1    C4 3372   3.844   0.146  17.202  0.5766 -0.2224 -0.2704
  222MPD1    C5 3373   3.905   0.049  17.138  0.3549 -0.2427  0.3075
  222MPD1     H 3374   4.042   0.396  17.105 -0.6165  0.6918  1.9985
  222MPD1    H1 3375   3.757   0.132  17.265 -0.1629 -1.4441 -1.5746
  222MPD1    H2 3376   4.057   4.710  17.020 -0.1275 -0.8570  0.9713
  222MPD1    H3 3377   3.858   4.676  17.144  1.0342 -0.6730 -1.4287
  222MPD1     N 3378   3.836   0.374  17.284  0.3561 -0.2726  0.7761
  222MPD1    H5 3379   3.740   0.363  17.315 -0.3708 -1.0223 -1.7735
  222MPD1    N1 3380   4.175   0.224  16.955 -0.1355  0.4620 -0.5325
  222MPD1    H6 3381   4.237   0.144  16.952 -0.3588  0.3578 -2.2225
  222MPD1    H7 3382   4.237   0.300  16.984  0.3514  0.0590 -0.5283
  223MPD1     C 3383   3.152   0.563   0.294 -0.5290 -0.2021  0.2725
  223MPD1    C1 3384   3.210   0.688   0.277 -0.1098 -0.4838 -0.1081
  223MPD1    C2 3385   3.321   0.698   0.192  0.4399 -0.4823  1.2816
  223MPD1    C3 3386   3.370   0.588   0.124  0.1113  0.1837 -0.5138
  223MPD1    C4 3387   3.317   0.462   0.137 -0.5609  0.1132 -0.4394
  223MPD1    C5 3388   3.210   0.453   0.224 -0.1056  0.1145  0.0558
  223MPD1     H 3389   3.365   0.796   0.178  0.3163 -0.8912 -1.8510
  223MPD1    H1 3390   3.351   0.377   0.079 -1.4907 -1.6466  1.5993
  223MPD1    H2 3391   3.075   0.540   0.367  0.0681 -0.4274  0.8294
  223MPD1    H3 3392   3.151   0.362   0.234 -0.3045  0.0191 -2.0345
  223MPD1     N 3393   3.481   0.627   0.044  0.3975  0.2413  0.0126
  223MPD1    H5 3394   3.501   0.726   0.036  1.7566 -0.1294 -1.1484
  223MPD1    N1 3395   3.155   0.810   0.328 -0.6353  0.3379 -0.2057
  223MPD1    H6 3396   3.232   0.876   0.337 -0.1843 -0.0893 -0.9737
  223MPD1    H7 3397   3.098   0.802   0.412 -0.3174  0.7378  0.0493
  224MPD1     C 3398   0.447   0.683   9.184 -0.4262  0.1083  0.4285
  224MPD1    C1 3399   0.359   0.786   9.161  0.2783 -0.1072  0.4702
  224MPD1    C2 3400   0.404   0.914   9.189 -0.2693  0.1438  0.3188
  224MPD1    C3 3401   0.535   0.932   9.234 -0.1776  0.1490  0.5901
  224MPD1    C4 3402   0.625   0.832   9.239 -0.0449 -0.6112  0.1545
  224MPD1    C5 3403   0.576   0.707   9.221 -0.4339 -0.7654  0.6947
  224MPD1     H 3404   0.325   0.985   9.212  0.3604  0.3801  1.7655
  224MPD1    H1 3405   0.730   0.853   9.255 -0.1621  0.8902 -0.9882
  224MPD1    H2 3406   0.403   0.584   9.190 -0.1030 -0.1406 -1.0732
  224MPD1    H3 3407   0.648   0.627   9.226 -0.5343 -0.9009 -0.0579
  224MPD1     N 3408   0.597   1.059   9.262 -0.6251 -0.2154  0.9000
  224MPD1    H5 3409   0.696   1.055   9.281 -0.3525  2.1881 -0.1167
  224MPD1    N1 3410   0.225   0.755   9.155 -0.3985 -0.2328  0.1592
  224MPD1    H6 3411   0.171   0.827   9.108  1.6237  0.7996 -0.5689
  224MPD1    H7 3412   0.203   0.660   9.127 -1.2032 -0.2737  0.9370
  225MPD1     C 3413   1.732   3.014  13.089  0.0027  0.0841 -0.4478
  225MPD1    C1 3414   1.666   3.124  13.040  0.4404  0.2002 -0.4931
  225MPD1    C2 3415   1.648   3.129  12.904  0.3740  0.0962  0.7106
  225MPD1    C3 3416   1.702   3.029  12.820 -0.0670 -0.0141 -0.1460
  225MPD1    C4 3417   1.750   2.912  12.876 -0.0141 -0.5526  0.5541
  225MPD1    C5 3418   1.775   2.913  13.010 -0.0595  0.8598 -0.2982
  225MPD1     H 3419   1.597   3.219  12.871  0.3379  0.0222  0.5697
  225MPD1    H1 3420   1.799   2.833  12.820 -1.4079 -0.1103 -1.3056
  225MPD1    H2 3421   1.730   2.999  13.197  1.1817  2.7756 -0.0285
  225MPD1    H3 3422   1.820   2.825  13.054  0.0193  1.9191  1.7825
  225MPD1     N 3423   1.710   3.044  12.680 -0.1451 -0.6431 -0.3369
  225MPD1    H5 3424   1.750   2.967  12.628 -0.7440 -1.1573 -0.0408
  225MPD1    N1 3425   1.631   3.238  13.121  0.7253 -0.5218  0.1383
  225MPD1    H6 3426   1.634   3.214  13.220  0.0955 -2.7074 -0.3677
  225MPD1    H7 3427   1.541   3.283  13.102  0.5011  0.5948  3.8132
  226MPD1     C 3428   0.355   2.653   9.465  0.2227 -0.7270 -0.5952
  226MPD1    C1 3429   0.471   2.711   9.416  0.4648  0.2550 -0.6131
  226MPD1    C2 3430   0.530   2.808   9.496  0.6618 -0.3511 -0.2910
  226MPD1    C3 3431   0.479   2.855   9.612 -0.2107 -0.2234 -0.1011
  226MPD1    C4 3432   0.354   2.799   9.656 -0.6433 -0.1274 -0.0219
  226MPD1    C5 3433   0.298   2.693   9.581  0.1163 -0.7692 -1.2127
  226MPD1     H 3434   0.621   2.858   9.464  1.4528  0.3359  2.9940
  226MPD1    H1 3435   0.303   2.823   9.749 -0.8432 -1.1670  0.1419
  226MPD1    H2 3436   0.306   2.570   9.416 -0.5368 -0.1369 -0.8367
  226MPD1    H3 3437   0.201   2.653   9.610  0.1338 -1.0890 -1.6036
  226MPD1     N 3438   0.543   2.958   9.688  0.1092 -0.8567  0.3124
  226MPD1    H5 3439   0.622   3.005   9.647  0.4751 -1.7382 -0.0035
  226MPD1    N1 3440   0.519   2.686   9.288 -0.0553 -0.0878 -0.0137
  226MPD1    H6 3441   0.613   2.719   9.266 -0.1321  0.6634  0.7810
  226MPD1    H7 3442   0.501   2.597   9.241  0.4716 -0.5140  0.6046
  227MPD1     C 3443   0.059   3.722  10.107 -0.2355  0.9824  0.5309
  227MPD1    C1 3444   0.033   3.625  10.007 -0.4318 -0.4133  0.5155
  227MPD1    C2 3445   0.146   3.550   9.959 -0.5150 -0.3092  1.1938
  227MPD1    C3 3446   0.270   3.549  10.024 -0.3211 -0.5767  0.7483
  227MPD1    C4 3447   0.289   3.648  10.122  0.1014 -0.4446 -0.3704
  227MPD1    C5 3448   0.179   3.716  10.172  0.3677  0.2741  0.4194
  227MPD1     H 3449   0.125   3.480   9.879  0.5527 -0.0652  0.6971
  227MPD1    H1 3450   0.378   3.671  10.180  0.5859  0.0269 -1.2941
  227MPD1    H2 3451   4.704   3.778  10.154 -0.4455  0.6747  0.5419
  227MPD1    H3 3452   0.206   3.789  10.247 -0.6141  1.4703 -0.3872
  227MPD1     N 3453   0.363   3.450   9.990 -0.5511 -0.4525 -0.1768
  227MPD1    H5 3454   0.323   3.380   9.929 -2.8200  2.0659 -1.5744
  227MPD1    N1 3455   4.632   3.636   9.934  0.4684 -0.4925 -0.1462
  227MPD1    H6 3456   4.553   3.660   9.993 -1.1491 -0.2673 -2.4206
  227MPD1    H7 3457   4.611   3.551   9.881 -0.3039  0.1217 -0.8381
  228MPD1     C 3458   4.399   1.428  11.808  0.1535  0.6211  1.2656
  228MPD1    C1 3459   4.313   1.361  11.722  0.0304 -0.6617  0.2317
  228MPD1    C2 3460   4.197   1.315  11.767  0.1861  0.3421 -0.3828
  228MPD1    C3 3461   4.165   1.330  11.907  0.2661  0.4993 -0.1503
  228MPD1    C4 3462   4.237   1.419  11.980  0.9530 -0.1838 -0.4185
  228MPD1    C5 3463   4.350   1.463  11.925  0.8142  0.7316  0.1538
  228MPD1     H 3464   4.133   1.250  11.708 -0.6665 -1.1019  2.1357
  228MPD1    H1 3465   4.199   1.450  12.077  3.1582 -1.5222  0.8741
  228MPD1    H2 3466   4.497   1.458  11.773 -0.9659  0.3866 -2.0804
  228MPD1    H3 3467   4.419   1.505  11.997  0.7507  0.1959  0.5330
  228MPD1     N 3468   4.045   1.273  11.958  0.0661  0.2329 -0.0251
  228MPD1    H5 3469   3.985   1.241  11.883 -2.4411  0.0953  2.0329
  228MPD1    N1 3470   4.361   1.327  11.589  0.2753 -0.2150 -0.2134
  228MPD1    H6 3471   4.402   1.413  11.554  0.3416 -0.5901 -1.0601
  228MPD1    H7 3472   4.284   1.310  11.525 -0.6455 -0.6906  1.0326
  229MPD1     C 3473   3.041   0.284  15.372  0.0436  0.0449 -0.2597
  229MPD1    C1 3474   3.099   0.245  15.497 -0.3723 -0.4304 -0.0336
  229MPD1    C2 3475   3.210   0.163  15.500  0.4025  0.0133  0.1754
  229MPD1    C3 3476   3.258   0.115  15.375  0.0020 -0.3348 -0.2432
  229MPD1    C4 3477   3.208   0.165  15.255 -0.0341  0.3825 -0.6590
  229MPD1    C5 3478   3.097   0.243  15.257  0.0696 -0.5988 -0.0822
  229MPD1     H 3479   3.252   0.130  15.595  1.0682 -0.8280 -0.4031
  229MPD1    H1 3480   3.258   0.134  15.164  0.5940  1.8811 -0.8401
  229MPD1    H2 3481   2.963   0.359  15.370  0.7833  0.8466  0.9500
  229MPD1    H3 3482   3.066   0.305  15.174  1.6662  0.2389 -0.0524
  229MPD1     N 3483   3.351   0.008  15.362 -0.3302  1.3769 -0.0565
  229MPD1    H5 3484   3.398   4.724  15.272 -0.7378 -2.3069  0.0921
  229MPD1    N1 3485   3.035   0.286  15.613  0.9421 -1.0137  0.6620
  229MPD1    H6 3486   2.950   0.336  15.589  1.8589 -0.5465 -1.5684
  229MPD1    H7 3487   3.005   0.209  15.674 -1.6520  0.7191  1.5833
  230MPD1     C 3488   3.545   4.024  16.026  0.0624 -0.3570 -0.3480
  230MPD1    C1 3489   3.462   4.133  16.016  0.2347 -0.0840  0.2189
  230MPD1    C2 3490   3.476   4.216  15.910  0.1767 -0.0030  0.1386
  230MPD1    C3 3491   3.560   4.178  15.809  0.2871 -0.1044  0.0529
  230MPD1    C4 3492   3.633   4.064  15.812 -0.1746 -0.5969 -0.2121
  230MPD1    C5 3493   3.629   3.988  15.922  0.3446 -0.3756  0.3441
  230MPD1     H 3494   3.416   4.304  15.889  0.9979  0.3496 -0.7581
  230MPD1    H1 3495   3.696   4.037  15.729 -1.6424 -2.1379 -0.8280
  230MPD1    H2 3496   3.545   3.978  16.124  1.3247 -1.0481 -0.6730
  230MPD1    H3 3497   3.696   3.903  15.931  0.4703 -0.2413  0.6857
  230MPD1     N 3498   3.566   4.265  15.703 -0.1612 -0.4217 -0.0566
  230MPD1    H5 3499   3.516   4.350  15.726 -0.3917 -0.4823 -0.3382
  230MPD1    N1 3500   3.369   4.163  16.117  0.3140  0.1663  0.3118
  230MPD1    H6 3501   3.390   4.254  16.156 -1.5486  0.1873  1.2725
  230MPD1    H7 3502   3.369   4.093  16.191  0.7121  0.1737  0.3177
  231MPD1     C 3503   1.621   1.367  15.294  0.4683 -1.0920  0.1724
  231MPD1    C1 3504   1.605   1.387  15.161 -0.1496 -0.1352  0.0781
  231MPD1    C2 3505   1.678   1.485  15.100  0.3137 -0.1439 -0.7687
  231MPD1    C3 3506   1.772   1.558  15.172 -0.6673 -1.0913  0.0227
  231MPD1    C4 3507   1.774   1.549  15.310  0.2228 -0.0145 -0.1713
  231MPD1    C5 3508   1.696   1.449  15.373  0.2556  0.2651  0.2992
  231MPD1     H 3509   1.668   1.503  14.994 -0.0274  0.3598 -0.6464
  231MPD1    H1 3510   1.839   1.603  15.378  2.0063  2.5350 -3.8886
  231MPD1    H2 3511   1.577   1.283  15.348  0.2963 -1.1113  0.0037
  231MPD1    H3 3512   1.697   1.433  15.480 -0.6993  3.0350  0.7137
  231MPD1     N 3513   1.854   1.639  15.093  0.2944  0.2964  0.3470
  231MPD1    H5 3514   1.829   1.645  14.995  1.2605  0.1479  0.0937
  231MPD1    N1 3515   1.527   1.292  15.091 -0.4429 -0.2287 -0.0956
  231MPD1    H6 3516   1.484   1.320  15.003  2.4427 -0.9199 -1.7627
  231MPD1    H7 3517   1.472   1.229  15.149  0.2214 -0.9920 -0.2928
  232MPD1     C 3518   3.165   3.861  17.117 -0.5520 -0.1157 -0.4186
  232MPD1    C1 3519   3.035   3.879  17.163  0.0676 -0.6329 -0.0073
  232MPD1    C2 3520   2.987   3.790  17.254 -0.0756 -0.5767  0.0202
  232MPD1    C3 3521   3.052   3.671  17.280  0.0033  0.4298  0.1210
  232MPD1    C4 3522   3.177   3.652  17.222 -0.5455  0.0030 -0.1129
  232MPD1    C5 3523   3.229   3.743  17.136  0.5172  0.1458  0.1967
  232MPD1     H 3524   2.895   3.818  17.305 -0.8917  0.0568 -1.8114
  232MPD1    H1 3525   3.241   3.567  17.244  2.5208  2.5556  0.8859
  232MPD1    H2 3526   3.218   3.949  17.083 -1.0393  1.5626  3.1998
  232MPD1    H3 3527   3.330   3.730  17.099 -0.0403 -0.5945 -1.0556
  232MPD1     N 3528   2.994   3.586  17.375 -0.4684 -0.1809 -0.6109
  232MPD1    H5 3529   2.911   3.627  17.415 -0.8098 -0.5050 -0.9878
  232MPD1    N1 3530   2.979   4.006  17.156 -0.5445 -0.1129 -0.7612
  232MPD1    H6 3531   2.879   4.005  17.179 -0.4825 -0.8117 -0.5038
  232MPD1    H7 3532   2.996   4.051  17.067 -2.2314  0.7555 -0.6443
  233MPD1     C 3533   4.183   2.170   2.335 -0.0337  0.2010 -0.3608
  233MPD1    C1 3534   4.231   2.217   2.212 -0.1134 -0.0623 -0.1496
  233MPD1    C2 3535   4.365   2.213   2.189 -0.2947 -0.1382 -0.1104
  233MPD1    C3 3536   4.456   2.164   2.281  0.3721 -0.1867  0.1709
  233MPD1    C4 3537   4.405   2.108   2.399  0.1122 -0.3189 -0.6783
  233MPD1    C5 3538   4.268   2.113   2.420 -0.1208  0.8663 -0.0494
  233MPD1     H 3539   4.402   2.250   2.094  1.4596  2.3999  1.5441
  233MPD1    H1 3540   4.469   2.058   2.470 -0.7765  2.0741  1.8054
  233MPD1    H2 3541   4.076   2.181   2.352  0.0389 -1.8343  1.3536
  233MPD1    H3 3542   4.229   2.068   2.511  0.2861 -2.0645 -1.3248
  233MPD1     N 3543   4.593   2.168   2.280 -0.4524 -0.1192  0.2117
  233MPD1    H5 3544   4.643   2.122   2.356  0.1221 -1.9869 -1.3159
  233MPD1    N1 3545   4.144   2.274   2.117 -0.5184  0.2394 -0.0125
  233MPD1    H6 3546   4.074   2.326   2.169 -0.3379  0.1803  0.2940
  233MPD1    H7 3547   4.206   2.345   2.077  1.6485 -1.9832 -0.6099
  234MPD1     C 3548   1.910   0.179   9.963 -0.2506  0.0894 -0.0912
  234MPD1    C1 3549   1.815   0.157   9.863 -0.5238  0.1571  0.3657
  234MPD1    C2 3550   1.750   0.265   9.812  0.0489 -0.0364  0.0914
  234MPD1    C3 3551   1.786   0.397   9.838  0.2222  1.2607  0.3369
  234MPD1    C4 3552   1.890   0.413   9.924  0.0153 -0.2351  0.0821
  234MPD1    C5 3553   1.952   0.307   9.989 -0.2933 -0.4538  0.1084
  234MPD1     H 3554   1.655   0.244   9.764  0.4212 -1.4241 -0.0206
  234MPD1    H1 3555   1.935   0.511   9.933 -1.4971  0.3915  0.9193
  234MPD1    H2 3556   1.964   0.096  10.007  0.9397  1.9033  1.8360
  234MPD1    H3 3557   2.038   0.326  10.052  0.5355 -0.0549 -1.1360
  234MPD1     N 3558   1.714   0.498   9.781 -1.1868 -0.8568 -0.2622
  234MPD1    H5 3559   1.636   0.471   9.721 -2.6709 -0.4364  1.4570
  234MPD1    N1 3560   1.772   0.027   9.829 -0.2887  0.4641 -0.2209
  234MPD1    H6 3561   1.849   4.686   9.841 -0.6038 -0.0307 -0.9243
  234MPD1    H7 3562   1.716   0.023   9.744 -0.3618  0.3065 -0.1645
  235MPD1     C 3563   2.260   0.631   9.135 -0.2678  0.5021  0.0658
  235MPD1    C1 3564   2.202   0.514   9.089 -0.1182 -0.2888  0.4910
  235MPD1    C2 3565   2.274   0.393   9.101 -0.1609 -0.5318  0.2917
  235MPD1    C3 3566   2.395   0.391   9.165  0.7762 -0.5573 -0.3047
  235MPD1    C4 3567   2.443   0.505   9.229 -0.5371 -0.7275  0.0127
  235MPD1    C5 3568   2.374   0.621   9.208  0.4965  0.0016 -0.1697
  235MPD1     H 3569   2.230   0.309   9.049  0.0930 -1.1942  1.1401
  235MPD1    H1 3570   2.532   0.516   9.290 -0.9669 -1.6991  0.8169
  235MPD1    H2 3571   2.220   0.729   9.114  1.2626  1.3642  1.1715
  235MPD1    H3 3572   2.415   0.715   9.242 -0.4289  0.5086 -0.4726
  235MPD1     N 3573   2.461   0.272   9.171 -0.1490 -0.0682  0.4977
  235MPD1    H5 3574   2.417   0.198   9.118  0.4929  0.1498 -0.3363
  235MPD1    N1 3575   2.099   0.520   8.992 -0.1112  0.0981 -0.0299
  235MPD1    H6 3576   2.033   0.443   8.990 -1.1456  0.9554  1.0451
  235MPD1    H7 3577   2.044   0.604   9.008 -2.2173 -1.0923 -1.0750
  236MPD1     C 3578   2.072   0.103   9.372  0.4422  0.0067  0.2513
  236MPD1    C1 3579   2.024   0.093   9.498 -0.3308  0.5738 -0.0472
  236MPD1    C2 3580   2.104   0.133   9.608 -0.1046  0.0908 -0.5573
  236MPD1    C3 3581   2.236   0.149   9.594 -0.4020  0.3914  0.4425
  236MPD1    C4 3582   2.285   0.166   9.466 -0.1231 -0.1557  0.7330
  236MPD1    C5 3583   2.204   0.146   9.356  0.0299  0.0563 -0.0555
  236MPD1     H 3584   2.061   0.123   9.707  0.9291  2.6693  0.1726
  236MPD1    H1 3585   2.390   0.187   9.450 -0.6111  1.3516 -0.5024
  236MPD1    H2 3586   2.009   0.092   9.284  0.2053 -0.1046  0.4352
  236MPD1    H3 3587   2.242   0.159   9.256  1.2918 -0.0541  0.4127
  236MPD1     N 3588   2.330   0.180   9.698  0.3757  0.2885 -0.4921
  236MPD1    H5 3589   2.422   0.205   9.663  0.5949 -0.9952 -0.8314
  236MPD1    N1 3590   1.889   0.064   9.516 -0.1544  0.8609  1.1283
  236MPD1    H6 3591   1.842   4.721   9.456 -1.3101  1.6091  1.1888
  236MPD1    H7 3592   1.857   0.049   9.612 -1.8840 -1.2663  0.2513
  237MPD1     C 3593   2.007   3.660  16.099 -0.6496  0.2326 -0.2371
  237MPD1    C1 3594   2.050   3.635  15.972  0.7420  0.3975 -0.0284
  237MPD1    C2 3595   1.963   3.569  15.887  0.4329 -0.5755 -0.2513
  237MPD1    C3 3596   1.837   3.526  15.932 -0.0510  0.3304 -0.0299
  237MPD1    C4 3597   1.794   3.569  16.056  0.0574  0.1777  0.0459
  237MPD1    C5 3598   1.876   3.630  16.136 -0.1372 -0.1535  0.0296
  237MPD1     H 3599   1.996   3.558  15.784  1.7405  1.7978 -0.0974
  237MPD1    H1 3600   1.693   3.541  16.082 -0.1884 -0.8790 -2.0074
  237MPD1    H2 3601   2.073   3.695  16.177  0.8686 -1.4832 -0.7279
  237MPD1    H3 3602   1.855   3.652  16.240 -1.1029  0.1307 -0.2270
  237MPD1     N 3603   1.750   3.444  15.859  0.0573 -0.2403  0.3945
  237MPD1    H5 3604   1.660   3.424  15.903 -1.0771  1.0813 -1.3589
  237MPD1    N1 3605   2.185   3.634  15.938  0.4849 -0.3556  0.3189
  237MPD1    H6 3606   2.252   3.680  15.999 -0.7551 -0.1925  1.5617
  237MPD1    H7 3607   2.190   3.667  15.842  0.4268 -0.1813  0.3747
  238MPD1     C 3608   3.179   2.563  14.897 -0.1483 -0.0178  0.3002
  238MPD1    C1 3609   3.121   2.514  15.007  0.4536 -0.4517  0.3127
  238MPD1    C2 3610   3.072   2.385  14.995  0.6150 -0.8012 -0.5279
  238MPD1    C3 3611   3.063   2.311  14.872  0.0627  0.0956  0.0993
  238MPD1    C4 3612   3.107   2.370  14.762 -0.5001  0.1436 -0.0700
  238MPD1    C5 3613   3.169   2.494  14.773  0.5054  0.1981  0.7729
  238MPD1     H 3614   3.053   2.334  15.089 -0.8014  1.6248  0.4830
  238MPD1    H1 3615   3.092   2.335  14.660  0.9594 -0.2598 -0.1484
  238MPD1    H2 3616   3.239   2.654  14.903 -1.2121  0.7116 -0.2160
  238MPD1    H3 3617   3.209   2.538  14.682 -1.8399 -0.3879 -0.5480
  238MPD1     N 3618   3.033   2.167  14.865  0.1339 -0.4848 -0.4575
  238MPD1    H5 3619   3.053   2.123  14.776 -1.4614 -2.0389 -0.0427
  238MPD1    N1 3620   3.132   2.572  15.137  0.1678  0.4032  0.4271
  238MPD1    H6 3621   3.074   2.535  15.212  0.8157 -2.4124 -0.4718
  238MPD1    H7 3622   3.106   2.668  15.114  1.3597  0.5759 -0.1883
  239MPD1     C 3623   3.896   2.720  14.208  0.3221 -0.6218 -0.3165
  239MPD1    C1 3624   3.821   2.737  14.091 -0.4137 -0.5029 -0.2860
  239MPD1    C2 3625   3.682   2.736  14.095 -0.4475 -0.1508 -0.5112
  239MPD1    C3 3626   3.613   2.730  14.217  0.3012  0.2576  0.4121
  239MPD1    C4 3627   3.698   2.713  14.330  0.3769  0.0848  0.2848
  239MPD1    C5 3628   3.830   2.707  14.325 -0.4973 -0.0266 -0.6445
  239MPD1     H 3629   3.622   2.725  14.006  0.1791  1.1993 -1.0925
  239MPD1    H1 3630   3.647   2.732  14.423  0.8132  1.5948  0.2202
  239MPD1    H2 3631   4.004   2.713  14.211  0.2873 -0.9034  0.2880
  239MPD1    H3 3632   3.883   2.709  14.419  0.2163 -0.7190 -1.0316
  239MPD1     N 3633   3.471   2.724  14.233  0.0380 -0.4271  0.3214
  239MPD1    H5 3634   3.423   2.683  14.313 -3.6559  0.5679 -1.4210
  239MPD1    N1 3635   3.889   2.729  13.973 -0.4076 -0.7778 -0.3508
  239MPD1    H6 3636   3.833   2.769  13.898  0.3217 -1.2852 -1.1672
  239MPD1    H7 3637   3.986   2.761  13.971 -1.6448  2.8910 -2.8932
  240MPD1     C 3638   3.262   1.992  13.484  0.8007 -0.5830 -0.9572
  240MPD1    C1 3639   3.212   2.112  13.526 -0.1151 -0.2996  0.2737
  240MPD1    C2 3640   3.205   2.139  13.661  1.0926 -0.0370  0.3134
  240MPD1    C3 3641   3.237   2.042  13.762 -0.1742  0.4011 -0.0896
  240MPD1    C4 3642   3.259   1.918  13.708  0.1465 -0.1718 -0.1072
  240MPD1    C5 3643   3.270   1.887  13.574 -0.7348  0.0665 -1.3366
  240MPD1     H 3644   3.184   2.240  13.695  2.3668  0.2228  0.3391
  240MPD1    H1 3645   3.273   1.837  13.778  0.7461 -0.7155 -0.8526
  240MPD1    H2 3646   3.295   1.967  13.383 -0.8532  0.1894 -1.6993
  240MPD1    H3 3647   3.324   1.796  13.550 -1.0746 -0.2221 -1.0106
  240MPD1     N 3648   3.202   2.070  13.895 -0.0943  0.5161  0.0595
  240MPD1    H5 3649   3.138   2.148  13.910 -2.9979 -1.9746  0.6794
  240MPD1    N1 3650   3.195   2.210  13.427  0.1908 -0.0114  0.0531
  240MPD1    H6 3651   3.178   2.168  13.336 -0.1436 -0.2436  0.2255
  240MPD1    H7 3652   3.111   2.262  13.450 -1.5101 -1.9413 -1.9029
  241MPD1     C 3653   3.638   2.246  14.766  0.0378  0.4190  0.0391
  241MPD1    C1 3654   3.502   2.259  14.787 -0.0222  0.3062 -0.4407
  241MPD1    C2 3655   3.412   2.205  14.697 -0.2993 -0.2348 -0.8294
  241MPD1    C3 3656   3.458   2.148  14.575  0.7382 -0.4134  0.0314
  241MPD1    C4 3657   3.594   2.145  14.548 -0.2923  0.2758 -0.4009
  241MPD1    C5 3658   3.677   2.191  14.641 -0.3174 -0.5143 -0.5096
  241MPD1     H 3659   3.305   2.207  14.718  0.0076  3.4512  0.2718
  241MPD1    H1 3660   3.631   2.104  14.455  0.4652  1.4257 -0.6098
  241MPD1    H2 3661   3.717   2.291  14.826 -0.2332 -0.6836  1.2310
  241MPD1    H3 3662   3.782   2.183  14.618  0.4807  3.9787  1.4469
  241MPD1     N 3663   3.368   2.088  14.474  0.0245 -0.0178  0.0245
  241MPD1    H5 3664   3.412   2.062  14.386 -1.4712 -1.5932 -0.2594
  241MPD1    N1 3665   3.450   2.302  14.912 -0.2799 -1.3340 -0.4290
  241MPD1    H6 3666   3.515   2.373  14.946  0.8140 -3.1511  1.2986
  241MPD1    H7 3667   3.365   2.356  14.903  0.7889  0.1776 -1.3926
  242MPD1     C 3668   2.940   0.573  16.153 -0.5016 -0.0612 -0.1156
  242MPD1    C1 3669   3.077   0.598  16.161 -0.5390 -0.4247 -0.4231
  242MPD1    C2 3670   3.152   0.582  16.044 -0.1710 -0.3142 -0.9884
  242MPD1    C3 3671   3.093   0.551  15.918 -0.2832  0.3288  0.2590
  242MPD1    C4 3672   2.956   0.547  15.914 -0.3458  0.4006  0.3566
  242MPD1    C5 3673   2.883   0.545  16.029 -0.9696 -0.6130  0.8788
  242MPD1     H 3674   3.259   0.597  16.053 -0.3248 -0.4606  1.0049
  242MPD1    H1 3675   2.895   0.533  15.825  0.3970  0.9457 -0.2367
  242MPD1    H2 3676   2.883   0.596  16.242 -0.5123  1.4896 -0.5180
  242MPD1    H3 3677   2.775   0.530  16.030 -0.8924 -1.2345 -0.2014
  242MPD1     N 3678   3.163   0.538  15.796 -0.3873  0.3841 -0.0508
  242MPD1    H5 3679   3.116   0.525  15.707 -0.7464  1.2014  0.0180
  242MPD1    N1 3680   3.139   0.636  16.282  0.2995  0.0380  0.3356
  242MPD1    H6 3681   3.099   0.716  16.331 -0.8788 -0.4090  0.1114
  242MPD1    H7 3682   3.235   0.664  16.268  0.3756 -0.6634 -0.5294
  243MPD1     C 3683   0.065   4.446   0.022 -0.3649  0.4224 -0.6828
  243MPD1    C1 3684   4.707   4.334   0.044  0.3677 -0.5242 -0.0189
  243MPD1    C2 3685   4.633   4.276  17.643 -0.7401  0.0909  0.2296
  243MPD1    C3 3686   4.648   4.319  17.515  0.3932  0.2893 -1.6208
  243MPD1    C4 3687   0.010   4.426  17.493 -0.4683  0.0984  1.2203
  243MPD1    C5 3688   0.071   4.485  17.591  0.4343 -0.6836 -0.2605
  243MPD1     H 3689   4.562   4.197  17.663 -0.6606 -0.1917 -0.6138
  243MPD1    H1 3690   0.003   4.485  17.402  1.0165  0.2530  1.1937
  243MPD1    H2 3691   0.103   4.514   0.097  0.6100  0.6751 -1.4106
  243MPD1    H3 3692   0.128   4.571  17.555 -0.7938  0.0452 -0.4687
  243MPD1     N 3693   4.573   4.253  17.409  0.4452  0.4055 -0.2993
  243MPD1    H5 3694   4.505   4.184  17.440  0.4749  0.9049  0.8750
  243MPD1    N1 3695   4.686   4.299   0.179  0.5342  0.1799 -0.4263
  243MPD1    H6 3696   4.678   4.197   0.183 -0.9485  0.3211  0.0944
  243MPD1    H7 3697   0.041   4.333   0.233 -0.8935  1.6282  0.7297
  244MPD1     C 3698   3.874   3.897  17.649 -0.7710 -0.0034 -0.2014
  244MPD1    C1 3699   3.993   3.946  17.695 -0.3439  0.3960  0.0947
  244MPD1    C2 3700   4.088   3.973  17.600 -0.2146  0.6200 -0.4614
  244MPD1    C3 3701   4.078   3.934  17.467 -0.2434  0.6504  0.3522
  244MPD1    C4 3702   3.964   3.872  17.419  0.1185 -0.5784  0.2028
  244MPD1    C5 3703   3.869   3.863  17.512  0.3403  0.3528  0.1687
  244MPD1     H 3704   4.175   4.033  17.625 -1.1475  1.3760  0.9629
  244MPD1    H1 3705   3.954   3.836  17.317 -0.5807  2.0944 -0.6976
  244MPD1    H2 3706   3.793   3.874   0.017 -0.4032  0.8732  0.5254
  244MPD1    H3 3707   3.776   3.817  17.479 -0.0654  0.0686  1.6905
  244MPD1     N 3708   4.177   3.987  17.380  0.4004 -0.2832  0.7168
  244MPD1    H5 3709   4.239   4.052  17.428  1.2731 -0.7997  0.2740
  244MPD1    N1 3710   4.011   3.986   0.128  0.0640  0.2707  0.3829
  244MPD1    H6 3711   4.105   4.002   0.163  0.2285 -0.4136  0.2634
  244MPD1    H7 3712   3.960   3.915   0.181  3.4941 -2.0437  0.5629
  245MPD1     C 3713   1.375   4.230  13.827  0.2758 -0.6873  0.5264
  245MPD1    C1 3714   1.356   4.346  13.766  0.2030  0.1009  0.1941
  245MPD1    C2 3715   1.460   4.442  13.762 -0.1215 -0.2431 -0.5391
  245MPD1    C3 3716   1.580   4.431  13.833  0.0511  0.0776  0.5191
  245MPD1    C4 3717   1.598   4.308  13.890  0.1913 -0.2353  0.0786
  245MPD1    C5 3718   1.496   4.216  13.886 -0.0449  0.3294  0.0673
  245MPD1     H 3719   1.442   4.530  13.702 -2.7314 -0.3136  0.1635
  245MPD1    H1 3720   1.684   4.270  13.944 -0.7058 -2.0085  0.2671
  245MPD1    H2 3721   1.302   4.150  13.821 -0.0473 -0.5653  3.0911
  245MPD1    H3 3722   1.521   4.118  13.924  0.9800  1.0452  1.2585
  245MPD1     N 3723   1.680   4.538  13.821  0.2449  0.2562 -0.0148
  245MPD1    H5 3724   1.658   4.616  13.760 -3.4814  0.3490  1.4338
  245MPD1    N1 3725   1.235   4.356  13.701  0.8843 -0.4111  0.2413
  245MPD1    H6 3726   1.159   4.295  13.730 -0.6274  1.0020 -0.7699
  245MPD1    H7 3727   1.212   4.455  13.707 -1.4466 -0.8275 -2.0461
  246MPD1     C 3728   1.485   2.761   9.339 -1.0461  0.1062  0.7645
  246MPD1    C1 3729   1.622   2.791   9.327  0.1658  0.1268 -0.0777
  246MPD1    C2 3730   1.707   2.694   9.361 -0.2143  0.5990  0.1012
  246MPD1    C3 3731   1.665   2.558   9.381  0.2085 -0.3616  0.0622
  246MPD1    C4 3732   1.532   2.530   9.373  0.7436  0.1150  0.3717
  246MPD1    C5 3733   1.442   2.626   9.360  0.1543  0.3686  0.2815
  246MPD1     H 3734   1.814   2.711   9.362  0.0186 -0.9393  1.0454
  246MPD1    H1 3735   1.489   2.432   9.387 -1.0934  1.1299  1.8636
  246MPD1    H2 3736   1.417   2.845   9.333 -0.0003  0.7918 -1.2733
  246MPD1    H3 3737   1.335   2.610   9.360 -0.0109  1.4213 -0.3128
  246MPD1     N 3738   1.770   2.462   9.397 -0.1567 -0.6076  0.0088
  246MPD1    H5 3739   1.865   2.492   9.419 -0.1983  0.6370 -1.4695
  246MPD1    N1 3740   1.675   2.926   9.327  0.3513 -0.7835 -0.1575
  246MPD1    H6 3741   1.609   2.985   9.276 -0.6835  0.9134  3.1035
  246MPD1    H7 3742   1.768   2.926   9.288  0.1549  0.3036 -0.6188
  247MPD1     C 3743   0.177   3.967  15.716 -0.3752 -0.3347  0.3774
  247MPD1    C1 3744   0.193   3.906  15.832 -0.0941 -0.3594  0.8457
  247MPD1    C2 3745   0.312   3.934  15.889 -0.1659  0.7287  0.3306
  247MPD1    C3 3746   0.398   4.027  15.843 -0.0133  0.0787 -0.1248
  247MPD1    C4 3747   0.370   4.103  15.729  0.7249  0.1278  0.2777
  247MPD1    C5 3748   0.261   4.061  15.668  0.8634 -0.7846  0.6846
  247MPD1     H 3749   0.348   3.865  15.964  0.2788  1.7762  1.0804
  247MPD1    H1 3750   0.432   4.181  15.686  2.2443 -1.0681  0.2780
  247MPD1    H2 3751   0.099   3.946  15.645  1.5875 -2.0521 -1.2539
  247MPD1    H3 3752   0.244   4.112  15.574 -0.4796 -1.3247  0.6313
  247MPD1     N 3753   0.530   4.047  15.897  0.5536  0.4242 -0.6636
  247MPD1    H5 3754   0.588   4.107  15.839  2.7113 -2.8258 -1.8890
  247MPD1    N1 3755   0.100   3.799  15.871  0.2351 -0.1443 -0.6268
  247MPD1    H6 3756   0.088   3.806  15.972 -1.0599 -1.5537 -0.6836
  247MPD1    H7 3757   0.005   3.802  15.833  0.6145  0.8403 -1.4779
  248MPD1     C 3758   2.041   0.717   0.136  0.6368  0.2195  0.7239
  248MPD1    C1 3759   2.093   0.607   0.079 -0.4631 -0.3035 -0.2878
  248MPD1    C2 3760   2.074   0.478   0.131  0.2121 -0.2800  0.4399
  248MPD1    C3 3761   1.982   0.465   0.231 -0.8377 -0.1130 -0.5959
  248MPD1    C4 3762   1.916   0.574   0.283  0.0787 -0.1942  0.8883
  248MPD1    C5 3763   1.950   0.700   0.236  0.3875  0.1617  0.2651
  248MPD1     H 3764   2.125   0.394   0.085  1.6340  0.0925  1.3484
  248MPD1    H1 3765   1.848   0.562   0.366 -0.8028  0.9438  0.3195
  248MPD1    H2 3766   2.062   0.818   0.102 -0.6767  0.3842  0.4111
  248MPD1    H3 3767   1.919   0.785   0.297 -2.4107  1.4861 -2.9817
  248MPD1     N 3768   1.965   0.334   0.287  0.1733 -0.6972 -0.3033
  248MPD1    H5 3769   2.018   0.257   0.248  0.6914 -0.6042  0.2200
  248MPD1    N1 3770   2.168   0.619  17.660 -0.1672  0.4610 -0.1875
  248MPD1    H6 3771   2.113   0.569  17.590  0.4946 -0.7582  0.1665
  248MPD1    H7 3772   2.176   0.713  17.621 -0.9029  0.8161  0.5201
  249MPD1     C 3773   3.304   4.381   9.275  0.1233 -0.4331  0.4181
  249MPD1    C1 3774   3.230   4.306   9.366  0.5538 -0.1692 -0.3433
  249MPD1    C2 3775   3.288   4.194   9.427 -0.0565  0.3042  0.2233
  249MPD1    C3 3776   3.417   4.162   9.412  0.9821 -0.0606 -0.4252
  249MPD1    C4 3777   3.495   4.232   9.320 -0.2868 -0.1350  0.4113
  249MPD1    C5 3778   3.438   4.341   9.246 -0.2915 -0.6807 -0.2581
  249MPD1     H 3779   3.217   4.126   9.474  0.6428 -0.9341 -0.5035
  249MPD1    H1 3780   3.592   4.200   9.286 -0.5975 -1.5868  0.8977
  249MPD1    H2 3781   3.270   4.469   9.222  0.1020 -0.4939  0.3294
  249MPD1    H3 3782   3.500   4.392   9.173  0.2110 -0.8262  0.0693
  249MPD1     N 3783   3.475   4.075   9.499 -0.0681  0.2857  0.4773
  249MPD1    H5 3784   3.407   4.026   9.556 -1.6251  2.0382  0.1200
  249MPD1    N1 3785   3.100   4.338   9.398 -0.9483 -0.6886 -0.5572
  249MPD1    H6 3786   3.082   4.331   9.497  1.2548 -1.8877 -0.2629
  249MPD1    H7 3787   3.077   4.434   9.372 -1.2521 -0.1225  1.8199
  250MPD2     C 3788   3.866   2.885  12.894 -0.4032 -0.3528  0.0270
  250MPD2    C1 3789   4.004   2.906  12.905 -0.4821 -0.3190  0.0041
  250MPD2    C2 3790   4.094   2.803  12.865  0.3864  0.0232 -0.4820
  250MPD2    C3 3791   4.035   2.685  12.828  0.1365 -0.4030 -0.8675
  250MPD2    C4 3792   3.900   2.665  12.825  0.6147 -0.6059 -0.3500
  250MPD2    C5 3793   3.814   2.765  12.857  0.0058  0.1206  0.4070
  250MPD2     H 3794   4.200   2.819  12.873  0.5125  0.5866 -3.2313
  250MPD2    H1 3795   3.858   2.567  12.805  3.7615 -2.4902  2.3318
  250MPD2    H2 3796   3.782   2.951  12.914  0.3995  1.4566 -2.6151
  250MPD2    H3 3797   3.707   2.749  12.852 -0.0229  0.1659  0.9400
  250MPD2     N 3798   4.113   2.570  12.794  0.2029  1.0206 -0.8591
  250MPD2    H5 3799   4.072   2.497  12.737  0.4407 -0.0989  0.3924
  250MPD2    N1 3800   4.067   3.032  12.935  0.2269 -0.1220 -0.1481
  250MPD2    H7 3801   4.168   3.042  12.939  0.1728 -0.3697  1.7458
  251TMC3    C1 3802   4.077   3.269  12.975  0.6092  0.8855  0.2351
  251TMC3    C2 3803   4.009   3.384  13.010 -0.0140 -0.1116  0.1329
  251TMC3    C3 3804   4.075   3.501  13.008  0.0800 -0.1733 -0.1979
  251TMC3    C4 3805   4.199   3.274  12.921  1.1621 -0.8486  0.0069
  251TMC3    C5 3806   4.253   3.403  12.917 -1.0589 -0.8103 -1.0629
  251TMC3    C6 3807   4.195   3.522  12.957  0.2588  0.4446  0.1507
  251TMC3     C 3808   4.002   3.144  12.969  0.6356  0.2949 -0.8454
  251TMC3     O 3809   3.884   3.154  13.001 -0.2079 -0.0375 -0.5139
  251TMC3     H 3810   3.925   3.371  13.077 -0.6902  2.4102 -0.2539
  251TMC3    H1 3811   4.256   3.182  12.909  1.0484 -1.0055  0.7029
  251TMC3    H2 3812   4.251   3.614  12.964 -0.6584  1.0426 -0.5050
  251TMC3    C7 3813   4.397   3.409  12.891  0.4932  0.1619  0.3563
  251TMC3    C8 3814   4.037   3.607  13.104  0.9575  0.2554 -0.3645
  251TMC3    O1 3815   4.458   3.314  12.936  0.5627  0.4600  1.0599
  251TMC3    O2 3816   4.131   3.663  13.155  0.2645 -0.6708 -0.9780
  252TMC3    C1 3817   0.383   3.209   9.346 -0.0655  0.6700 -0.1720
  252TMC3    C2 3818   0.507   3.274   9.350 -0.2938  0.9991 -0.2937
  252TMC3    C3 3819   0.543   3.332   9.475  0.6808 -0.2233 -0.2066
  252TMC3    C4 3820   0.296   3.209   9.453 -0.3452  0.1226  0.5736
  252TMC3    C5 3821   0.340   3.251   9.571  0.2694  0.8574  0.3303
  252TMC3    C6 3822   0.464   3.308   9.586 -0.6859  0.0962 -0.4817
  252TMC3     C 3823   0.323   3.171   9.220 -0.0932  0.2280 -0.3332
  252TMC3     O 3824   0.204   3.137   9.213  0.1474 -0.0065  0.0319
  252TMC3     H 3825   0.569   3.286   9.262 -0.1025 -0.3076 -0.3274
  252TMC3    H1 3826   0.196   3.168   9.441  0.2680 -0.9995 -0.8890
  252TMC3    H2 3827   0.495   3.352   9.681 -0.9882  1.3940 -0.9848
  252TMC3    C7 3828   0.250   3.245   9.683  0.8651  0.7497 -0.1003
  252TMC3    C8 3829   0.670   3.407   9.486 -0.1037  0.5940 -0.0867
  252TMC3    O1 3830   0.258   3.330   9.771  0.2099  0.3080 -0.3463
  252TMC3    O2 3831   0.737   3.398   9.385 -0.4798 -0.2672  0.4634
  253MPD2     C 3832   1.314   3.332  15.666 -0.2097 -0.3471  0.1940
  253MPD2    C1 3833   1.192   3.310  15.597  0.0968  0.2689 -0.4705
  253MPD2    C2 3834   1.094   3.228  15.643  0.5125 -0.3113 -0.9964
  253MPD2    C3 3835   1.098   3.178  15.775 -0.7586  0.2645  0.2496
  253MPD2    C4 3836   1.217   3.209  15.847  0.0074 -0.3060  0.1221
  253MPD2    C5 3837   1.318   3.286  15.794  0.1112  0.8711 -0.0411
  253MPD2     H 3838   1.007   3.213  15.580 -0.4109  0.5146  0.0939
  253MPD2    H1 3839   1.230   3.167  15.946 -0.7623  0.7925  0.6940
  253MPD2    H2 3840   1.395   3.398  15.638 -0.3444 -0.9113 -1.5437
  253MPD2    H3 3841   1.400   3.317  15.857  0.5232 -2.3187  0.9892
  253MPD2     N 3842   0.994   3.109  15.842 -0.4043  0.2968 -0.4819
  253MPD2    H5 3843   1.010   3.094  15.941 -0.0673 -0.0741 -0.5914
  253MPD2    N1 3844   1.171   3.358  15.468  0.4905  0.1258  0.6672
  253MPD2    H7 3845   1.105   3.311  15.406  1.0396  0.9520 -0.5370
  254TMC3    C1 3846   0.768   3.048  15.884  0.6303 -0.0738 -0.3726
  254TMC3    C2 3847   0.638   3.068  15.855  0.0642 -0.0788  0.3303
  254TMC3    C3 3848   0.541   3.017  15.935  0.3433  0.1703 -0.3820
  254TMC3    C4 3849   0.808   2.971  15.986 -0.5079 -0.5410  0.7158
  254TMC3    C5 3850   0.711   2.897  16.050  0.1534  0.5379  0.3246
  254TMC3    C6 3851   0.580   2.923  16.029  0.3310  0.2037  0.1472
  254TMC3     C 3852   0.867   3.097  15.795 -0.4772  0.2827 -0.1247
  254TMC3     O 3853   0.825   3.128  15.685 -0.6160  0.0771  0.0913
  254TMC3     H 3854   0.608   3.112  15.760  0.5427  2.2812  1.2781
  254TMC3    H1 3855   0.913   2.954  16.006 -0.3678 -0.4629  0.0695
  254TMC3    H2 3856   0.510   2.867  16.091 -2.3190  1.6006 -1.6037
  254TMC3    C7 3857   0.744   2.885  16.183 -0.0233  0.7097 -1.0707
  254TMC3    C8 3858   0.457   3.107  16.006  0.7331  0.4307  0.1972
  254TMC3    O1 3859   0.859   2.844  16.208 -0.0473 -0.0692 -0.3904
  254TMC3    O2 3860   0.440   3.084  16.127 -0.4526  0.1982  0.4368
  255MPD2     C 3861   3.866   0.870  10.330 -0.3687  0.6707 -0.5964
  255MPD2    C1 3862   3.943   0.905  10.219 -0.1186 -0.1731 -0.0583
  255MPD2    C2 3863   4.079   0.927  10.232  0.0603  0.1771 -0.5227
  255MPD2    C3 3864   4.141   0.908  10.353  0.4060  1.0096 -0.2125
  255MPD2    C4 3865   4.067   0.862  10.459 -0.1472 -0.0480  1.3903
  255MPD2    C5 3866   3.936   0.843  10.447  0.1781  0.5273 -0.2422
  255MPD2     H 3867   4.135   0.966  10.148 -0.5817  1.5694 -0.3114
  255MPD2    H1 3868   4.122   0.840  10.550 -2.8727 -0.6549  2.8658
  255MPD2    H2 3869   3.760   0.850  10.322 -0.8509  2.8546  0.1756
  255MPD2    H3 3870   3.887   0.820  10.541 -3.1027  0.7839 -1.8813
  255MPD2     N 3871   4.281   0.931  10.356 -0.0905  0.1039 -0.5460
  255MPD2    H5 3872   4.322   0.942  10.264  3.7732 -3.5742  0.7517
  255MPD2    N1 3873   3.873   0.912  10.097  0.2795 -0.3913 -0.4001
  255MPD2    H7 3874   3.774   0.888  10.093 -0.0493  0.8108  0.4357
  256TMC3    C1 3875   3.833   0.931   9.859  0.7336  0.0802  0.6739
  256TMC3    C2 3876   3.874   0.996   9.747  0.0158 -0.3498  0.9141
  256TMC3    C3 3877   3.872   0.930   9.631  0.0815 -0.1962 -0.0235
  256TMC3    C4 3878   3.759   0.815   9.854  0.7032  0.5768 -0.6052
  256TMC3    C5 3879   3.757   0.754   9.732  0.3551 -0.2622 -0.3925
  256TMC3    C6 3880   3.816   0.808   9.618 -0.5009  0.2416 -0.1729
  256TMC3     C 3881   3.925   0.946   9.971 -0.9561 -0.2564  0.2848
  256TMC3     O 3882   4.036   0.982   9.931 -0.6407  0.6164  0.4791
  256TMC3     H 3883   3.927   1.090   9.757 -2.2494  0.9337  0.6989
  256TMC3    H1 3884   3.736   0.769   9.949  1.7003 -1.8497 -1.5287
  256TMC3    H2 3885   3.833   0.748   9.529  2.9205  0.1677  0.5380
  256TMC3    C7 3886   3.706   0.621   9.735 -0.0610  0.2811 -0.4708
  256TMC3    C8 3887   3.960   0.976   9.526  0.7974 -0.0905  0.5834
  256TMC3    O1 3888   3.706   0.569   9.845  0.0369 -0.1982 -0.3959
  256TMC3    O2 3889   4.060   1.042   9.563  0.1700 -0.7667 -0.1655
  257MPD2     C 3890   2.977   3.077  13.006  0.5726 -0.1147 -0.0297
  257MPD2    C1 3891   3.077   3.043  12.921  0.5089 -0.4812 -0.1746
  257MPD2    C2 3892   3.182   2.978  12.976  0.2052 -0.3849 -0.1631
  257MPD2    C3 3893   3.185   2.939  13.107 -0.2410 -0.7843 -0.2097
  257MPD2    C4 3894   3.083   2.974  13.201  0.9002  0.8654 -0.5648
  257MPD2    C5 3895   2.980   3.045  13.140  0.8383  0.3045  0.2359
  257MPD2     H 3896   3.272   2.963  12.917 -1.0229 -1.0427 -1.8706
  257MPD2    H1 3897   3.078   2.960  13.308  1.9932  2.4290 -0.3010
  257MPD2    H2 3898   2.893   3.137  12.975  0.0596  0.0053  1.5903
  257MPD2    H3 3899   2.900   3.078  13.205 -0.8810 -0.1714 -1.6289
  257MPD2     N 3900   3.304   2.879  13.155  0.1318  0.3904 -0.4267
  257MPD2    H5 3901   3.384   2.865  13.093  0.8202  0.1051  0.5179
  257MPD2    N1 3902   3.058   3.076  12.785 -0.4734  0.2291  0.0507
  257MPD2    H7 3903   2.991   3.149  12.762 -1.6183 -1.2925 -1.4376
  258TMC3    C1 3904   3.467   2.813  13.320 -0.0310  0.5436  0.6532
  258TMC3    C2 3905   3.556   2.890  13.259  0.0879 -0.5856 -0.3629
  258TMC3    C3 3906   3.669   2.917  13.336 -0.1912 -0.3456  0.0696
  258TMC3    C4 3907   3.491   2.734  13.424  0.3536 -0.0263  1.4788
  258TMC3    C5 3908   3.607   2.748  13.491  0.2527  0.2222 -0.3191
  258TMC3    C6 3909   3.691   2.853  13.456 -0.6714 -0.3693  0.4454
  258TMC3     C 3910   3.323   2.830  13.285  0.7203 -1.0718  0.5980
  258TMC3     O 3911   3.244   2.800  13.367  0.1535  0.6450 -0.2200
  258TMC3     H 3912   3.545   2.949  13.169 -1.8003  0.4052  0.5122
  258TMC3    H1 3913   3.418   2.666  13.466  0.1390 -0.6200  0.1427
  258TMC3    H2 3914   3.785   2.869  13.506 -0.5377 -1.2862  0.4770
  258TMC3    C7 3915   3.641   2.678  13.621  0.0132  0.8448  0.2105
  258TMC3    C8 3916   3.729   3.047  13.315 -0.6566  0.1691  0.1754
  258TMC3    O1 3917   3.750   2.706  13.670 -0.1080 -0.3342  0.6436
  258TMC3    O2 3918   3.652   3.125  13.258  0.0361 -0.1745 -0.1306
  259MPD2     C 3919   2.763   3.881   1.620 -0.2566 -0.7762  0.1023
  259MPD2    C1 3920   2.645   3.846   1.565 -0.8864  0.3546  0.1593
  259MPD2    C2 3921   2.632   3.768   1.447 -0.4275 -0.4207  0.0201
  259MPD2    C3 3922   2.751   3.736   1.382 -0.2413 -0.0345  0.4303
  259MPD2    C4 3923   2.870   3.760   1.449 -0.3140 -0.7516  0.2526
  259MPD2    C5 3924   2.881   3.831   1.561  0.2045 -0.6807  0.5002
  259MPD2     H 3925   2.540   3.743   1.396 -0.6027  1.7222 -0.7483
  259MPD2    H1 3926   2.965   3.728   1.410 -1.3012 -2.7728 -0.4744
  259MPD2    H2 3927   2.762   3.942   1.710  1.3224 -3.1319  1.7353
  259MPD2    H3 3928   2.976   3.836   1.613  0.8895 -0.4010 -0.7800
  259MPD2     N 3929   2.744   3.673   1.255  0.2042 -0.6302  0.3899
  259MPD2    H5 3930   2.654   3.662   1.210 -0.7224  2.2834  1.5042
  259MPD2    N1 3931   2.537   3.889   1.639 -0.0501  0.0534 -0.0093
  259MPD2    H7 3932   2.558   3.928   1.731 -0.9405  3.0276 -1.0548
  260TMC3    C1 3933   2.823   3.557   1.066  0.7336  0.0853  0.2265
  260TMC3    C2 3934   2.929   3.490   1.003 -0.1217 -0.1309 -0.5728
  260TMC3    C3 3935   2.908   3.434   0.883 -0.0858 -0.0358 -0.0781
  260TMC3    C4 3936   2.708   3.576   1.001  0.2457  0.7007  0.1874
  260TMC3    C5 3937   2.690   3.506   0.884 -0.8324  0.1448  0.3543
  260TMC3    C6 3938   2.785   3.428   0.824  0.0826 -0.0726 -0.1098
  260TMC3     C 3939   2.853   3.622   1.192 -0.1608 -0.1008  0.0839
  260TMC3     O 3940   2.972   3.614   1.228  0.1861  0.0069 -0.3047
  260TMC3     H 3941   3.029   3.495   1.045 -0.0707 -1.1736 -0.5636
  260TMC3    H1 3942   2.639   3.651   1.039 -0.9047  0.3201 -1.1533
  260TMC3    H2 3943   2.752   3.364   0.743 -0.7808  1.0734 -0.6760
  260TMC3    C7 3944   2.603   3.560   0.788  0.2316 -0.6790  0.1388
  260TMC3    C8 3945   3.017   3.401   0.795 -0.1053 -0.4727  0.6217
  260TMC3    O1 3946   2.642   3.555   0.675 -0.0929  0.2849 -0.3581
  260TMC3    O2 3947   3.127   3.416   0.848  0.4499  0.0451  0.1477
  261MPD2     C 3948   4.235   2.520  12.096  0.7527  0.4666  0.2909
  261MPD2    C1 3949   4.208   2.578  12.213 -0.4770  0.3418 -0.2649
  261MPD2    C2 3950   4.185   2.717  12.219  0.1452 -0.3319 -0.2423
  261MPD2    C3 3951   4.189   2.792  12.097  0.9299 -0.4047  0.1897
  261MPD2    C4 3952   4.216   2.725  11.978  0.0488 -0.6120 -0.0007
  261MPD2    C5 3953   4.238   2.593  11.978  0.0771 -0.5046 -0.5328
  261MPD2     H 3954   4.164   2.764  12.315  1.7932  0.2472 -0.1693
  261MPD2    H1 3955   4.230   2.782  11.887 -3.0786 -0.6345 -0.4921
  261MPD2    H2 3956   4.258   2.414  12.085  0.6568  0.4319  0.4306
  261MPD2    H3 3957   4.278   2.546  11.889 -0.1316  1.8267 -1.8646
  261MPD2     N 3958   4.177   2.929  12.084 -0.3035  0.0703  0.6106
  261MPD2    H5 3959   4.201   2.972  11.995  2.7489  2.4015  2.5413
  261MPD2    N1 3960   4.209   2.502  12.331  0.1669 -1.0230  0.1224
  261MPD2    H7 3961   4.207   2.557  12.416  1.9311 -1.6275  0.5546
  262TMC3    C1 3962   4.143   3.144  12.166 -0.3226  0.2290  0.7984
  262TMC3    C2 3963   4.071   3.235  12.243  0.1114 -0.3079  0.2936
  262TMC3    C3 3964   4.121   3.353  12.273  0.5781  0.6905  0.5581
  262TMC3    C4 3965   4.260   3.181  12.111 -0.0307 -0.2447 -0.2912
  262TMC3    C5 3966   4.317   3.300  12.147 -0.7247  0.5733  0.3588
  262TMC3    C6 3967   4.252   3.387  12.236 -0.2631 -0.3457  0.6454
  262TMC3     C 3968   4.119   3.002  12.175  0.2879 -0.0513  0.5504
  262TMC3     O 3969   4.054   2.977  12.275  0.1312  0.1587 -0.5102
  262TMC3     H 3970   3.979   3.207  12.293  0.3342 -0.7513  0.4621
  262TMC3    H1 3971   4.319   3.113  12.050 -0.3288  0.4746 -1.3848
  262TMC3    H2 3972   4.290   3.487  12.254  0.6253 -0.6352  0.3843
  262TMC3    C7 3973   4.384   3.373  12.044  0.8215 -0.0980  0.4913
  262TMC3    C8 3974   4.041   3.462  12.220 -0.0463 -0.9701  0.3243
  262TMC3    O1 3975   4.442   3.470  12.088  0.6605 -0.0991 -0.2757
  262TMC3    O2 3976   4.089   3.575  12.205 -0.5702  0.5982 -0.2416
  263MPD2     C 3977   0.423   2.237  11.222  0.4026 -0.0241 -0.1748
  263MPD2    C1 3978   0.540   2.194  11.163  0.6430  0.0385  0.3981
  263MPD2    C2 3979   0.582   2.256  11.041 -0.1884  0.3220 -0.0463
  263MPD2    C3 3980   0.510   2.356  10.983  0.5165  0.1120 -0.0534
  263MPD2    C4 3981   0.391   2.389  11.049  0.8811 -0.4635  0.5150
  263MPD2    C5 3982   0.352   2.338  11.170  0.3428 -0.3784  0.1766
  263MPD2     H 3983   0.676   2.233  10.994 -0.5127  0.1109 -0.5968
  263MPD2    H1 3984   0.319   2.461  11.011  0.1208 -1.1067  0.7341
  263MPD2    H2 3985   0.392   2.198  11.318  0.4442 -0.5759 -0.3817
  263MPD2    H3 3986   0.261   2.365  11.223  0.4505  0.8286 -0.2531
  263MPD2     N 3987   0.560   2.421  10.868  0.6035  0.3092  0.5206
  263MPD2    H5 3988   0.644   2.379  10.829  0.5582 -0.5726  1.3870
  263MPD2    N1 3989   0.609   2.089  11.225 -0.0514 -0.4254  0.9160
  263MPD2    H7 3990   0.569   2.056  11.313 -1.1707  0.5360  0.7705
  264TMC3    C1 3991   0.591   2.583  10.700  0.2617 -0.5213  0.4127
  264TMC3    C2 3992   0.578   2.715  10.664 -0.0713 -0.1663 -0.1615
  264TMC3    C3 3993   0.626   2.754  10.547 -0.6636  0.4894 -0.5809
  264TMC3    C4 3994   0.648   2.495  10.612  0.2129  0.2853  0.3170
  264TMC3    C5 3995   0.686   2.540  10.489  0.0077  0.2041  0.9447
  264TMC3    C6 3996   0.686   2.671  10.458 -0.1385  0.7271 -0.1901
  264TMC3     C 3997   0.517   2.541  10.815  0.3860  0.1975 -0.5849
  264TMC3     O 3998   0.425   2.613  10.850  0.8052  0.2553  0.0824
  264TMC3     H 3999   0.531   2.784  10.733  0.9820  0.2070  0.1970
  264TMC3    H1 4000   0.650   2.390  10.636 -1.3230  0.3050  0.5679
  264TMC3    H2 4001   0.720   2.706  10.361  0.3630  1.0320  0.0999
  264TMC3    C7 4002   0.781   2.458  10.423 -0.5706  0.1470 -0.1810
  264TMC3    C8 4003   0.664   2.892  10.540 -0.2019 -0.8207  0.4770
  264TMC3    O1 4004   0.862   2.514  10.350 -0.3901  0.0483  0.3735
  264TMC3    O2 4005   0.771   2.909  10.482 -0.1481  0.0933 -0.2137
  265MPD2     C 4006   2.039   2.307  15.589 -0.1158  0.7684 -0.2518
  265MPD2    C1 4007   2.141   2.398  15.604 -0.5860 -0.4182  0.5124
  265MPD2    C2 4008   2.246   2.389  15.518  0.4579  0.0234  0.1681
  265MPD2    C3 4009   2.252   2.293  15.419  0.3863  0.2183 -0.0259
  265MPD2    C4 4010   2.148   2.211  15.405 -0.1148 -0.5346 -0.2676
  265MPD2    C5 4011   2.040   2.220  15.490  0.2364 -0.0116  0.4688
  265MPD2     H 4012   2.319   2.467  15.535  2.0006 -1.3058 -0.2973
  265MPD2    H1 4013   2.139   2.143  15.321 -1.0768 -0.5625 -0.1331
  265MPD2    H2 4014   1.950   2.306  15.652  0.4530  0.1426  0.5449
  265MPD2    H3 4015   1.960   2.150  15.471 -0.6731  0.8227  1.2323
  265MPD2     N 4016   2.347   2.279  15.314  0.4216 -0.0015  0.3471
  265MPD2    H5 4017   2.334   2.195  15.259 -2.0708  0.1441  0.7289
  265MPD2    N1 4018   2.136   2.500  15.699  0.1991 -0.3918  0.3534
  265MPD2    H7 4019   2.200   2.575  15.677 -0.4439 -0.4407 -1.6280
  266TMC3    C1 4020   2.046   2.648  15.855  0.0684  0.0125  0.4220
  266TMC3    C2 4021   2.036   2.669  15.992  0.0444  0.6564 -0.2039
  266TMC3    C3 4022   2.004   2.798  16.030  0.6824 -0.7521 -0.2272
  266TMC3    C4 4023   2.040   2.744  15.760 -0.6083  1.0157 -0.0010
  266TMC3    C5 4024   2.014   2.874  15.805 -0.2758  0.1486 -1.0459
  266TMC3    C6 4025   1.994   2.904  15.940 -0.0970  0.2864  0.3264
  266TMC3     C 4026   2.049   2.512  15.804  0.0244  0.3920 -0.1984
  266TMC3     O 4027   1.971   2.427  15.847  0.0704  0.6912 -0.7032
  266TMC3     H 4028   2.031   2.587  16.063 -0.9891  1.0883  0.2270
  266TMC3    H1 4029   2.060   2.727  15.655  0.6394  0.5335  0.3139
  266TMC3    H2 4030   1.955   3.003  15.964  0.4810  0.0214  2.3073
  266TMC3    C7 4031   1.970   2.977  15.706 -0.3715  0.4706 -0.6634
  266TMC3    C8 4032   2.017   2.819  16.173  0.0441  1.0869 -0.4397
  266TMC3    O1 4033   1.944   3.087  15.756 -0.4282 -0.5513  0.6094
  266TMC3    O2 4034   2.007   2.723  16.251 -0.0407  0.3294  0.5029
  267MPD2     C 4035   0.106   4.617   0.477 -0.1050  0.1955  0.0497
  267MPD2    C1 4036   0.178   4.680   0.387  0.1416  0.3700 -0.9448
  267MPD2    C2 4037   0.122   4.715   0.262  0.4750  0.0465 -0.5259
  267MPD2    C3 4038   4.716   4.681   0.237  0.6262 -0.1511 -0.0472
  267MPD2    C4 4039   4.641   4.622   0.336  0.1026 -0.3453  0.2549
  267MPD2    C5 4040   4.698   4.590   0.457 -0.5976 -0.4034 -0.0691
  267MPD2     H 4041   0.177   0.049   0.189  0.7557  0.5967  0.1289
  267MPD2    H1 4042   4.545   4.578   0.312  1.2586 -3.0707  0.7344
  267MPD2    H2 4043   0.154   4.585   0.569  0.1402  1.4381  0.3628
  267MPD2    H3 4044   4.641   4.542   0.536  1.2582 -2.6019 -0.0685
  267MPD2     N 4045   4.648   4.717   0.113 -0.1624  0.3131 -0.1000
  267MPD2    H5 4046   4.554   4.681   0.096 -0.4746  0.8475  0.4575
  267MPD2    N1 4047   0.315   4.688   0.419  0.1129 -0.0402  0.5027
  267MPD2    H7 4048   0.335   4.654   0.512  1.3448 -1.8326 -0.4132
  268TMC3    C1 4049   0.542   4.709   0.369 -0.2205 -0.1935  0.3894
  268TMC3    C2 4050   0.636   0.047   0.293 -0.2398 -0.1485 -0.3316
  268TMC3    C3 4051   0.763   0.009   0.318 -0.0687 -0.0830  0.3573
  268TMC3    C4 4052   0.566   4.615   0.467 -0.0190 -0.1413 -0.4755
  268TMC3    C5 4053   0.697   4.580   0.482  0.2145  0.3015  0.1207
  268TMC3    C6 4054   0.796   4.627   0.400  0.5453 -0.2985  0.6522
  268TMC3     C 4055   0.406   0.010   0.336  0.0650  0.0102 -1.0312
  268TMC3     O 4056   0.389   0.073   0.229  0.0885 -0.9686 -0.3677
  268TMC3     H 4057   0.607   0.131   0.232 -0.0855  0.2792  0.1870
  268TMC3    H1 4058   0.489   4.570   0.529  2.2944  0.6806  3.0148
  268TMC3    H2 4059   0.899   4.591   0.400 -0.0288 -1.9568 -0.6263
  268TMC3    C7 4060   0.712   4.444   0.539  0.0985  0.6915 -0.6060
  268TMC3    C8 4061   0.873   0.078   0.254 -0.4974  0.0981 -0.1378
  268TMC3    O1 4062   0.625   4.401   0.612  0.0545  0.1705 -0.5095
  268TMC3    O2 4063   0.989   0.074   0.297  0.0303 -0.3979 -0.7139
  269MPD2     C 4064   0.400   3.591  15.437 -0.6160 -0.0582 -0.0022
  269MPD2    C1 4065   0.274   3.629  15.479  0.5423 -0.9117 -0.1878
  269MPD2    C2 4066   0.233   3.759  15.455  0.0972  0.8886  0.6406
  269MPD2    C3 4067   0.313   3.845  15.378 -0.0704  0.6318  0.2083
  269MPD2    C4 4068   0.438   3.808  15.334  0.3099  0.2019  0.9762
  269MPD2    C5 4069   0.473   3.680  15.361 -0.4152  0.5967 -0.5570
  269MPD2     H 4070   0.139   3.803  15.487 -1.1484 -0.3664 -1.2265
  269MPD2    H1 4071   0.494   3.868  15.264 -1.5476  2.4611  1.4428
  269MPD2    H2 4072   0.437   3.491  15.454  0.1401  0.3653  0.8255
  269MPD2    H3 4073   0.566   3.645  15.319 -0.0871 -1.4509  1.8573
  269MPD2     N 4074   0.244   3.964  15.353  0.1262  0.7028  0.2337
  269MPD2    H5 4075   0.147   3.974  15.381 -0.5480 -1.7426 -1.2612
  269MPD2    N1 4076   0.194   3.533  15.547  0.1556 -0.4614  0.3917
  269MPD2    H7 4077   0.238   3.452  15.589 -0.2686 -0.2678  1.2113
  270TMC3    C1 4078   0.004   3.420  15.614  0.9575 -0.6325 -0.4878
  270TMC3    C2 4079   4.596   3.396  15.584  1.0903 -0.0440 -0.0763
  270TMC3    C3 4080   4.540   3.281  15.630 -0.1132  1.1191  0.2453
  270TMC3    C4 4081   0.080   3.332  15.691  0.9670  0.0643 -0.1400
  270TMC3    C5 4082   0.019   3.220  15.734 -0.2226  0.0147  0.3835
  270TMC3    C6 4083   4.614   3.194  15.708  0.7993  0.5465  0.4517
  270TMC3     C 4084   0.060   3.540  15.550 -1.0579  0.0701  0.1939
  270TMC3     O 4085   4.711   3.611  15.483 -0.6307  0.4490 -0.4580
  270TMC3     H 4086   4.533   3.471  15.537  0.4983 -0.7070 -0.3447
  270TMC3    H1 4087   0.182   3.355  15.719  0.6058  1.6379 -0.1017
  270TMC3    H2 4088   4.571   3.095  15.721 -1.6602  1.6246  0.4823
  270TMC3    C7 4089   0.097   3.106  15.748  0.3987 -0.1119  0.8993
  270TMC3    C8 4090   4.480   3.196  15.521  0.0688  0.2844 -1.0742
  270TMC3    O1 4091   0.200   3.113  15.687 -0.2419  0.1370  0.0168
  270TMC3    O2 4092   4.496   3.225  15.406  0.0290  0.5329 -0.1317
  271MPD2     C 4093   4.040   3.168  14.164 -0.2542  0.0684  0.3738
  271MPD2    C1 4094   3.970   3.071  14.230 -0.0331  0.0901  0.0759
  271MPD2    C2 4095   3.831   3.054  14.220  0.2921 -0.1069  0.2699
  271MPD2    C3 4096   3.754   3.143  14.149 -0.4077 -0.0785 -0.0716
  271MPD2    C4 4097   3.828   3.230  14.073  0.0313  0.3596 -0.2475
  271MPD2    C5 4098   3.965   3.241  14.076  0.5762 -0.5100 -0.0443
  271MPD2     H 4099   3.796   2.975  14.285 -1.0399 -0.2996 -0.6847
  271MPD2    H1 4100   3.778   3.289  13.997  1.1284 -0.1335 -1.3595
  271MPD2    H2 4101   4.148   3.166  14.171 -0.4974 -1.4927  3.7551
  271MPD2    H3 4102   4.017   3.299  14.001  1.0549 -1.2470 -0.2892
  271MPD2     N 4103   3.611   3.147  14.144  0.3032 -0.0708  0.6382
  271MPD2    H5 4104   3.580   3.214  14.074  0.0262  1.3946  2.1711
  271MPD2    N1 4105   4.034   2.978  14.314 -0.1603 -0.2183  0.1691
  271MPD2    H7 4106   3.970   2.931  14.377 -0.6942 -0.8895 -0.8718
  272TMC3    C1 4107   4.204   2.827  14.401  0.2651  0.8674  0.4483
  272TMC3    C2 4108   4.328   2.771  14.382  0.2587 -0.0672 -0.1467
  272TMC3    C3 4109   4.383   2.701  14.487  0.5782 -0.0723 -0.6596
  272TMC3    C4 4110   4.127   2.813  14.514  0.3241 -0.0630  0.4378
  272TMC3    C5 4111   4.189   2.752  14.622  0.1354  0.4867  0.6944
  272TMC3    C6 4112   4.312   2.690  14.602 -0.2500 -0.2961  0.5877
  272TMC3     C 4113   4.161   2.933  14.304  0.0108 -0.7638  0.3369
  272TMC3     O 4114   4.249   2.969  14.226 -0.8528  0.4659 -0.2364
  272TMC3     H 4115   4.388   2.801  14.296 -1.1339  0.1251 -1.0533
  272TMC3    H1 4116   4.030   2.860  14.530  1.0876  1.8701 -0.7380
  272TMC3    H2 4117   4.364   2.643  14.685  1.1386 -1.6219 -1.0555
  272TMC3    C7 4118   4.151   2.818  14.747  0.2101  0.2318 -0.1340
  272TMC3    C8 4119   4.524   2.691  14.493  0.0251  0.4472  0.9784
  272TMC3    O1 4120   4.034   2.841  14.758  0.2987 -0.7608  0.3693
  272TMC3    O2 4121   4.577   2.773  14.423  0.4979  0.4321  0.1748
  273MPD2     C 4122   0.842   0.687  11.437 -0.7822  0.2039 -0.0008
  273MPD2    C1 4123   0.951   0.783  11.445 -0.0594  0.0316 -0.2320
  273MPD2    C2 4124   1.010   0.816  11.327 -0.3556 -0.0063 -0.5323
  273MPD2    C3 4125   0.951   0.771  11.211  0.6640  0.5288  0.0935
  273MPD2    C4 4126   0.847   0.686  11.204 -0.4395  0.3735  0.6186
  273MPD2    C5 4127   0.799   0.637  11.321 -0.6216 -0.4754  0.7135
  273MPD2     H 4128   1.086   0.893  11.331  0.9800 -1.3677  0.4378
  273MPD2    H1 4129   0.800   0.664  11.109 -1.8696  2.1481  0.9196
  273MPD2    H2 4130   0.788   0.666  11.529 -0.6375 -0.0006  0.0374
  273MPD2    H3 4131   0.713   0.571  11.317 -0.8496  0.0088 -1.7995
  273MPD2     N 4132   0.997   0.822  11.092 -0.1426 -0.2072 -0.1826
  273MPD2    H5 4133   0.952   0.781  11.011  0.9965  0.2187 -1.0461
  273MPD2    N1 4134   0.980   0.842  11.571  0.4823  0.4551  0.3190
  273MPD2    H7 4135   0.939   0.797  11.653 -0.2374 -2.3531 -1.5731
  274TMC3    C1 4136   1.115   0.962  10.939  0.0546 -0.7028 -0.3745
  274TMC3    C2 4137   1.001   0.989  10.873 -0.2653 -1.0685 -0.1580
  274TMC3    C3 4138   0.996   1.110  10.801  0.3544 -0.1627 -0.6302
  274TMC3    C4 4139   1.224   1.049  10.935  0.5100 -0.2408 -0.8733
  274TMC3    C5 4140   1.206   1.175  10.883 -0.1790  0.0878 -0.0127
  274TMC3    C6 4141   1.101   1.202  10.803 -0.2053  0.4916 -0.5298
  274TMC3     C 4142   1.100   0.910  11.074 -0.0167  0.1326 -0.3114
  274TMC3     O 4143   1.196   0.939  11.144  0.4313 -0.1267  0.2075
  274TMC3     H 4144   0.922   0.915  10.875 -0.3283 -0.9675  1.8620
  274TMC3    H1 4145   1.313   1.017  10.987 -0.0520 -0.0023  0.2506
  274TMC3    H2 4146   1.080   1.306  10.780 -0.8673  1.2925  3.7256
  274TMC3    C7 4147   1.230   1.288  10.972  0.1703 -0.3551 -0.2624
  274TMC3    C8 4148   0.869   1.136  10.732 -0.5350  0.0044 -1.1077
  274TMC3    O1 4149   1.194   1.404  10.938  0.0678  0.0830  0.4086
  274TMC3    O2 4150   0.775   1.063  10.767  0.1047 -0.3789  0.4668
  275MPD2     C 4151   0.616   4.357  14.516 -0.5942 -0.8384 -0.0340
  275MPD2    C1 4152   0.607   4.279  14.629 -0.6272  0.0411  0.8294
  275MPD2    C2 4153   0.535   4.161  14.616  0.0573  0.4422 -0.2132
  275MPD2    C3 4154   0.464   4.128  14.500  0.5322  0.0484  0.0634
  275MPD2    C4 4155   0.469   4.219  14.399 -0.1743  0.2031 -0.7546
  275MPD2    C5 4156   0.555   4.323  14.404 -0.0644  0.7262 -0.5740
  275MPD2     H 4157   0.534   4.102  14.707 -0.2078  1.3828  0.3955
  275MPD2    H1 4158   0.429   4.194  14.301  1.6603  0.2196 -1.5072
  275MPD2    H2 4159   0.684   4.441  14.519 -0.3680 -1.0058 -0.4715
  275MPD2    H3 4160   0.574   4.384  14.316 -0.6077 -1.6561 -2.3424
  275MPD2     N 4161   0.371   4.021  14.483 -0.2817  0.4443 -0.1028
  275MPD2    H5 4162   0.320   4.025  14.396  2.1842 -1.5963 -1.6235
  275MPD2    N1 4163   0.670   4.312  14.751 -0.0983 -0.1281  0.1542
  275MPD2    H7 4164   0.665   4.237  14.819  0.0792 -0.1987  0.0908
  276TMC3    C1 4165   0.789   4.450  14.912 -0.4632  0.9693  0.0008
  276TMC3    C2 4166   0.710   4.392  15.008  0.1199 -0.3530 -0.1484
  276TMC3    C3 4167   0.724   4.435  15.134 -0.7731  0.0609  0.6531
  276TMC3    C4 4168   0.886   4.537  14.939 -0.4431 -0.2876 -0.2824
  276TMC3    C5 4169   0.899   4.577  15.073  0.9575  0.0540  0.3861
  276TMC3    C6 4170   0.813   4.528  15.166  0.0257  0.2391 -0.5718
  276TMC3     C 4171   0.753   4.429  14.777 -0.4074  0.1671  0.0560
  276TMC3     O 4172   0.776   4.527  14.706 -0.1130 -0.1652  0.2636
  276TMC3     H 4173   0.648   4.305  14.988 -0.0134  0.1049 -1.7591
  276TMC3    H1 4174   0.953   4.560  14.857  0.5295  1.0515  0.8875
  276TMC3    H2 4175   0.826   4.558  15.269 -2.3393  1.4023 -0.6047
  276TMC3    C7 4176   1.039   4.602  15.120  0.3417 -0.2633  0.7751
  276TMC3    C8 4177   0.679   4.341  15.235 -0.5764 -0.7862 -0.2627
  276TMC3    O1 4178   1.064   4.564  15.232 -0.2393  0.1680 -0.7426
  276TMC3    O2 4179   0.641   4.386  15.343  0.0285 -0.2033 -0.2624
  277MPD2     C 4180   2.605   3.369  13.151 -0.8110 -0.4902 -0.3338
  277MPD2    C1 4181   2.548   3.412  13.265  0.1662  0.0819 -0.2427
  277MPD2    C2 4182   2.483   3.321  13.347  0.3012  0.4733 -0.3548
  277MPD2    C3 4183   2.482   3.189  13.325  0.0383 -0.6884  0.2455
  277MPD2    C4 4184   2.558   3.144  13.215 -0.6132  0.3718 -0.6250
  277MPD2    C5 4185   2.612   3.237  13.125 -0.3875 -0.1101  0.0904
  277MPD2     H 4186   2.430   3.343  13.439 -1.6286 -0.2734 -1.2877
  277MPD2    H1 4187   2.567   3.040  13.188  0.1080  0.8466 -2.2393
  277MPD2    H2 4188   2.647   3.438  13.079  0.7203  0.1186  1.1251
  277MPD2    H3 4189   2.661   3.194  13.038  1.5663  1.8352  0.2169
  277MPD2     N 4190   2.414   3.107  13.410 -0.0314  0.2775 -0.0037
  277MPD2    H5 4191   2.355   3.154  13.478 -0.8239 -1.0608  0.2244
  277MPD2    N1 4192   2.551   3.555  13.293 -0.2388  0.7101  0.5971
  277MPD2    H7 4193   2.600   3.615  13.227  0.0911  0.4159  0.5743
  278TMC3    C1 4194   2.305   2.906  13.472 -0.2195  0.6235  0.0202
  278TMC3    C2 4195   2.309   2.775  13.517  0.1395 -1.1413 -1.1889
  278TMC3    C3 4196   2.190   2.711  13.548  0.1926 -0.7999 -0.5222
  278TMC3    C4 4197   2.192   2.980  13.472  0.6679  0.5989  0.1595
  278TMC3    C5 4198   2.073   2.918  13.517 -0.5328 -0.5030 -0.5558
  278TMC3    C6 4199   2.075   2.792  13.555 -0.5302  0.2335 -0.1722
  278TMC3     C 4200   2.424   2.970  13.409  0.2684  0.2931  0.6441
  278TMC3     O 4201   2.523   2.905  13.368 -0.7581 -0.5970 -0.2549
  278TMC3     H 4202   2.400   2.716  13.517  0.1920 -1.0724 -0.2065
  278TMC3    H1 4203   2.186   3.073  13.416  0.8459  0.6249  0.1815
  278TMC3    H2 4204   1.980   2.744  13.575 -0.0942 -0.4900  0.1679
  278TMC3    C7 4205   1.945   2.971  13.473  0.9529  0.2086  0.2535
  278TMC3    C8 4206   2.182   2.568  13.538  0.6202 -0.0622  0.1498
  278TMC3    O1 4207   1.938   2.999  13.351  0.3733 -0.1286 -0.1104
  278TMC3    O2 4208   2.289   2.508  13.556  0.0017 -0.2780 -0.4150
  279MPD2     C 4209   1.329   3.589   0.298 -0.2394 -0.4023  0.5938
  279MPD2    C1 4210   1.289   3.458   0.288  0.3623  0.1198  0.5129
  279MPD2    C2 4211   1.358   3.371   0.205 -0.0374  0.7590 -0.7836
  279MPD2    C3 4212   1.484   3.405   0.157  0.2231  0.5610 -0.4634
  279MPD2    C4 4213   1.525   3.539   0.175 -0.0181  0.2745 -0.1039
  279MPD2    C5 4214   1.446   3.629   0.238  0.2790  0.2438 -0.0264
  279MPD2     H 4215   1.324   3.270   0.188 -0.9728  0.6348  1.8161
  279MPD2    H1 4216   1.619   3.576   0.137 -0.6438  0.8226 -1.1150
  279MPD2    H2 4217   1.269   3.670   0.337  0.6303  0.1688  0.7510
  279MPD2    H3 4218   1.486   3.729   0.246  1.5376 -0.2979  0.3239
  279MPD2     N 4219   1.559   3.329   0.076  0.1010  0.3769 -0.3020
  279MPD2    H5 4220   1.628   3.379   0.021  1.6916 -0.8477  0.6097
  279MPD2    N1 4221   1.164   3.420   0.357  0.5369  0.1732 -0.3122
  279MPD2    H7 4222   1.109   3.498   0.393  0.3486 -0.4981  0.8443
  280TMC3    C1 4223   1.002   3.266   0.442  0.4787  0.3050 -0.0173
  280TMC3    C2 4224   0.989   3.152   0.515  0.2313  0.1007 -0.0335
  280TMC3    C3 4225   0.878   3.137   0.593  0.0833  0.0149  0.0396
  280TMC3    C4 4226   0.909   3.359   0.441  0.3133 -0.6659  0.6730
  280TMC3    C5 4227   0.805   3.353   0.527  1.0685  1.4502 -0.2632
  280TMC3    C6 4228   0.791   3.245   0.605 -0.0884 -1.1291 -0.3431
  280TMC3     C 4229   1.133   3.287   0.379  0.1785 -0.4103 -0.1208
  280TMC3     O 4230   1.199   3.185   0.372  0.1410 -0.4984  0.2628
  280TMC3     H 4231   1.044   3.060   0.495 -0.9138 -0.6423  0.2187
  280TMC3    H1 4232   0.920   3.439   0.369  0.4508 -0.3956  0.9971
  280TMC3    H2 4233   0.719   3.252   0.686  1.4343  0.2137  0.9077
  280TMC3    C7 4234   0.718   3.466   0.540  0.9087  0.9739 -0.2207
  280TMC3    C8 4235   0.900   3.065   0.717 -0.9785 -0.4485  0.5014
  280TMC3    O1 4236   0.601   3.448   0.576 -0.1731  0.0491  0.0906
  280TMC3    O2 4237   0.811   2.993   0.764  0.3052  0.0826 -0.1731
  281TMC3    C1 4238   0.574   3.369  13.110  0.5260 -0.4476 -0.9701
  281TMC3    C2 4239   0.513   3.450  13.014  0.8844 -0.4248  0.0048
  281TMC3    C3 4240   0.403   3.400  12.953  0.2752 -0.3326  0.4694
  281TMC3    C4 4241   0.525   3.242  13.148 -0.5321 -0.0185 -0.0345
  281TMC3    C5 4242   0.415   3.201  13.080 -0.1987 -0.0737 -0.1961
  281TMC3    C6 4243   0.352   3.278  12.988 -0.6413  0.7218  0.3090
  281TMC3     C 4244   0.672   3.431  13.199  0.8807 -0.2155 -0.5841
  281TMC3     O 4245   0.725   3.350  13.276  0.6542 -0.2584  0.4909
  281TMC3     H 4246   0.550   3.548  12.989  1.2010 -0.6492 -0.4116
  281TMC3    H1 4247   0.571   3.187  13.229  0.1782 -0.1819 -0.5566
  281TMC3    H2 4248   0.261   3.233  12.949 -0.9725  1.7955 -0.1554
  281TMC3    C7 4249   0.371   3.064  13.098 -0.2146  0.8113  0.2539
  281TMC3    C8 4250   0.318   3.499  12.887  0.1222  0.5012 -0.5514
  281TMC3    O1 4251   0.313   3.004  13.007 -0.0228 -0.4859 -0.0957
  281TMC3    O2 4252   0.374   3.601  12.840  0.0098  0.0927 -0.3260
  282MPD2     C 4253   2.504   4.540  15.129 -1.0469  0.7830  0.5239
  282MPD2    C1 4254   2.434   4.639  15.183  0.7941  0.7381  0.1789
  282MPD2    C2 4255   2.376   0.005  15.088 -0.2319  0.0578  1.1187
  282MPD2    C3 4256   2.395   4.724  14.956  0.5580 -0.3849 -1.0316
  282MPD2    C4 4257   2.472   4.618  14.906 -0.3790  0.8220 -0.1038
  282MPD2    C5 4258   2.527   4.530  14.996 -0.4093 -0.1059 -0.0799
  282MPD2     H 4259   2.303   0.066  15.141 -0.6011 -0.8915  1.7100
  282MPD2    H1 4260   2.496   4.603  14.801 -0.9904  0.1309 -0.1404
  282MPD2    H2 4261   2.553   4.473  15.198 -1.4789 -0.6895 -0.5958
  282MPD2    H3 4262   2.589   4.448  14.963  1.0129  0.8772  0.1786
  282MPD2     N 4263   2.329   0.098  14.879  0.4142  0.2913  0.3638
  282MPD2    H5 4264   2.277   0.172  14.927  3.1463  2.2819  0.2826
  282MPD2    N1 4265   2.419   4.662  15.323  0.1896 -0.2356  0.2438
  282MPD2    H7 4266   2.368   0.023  15.339  0.1509 -0.3046  0.4806
  283TMC3    C1 4267   2.406   4.641  15.551  0.0278 -0.3309  0.4094
  283TMC3    C2 4268   2.453   0.036  15.595 -0.6424 -0.2645 -0.6671
  283TMC3    C3 4269   2.376   0.096  15.698 -0.8898 -0.8079  0.4164
  283TMC3    C4 4270   2.284   4.594  15.583  0.0849  0.2179  1.2239
  283TMC3    C5 4271   2.206   4.662  15.674 -0.5166 -0.2846  0.3090
  283TMC3    C6 4272   2.257   0.051  15.736  0.9279  0.1236  0.6376
  283TMC3     C 4273   2.462   4.586  15.427 -0.5902  0.6703  0.0655
  283TMC3     O 4274   2.558   4.514  15.426  0.0209  0.4343  0.9743
  283TMC3     H 4275   2.543   0.073  15.547 -0.5104 -1.2602 -1.1887
  283TMC3    H1 4276   2.258   4.494  15.552 -0.5361 -0.1545  2.9505
  283TMC3    H2 4277   2.204   0.106  15.813  0.4197  0.1904  0.2377
  283TMC3    C7 4278   2.084   4.610  15.730  0.1238 -0.6781 -0.1934
  283TMC3    C8 4279   2.430   0.217  15.758  0.4709  0.7159  0.1038
  283TMC3    O1 4280   2.024   4.685  15.803 -0.6188  0.3803 -0.1830
  283TMC3    O2 4281   2.410   0.226  15.879 -0.2161 -0.2692 -0.0309
  284MPD2     C 4282   0.997   3.946  11.975 -0.5226 -0.5581 -0.8850
  284MPD2    C1 4283   1.056   3.888  11.859 -0.3667 -0.6941 -0.5729
  284MPD2    C2 4284   1.078   3.751  11.869 -0.0421 -0.0571  0.0553
  284MPD2    C3 4285   1.059   3.682  11.985  0.4001  0.4451  0.2724
  284MPD2    C4 4286   1.001   3.746  12.091  0.3343  0.6538  0.3046
  284MPD2    C5 4287   0.961   3.874  12.082  0.2285  0.0088  0.6915
  284MPD2     H 4288   1.118   3.701  11.781  1.0086 -0.3077  0.6813
  284MPD2    H1 4289   0.986   3.691  12.184  1.7799 -3.7818 -2.1183
  284MPD2    H2 4290   0.967   4.050  11.959  3.3666  0.6744 -0.1208
  284MPD2    H3 4291   0.914   3.930  12.162  0.4418  1.9717 -0.5581
  284MPD2     N 4292   1.118   3.554  12.008  0.0809  0.2299  0.1225
  284MPD2    H5 4293   1.107   3.512  12.100 -1.2910  1.8010  0.6910
  284MPD2    N1 4294   1.087   3.969  11.749 -0.4646 -0.4760  0.5201
  284MPD2    H7 4295   1.065   4.068  11.754  0.4112 -0.2393 -0.4496
  285TMC3    C1 4296   1.140   4.036  11.527 -0.7989  0.0097 -0.1410
  285TMC3    C2 4297   1.132   4.001  11.396  0.1199  0.1987  0.0302
  285TMC3    C3 4298   1.200   4.080  11.305  0.1760  0.0304  0.6545
  285TMC3    C4 4299   1.207   4.145  11.572 -0.0320 -0.1857 -0.1450
  285TMC3    C5 4300   1.270   4.222  11.478 -0.5402  0.1030 -0.2228
  285TMC3    C6 4301   1.272   4.190  11.346 -0.3834 -0.1913  0.4017
  285TMC3     C 4302   1.132   3.927  11.623 -0.4049 -0.0717  0.1959
  285TMC3     O 4303   1.120   3.814  11.574  0.1162  0.0646 -0.1422
  285TMC3     H 4304   1.088   3.906  11.367  0.4144  0.9753 -3.0187
  285TMC3    H1 4305   1.223   4.165  11.678 -1.1298 -3.1089  0.5654
  285TMC3    H2 4306   1.331   4.252  11.279  1.3087 -2.3969 -0.1387
  285TMC3    C7 4307   1.308   4.357  11.520  0.5654  0.5813  0.4109
  285TMC3    C8 4308   1.217   4.010  11.175 -0.0400 -0.1819  0.1940
  285TMC3    O1 4309   1.276   4.449  11.448 -0.2692  0.0831 -0.1026
  285TMC3    O2 4310   1.147   3.907  11.150 -0.1767  0.4914 -0.3306
  286MPD2     C 4311   1.055   2.628   2.289 -0.1790  0.6768 -0.3675
  286MPD2    C1 4312   0.988   2.571   2.185  0.7748 -0.1118 -0.9862
  286MPD2    C2 4313   1.061   2.488   2.093  0.0901 -0.1214 -0.3653
  286MPD2    C3 4314   1.192   2.461   2.119 -0.6421 -0.7627 -0.0629
  286MPD2    C4 4315   1.253   2.520   2.230 -0.7643  0.1358  0.0309
  286MPD2    C5 4316   1.188   2.608   2.306  0.3170  0.5183  0.0317
  286MPD2     H 4317   1.004   2.452   2.009 -1.0867  0.2955  0.2560
  286MPD2    H1 4318   1.360   2.522   2.240 -0.5049  0.8658 -2.9555
  286MPD2    H2 4319   1.015   2.717   2.336 -1.9926 -1.7701  2.7696
  286MPD2    H3 4320   1.247   2.663   2.379  0.1175  1.4735 -0.5294
  286MPD2     N 4321   1.275   2.392   2.031  0.2113  0.0709  0.3369
  286MPD2    H5 4322   1.373   2.382   2.055  0.0484 -1.1515  0.5408
  286MPD2    N1 4323   0.849   2.591   2.161 -0.2977  1.0897  0.4732
  286MPD2    H7 4324   0.809   2.547   2.078  0.6023  0.1589  0.5338
  287TMC3    C1 4325   1.342   2.240   1.875 -0.2484 -0.6827  0.2274
  287TMC3    C2 4326   1.327   2.170   1.757  0.3030 -0.1462 -0.2855
  287TMC3    C3 4327   1.418   2.084   1.708 -1.0603  0.0142  0.6392
  287TMC3    C4 4328   1.449   2.199   1.955  0.7520  0.4221 -0.1203
  287TMC3    C5 4329   1.530   2.100   1.911  0.0511  0.9671  0.8704
  287TMC3    C6 4330   1.526   2.049   1.785  0.4973  0.4758 -0.1471
  287TMC3     C 4331   1.233   2.318   1.919  0.6090  0.2454  0.3821
  287TMC3     O 4332   1.117   2.309   1.874 -0.2202  0.3699  0.4942
  287TMC3     H 4333   1.235   2.190   1.703 -2.4128 -0.5001  4.2150
  287TMC3    H1 4334   1.464   2.236   2.056  0.0780  0.1595  0.0775
  287TMC3    H2 4335   1.587   1.964   1.758 -2.2948  0.0232 -4.8936
  287TMC3    C7 4336   1.646   2.090   1.996 -0.1154 -0.0924 -0.1602
  287TMC3    C8 4337   1.395   2.014   1.582  0.3625  0.3845  0.2517
  287TMC3    O1 4338   1.672   2.192   2.059  0.1975 -0.1386  0.2441
  287TMC3    O2 4339   1.443   1.902   1.575  0.5008  0.1946  0.3864
  288TMC3    C1 4340   2.731   2.546  14.343 -0.0005 -0.6744 -0.3310
  288TMC3    C2 4341   2.655   2.548  14.454 -0.1009 -0.2434 -1.1606
  288TMC3    C3 4342   2.562   2.641  14.480 -0.3588 -0.0863  0.3566
  288TMC3    C4 4343   2.705   2.627  14.241  0.1364  0.0750  0.4786
  288TMC3    C5 4344   2.607   2.718  14.253 -0.4444  0.2897  0.5136
  288TMC3    C6 4345   2.532   2.727  14.370  0.1357  0.7334 -0.8230
  288TMC3     C 4346   2.861   2.488  14.361  0.7027 -0.9212 -0.2223
  288TMC3     O 4347   2.906   2.504  14.472  0.4777  0.0733  0.4748
  288TMC3     H 4348   2.678   2.480  14.536 -1.2171  1.0190  0.2098
  288TMC3    H1 4349   2.751   2.621  14.143 -0.6231 -1.9033  0.2455
  288TMC3    H2 4350   2.447   2.793  14.372  0.2308  0.8276  0.2166
  288TMC3    C7 4351   2.527   2.751  14.138  0.0569  0.2156  0.6313
  288TMC3    C8 4352   2.462   2.626  14.582  0.7983  0.0010 -0.1091
  288TMC3    O1 4353   2.518   2.672  14.043 -0.0516 -0.4671  0.5697
  288TMC3    O2 4354   2.386   2.720  14.598 -0.1560  0.0962  0.0418
  289MPD2     C 4355   2.620   1.853  14.393 -0.0032  0.1598  0.8313
  289MPD2    C1 4356   2.636   1.972  14.325  0.0968 -0.6582 -0.4766
  289MPD2    C2 4357   2.533   2.016  14.236  0.1783 -0.5556  0.4492
  289MPD2    C3 4358   2.416   1.945  14.238 -0.3601  0.0093 -0.2829
  289MPD2    C4 4359   2.404   1.828  14.305  0.2599  0.5103  0.4195
  289MPD2    C5 4360   2.503   1.781  14.385  0.3334  0.1595  0.1162
  289MPD2     H 4361   2.548   2.102  14.172  0.2160 -1.4369 -0.7193
  289MPD2    H1 4362   2.309   1.776  14.309  1.8186 -2.4318 -0.3949
  289MPD2    H2 4363   2.705   1.815  14.448  1.0024  0.4736 -0.5170
  289MPD2    H3 4364   2.483   1.688  14.437 -0.6509 -0.1746 -0.8557
  289MPD2     N 4365   2.307   1.988  14.154 -0.5324  0.5148  0.2085
  289MPD2    H5 4366   2.231   1.921  14.148 -0.5510  0.5905 -0.4390
  289MPD2    N1 4367   2.768   2.015  14.325  0.1234  0.6928  0.1517
  289MPD2    H7 4368   2.834   1.963  14.382  1.9302  3.2002  0.3454
  290TMC3    C1 4369   2.169   2.103  13.998 -0.4145 -0.1819  0.0819
  290TMC3    C2 4370   2.153   2.214  13.919  0.2756  0.6217  0.6071
  290TMC3    C3 4371   2.064   2.205  13.812 -0.1616  0.2341 -0.3855
  290TMC3    C4 4372   2.098   1.990  13.965 -0.4651 -0.0478  0.2771
  290TMC3    C5 4373   2.021   1.986  13.855  0.1763  0.8971  0.2248
  290TMC3    C6 4374   2.018   2.086  13.766  0.7562  0.2515  0.8187
  290TMC3     C 4375   2.298   2.099  14.073 -0.2783 -0.3263 -0.2272
  290TMC3     O 4376   2.379   2.195  14.074  0.0253  0.0390  0.1022
  290TMC3     H 4377   2.210   2.305  13.932  4.0772 -1.5521 -0.6237
  290TMC3    H1 4378   2.105   1.900  14.026  0.7053  0.5224  0.9861
  290TMC3    H2 4379   1.978   2.069  13.667  0.4692  0.5053  0.8926
  290TMC3    C7 4380   1.946   1.864  13.817  0.4939  0.0983 -0.3006
  290TMC3    C8 4381   1.984   2.327  13.785 -0.3649 -0.2473  0.4117
  290TMC3    O1 4382   1.853   1.883  13.737 -0.0876  0.2599 -0.0742
  290TMC3    O2 4383   1.896   2.312  13.704 -0.1441  0.1366  0.3571
  291MPD2     C 4384   1.722   1.853   0.373 -0.4302 -0.6297  0.2940
  291MPD2    C1 4385   1.842   1.789   0.396  0.4287  0.4258  0.2904
  291MPD2    C2 4386   1.957   1.863   0.384  0.5067  0.3130 -0.9403
  291MPD2    C3 4387   1.951   1.993   0.342 -0.7236 -0.3845  0.3046
  291MPD2    C4 4388   1.833   2.053   0.321  0.5727 -0.3140 -0.0855
  291MPD2    C5 4389   1.717   1.990   0.335  1.2030 -0.3837  0.4899
  291MPD2     H 4390   2.050   1.814   0.411  0.8580  0.9391 -1.0249
  291MPD2    H1 4391   1.826   2.158   0.292  0.9215 -0.4294 -0.5775
  291MPD2    H2 4392   1.624   1.812   0.392 -0.2103 -1.6160 -0.7248
  291MPD2    H3 4393   1.626   2.045   0.314  1.9152 -0.0925 -1.8681
  291MPD2     N 4394   2.065   2.073   0.307  0.6545  0.0458  0.2945
  291MPD2    H5 4395   2.053   2.169   0.278  0.6124  0.4023  1.4787
  291MPD2    N1 4396   1.850   1.653   0.433  0.4626 -0.5723  0.5705
  291MPD2    H7 4397   1.943   1.613   0.438  0.5166 -0.7254 -1.7447
  292TMC3    C1 4398   1.798   1.439   0.489  0.4536 -0.7927  0.1918
  292TMC3    C2 4399   1.903   1.440   0.577 -0.2027 -0.1814 -0.5819
  292TMC3    C3 4400   1.968   1.321   0.595 -0.1233  0.4783  0.0061
  292TMC3    C4 4401   1.753   1.333   0.410  0.6681  0.5723 -0.3291
  292TMC3    C5 4402   1.821   1.222   0.434 -0.0536 -1.0537  0.1561
  292TMC3    C6 4403   1.929   1.211   0.523  0.5770  0.6658 -0.3295
  292TMC3     C 4404   1.750   1.564   0.436  0.0743  0.1090 -0.2186
  292TMC3     O 4405   1.632   1.574   0.403  0.1721 -0.1305  0.2806
  292TMC3     H 4406   1.936   1.529   0.630  0.8607 -1.0263  0.1750
  292TMC3    H1 4407   1.676   1.346   0.334  0.1908  1.2124  0.2579
  292TMC3    H2 4408   1.984   1.118   0.526  0.4932  0.5637 -1.8431
  292TMC3    C7 4409   1.774   1.102   0.364  0.0750  0.1291  0.8640
  292TMC3    C8 4410   2.005   1.285   0.729  0.4008 -0.0125  0.7042
  292TMC3    O1 4411   1.837   0.996   0.383 -0.4884 -0.1041 -0.2600
  292TMC3    O2 4412   2.065   1.362   0.803  0.9475 -0.5620 -0.6805
  293MPD2     C 4413   3.367   3.397  12.584  0.3135  0.1845  0.6938
  293MPD2    C1 4414   3.426   3.296  12.655 -0.6925  0.6245 -0.0338
  293MPD2    C2 4415   3.401   3.275  12.791  0.8517  0.3550  0.3752
  293MPD2    C3 4416   3.301   3.346  12.850  0.0023 -0.6134  0.4730
  293MPD2    C4 4417   3.233   3.441  12.770 -0.0065  0.2875  0.2231
  293MPD2    C5 4418   3.269   3.474  12.637  0.0020  0.3687  0.7350
  293MPD2     H 4419   3.461   3.207  12.850 -0.7018 -2.4030 -1.2222
  293MPD2    H1 4420   3.161   3.513  12.807 -2.1498 -1.1130 -1.2323
  293MPD2    H2 4421   3.390   3.404  12.479 -3.4787  1.0398 -0.0936
  293MPD2    H3 4422   3.221   3.552  12.580 -0.6550  0.1959  1.0531
  293MPD2     N 4423   3.281   3.329  12.989  0.2707 -0.4841  0.0168
  293MPD2    H5 4424   3.350   3.277  13.042 -1.0797 -1.1890  1.0679
  293MPD2    N1 4425   3.508   3.203  12.580 -0.3663  0.0033  0.3022
  293MPD2    H7 4426   3.502   3.214  12.480  0.4185 -1.5802  0.0794
  294TMC3    C1 4427   3.612   3.005  12.517  0.2691 -0.2065  0.2460
  294TMC3    C2 4428   3.590   2.872  12.528 -0.6102  1.3826  0.5151
  294TMC3    C3 4429   3.571   2.801  12.414  0.1964  0.3662 -0.2859
  294TMC3    C4 4430   3.651   3.070  12.406 -0.1306  0.0739  1.0155
  294TMC3    C5 4431   3.662   2.987  12.300  0.2152 -0.4361  0.0482
  294TMC3    C6 4432   3.618   2.855  12.298  0.0997 -0.1852 -0.2557
  294TMC3     C 4433   3.557   3.084  12.622  0.6824  0.3601 -0.5714
  294TMC3     O 4434   3.555   3.027  12.732 -0.5483 -0.1091 -0.3666
  294TMC3     H 4435   3.551   2.838  12.623  0.6184 -1.9435 -0.1879
  294TMC3    H1 4436   3.680   3.174  12.400  1.9439 -0.4706  1.5148
  294TMC3    H2 4437   3.633   2.787  12.214  1.3238 -0.6520  0.3480
  294TMC3    C7 4438   3.749   3.034  12.190 -0.1809  0.6428 -0.6535
  294TMC3    C8 4439   3.571   2.657  12.422  0.6824  0.4704 -0.1916
  294TMC3    O1 4440   3.773   3.155  12.186 -0.2905  0.1894 -0.3229
  294TMC3    O2 4441   3.630   2.602  12.515  0.3748 -0.5454 -0.3373
  295MPD2     C 4442   3.267   1.786   0.303  0.2008 -0.6163 -0.0845
  295MPD2    C1 4443   3.382   1.715   0.329  0.0686 -0.3884 -0.0542
  295MPD2    C2 4444   3.414   1.679   0.457 -0.0258 -0.0413  0.1146
  295MPD2    C3 4445   3.331   1.721   0.562  0.1348  0.1416 -0.5531
  295MPD2    C4 4446   3.222   1.793   0.534  0.3784 -0.0005 -0.2446
  295MPD2    C5 4447   3.188   1.828   0.406  0.0787  0.3504  0.1040
  295MPD2     H 4448   3.503   1.624   0.484  0.7364  1.0456 -0.1943
  295MPD2    H1 4449   3.165   1.831   0.619  0.0894 -1.2452  0.1359
  295MPD2    H2 4450   3.252   1.822   0.202  2.3824  1.4297  0.3364
  295MPD2    H3 4451   3.098   1.884   0.381  1.7226  3.4529  1.1552
  295MPD2     N 4452   3.359   1.690   0.698  0.1208  0.3204 -0.2996
  295MPD2    H5 4453   3.302   1.734   0.770  0.5163 -2.3019  1.5895
  295MPD2    N1 4454   3.477   1.673   0.232 -0.0507  0.1372  0.2211
  295MPD2    H7 4455   3.558   1.620   0.262  0.1531  0.0224 -0.5409
  296TMC3    C1 4456   3.452   1.591   0.893 -0.2487  0.4981 -0.0211
  296TMC3    C2 4457   3.425   1.704   0.959  0.0337 -0.3080 -0.5662
  296TMC3    C3 4458   3.432   1.701   1.101  0.1712 -0.1816 -0.2595
  296TMC3    C4 4459   3.465   1.470   0.952 -0.5936  0.3967  0.1942
  296TMC3    C5 4460   3.470   1.468   1.091 -0.6276 -0.0727  0.4568
  296TMC3    C6 4461   3.456   1.581   1.164  0.2122 -0.3112  0.3707
  296TMC3     C 4462   3.445   1.593   0.746 -0.6584 -0.7682 -0.5976
  296TMC3     O 4463   3.491   1.495   0.690 -0.5302 -0.3101  0.5135
  296TMC3     H 4464   3.420   1.797   0.904  0.1995 -0.7303 -1.2993
  296TMC3    H1 4465   3.480   1.378   0.895  1.5871  1.5945 -1.1529
  296TMC3    H2 4466   3.469   1.567   1.271  0.6813 -1.4487  0.1726
  296TMC3    C7 4467   3.447   1.336   1.141 -0.7060  0.4477 -0.3946
  296TMC3    C8 4468   3.468   1.829   1.157  0.1729 -0.1256  0.5661
  296TMC3    O1 4469   3.455   1.243   1.067  0.2381 -0.4488 -0.6014
  296TMC3    O2 4470   3.497   1.917   1.078  0.1803  0.4167  0.2776
  297MPD2     C 4471   1.153   3.700  16.748  0.0400 -0.1229 -0.6348
  297MPD2    C1 4472   1.142   3.742  16.612 -0.2987  0.1214  0.8962
  297MPD2    C2 4473   1.251   3.805  16.546 -0.2845  0.0648  0.2201
  297MPD2    C3 4474   1.368   3.833  16.610 -0.6488 -0.0444 -0.2564
  297MPD2    C4 4475   1.373   3.797  16.741  0.6038 -0.9809 -0.3479
  297MPD2    C5 4476   1.271   3.734  16.807 -0.4176 -0.4878  0.2683
  297MPD2     H 4477   1.247   3.834  16.442 -1.6104 -2.6109 -0.4774
  297MPD2    H1 4478   1.463   3.799  16.801 -1.1134  1.5312  2.1310
  297MPD2    H2 4479   1.080   3.632  16.792 -0.5486 -0.6674 -2.4004
  297MPD2    H3 4480   1.288   3.698  16.908  0.2198 -0.6662  0.0939
  297MPD2     N 4481   1.466   3.913  16.547  0.0378  0.0024 -0.0461
  297MPD2    H5 4482   1.452   3.942  16.450 -1.6511  0.7368  0.4257
  297MPD2    N1 4483   1.033   3.704  16.534  0.0748  0.5435 -0.3890
  297MPD2    H7 4484   1.045   3.705  16.433  0.6993 -0.2041 -0.3171
  298TMC3    C1 4485   0.808   3.630  16.495 -0.1496  0.0405  0.4461
  298TMC3    C2 4486   0.842   3.591  16.372 -0.3007 -0.2426  0.4272
  298TMC3    C3 4487   0.741   3.600  16.275 -0.8491  0.1766 -0.5111
  298TMC3    C4 4488   0.685   3.680  16.525  0.0038 -0.7667 -0.4926
  298TMC3    C5 4489   0.587   3.686  16.429  0.4190  0.6122 -0.2394
  298TMC3    C6 4490   0.615   3.651  16.300 -0.3080  0.6842 -0.1359
  298TMC3     C 4491   0.912   3.671  16.587 -0.0117  0.3101  0.1516
  298TMC3     O 4492   0.880   3.706  16.702  0.1271 -0.2204 -0.4029
  298TMC3     H 4493   0.941   3.554  16.349  0.0299  2.2208 -2.1968
  298TMC3    H1 4494   0.658   3.702  16.628  3.0074  2.5763 -0.4437
  298TMC3    H2 4495   0.543   3.648  16.219 -1.5966  1.5073  0.9865
  298TMC3    C7 4496   0.471   3.764  16.469 -0.2886  0.9958 -0.4673
  298TMC3    C8 4497   0.768   3.549  16.141 -0.0621  0.4061  0.4284
  298TMC3    O1 4498   0.436   3.755  16.590  0.1124  0.6615 -0.0154
  298TMC3    O2 4499   0.876   3.486  16.125  0.0944  0.3804  0.0494
  299MPD2     C 4500   2.594   3.678  10.816  0.1554  0.1371 -0.1910
  299MPD2    C1 4501   2.566   3.564  10.892  0.6095 -0.4837  0.5072
  299MPD2    C2 4502   2.499   3.457  10.827 -0.2487  0.1593  0.3088
  299MPD2    C3 4503   2.479   3.467  10.689 -0.5286  0.1545  0.4273
  299MPD2    C4 4504   2.527   3.577  10.612  0.0700 -0.1719  0.1951
  299MPD2    C5 4505   2.597   3.676  10.678 -0.1412  0.5114 -0.4519
  299MPD2     H 4506   2.464   3.367  10.878 -3.5612  0.2194 -1.8473
  299MPD2    H1 4507   2.509   3.585  10.506  2.5533  0.5220 -0.1692
  299MPD2    H2 4508   2.636   3.765  10.864  0.8546  1.5128 -3.2514
  299MPD2    H3 4509   2.648   3.747  10.615 -1.4099  1.5773 -0.2774
  299MPD2     N 4510   2.425   3.361  10.618  0.1369 -0.0493  0.2145
  299MPD2    H5 4511   2.430   3.371  10.518  1.3711  0.6237  0.3454
  299MPD2    N1 4512   2.587   3.575  11.029 -0.1222 -0.1037  0.8240
  299MPD2    H7 4513   2.613   3.671  11.050 -1.9227  1.1783 -2.7497
  300TMC3    C1 4514   2.378   3.144  10.560  0.0468  0.2627 -0.3831
  300TMC3    C2 4515   2.424   3.192  10.436 -0.4409  0.2724 -0.3483
  300TMC3    C3 4516   2.340   3.172  10.329 -0.5058 -0.5852 -0.4438
  300TMC3    C4 4517   2.263   3.075  10.564  0.1268  0.2175  0.4173
  300TMC3    C5 4518   2.180   3.053  10.459 -0.5243  0.6032  0.4816
  300TMC3    C6 4519   2.217   3.112  10.340  0.1251 -0.4756 -0.8985
  300TMC3     C 4520   2.397   3.232  10.666 -0.0943 -0.8271 -0.1016
  300TMC3     O 4521   2.375   3.192  10.781 -0.0757 -0.2795  0.2552
  300TMC3     H 4522   2.517   3.245  10.427 -0.5955  0.5303 -0.4211
  300TMC3    H1 4523   2.222   3.064  10.663  2.7695  1.7549  1.6812
  300TMC3    H2 4524   2.141   3.122  10.264  0.7335 -1.7420 -1.6580
  300TMC3    C7 4525   2.039   3.072  10.476  0.1226  0.3002 -0.7090
  300TMC3    C8 4526   2.329   3.294  10.261 -0.7893  0.9002  0.2613
  300TMC3    O1 4527   2.007   3.149  10.566  0.3034 -0.0441  0.0132
  300TMC3    O2 4528   2.350   3.397  10.329 -0.2388  0.3907  0.4313
  301MPD2     C 4529   3.591   4.355   1.359  0.8629 -0.1507  0.3857
  301MPD2    C1 4530   3.585   4.370   1.224  0.1021 -0.0575  0.0765
  301MPD2    C2 4531   3.629   4.274   1.137  0.4974 -0.6509  0.1194
  301MPD2    C3 4532   3.694   4.161   1.184  0.1523 -0.0920 -0.0026
  301MPD2    C4 4533   3.695   4.142   1.324  0.1771  0.5230  0.0716
  301MPD2    C5 4534   3.640   4.236   1.405 -0.5717  0.7508  0.0972
  301MPD2     H 4535   3.614   4.286   1.030  0.0061 -0.4228  0.2115
  301MPD2    H1 4536   3.740   4.053   1.366 -2.4610 -0.1259  1.4834
  301MPD2    H2 4537   3.557   4.434   1.425 -3.0907 -0.3849 -1.3542
  301MPD2    H3 4538   3.650   4.218   1.511  2.6882  0.1385 -0.3150
  301MPD2     N 4539   3.732   4.047   1.115  0.4674  0.0874  0.1440
  301MPD2    H5 4540   3.750   3.966   1.173 -1.5969 -0.5411 -0.0918
  301MPD2    N1 4541   3.531   4.492   1.172 -0.1099 -0.1857  0.1511
  301MPD2    H7 4542   3.525   4.482   1.071 -1.6272  0.3850  0.1827
  302TMC3    C1 4543   3.770   3.921   0.920 -0.5351 -0.4324 -0.2563
  302TMC3    C2 4544   3.804   3.815   0.996  0.3127 -0.2138  0.1544
  302TMC3    C3 4545   3.823   3.691   0.932 -0.0669 -0.1757  0.8967
  302TMC3    C4 4546   3.748   3.913   0.783 -0.9396  0.4375  0.3779
  302TMC3    C5 4547   3.762   3.791   0.724  0.2192  0.0789 -0.3820
  302TMC3    C6 4548   3.811   3.681   0.796  0.6607 -0.3262 -1.4199
  302TMC3     C 4549   3.739   4.051   0.977  0.0743 -0.6731 -0.2293
  302TMC3     O 4550   3.747   4.152   0.905  0.2569  0.0472  0.0744
  302TMC3     H 4551   3.814   3.830   1.103 -1.2325  1.0968  0.1158
  302TMC3    H1 4552   3.701   3.996   0.730  0.1008 -0.1726 -1.4881
  302TMC3    H2 4553   3.812   3.582   0.752  0.9415 -1.6277  1.5378
  302TMC3    C7 4554   3.698   3.756   0.599  0.0435 -0.4766 -0.6183
  302TMC3    C8 4555   3.918   3.597   0.990 -0.2713  0.8213  0.3634
  302TMC3    O1 4556   3.672   3.641   0.580  0.2829  0.0072  0.8422
  302TMC3    O2 4557   3.941   3.497   0.927  0.0055 -0.4270 -0.2038
  303MPD2     C 4558   4.111   1.303  10.134 -0.4574  0.3554  0.2752
  303MPD2    C1 4559   4.017   1.328  10.036 -0.3913 -0.2083 -0.1730
  303MPD2    C2 4560   4.052   1.358   9.904 -0.3409  0.8011  0.2165
  303MPD2    C3 4561   4.190   1.358   9.871 -0.0087 -0.3468  0.0074
  303MPD2    C4 4562   4.279   1.337   9.969  0.3091 -0.3397 -0.0729
  303MPD2    C5 4563   4.243   1.315  10.102  0.6942  0.5296 -0.1280
  303MPD2     H 4564   3.974   1.377   9.831 -0.4641 -1.0232 -0.1315
  303MPD2    H1 4565   4.386   1.345   9.955  0.6293  1.5403  3.5747
  303MPD2    H2 4566   4.090   1.297  10.241 -1.4348 -2.2512 -0.0559
  303MPD2    H3 4567   4.323   1.312  10.174  1.9696  0.4093 -1.5439
  303MPD2     N 4568   4.236   1.377   9.740 -0.1315 -0.2621 -0.1814
  303MPD2    H5 4569   4.334   1.403   9.739 -0.3070  0.3571 -1.0500
  303MPD2    N1 4570   3.879   1.328  10.063 -0.4594  0.4880 -0.4431
  303MPD2    H7 4571   3.806   1.338   9.992  0.9205  0.3825 -1.8762
  304TMC3    C1 4572   3.673   1.296  10.170 -0.6962 -0.1431 -0.3453
  304TMC3    C2 4573   3.619   1.409  10.107 -0.4318  0.2410  0.3442
  304TMC3    C3 4574   3.491   1.396  10.069 -0.0748  0.0971 -0.8412
  304TMC3    C4 4575   3.615   1.175  10.193  0.2716  0.4938  0.1905
  304TMC3    C5 4576   3.490   1.162  10.134 -1.2413 -0.0819  0.8457
  304TMC3    C6 4577   3.425   1.275  10.089  0.0287  0.4471 -0.2581
  304TMC3     C 4578   3.818   1.306  10.188  0.5825  0.0645  0.2067
  304TMC3     O 4579   3.870   1.275  10.293  0.5320 -0.5653  0.5025
  304TMC3     H 4580   3.671   1.500  10.082 -2.4615  1.3709  0.2588
  304TMC3    H1 4581   3.673   1.087  10.219 -0.5558 -0.4932 -1.3297
  304TMC3    H2 4582   3.319   1.265  10.069 -0.1792  0.9106  0.5879
  304TMC3    C7 4583   3.493   1.063  10.024 -0.1083  0.3017  0.1658
  304TMC3    C8 4584   3.445   1.458   9.947 -0.1979 -0.1670 -0.3003
  304TMC3    O1 4585   3.573   0.969  10.028 -0.5939 -0.4202  0.2561
  304TMC3    O2 4586   3.356   1.397   9.887  1.1438  0.3284 -0.2668
  305MPD2     C 4587   2.617   0.518  14.363  0.0696  0.2023  0.0508
  305MPD2    C1 4588   2.611   0.381  14.368  0.7446  0.1807 -0.0683
  305MPD2    C2 4589   2.585   0.309  14.259  0.0260 -0.1605  0.3997
  305MPD2    C3 4590   2.569   0.370  14.135  0.8833 -0.1083 -0.1128
  305MPD2    C4 4591   2.571   0.508  14.130 -0.8825  0.2950  0.1982
  305MPD2    C5 4592   2.585   0.578  14.245 -0.0284  0.2264 -0.1137
  305MPD2     H 4593   2.574   0.201  14.268  0.1827 -0.2045  0.0770
  305MPD2    H1 4594   2.545   0.558  14.038 -1.7894  0.8480  0.7638
  305MPD2    H2 4595   2.621   0.577  14.453 -1.5063 -0.5233  0.5942
  305MPD2    H3 4596   2.572   0.685  14.240 -0.3721  0.0524 -3.0212
  305MPD2     N 4597   2.550   0.297  14.015  0.2525  0.1560 -0.4107
  305MPD2    H5 4598   2.559   0.355  13.932  0.3562  1.5649  0.5744
  305MPD2    N1 4599   2.622   0.330  14.504  0.9101  0.9990  0.4031
  305MPD2    H7 4600   2.649   0.396  14.576  0.7021  1.1929  0.3021
  306TMC3    C1 4601   2.643   0.204  14.685  0.0896  0.4368  0.3547
  306TMC3    C2 4602   2.722   0.102  14.733  0.1439 -0.1607  0.3960
  306TMC3    C3 4603   2.769   0.129  14.862 -0.5639 -0.0964  0.0420
  306TMC3    C4 4604   2.631   0.326  14.750 -0.0735 -0.1338 -0.2469
  306TMC3    C5 4605   2.697   0.346  14.868  0.5270 -0.5985 -0.4213
  306TMC3    C6 4606   2.772   0.250  14.927  0.2302  0.3798  0.4076
  306TMC3     C 4607   2.609   0.202  14.543 -0.7872  0.5956  0.1261
  306TMC3     O 4608   2.567   0.098  14.490  0.0678  0.6690  0.6445
  306TMC3     H 4609   2.742   0.008  14.684  0.7758  0.1548  0.0423
  306TMC3    H1 4610   2.565   0.407  14.721  0.8434 -0.2264 -2.5363
  306TMC3    H2 4611   2.804   0.261  15.030  3.0318 -1.3707 -0.2917
  306TMC3    C7 4612   2.711   0.481  14.921  0.3320  0.0103  0.5344
  306TMC3    C8 4613   2.838   0.012  14.925 -0.3783  0.1474  0.7655
  306TMC3    O1 4614   2.609   0.551  14.930 -0.0858 -0.1723  0.0579
  306TMC3    O2 4615   2.853   4.639  14.850 -0.8543 -0.2509 -0.2889
  307MPD2     C 4616   0.068   2.591   0.403  0.4972  0.6956 -0.4086
  307MPD2    C1 4617   4.703   2.685   0.432 -0.3285  0.0152  0.0242
  307MPD2    C2 4618   4.617   2.671   0.540  0.1792  0.7098  0.3995
  307MPD2    C3 4619   4.618   2.556   0.617  0.6102  0.3877 -0.3572
  307MPD2    C4 4620   4.704   2.455   0.579 -0.3165 -0.1044 -0.5360
  307MPD2    C5 4621   0.073   2.481   0.479  0.4404 -0.0266 -0.2272
  307MPD2     H 4622   4.553   2.755   0.566  0.0031  0.6680  0.1039
  307MPD2    H1 4623   4.708   2.357   0.625 -0.6122 -0.5900 -1.5533
  307MPD2    H2 4624   0.132   2.600   0.316 -0.4091 -1.9990 -1.3608
  307MPD2    H3 4625   0.135   2.398   0.446  1.8060  0.1212  2.0324
  307MPD2     N 4626   4.518   2.550   0.713 -0.4736 -0.1361  0.1940
  307MPD2    H5 4627   4.462   2.635   0.717  1.6702  1.2539  0.3177
  307MPD2    N1 4628   4.684   2.806   0.363  0.4508  0.0814 -0.1738
  307MPD2    H7 4629   4.607   2.863   0.397 -0.0957 -0.5617 -0.3142
  308TMC3    C1 4630   4.132   2.423   0.828 -0.0288 -0.0142  0.1429
  308TMC3    C2 4631   4.106   2.540   0.890 -0.5298  0.2830 -0.5816
  308TMC3    C3 4632   4.213   2.614   0.936 -0.3053 -0.4009  0.8700
  308TMC3    C4 4633   4.258   2.381   0.796  0.7446 -0.0010  0.3388
  308TMC3    C5 4634   4.361   2.457   0.849  0.1989 -0.3377  1.3832
  308TMC3    C6 4635   4.339   2.576   0.914 -0.3872  0.5276 -0.3942
  308TMC3     C 4636   4.024   2.373   0.735  0.4033  0.0487 -0.9418
  308TMC3     O 4637   4.045   2.255   0.705  0.4462 -0.0921  0.2102
  308TMC3     H 4638   4.007   2.563   0.928 -0.1008 -0.5695  1.0696
  308TMC3    H1 4639   4.281   2.310   0.717  0.7244  1.1065 -0.6553
  308TMC3    H2 4640   4.417   2.639   0.955  0.3351 -2.1532  2.3583
  308TMC3    C7 4641   4.478   2.437   0.772  0.1266 -0.5605 -0.5361
  308TMC3    C8 4642   4.185   2.724   1.017  0.1599 -0.6764  0.3855
  308TMC3    O1 4643   4.524   2.324   0.761 -0.2030 -0.2399  0.2894
  308TMC3    O2 4644   4.258   2.759   1.106 -0.0756  0.3083  0.2268
  309MPD2     C 4645   3.897   3.161  17.267 -0.1338  0.3099  0.6995
  309MPD2    C1 4646   3.862   3.223  17.153  0.2851 -0.0960  0.4224
  309MPD2    C2 4647   3.732   3.258  17.134 -0.5327 -0.4915 -0.1809
  309MPD2    C3 4648   3.635   3.232  17.226 -0.6052 -0.1517  0.2736
  309MPD2    C4 4649   3.665   3.161  17.340  0.4464 -0.3922  0.0521
  309MPD2    C5 4650   3.796   3.129  17.358  0.5253  0.5123  0.4386
  309MPD2     H 4651   3.709   3.312  17.043 -0.2946  0.1053  0.1128
  309MPD2    H1 4652   3.590   3.141  17.416 -2.4615  1.6139 -2.2675
  309MPD2    H2 4653   3.998   3.126  17.281  0.1562  0.2601 -1.5062
  309MPD2    H3 4654   3.825   3.067  17.442  0.5707 -1.2284 -0.8528
  309MPD2     N 4655   3.502   3.273  17.217  0.0580 -0.2235  0.1967
  309MPD2    H5 4656   3.432   3.238  17.282  1.0815 -1.8289  0.4290
  309MPD2    N1 4657   3.951   3.261  17.055 -0.5646  0.2916  0.4591
  309MPD2    H7 4658   3.910   3.294  16.968  0.9278 -2.5797 -1.3613
  310TMC3    C1 4659   4.155   3.270  16.936 -0.8062  0.6420 -0.1322
  310TMC3    C2 4660   4.102   3.330  16.833 -0.0240  0.0586  0.1014
  310TMC3    C3 4661   4.191   3.350  16.727 -0.3238 -0.6224  0.5316
  310TMC3    C4 4662   4.287   3.234  16.937 -0.3043  1.2573  0.3904
  310TMC3    C5 4663   4.369   3.257  16.837 -0.2260 -0.1843 -0.8362
  310TMC3    C6 4664   4.322   3.310  16.725  0.2967 -0.7062  0.5943
  310TMC3     C 4665   4.082   3.256  17.062 -0.7766  0.0032  0.4892
  310TMC3     O 4666   4.150   3.248  17.163 -0.1200  0.3151  0.5508
  310TMC3     H 4667   3.999   3.365  16.832  0.1641  0.6294  0.9788
  310TMC3    H1 4668   4.334   3.188  17.023 -0.4227  0.3263 -0.0376
  310TMC3    H2 4669   4.393   3.344  16.650  1.4510 -1.0435  1.5463
  310TMC3    C7 4670   4.498   3.182  16.840 -0.6043 -1.2135  0.1385
  310TMC3    C8 4671   4.140   3.388  16.594  0.4220  0.5040  0.4489
  310TMC3    O1 4672   4.511   3.101  16.934  0.1623 -0.4745  0.6357
  310TMC3    O2 4673   4.026   3.360  16.558 -0.1634  0.2959 -0.5460
  311MPD2     C 4674   1.706   4.594  13.416  0.3862  0.2225  0.7574
  311MPD2    C1 4675   1.688   4.659  13.299 -0.3542 -0.3217 -1.1035
  311MPD2    C2 4676   1.557   4.667  13.246  0.2584 -0.0592  0.1113
  311MPD2    C3 4677   1.447   4.603  13.306  0.6530  0.6244 -0.2768
  311MPD2    C4 4678   1.473   4.551  13.431  0.1074  0.2678  0.4091
  311MPD2    C5 4679   1.602   4.539  13.471  0.6684  0.2958 -0.1059
  311MPD2     H 4680   1.538   4.717  13.152  0.6004 -0.1609 -0.0144
  311MPD2    H1 4681   1.402   4.504  13.499  1.2417  2.4911  3.1543
  311MPD2    H2 4682   1.803   4.587  13.462  1.5845 -1.9033 -2.0994
  311MPD2    H3 4683   1.626   4.481  13.560 -1.3820  0.7784  0.7448
  311MPD2     N 4684   1.321   4.598  13.250 -0.3700 -0.1743  0.3476
  311MPD2    H5 4685   1.253   4.548  13.307 -2.2340 -0.6886 -2.3572
  311MPD2    N1 4686   1.792   0.001  13.233  0.1128 -0.3477 -0.1274
  311MPD2    H7 4687   1.766   0.056  13.152 -0.1508  0.7838  0.7259
  312TMC3    C1 4688   1.145   4.654  13.117 -0.4240  0.3316 -0.2068
  312TMC3    C2 4689   1.089   4.633  12.992 -0.2600  0.2911  0.0977
  312TMC3    C3 4690   0.951   4.596  12.994  0.8067 -0.4818  0.4377
  312TMC3    C4 4691   1.064   4.670  13.230 -0.5106  0.0807 -0.1065
  312TMC3    C5 4692   0.931   4.664  13.219  0.3083 -0.4472  0.1664
  312TMC3    C6 4693   0.872   4.620  13.103  0.0183 -0.1893  0.4295
  312TMC3     C 4694   1.289   4.649  13.127 -0.5870  0.2749  0.1248
  312TMC3     O 4695   1.363   4.671  13.029 -0.1162 -0.1792 -0.8969
  312TMC3     H 4696   1.148   4.604  12.906  0.7878  0.6001  0.7134
  312TMC3    H1 4697   1.107   4.684  13.328  0.1682 -1.1575 -0.2236
  312TMC3    H2 4698   0.764   4.624  13.093  0.0339  2.3599  1.2128
  312TMC3    C7 4699   0.838   4.698  13.322 -0.0890  0.1884  0.8210
  312TMC3    C8 4700   0.886   4.536  12.872 -0.0105 -0.0728 -0.4271
  312TMC3    O1 4701   0.717   4.689  13.306 -0.2938  0.4311 -0.1963
  312TMC3    O2 4702   0.936   4.561  12.764 -0.6065 -0.0548  0.6844
  313MPD2     C 4703   1.299   3.797  10.412 -0.3449  0.2321 -0.0899
  313MPD2    C1 4704   1.180   3.818  10.486 -0.8796  0.3512  0.5583
  313MPD2    C2 4705   1.072   3.728  10.483  0.0008 -0.0376  0.1335
  313MPD2    C3 4706   1.080   3.630  10.390 -1.0157  0.7703  0.0849
  313MPD2    C4 4707   1.201   3.607  10.317  0.0670 -0.3159 -0.1843
  313MPD2    C5 4708   1.304   3.696  10.321 -0.1487  0.0645 -0.6684
  313MPD2     H 4709   0.977   3.748  10.533 -0.6404 -0.5016 -0.9132
  313MPD2    H1 4710   1.212   3.523  10.249 -0.9167  0.6845 -1.5765
  313MPD2    H2 4711   1.387   3.860  10.421 -0.0528 -0.2639  0.5253
  313MPD2    H3 4712   1.393   3.675  10.263 -1.0102  0.7453 -2.2176
  313MPD2     N 4713   0.970   3.541  10.390  0.1816  0.4174  0.4867
  313MPD2    H5 4714   0.888   3.556  10.449  1.1228 -0.4668  2.0128
  313MPD2    N1 4715   1.170   3.915  10.590  0.5588  0.2535  0.2313
  313MPD2    H7 4716   1.090   3.899  10.650 -0.5130  2.3283 -0.6484
  314TMC3    C1 4717   1.224   4.093  10.743 -0.1879  1.0106 -0.3736
  314TMC3    C2 4718   1.313   4.201  10.759 -0.8074  0.1978  0.4594
  314TMC3    C3 4719   1.276   4.324  10.815  0.2287  0.0999  0.3706
  314TMC3    C4 4720   1.090   4.114  10.769  0.3751  0.2502 -0.7642
  314TMC3    C5 4721   1.059   4.234  10.824 -0.3939 -0.2483 -0.1240
  314TMC3    C6 4722   1.149   4.334  10.855 -0.6113  0.1160 -0.2659
  314TMC3     C 4723   1.258   4.018  10.623  0.3299 -0.4083  0.0243
  314TMC3     O 4724   1.346   4.067  10.559 -0.2515  0.2973  0.1781
  314TMC3     H 4725   1.418   4.189  10.733 -0.4938 -3.5708  3.5307
  314TMC3    H1 4726   1.014   4.037  10.759 -0.3408  0.4785  2.7863
  314TMC3    H2 4727   1.117   4.418  10.915 -1.5720 -0.7406  0.4104
  314TMC3    C7 4728   0.926   4.282  10.799 -0.9099 -0.2558 -0.6261
  314TMC3    C8 4729   1.372   4.376  10.910  0.0076 -0.0760 -0.2316
  314TMC3    O1 4730   0.890   4.379  10.858  0.5758 -0.1001  0.1460
  314TMC3    O2 4731   1.333   4.381  11.025 -0.0838  1.0282  0.0211
  315MPD2     C 4732   4.629   3.190   0.578 -0.1068 -0.0877 -0.2188
  315MPD2    C1 4733   0.033   3.208   0.525  0.8339  0.4204  0.0765
  315MPD2    C2 4734   0.068   3.330   0.464  0.1643  0.4186  0.7624
  315MPD2    C3 4735   4.703   3.432   0.442  0.0711  0.0358 -0.2963
  315MPD2    C4 4736   4.574   3.411   0.496 -1.1881  0.5504 -0.1510
  315MPD2    C5 4737   4.542   3.293   0.559 -0.3973  0.6217 -0.3255
  315MPD2     H 4738   0.165   3.346   0.417  1.0183 -1.7773  1.7744
  315MPD2    H1 4739   4.489   3.478   0.494 -2.4167 -0.9598  0.6107
  315MPD2    H2 4740   4.593   3.101   0.628  0.2902  0.5543  1.2113
  315MPD2    H3 4741   4.443   3.282   0.601  0.1558 -2.5419  0.2046
  315MPD2     N 4742   0.017   3.540   0.372 -0.4369 -0.5723 -0.4301
  315MPD2    H5 4743   0.108   3.533   0.327 -0.8392 -1.3736 -1.1263
  315MPD2    N1 4744   0.136   3.118   0.541 -0.1691 -0.3815  0.2095
  315MPD2    H7 4745   0.227   3.156   0.514  0.6774 -0.3274  3.1879
  316TMC3    C1 4746   4.722   3.732   0.250 -0.4476 -0.6008 -0.0768
  316TMC3    C2 4747   0.136   3.734   0.258  0.3326 -0.5362 -0.2820
  316TMC3    C3 4748   0.198   3.800   0.157 -0.3731 -0.5863 -0.3069
  316TMC3    C4 4749   4.653   3.786   0.144 -0.5169  0.3447  0.0852
  316TMC3    C5 4750   4.723   3.847   0.044 -0.1357 -0.2662 -0.1916
  316TMC3    C6 4751   0.135   3.850   0.050 -0.1475  0.1973  0.3325
  316TMC3     C 4752   4.658   3.641   0.339  0.8514 -0.6457 -0.3629
  316TMC3     O 4753   4.552   3.671   0.387  0.1108 -0.0253 -0.2263
  316TMC3     H 4754   0.190   3.714   0.350 -3.1307  2.7207  2.4306
  316TMC3    H1 4755   4.548   3.763   0.137 -0.6387  0.8764  0.1854
  316TMC3    H2 4756   0.200   3.882  17.670  0.9675 -2.2290  0.2888
  316TMC3    C7 4757   4.652   3.860  17.622  0.5288  0.0941 -0.5918
  316TMC3    C8 4758   0.331   3.861   0.191 -0.1424  0.9960 -0.5672
  316TMC3    O1 4759   4.532   3.835  17.625 -0.5167  0.1629 -0.4079
  316TMC3    O2 4760   0.344   3.980   0.185 -0.3032 -0.7414  0.0050
  317MPD2     C 4761   3.179   1.966  12.193  0.6137 -0.1102 -0.3961
  317MPD2    C1 4762   3.096   1.851  12.181  0.1950 -0.3669 -0.2229
  317MPD2    C2 4763   3.027   1.811  12.286  0.1901 -0.0697 -0.0192
  317MPD2    C3 4764   3.032   1.879  12.408  1.6125  0.1578  0.6072
  317MPD2    C4 4765   3.111   1.994  12.417 -0.3356  0.4113  0.1749
  317MPD2    C5 4766   3.174   2.040  12.307 -0.3867 -0.4591  0.1892
  317MPD2     H 4767   2.971   1.719  12.280  0.6693 -0.4707  1.9370
  317MPD2    H1 4768   3.122   2.060  12.503  2.1436  1.2349 -0.8041
  317MPD2    H2 4769   3.216   2.012  12.103  0.6945 -1.1014 -0.8651
  317MPD2    H3 4770   3.225   2.136  12.308  0.1182 -0.7091 -1.1061
  317MPD2     N 4771   2.967   1.820  12.520 -0.2056 -0.3267  0.1272
  317MPD2    H5 4772   2.905   1.741  12.509  1.8178 -1.5700 -2.5070
  317MPD2    N1 4773   3.076   1.781  12.057 -0.4551  0.8124  0.3129
  317MPD2    H7 4774   3.018   1.698  12.053 -0.7564  1.0290  0.2337
  318TMC3    C1 4775   2.927   1.768  12.741 -0.0758  0.2808 -0.7601
  318TMC3    C2 4776   2.864   1.657  12.701 -0.0412  0.6792 -0.4304
  318TMC3    C3 4777   2.893   1.535  12.763 -0.2814 -0.4512 -0.4567
  318TMC3    C4 4778   2.980   1.774  12.866  0.3149 -1.1041 -0.0105
  318TMC3    C5 4779   3.033   1.653  12.915 -0.1243  1.0264  0.2572
  318TMC3    C6 4780   2.982   1.528  12.870 -0.6104  0.3907  0.6296
  318TMC3     C 4781   2.984   1.865  12.647  0.5238 -0.7749 -0.6682
  318TMC3     O 4782   3.047   1.957  12.694  0.2704 -0.6493  1.1428
  318TMC3     H 4783   2.800   1.655  12.613 -0.9891  2.5784  0.2175
  318TMC3    H1 4784   3.030   1.866  12.894 -1.5066 -0.0291 -0.2901
  318TMC3    H2 4785   3.017   1.436  12.915 -0.6100  0.0127 -0.1442
  318TMC3    C7 4786   3.109   1.655  13.037 -0.2709  0.9419 -0.2973
  318TMC3    C8 4787   2.831   1.410  12.726 -0.0862 -0.3158 -0.1135
  318TMC3    O1 4788   3.092   1.753  13.108 -0.4714 -0.0818 -0.1558
  318TMC3    O2 4789   2.889   1.308  12.758 -0.1825 -0.4589 -0.2806
  319MPD2     C 4790   3.285   2.922  16.138  0.0591 -0.1304  0.3173
  319MPD2    C1 4791   3.231   2.964  16.256  0.3284  0.2576  0.3189
  319MPD2    C2 4792   3.100   2.988  16.262 -0.1134  1.3783  0.0849
  319MPD2    C3 4793   3.018   2.974  16.146 -0.3719 -0.0468 -0.2515
  319MPD2    C4 4794   3.079   2.927  16.029  0.1223 -0.5075  0.3629
  319MPD2    C5 4795   3.212   2.900  16.029  0.2527 -0.0523  0.1492
  319MPD2     H 4796   3.044   3.017  16.350  0.7001  2.6473  0.1893
  319MPD2    H1 4797   3.027   2.908  15.936  1.5520  1.3624 -0.8281
  319MPD2    H2 4798   3.388   2.895  16.122  0.4165  0.6791  1.3069
  319MPD2    H3 4799   3.255   2.851  15.943  0.0325  1.1228 -0.6288
  319MPD2     N 4800   2.875   3.004  16.148  0.0486 -0.1917 -0.0432
  319MPD2    H5 4801   2.824   2.980  16.064  0.7341 -1.7752 -0.0075
  319MPD2    N1 4802   3.309   2.985  16.370  0.1857  0.1460 -1.2237
  319MPD2    H7 4803   3.259   3.019  16.451  0.7486 -1.6580 -0.1021
  320TMC3    C1 4804   2.659   3.062  16.243 -0.1992 -0.1174 -0.3379
  320TMC3    C2 4805   2.600   3.048  16.118  0.1235 -0.1967 -0.3601
  320TMC3    C3 4806   2.474   2.997  16.113 -0.2677  0.1288  0.8261
  320TMC3    C4 4807   2.600   3.014  16.358 -0.2095  0.1931 -0.0131
  320TMC3    C5 4808   2.490   2.938  16.342 -0.6598  0.9592 -0.0327
  320TMC3    C6 4809   2.427   2.933  16.220 -0.1116  0.6861  0.0338
  320TMC3     C 4810   2.806   3.053  16.257 -0.1888  0.3893  0.7016
  320TMC3     O 4811   2.847   3.109  16.357  0.0325 -0.2597  0.5796
  320TMC3     H 4812   2.654   3.082  16.031  0.8039 -0.3059  0.0222
  320TMC3    H1 4813   2.645   3.031  16.455  0.4663 -1.1902 -0.0939
  320TMC3    H2 4814   2.329   2.886  16.210  0.6816 -0.8257 -0.7326
  320TMC3    C7 4815   2.486   2.812  16.413  0.1108 -0.6750  0.6377
  320TMC3    C8 4816   2.381   3.020  16.006  0.8348 -0.1725 -0.2839
  320TMC3    O1 4817   2.456   2.712  16.345 -0.0920  0.1056 -0.1586
  320TMC3    O2 4818   2.300   2.932  15.991  0.7478 -0.7505  0.4124
  321TMC3    C1 4819   3.480   3.027  16.519 -0.6464  0.1995 -0.1484
  321TMC3    C2 4820   3.602   3.087  16.536  0.2383  0.7016  0.2514
  321TMC3    C3 4821   3.625   3.163  16.647 -0.8485  0.1408 -0.5800
  321TMC3    C4 4822   3.380   3.034  16.610  0.1556  0.6566  0.2663
  321TMC3    C5 4823   3.412   3.105  16.724  0.1590 -0.5608  0.1252
  321TMC3    C6 4824   3.524   3.186  16.731  0.8216 -0.4697  0.0924
  321TMC3     C 4825   3.447   2.981  16.383  0.4112  0.7209  0.9184
  321TMC3     O 4826   3.528   2.969  16.293 -0.1302 -0.0083 -0.2665
  321TMC3     H 4827   3.670   3.085  16.451 -1.7318  2.0096 -1.3535
  321TMC3    H1 4828   3.290   2.974  16.607  0.7566 -0.2230 -0.4661
  321TMC3    H2 4829   3.539   3.251  16.817  1.0435 -2.3329  1.4618
  321TMC3    C7 4830   3.354   3.047  16.845 -0.3728  0.3474 -0.2882
  321TMC3    C8 4831   3.741   3.136  16.724 -0.2616 -0.1172 -1.0593
  321TMC3    O1 4832   3.242   2.995  16.839  1.2009 -0.1214 -0.3363
  321TMC3    O2 4833   3.722   3.137  16.846 -0.0930  0.0118  0.4473
  322MPD2     C 4834   2.716   4.539  13.919  0.1275 -0.0858  0.0813
  322MPD2    C1 4835   2.689   4.443  14.013  0.4879 -0.4795  0.1788
  322MPD2    C2 4836   2.633   4.324  13.977  0.4900 -0.2679  0.3799
  322MPD2    C3 4837   2.586   4.313  13.850  0.1754  0.0134 -0.4471
  322MPD2    C4 4838   2.605   4.406  13.750 -0.0669 -0.0016 -0.4245
  322MPD2    C5 4839   2.685   4.511  13.789 -0.0997 -0.2428  0.2386
  322MPD2     H 4840   2.623   4.244  14.050 -1.3371  0.3076  0.7452
  322MPD2    H1 4841   2.571   4.406  13.647  0.1279 -1.2001 -0.4840
  322MPD2    H2 4842   2.755   4.637  13.945  2.3756 -0.9994  0.1288
  322MPD2    H3 4843   2.695   4.583  13.709  0.8676 -1.1937 -0.4985
  322MPD2     N 4844   2.525   4.189  13.816  0.1375 -0.1304  0.4892
  322MPD2    H5 4845   2.505   4.128  13.895  0.1934 -0.8454 -0.0498
  322MPD2    N1 4846   2.733   4.470  14.143 -0.0997  0.4816 -0.0267
  322MPD2    H7 4847   2.800   4.545  14.155 -1.5619  1.8570 -0.3199
  323TMC3    C1 4848   2.760   4.459  14.376 -0.1862 -0.7887 -0.1923
  323TMC3    C2 4849   2.886   4.507  14.367  0.6401 -0.0681 -0.2535
  323TMC3    C3 4850   2.955   4.516  14.489  0.1342 -0.5644  0.0208
  323TMC3    C4 4851   2.704   4.416  14.491  0.0335 -0.1205  1.0729
  323TMC3    C5 4852   2.764   4.436  14.615 -0.0073  0.1266 -0.5209
  323TMC3    C6 4853   2.894   4.490  14.608 -0.0727  0.3471  0.1716
  323TMC3     C 4854   2.693   4.400  14.257 -0.4014 -0.0710 -0.5411
  323TMC3     O 4855   2.627   4.297  14.279 -0.0613  0.2902 -0.5858
  323TMC3     H 4856   2.920   4.540  14.270 -3.3603  0.3039 -1.5488
  323TMC3    H1 4857   2.604   4.375  14.499  0.6169 -1.2683  2.4832
  323TMC3    H2 4858   2.952   4.484  14.700 -0.2236  0.2252  0.2580
  323TMC3    C7 4859   2.737   4.328  14.705 -0.0914 -0.7996  0.0690
  323TMC3    C8 4860   3.073   4.595  14.492 -0.0141  0.1343  0.7465
  323TMC3    O1 4861   2.688   4.225  14.673  0.4520  0.2588 -0.0866
  323TMC3    O2 4862   3.148   4.577  14.589  0.1897  0.0295 -0.7278
  324MPD2     C 4863   4.274   1.369  14.333  0.2223  0.1434  1.1998
  324MPD2    C1 4864   4.313   1.267  14.418 -0.0337 -0.5018 -0.9542
  324MPD2    C2 4865   4.233   1.159  14.428 -0.4070  0.3352 -0.7958
  324MPD2    C3 4866   4.103   1.167  14.372 -0.1766  0.5951  0.2006
  324MPD2    C4 4867   4.066   1.268  14.294  0.4472 -0.3619  0.0443
  324MPD2    C5 4868   4.150   1.367  14.271 -0.0582 -0.0867  0.2611
  324MPD2     H 4869   4.266   1.074  14.487  0.5272  0.9413 -0.4554
  324MPD2    H1 4870   3.967   1.270  14.250 -0.0652 -0.7024  1.1935
  324MPD2    H2 4871   4.344   1.452  14.329 -0.3036  0.5487  0.3779
  324MPD2    H3 4872   4.115   1.443  14.202 -0.1715 -0.3325  0.0487
  324MPD2     N 4873   3.999   1.074  14.400 -0.5834 -0.0210 -0.1319
  324MPD2    H5 4874   3.913   1.093  14.348 -0.7269 -0.5301 -0.0760
  324MPD2    N1 4875   4.434   1.288  14.490  0.2507  0.0329 -0.8096
  324MPD2    H7 4876   4.471   1.382  14.482 -0.5044  0.3023 -1.1973
  325TMC3    C1 4877   3.881   0.910  14.506 -0.0669  0.9506 -0.1014
  325TMC3    C2 4878   3.855   0.789  14.450  0.2729  0.8289 -0.2842
  325TMC3    C3 4879   3.726   0.767  14.418  0.6317  0.2589  0.0301
  325TMC3    C4 4880   3.781   0.999  14.536  0.7966 -0.7707  0.1875
  325TMC3    C5 4881   3.650   0.965  14.516 -0.4067 -0.1036  0.3537
  325TMC3    C6 4882   3.617   0.845  14.448 -0.6707  0.9395 -0.0681
  325TMC3     C 4883   4.008   0.960  14.468 -0.0926  0.5917  0.0191
  325TMC3     O 4884   4.105   0.900  14.503 -0.4066 -0.4768  0.9646
  325TMC3     H 4885   3.942   0.732  14.420 -1.0728 -0.4998 -1.6467
  325TMC3    H1 4886   3.806   1.101  14.565 -1.1538  0.0072 -0.8817
  325TMC3    H2 4887   3.518   0.800  14.451 -0.6544  1.0891  3.6026
  325TMC3    C7 4888   3.540   1.060  14.555  0.2640  0.1894  0.3089
  325TMC3    C8 4889   3.710   0.653  14.330 -0.6925  0.2186 -0.7624
  325TMC3    O1 4890   3.564   1.159  14.620 -0.2050 -0.4781 -0.5337
  325TMC3    O2 4891   3.807   0.582  14.315  0.0626  0.2245 -0.0317
  326MPD2     C 4892   0.608   1.361  11.113 -0.5313 -0.4780  0.6534
  326MPD2    C1 4893   0.583   1.435  10.996 -0.4148 -0.1059  0.5966
  326MPD2    C2 4894   0.690   1.489  10.930  0.2161  0.4032 -0.2165
  326MPD2    C3 4895   0.818   1.480  10.974  0.0946 -1.3924  0.2798
  326MPD2    C4 4896   0.849   1.391  11.075 -0.0688  0.4363  0.6687
  326MPD2    C5 4897   0.743   1.334  11.140 -0.1386 -0.4299 -0.1146
  326MPD2     H 4898   0.670   1.556  10.848 -1.5143  0.6323  0.3965
  326MPD2    H1 4899   0.953   1.367  11.097  0.4153  1.3427 -0.5709
  326MPD2    H2 4900   0.537   1.329  11.189 -1.7602  1.1205  0.1915
  326MPD2    H3 4901   0.767   1.279  11.230 -0.0378 -1.9458 -1.0672
  326MPD2     N 4902   0.924   1.544  10.910  0.2636  0.1652 -0.1898
  326MPD2    H5 4903   1.017   1.512  10.933  0.7073  0.0889 -2.0202
  326MPD2    N1 4904   0.456   1.484  10.965 -0.7892 -0.6905 -0.3909
  326MPD2    H7 4905   0.455   1.564  10.902 -0.7448  0.1602  0.6968
  327TMC3    C1 4906   0.229   1.485  10.922  0.3264  0.1822 -0.0294
  327TMC3    C2 4907   0.201   1.616  10.923  1.2595 -0.1400  0.3308
  327TMC3    C3 4908   0.186   1.672  10.797  0.2713  0.0349  0.2482
  327TMC3    C4 4909   0.254   1.419  10.809  0.1140  0.1029 -0.2854
  327TMC3    C5 4910   0.229   1.477  10.684  0.5433  0.5525  0.1588
  327TMC3    C6 4911   0.186   1.604  10.678 -0.4356  0.1112 -0.2864
  327TMC3     C 4912   0.334   1.445  11.014 -0.2272 -0.1733  0.0934
  327TMC3     O 4913   0.292   1.357  11.090  0.4364 -0.1551 -0.2366
  327TMC3     H 4914   0.212   1.674  11.014  0.5436 -2.1752  1.7103
  327TMC3    H1 4915   0.317   1.332  10.822 -1.7932 -1.0280  1.3309
  327TMC3    H2 4916   0.173   1.654  10.583 -0.4930 -1.5618 -1.1426
  327TMC3    C7 4917   0.328   1.450  10.575 -0.2516 -0.9552 -0.0431
  327TMC3    C8 4918   0.180   1.814  10.781 -0.2715  0.1309 -0.3423
  327TMC3    O1 4919   0.329   1.536  10.484  0.0651 -0.9189 -0.2202
  327TMC3    O2 4920   0.210   1.855  10.668 -0.1670  0.0937  0.0154
  328MPD2     C 4921   2.864   2.061  16.853  0.2587  0.3776 -0.2876
  328MPD2    C1 4922   2.832   1.939  16.901  0.4741 -0.5532  0.7631
  328MPD2    C2 4923   2.712   1.892  16.864  0.6609  0.2623  0.3104
  328MPD2    C3 4924   2.615   1.969  16.791 -0.1470  0.3105 -0.4241
  328MPD2    C4 4925   2.658   2.090  16.738  0.0953 -0.5966 -1.0241
  328MPD2    C5 4926   2.778   2.138  16.778 -0.0623 -0.3890 -0.4614
  328MPD2     H 4927   2.691   1.795  16.909  0.1294 -0.2337 -1.0046
  328MPD2    H1 4928   2.598   2.153  16.675  0.1609 -1.9878 -2.4827
  328MPD2    H2 4929   2.958   2.110  16.873  1.1000 -0.4042 -2.3738
  328MPD2    H3 4930   2.806   2.241  16.758 -0.8489 -0.2847 -1.0113
  328MPD2     N 4931   2.482   1.931  16.768 -0.4504  0.1289  0.1753
  328MPD2    H5 4932   2.423   2.009  16.740  2.3950  2.6547  1.2776
  328MPD2    N1 4933   2.924   1.860  16.972  0.2073 -0.0903 -0.0251
  328MPD2    H7 4934   2.993   1.916  17.021 -0.7513  0.0698  1.1474
  329TMC3    C1 4935   2.998   1.657  17.093  0.2024 -0.5673  0.4585
  329TMC3    C2 4936   3.047   1.737  17.198  0.0349 -0.0963 -0.3251
  329TMC3    C3 4937   3.079   1.658  17.308 -0.4416  0.9193 -0.1497
  329TMC3    C4 4938   2.983   1.524  17.096  0.0909  0.0121 -0.5114
  329TMC3    C5 4939   3.023   1.459  17.211 -0.3514  0.0437  0.3682
  329TMC3    C6 4940   3.084   1.524  17.316  0.0795  0.7575  1.0190
  329TMC3     C 4941   2.928   1.724  16.975  0.0025 -0.0793  0.1267
  329TMC3     O 4942   2.869   1.652  16.895 -0.1073 -0.4578 -0.3659
  329TMC3     H 4943   3.035   1.845  17.210  0.1106 -0.0863 -0.3390
  329TMC3    H1 4944   2.923   1.476  17.020  0.8859 -0.9156 -0.5579
  329TMC3    H2 4945   3.106   1.467  17.405 -1.0276 -0.2221  0.6638
  329TMC3    C7 4946   2.974   1.322  17.222 -0.3360  0.3394  0.2376
  329TMC3    C8 4947   3.095   1.727  17.442  0.5171  0.1557  0.7821
  329TMC3    O1 4948   2.955   1.294  17.341  0.2685  0.3879  0.3519
  329TMC3    O2 4949   3.178   1.670  17.518  0.1456  0.0030  0.4247
  330TMC3    C1 4950   1.027   0.215   9.662 -0.4867 -0.1248  0.3826
  330TMC3    C2 4951   1.070   0.099   9.603 -0.1029  0.0408  0.0002
  330TMC3    C3 4952   1.206   0.095   9.584 -0.6870 -0.4587 -0.0516
  330TMC3    C4 4953   1.113   0.314   9.706  0.1360  0.2835 -0.9148
  330TMC3    C5 4954   1.244   0.299   9.695 -0.2859 -0.2785 -0.6977
  330TMC3    C6 4955   1.293   0.195   9.621  0.3172 -0.3741 -0.2865
  330TMC3     C 4956   0.890   0.235   9.707  0.4909 -0.8813 -0.7400
  330TMC3     O 4957   0.867   0.325   9.788 -0.2123  0.8017  0.2549
  330TMC3     H 4958   0.999   0.030   9.558  0.8666 -2.3855  2.2041
  330TMC3    H1 4959   1.066   0.389   9.769  0.0743  0.0551 -0.6866
  330TMC3    H2 4960   1.400   0.186   9.610  0.4813  0.1457  0.8509
  330TMC3    C7 4961   1.335   0.369   9.777  0.1912  0.4428  0.1879
  330TMC3    C8 4962   1.255   4.704   9.506  0.1598  0.1200 -0.4710
  330TMC3    O1 4963   1.453   0.335   9.759 -0.0450 -0.7370 -0.1617
  330TMC3    O2 4964   1.374   4.706   9.464  0.1676 -0.1814 -0.0256
  331MPD2     C 4965   4.377   0.063  12.951 -0.0234 -0.4940  0.6457
  331MPD2    C1 4966   4.429   0.062  12.820  0.6905  0.0456 -0.2920
  331MPD2    C2 4967   4.344   4.724  12.728 -0.0699  0.0757 -0.1612
  331MPD2    C3 4968   4.221   4.672  12.757  0.2353  0.2998 -0.3586
  331MPD2    C4 4969   4.164   4.685  12.882  0.2035 -0.4354 -0.1722
  331MPD2    C5 4970   4.246   0.021  12.971 -0.7262 -0.1826  0.4434
  331MPD2     H 4971   4.372   0.010  12.624 -0.6413 -4.5104 -0.7800
  331MPD2    H1 4972   4.069   4.642  12.913  1.1898  0.6311  4.3941
  331MPD2    H2 4973   4.415   0.123  13.032 -1.5920  0.1185  0.9420
  331MPD2    H3 4974   4.217   0.013  13.076 -0.1582  2.2447  0.7731
  331MPD2     N 4975   4.152   4.626  12.642  0.0690 -0.5357 -0.2303
  331MPD2    H5 4976   4.209   4.609  12.560 -0.7868 -3.9338 -0.1276
  331MPD2    N1 4977   4.537   0.140  12.777  0.4984  0.1040  0.3449
  331MPD2    H7 4978   4.577   0.219  12.825 -0.1880 -1.5929  3.7001
  332TMC3    C1 4979   3.973   4.522  12.536  0.2310 -0.4324  0.4153
  332TMC3    C2 4980   4.046   4.535  12.424 -0.3119 -0.3900 -0.3268
  332TMC3    C3 4981   4.050   4.421  12.342 -0.5439 -0.3333 -0.3280
  332TMC3    C4 4982   3.904   4.413  12.568 -0.5251 -0.0840 -0.5066
  332TMC3    C5 4983   3.917   4.298  12.496  0.5112 -0.2825  0.2465
  332TMC3    C6 4984   3.997   4.305  12.384 -0.1534  0.1365 -0.1675
  332TMC3     C 4985   4.019   4.600  12.650  0.4486  1.4174 -0.1001
  332TMC3     O 4986   3.940   4.594  12.741  0.3005  0.0032  0.1116
  332TMC3     H 4987   4.105   4.622  12.400 -2.4598  1.4373  0.9850
  332TMC3    H1 4988   3.862   4.406  12.668  1.5229 -2.2110  0.2248
  332TMC3    H2 4989   4.028   4.215  12.333  0.7591 -0.4153  1.3649
  332TMC3    C7 4990   3.933   4.189  12.584 -0.0348 -0.4445  0.4195
  332TMC3    C8 4991   4.107   4.433  12.210 -0.1510 -0.2446  0.0836
  332TMC3    O1 4992   3.832   4.154  12.644  0.0914 -0.0917  0.4946
  332TMC3    O2 4993   4.173   4.536  12.186 -0.0749 -0.2752  0.4343
  333MPD2     C 4994   3.828   0.242  11.443  0.8840 -0.2367  0.1705
  333MPD2    C1 4995   3.894   0.158  11.360 -0.2291  0.6034 -0.6039
  333MPD2    C2 4996   3.842   0.030  11.347 -0.2097 -0.0379 -0.0273
  333MPD2    C3 4997   3.720   4.724  11.409  0.5927 -0.4566  0.0549
  333MPD2    C4 4998   3.660   0.090  11.489  0.0962  0.1469 -0.1411
  333MPD2    C5 4999   3.714   0.211  11.505  0.5663  0.1083 -0.2250
  333MPD2     H 5000   3.871   4.679  11.274  2.4026 -0.0669  1.0603
  333MPD2    H1 5001   3.567   0.066  11.539 -0.7947 -0.6281 -2.1756
  333MPD2    H2 5002   3.864   0.342  11.466  0.7418  0.2512 -1.6830
  333MPD2    H3 5003   3.666   0.281  11.573  2.5335  2.0113 -0.8027
  333MPD2     N 5004   3.655   4.599  11.384 -0.7810 -0.1162 -0.0332
  333MPD2    H5 5005   3.690   4.537  11.311 -1.2920 -0.7203  0.2426
  333MPD2    N1 5006   4.010   0.205  11.295  0.1024  0.0408  0.1895
  333MPD2    H7 5007   4.060   0.288  11.325  0.7593  0.6388 -2.4688
  334TMC3    C1 5008   4.192   0.188  11.137 -0.3060 -0.3501  0.0972
  334TMC3    C2 5009   4.260   0.087  11.080 -0.6513  0.1500 -0.4768
  334TMC3    C3 5010   4.385   0.118  11.033 -0.1193  0.0639  1.0623
  334TMC3    C4 5011   4.220   0.322  11.126  0.8188 -0.8456 -0.2605
  334TMC3    C5 5012   4.338   0.353  11.059 -0.4797 -0.4256 -0.0058
  334TMC3    C6 5013   4.423   0.251  11.021 -0.3351  0.5379 -0.1131
  334TMC3     C 5014   4.062   0.144  11.180 -0.2906  1.0952  0.2311
  334TMC3     O 5015   4.009   0.059  11.113  0.2353 -0.6079  0.2223
  334TMC3     H 5016   4.224   4.710  11.093  2.9648 -0.5188  4.2501
  334TMC3    H1 5017   4.155   0.394  11.174 -0.0976 -1.9971  0.2180
  334TMC3    H2 5018   4.525   0.281  11.001  0.4266 -2.3554 -0.5726
  334TMC3    C7 5019   4.361   0.494  11.027 -0.7314 -0.5218 -0.7726
  334TMC3    C8 5020   4.467   0.011  10.980  0.1536  0.3094  0.2775
  334TMC3    O1 5021   4.470   0.519  10.981 -0.4723 -0.6571  0.1277
  334TMC3    O2 5022   4.409   4.632  10.959  0.1502  0.2215  0.0065
  335TMC3    C1 5023   3.595   2.022  17.256 -0.0456 -0.5132  0.1749
  335TMC3    C2 5024   3.493   1.950  17.203  0.2283 -0.0691  0.0883
  335TMC3    C3 5025   3.513   1.817  17.176  0.1171  0.6477 -0.0327
  335TMC3    C4 5026   3.726   1.974  17.262  0.1015 -0.6167  0.6137
  335TMC3    C5 5027   3.739   1.835  17.250  0.5302 -0.1303  1.3829
  335TMC3    C6 5028   3.640   1.762  17.199 -0.2567  0.5312  0.1975
  335TMC3     C 5029   3.563   2.147  17.324  0.1291 -0.2781 -0.6627
  335TMC3     O 5030   3.639   2.241  17.303  0.0495 -0.4555  0.3748
  335TMC3     H 5031   3.399   2.003  17.197 -0.5408 -1.3470  0.8493
  335TMC3    H1 5032   3.810   2.030  17.304  0.4577 -1.1304  0.5901
  335TMC3    H2 5033   3.668   1.661  17.168 -0.6891  0.9521 -1.5577
  335TMC3    C7 5034   3.871   1.773  17.266 -0.2310 -0.6556 -0.1780
  335TMC3    C8 5035   3.411   1.742  17.118 -0.1869 -0.2774 -0.2358
  335TMC3    O1 5036   3.871   1.652  17.273 -0.1637  0.6271  0.0706
  335TMC3    O2 5037   3.324   1.809  17.059  0.1015  0.1782 -0.2335
  336MPD2     C 5038   3.169   4.452  16.376  0.5169  0.1247 -0.2600
  336MPD2    C1 5039   3.041   4.414  16.337  0.0573 -0.1417  0.3581
  336MPD2    C2 5040   3.003   4.283  16.357 -0.3566 -0.2862  0.7574
  336MPD2    C3 5041   3.093   4.182  16.389 -0.0281 -0.1164  0.2416
  336MPD2    C4 5042   3.222   4.218  16.420 -0.4817 -0.4645  0.2846
  336MPD2    C5 5043   3.257   4.352  16.412  0.0340  0.6176  0.7783
  336MPD2     H 5044   2.906   4.249  16.324  0.2964 -0.8485 -0.5843
  336MPD2    H1 5045   3.302   4.151  16.449  0.2290 -0.3800 -1.4437
  336MPD2    H2 5046   3.212   4.551  16.372  0.1274  0.2296 -1.8160
  336MPD2    H3 5047   3.360   4.379  16.434  0.1052  0.4037  0.7092
  336MPD2     N 5048   3.066   4.044  16.398 -0.3804  0.9582 -0.3408
  336MPD2    H5 5049   3.145   3.981  16.393 -2.9970 -2.3790  0.2676
  336MPD2    N1 5050   2.940   4.499  16.288 -0.1215  0.4522  0.8489
  336MPD2    H7 5051   2.846   4.460  16.290  0.1014 -0.1140  0.4469
  337TMC3    C1 5052   2.848   4.696  16.207  0.4154 -0.6773 -0.0075
  337TMC3    C2 5053   2.744   4.623  16.158  0.3572  1.0200  0.1655
  337TMC3    C3 5054   2.638   4.690  16.112  0.1971  0.2880  0.3837
  337TMC3    C4 5055   2.835   0.107  16.221  0.2702 -0.3073  0.6450
  337TMC3    C5 5056   2.710   0.164  16.201 -0.1368  0.3896  0.7421
  337TMC3    C6 5057   2.619   0.097  16.141 -0.1160 -0.3763 -0.4133
  337TMC3     C 5058   2.964   4.636  16.255 -0.3117  0.3943 -0.5086
  337TMC3     O 5059   3.074   4.689  16.234 -0.1475 -0.8766  0.6152
  337TMC3     H 5060   2.752   4.516  16.144 -0.6108  1.3516 -2.9272
  337TMC3    H1 5061   2.920   0.166  16.251  0.2101 -0.1202  0.4432
  337TMC3    H2 5062   2.520   0.141  16.149  0.8387  1.5739  0.6356
  337TMC3    C7 5063   2.676   0.289  16.250  0.2738 -0.3834  0.3906
  337TMC3    C8 5064   2.524   4.608  16.069 -0.1895 -0.2428  0.5349
  337TMC3    O1 5065   2.590   0.348  16.185  0.0955 -0.0979  0.5945
  337TMC3    O2 5066   2.416   4.655  16.097  0.1248  0.4975 -1.1192
  338MPD2     C 5067   3.106   3.034   0.879  0.6309 -0.7165 -0.1840
  338MPD2    C1 5068   3.051   3.025   0.751 -0.3739 -0.5160 -0.6550
  338MPD2    C2 5069   2.916   3.035   0.741 -0.4230  0.7765 -0.1625
  338MPD2    C3 5070   2.835   3.059   0.846  0.7497 -0.3920  0.8931
  338MPD2    C4 5071   2.887   3.060   0.974  0.3985 -0.0561 -0.1727
  338MPD2    C5 5072   3.022   3.048   0.988 -0.2332 -0.3484  0.2007
  338MPD2     H 5073   2.878   3.011   0.642  1.0997 -1.5066 -0.2050
  338MPD2    H1 5074   2.831   3.048   1.066 -0.7809  2.9734 -0.4934
  338MPD2    H2 5075   3.212   3.021   0.895  0.5046  0.9932  2.1025
  338MPD2    H3 5076   3.055   3.055   1.091  1.1688 -0.2463 -0.2461
  338MPD2     N 5077   2.694   3.073   0.824 -0.2748  0.6600  0.0617
  338MPD2    H5 5078   2.651   3.039   0.739  0.9708 -2.4769  0.6801
  338MPD2    N1 5079   3.128   3.008   0.634  0.0207  0.0558 -0.2948
  338MPD2    H7 5080   3.076   2.999   0.547 -0.2111 -0.3627 -0.1139
  339TMC3    C1 5081   2.486   3.171   0.829  0.0189  0.4403  0.1795
  339TMC3    C2 5082   2.371   3.184   0.897  0.3547  0.4990 -0.1173
  339TMC3    C3 5083   2.255   3.230   0.835  0.8269 -0.4695 -0.0235
  339TMC3    C4 5084   2.503   3.217   0.706  0.2298 -0.5270 -0.1802
  339TMC3    C5 5085   2.386   3.275   0.646  0.0664 -0.2127 -0.3742
  339TMC3    C6 5086   2.263   3.277   0.705  0.1845  0.3807 -0.5299
  339TMC3     C 5087   2.612   3.140   0.910  0.1256  0.0990 -0.3133
  339TMC3     O 5088   2.628   3.184   1.020 -0.0685 -0.3046  0.2650
  339TMC3     H 5089   2.360   3.124   0.986 -1.6574 -0.8031 -1.2439
  339TMC3    H1 5090   2.597   3.220   0.653  1.8990 -1.9978  2.7077
  339TMC3    H2 5091   2.165   3.305   0.668 -0.7305 -1.5691  0.3791
  339TMC3    C7 5092   2.409   3.313   0.506  0.3523  0.3314 -0.0811
  339TMC3    C8 5093   2.122   3.201   0.894  0.1099  0.3823 -0.1843
  339TMC3    O1 5094   2.511   3.266   0.463  0.4514 -0.1247  0.3298
  339TMC3    O2 5095   2.028   3.209   0.814 -0.3057 -0.0961 -0.1836
  340MPD2     C 5096   3.400   0.247   9.571  0.2854  1.3319  0.1433
  340MPD2    C1 5097   3.509   0.240   9.660  0.3370  0.2788 -0.2589
  340MPD2    C2 5098   3.581   0.355   9.685 -0.8160  0.1994  0.2453
  340MPD2    C3 5099   3.564   0.469   9.607 -0.4203  0.7742  0.8243
  340MPD2    C4 5100   3.468   0.467   9.510 -0.4078 -0.2486 -0.9566
  340MPD2    C5 5101   3.380   0.360   9.495 -0.4965 -0.1772  0.3095
  340MPD2     H 5102   3.657   0.368   9.761  0.5960  0.6864 -1.2449
  340MPD2    H1 5103   3.440   0.551   9.447 -0.2645 -0.5442 -1.4144
  340MPD2    H2 5104   3.335   0.162   9.559  0.9576  0.7359  0.7391
  340MPD2    H3 5105   3.305   0.368   9.416 -1.8612 -0.5053  1.5697
  340MPD2     N 5106   3.639   0.591   9.620  0.3910 -0.0602  0.0323
  340MPD2    H5 5107   3.641   0.655   9.542  0.7565 -0.1422 -0.0254
  340MPD2    N1 5108   3.519   0.126   9.739 -0.2585 -0.3455 -0.0167
  340MPD2    H7 5109   3.431   0.077   9.755 -0.4641 -0.0904 -0.3774
  341TMC3    C1 5110   3.609   4.704   9.905 -0.3630 -0.0170 -0.5708
  341TMC3    C2 5111   3.496   4.636   9.920  0.1218  0.8857 -0.0785
  341TMC3    C3 5112   3.487   4.549  10.027  1.2124  0.2941 -0.2556
  341TMC3    C4 5113   3.715   4.677   9.988  0.0944  0.2019 -0.1010
  341TMC3    C5 5114   3.711   4.577  10.078  0.0808  0.1459  0.4030
  341TMC3    C6 5115   3.596   4.514  10.104  0.1837  0.6135  0.5124
  341TMC3     C 5116   3.623   0.103   9.822  0.3605  0.1829  0.5800
  341TMC3     O 5117   3.733   0.156   9.818 -0.1517  0.0483  0.1238
  341TMC3     H 5118   3.415   4.655   9.851  2.3005  0.2539 -2.8083
  341TMC3    H1 5119   3.796   0.023   9.999 -0.8618  1.2810  0.0157
  341TMC3    H2 5120   3.593   4.456  10.196  2.8975  0.6116  0.5876
  341TMC3    C7 5121   3.814   4.583  10.182  1.0334  0.2808  0.3150
  341TMC3    C8 5122   3.349   4.509  10.062  0.7468 -1.0563  0.1279
  341TMC3    O1 5123   3.930   4.598  10.142 -0.3182 -0.5250 -0.6849
  341TMC3    O2 5124   3.272   4.492   9.966  0.0295  1.1171 -0.1204
  342MPD2     C 5125   1.407   4.618   0.460 -0.3604 -0.2959  0.2330
  342MPD2    C1 5126   1.481   4.577   0.350  0.2913  0.6993  0.0535
  342MPD2    C2 5127   1.552   4.674   0.280 -0.2679  0.0689 -0.1879
  342MPD2    C3 5128   1.542   0.086   0.300  0.5464  0.5267 -0.0204
  342MPD2    C4 5129   1.467   0.121   0.414  0.6929 -0.1200 -0.3687
  342MPD2    C5 5130   1.399   0.027   0.486 -0.0548 -0.2565  0.4005
  342MPD2     H 5131   1.608   4.642   0.193 -0.4784 -0.8402  0.0192
  342MPD2    H1 5132   1.451   0.226   0.435  1.2696 -0.1662  0.2622
  342MPD2    H2 5133   1.355   4.544   0.519 -3.0778  2.0168  0.7498
  342MPD2    H3 5134   1.330   0.059   0.563  0.8853  1.3679  0.5674
  342MPD2     N 5135   1.594   0.184   0.210 -0.3343  0.8597  0.3813
  342MPD2    H5 5136   1.575   0.280   0.235  0.5515  1.1551 -0.0736
  342MPD2    N1 5137   1.497   4.442   0.312  0.1569 -0.3765  0.4909
  342MPD2    H7 5138   1.562   4.426   0.235 -0.1115  1.1776 -0.0722
  343TMC3    C1 5139   1.471   4.215   0.311 -0.1977  0.2384 -0.1710
  343TMC3    C2 5140   1.597   4.218   0.268  0.1270  0.1522 -0.3032
  343TMC3    C3 5141   1.642   4.143   0.160  0.3684 -0.3870 -0.0647
  343TMC3    C4 5142   1.388   4.135   0.250  0.3906  0.5413  1.0085
  343TMC3    C5 5143   1.435   4.048   0.151  0.0698 -0.5491  0.4370
  343TMC3    C6 5144   1.562   4.050   0.104 -0.0148  0.5194  0.0361
  343TMC3     C 5145   1.422   4.333   0.363 -0.1432 -0.2540 -0.0033
  343TMC3     O 5146   1.314   4.330   0.428 -0.4146 -0.3847  0.4426
  343TMC3     H 5147   1.677   4.277   0.310  2.2043 -1.4048 -2.0439
  343TMC3    H1 5148   1.286   4.131   0.288  0.2148  2.4236  0.7215
  343TMC3    H2 5149   1.603   3.977   0.035  1.2654  1.3801 -0.1179
  343TMC3    C7 5150   1.345   3.957   0.089  0.7410 -0.0853  0.0755
  343TMC3    C8 5151   1.756   4.195   0.088 -0.5988 -0.4135  0.2805
  343TMC3    O1 5152   1.378   3.860   0.019 -0.0212  0.1100 -0.4632
  343TMC3    O2 5153   1.808   4.299   0.127  0.3644 -0.2428  0.1857
  344MPD2     C 5154   2.534   4.140  11.431 -0.1616  0.3888 -0.6485
  344MPD2    C1 5155   2.582   4.057  11.333 -0.2745  0.3943 -0.3735
  344MPD2    C2 5156   2.613   4.112  11.211  0.2550 -0.3620  1.1204
  344MPD2    C3 5157   2.604   4.247  11.191 -0.0795  0.0179 -0.3097
  344MPD2    C4 5158   2.583   4.327  11.297 -0.5076  0.3404 -0.2639
  344MPD2    C5 5159   2.534   4.276  11.411 -0.0497 -0.1423  0.0084
  344MPD2     H 5160   2.625   4.038  11.132  0.3386 -0.1835  0.9665
  344MPD2    H1 5161   2.593   4.435  11.289 -0.2678  0.3736  0.4955
  344MPD2    H2 5162   2.510   4.106  11.531 -2.7137  0.2753 -1.2786
  344MPD2    H3 5163   2.501   4.340  11.492 -0.1745 -1.2389  0.8165
  344MPD2     N 5164   2.643   4.300  11.067 -0.8720  0.0348 -0.1641
  344MPD2    H5 5165   2.638   4.401  11.066  1.5838  0.1602  0.0636
  344MPD2    N1 5166   2.598   3.914  11.340 -0.1695 -0.3775  0.8258
  344MPD2    H7 5167   2.639   3.862  11.263  1.7716 -0.3083  1.8114
  345TMC3    C1 5168   2.712   4.292  10.840 -0.4617  0.2855 -0.6432
  345TMC3    C2 5169   2.793   4.399  10.860 -0.1847  0.3191  0.5436
  345TMC3    C3 5170   2.868   4.448  10.747  0.7600 -0.1579  0.1178
  345TMC3    C4 5171   2.722   4.217  10.717  0.3800  0.0316  0.0002
  345TMC3    C5 5172   2.794   4.267  10.614 -0.1254  0.0838 -0.3826
  345TMC3    C6 5173   2.868   4.382  10.625 -0.5865  0.4668  0.6711
  345TMC3     C 5174   2.659   4.227  10.951 -0.0655 -0.3097 -0.2435
  345TMC3     O 5175   2.641   4.105  10.932 -0.4599 -0.0741  0.1694
  345TMC3     H 5176   2.783   4.475  10.936 -0.8044  0.2906  0.4878
  345TMC3    H1 5177   2.659   4.129  10.711  1.4607 -1.0566  4.6001
  345TMC3    H2 5178   2.916   4.428  10.539 -2.1006 -1.3219 -1.1324
  345TMC3    C7 5179   2.746   4.232  10.480  0.3141  0.2080  0.6595
  345TMC3    C8 5180   2.928   4.582  10.747 -0.1228  0.8428  0.7232
  345TMC3    O1 5181   2.658   4.150  10.495 -0.0046 -0.3260  0.5512
  345TMC3    O2 5182   2.942   4.632  10.636  0.1979 -0.1887 -0.3148
  346MPD2     C 5183   3.072   0.511  13.504 -0.1722 -0.1571 -0.1773
  346MPD2    C1 5184   3.065   0.646  13.513  0.5087 -0.1670  0.0953
  346MPD2    C2 5185   3.007   0.691  13.630  0.4467  0.4013 -0.3541
  346MPD2    C3 5186   2.965   0.614  13.733 -0.1041  0.2574 -0.8794
  346MPD2    C4 5187   2.972   0.483  13.718 -0.2065  0.3414 -0.3452
  346MPD2    C5 5188   3.023   0.435  13.602 -0.8449  0.1604  0.2600
  346MPD2     H 5189   2.999   0.799  13.636 -0.1031  0.5002 -2.6324
  346MPD2    H1 5190   2.934   0.406  13.785  0.9282  1.3157  1.4327
  346MPD2    H2 5191   3.099   0.457  13.414 -0.6696  0.6977 -0.8390
  346MPD2    H3 5192   3.010   0.328  13.593  1.4306  0.0657 -1.7322
  346MPD2     N 5193   2.905   0.682  13.840  0.6883 -0.0174  0.1845
  346MPD2    H5 5194   2.900   0.783  13.838 -0.7891 -0.1062 -0.5308
  346MPD2    N1 5195   3.116   0.734  13.411 -0.2042 -0.2376 -0.5465
  346MPD2    H7 5196   3.089   0.832  13.417 -1.0176 -0.3841 -1.6744
  347TMC3    C1 5197   2.803   0.715  14.043 -0.4065 -0.1001  0.1176
  347TMC3    C2 5198   2.855   0.713  14.168  0.0914  0.1063 -0.0416
  347TMC3    C3 5199   2.853   0.821  14.242 -0.1700  0.3544 -0.1207
  347TMC3    C4 5200   2.730   0.826  14.001  0.4163 -0.0034  0.2509
  347TMC3    C5 5201   2.723   0.932  14.082 -0.1320  0.0818 -0.8254
  347TMC3    C6 5202   2.790   0.936  14.201 -0.9099  0.9973  0.3994
  347TMC3     C 5203   2.875   0.621  13.958  0.1292 -0.0248 -0.9716
  347TMC3     O 5204   2.916   0.516  14.006  0.7359  0.0950 -0.0710
  347TMC3     H 5205   2.910   0.625  14.200  0.0406  0.3340  0.6610
  347TMC3    H1 5206   2.699   0.834  13.898  0.5209  2.8339  0.4335
  347TMC3    H2 5207   2.793   1.023  14.265 -0.2661  0.6208  0.8822
  347TMC3    C7 5208   2.640   1.049  14.052  0.0470 -0.3355  0.9211
  347TMC3    C8 5209   2.972   0.845  14.332 -0.7216  0.2465 -0.6379
  347TMC3    O1 5210   2.620   1.129  14.143  0.3297  0.1763 -0.2440
  347TMC3    O2 5211   3.073   0.785  14.297  0.2578  0.1968  0.4787
  348MPD2     C 5212   1.147   0.399  12.291  0.1375  0.6381  0.0625
  348MPD2    C1 5213   1.260   0.478  12.273  0.0980  0.0495  0.1040
  348MPD2    C2 5214   1.293   0.510  12.139 -0.1426  0.2618 -0.9075
  348MPD2    C3 5215   1.218   0.465  12.036 -0.0136 -0.2941 -0.2359
  348MPD2    C4 5216   1.103   0.396  12.058 -0.2760 -0.6594 -0.3041
  348MPD2    C5 5217   1.068   0.362  12.185 -0.2653 -0.4981 -0.0938
  348MPD2     H 5218   1.390   0.553  12.118  0.6931 -1.0977  0.2380
  348MPD2    H1 5219   1.028   0.367  11.984 -2.0084  0.9769  0.8117
  348MPD2    H2 5220   1.104   0.366  12.385  2.0093 -0.9227  0.3516
  348MPD2    H3 5221   0.977   0.307  12.200 -0.5799 -0.7047 -2.8356
  348MPD2     N 5222   1.249   0.504  11.905 -0.5154  0.3502  0.5153
  348MPD2    H5 5223   1.331   0.564  11.904 -1.5773  1.8199  2.4481
  348MPD2    N1 5224   1.343   0.522  12.374  0.5312 -0.3089 -0.2478
  348MPD2    H7 5225   1.431   0.563  12.345  0.9272 -0.4067  0.7879
  349TMC3    C1 5226   1.467   0.514  12.576 -0.4585  0.4250 -0.5224
  349TMC3    C2 5227   1.536   0.421  12.655 -0.9851  0.4627  0.1751
  349TMC3    C3 5228   1.675   0.415  12.644 -0.8463 -0.2025  0.1072
  349TMC3    C4 5229   1.536   0.619  12.518 -0.2461 -0.3171 -0.6057
  349TMC3    C5 5230   1.671   0.607  12.511 -0.1947  0.7974  0.0495
  349TMC3    C6 5231   1.748   0.510  12.574  0.0434 -0.5602 -0.1490
  349TMC3     C 5232   1.346   0.478  12.506  0.1408  0.5969 -0.5405
  349TMC3     O 5233   1.274   0.396  12.563 -0.5131  0.0997  0.4334
  349TMC3     H 5234   1.486   0.338  12.704 -0.9847 -1.2912 -2.7974
  349TMC3    H1 5235   1.480   0.706  12.487  1.8651  2.0164  2.1709
  349TMC3    H2 5236   1.854   0.509  12.553 -0.0225 -0.3189 -0.5020
  349TMC3    C7 5237   1.700   0.616  12.369 -0.7274 -0.0835 -0.1873
  349TMC3    C8 5238   1.734   0.298  12.712 -0.4618 -0.7858  0.0025
  349TMC3    O1 5239   1.598   0.587  12.306  0.2661 -0.0583  0.1793
  349TMC3    O2 5240   1.669   0.224  12.782  0.2856 -0.0007 -0.0377
  350MPD2     C 5241   0.920   2.711   9.867  0.1866 -0.2035 -0.0376
  350MPD2    C1 5242   0.784   2.726   9.894 -0.7261  0.3859 -0.2296
  350MPD2    C2 5243   0.747   2.821   9.993 -0.0254 -0.0235  0.4891
  350MPD2    C3 5244   0.842   2.907  10.050 -0.4569 -0.2454  0.2648
  350MPD2    C4 5245   0.974   2.892  10.008 -0.2954 -0.1561 -0.6069
  350MPD2    C5 5246   1.012   2.799   9.914  0.6960  0.1825 -0.4018
  350MPD2     H 5247   0.646   2.836  10.027 -0.2919 -0.9188  0.1006
  350MPD2    H1 5248   1.054   2.960  10.035  0.5697 -1.7919  0.9421
  350MPD2    H2 5249   0.963   2.638   9.800  0.3443  0.3328 -0.5207
  350MPD2    H3 5250   1.115   2.805   9.879  0.7263 -0.4439 -0.4095
  350MPD2     N 5251   0.812   3.006  10.144  0.0611 -0.5392  0.2393
  350MPD2    H5 5252   0.894   3.050  10.186  0.2821 -1.8138  1.1652
  350MPD2    N1 5253   0.677   2.656   9.835  0.4221  0.6462 -0.3803
  350MPD2    H7 5254   0.584   2.688   9.862 -0.4420 -1.9091 -0.3220
  351TMC3    C1 5255   0.559   2.489   9.695  0.1594  0.8218  0.6945
  351TMC3    C2 5256   0.575   2.384   9.606 -0.5797 -0.2367  0.4967
  351TMC3    C3 5257   0.471   2.294   9.599 -0.1793 -0.5855 -0.6181
  351TMC3    C4 5258   0.444   2.500   9.766  0.6365  0.6883 -0.2872
  351TMC3    C5 5259   0.349   2.405   9.746  1.1304  0.0885 -0.1762
  351TMC3    C6 5260   0.355   2.300   9.663  0.1514 -0.1345  0.9442
  351TMC3     C 5261   0.682   2.555   9.740 -0.0711 -0.4676  0.3058
  351TMC3     O 5262   0.780   2.509   9.683 -0.7210 -0.3368  0.2714
  351TMC3     H 5263   0.664   2.358   9.550 -0.2058  1.2419  0.4069
  351TMC3    H1 5264   0.443   2.585   9.834 -2.6669  0.8455 -0.5099
  351TMC3    H2 5265   0.274   2.231   9.645 -0.9058  1.7340 -1.4913
  351TMC3    C7 5266   0.232   2.408   9.830 -0.1967  0.5317  0.8662
  351TMC3    C8 5267   0.500   2.174   9.522 -0.8193  0.3067 -0.5874
  351TMC3    O1 5268   0.159   2.309   9.813  0.1894  0.0630  0.1161
  351TMC3    O2 5269   0.616   2.127   9.516 -0.2027 -0.4541 -0.2149
  352MPD2     C 5270   2.710   0.290   1.302 -0.1594 -0.0412 -0.1891
  352MPD2    C1 5271   2.766   0.341   1.190 -0.6443 -0.0196  0.2191
  352MPD2    C2 5272   2.899   0.312   1.161 -0.3207 -0.3397 -0.3103
  352MPD2    C3 5273   2.957   0.216   1.237  0.4649  0.3835 -0.1013
  352MPD2    C4 5274   2.890   0.162   1.347  0.2211 -0.1309  0.2711
  352MPD2    C5 5275   2.764   0.201   1.385 -0.8358  0.4584 -0.0759
  352MPD2     H 5276   2.950   0.362   1.079 -2.8646  0.8994 -1.1349
  352MPD2    H1 5277   2.943   0.092   1.410  1.0136  0.0007 -0.2491
  352MPD2    H2 5278   2.610   0.321   1.329 -0.6164 -0.9563 -0.8476
  352MPD2    H3 5279   2.714   0.142   1.461 -0.5659  2.0475  1.3399
  352MPD2     N 5280   3.082   0.165   1.203  0.0687 -0.3856 -0.0183
  352MPD2    H5 5281   3.111   0.083   1.257 -1.7490 -1.0948 -0.1208
  352MPD2    N1 5282   2.688   0.443   1.128  0.3097 -0.0053 -0.1669
  352MPD2    H7 5283   2.603   0.463   1.180  0.7419 -1.3597  1.0546
  353TMC3    C1 5284   3.289   0.151   1.087 -0.1770  0.1219  0.1888
  353TMC3    C2 5285   3.342   0.062   1.175 -0.2525 -0.6847 -0.7582
  353TMC3    C3 5286   3.430   4.695   1.139 -0.7274 -0.1909 -0.3635
  353TMC3    C4 5287   3.345   0.150   0.958 -0.3343 -0.0782  0.8860
  353TMC3    C5 5288   3.437   0.064   0.925 -0.5377 -0.7429  0.7238
  353TMC3    C6 5289   3.477   4.688   1.011 -0.4871 -0.8466  0.5469
  353TMC3     C 5290   3.167   0.223   1.113  0.0974  0.3047 -0.6112
  353TMC3     O 5291   3.159   0.319   1.036  0.0379  0.1601 -0.0048
  353TMC3     H 5292   3.301   0.059   1.275  0.0764 -1.2096 -0.6438
  353TMC3    H1 5293   3.306   0.217   0.883  1.1935 -0.8166 -0.5699
  353TMC3    H2 5294   3.556   4.623   0.977 -0.2125 -0.3325  0.1960
  353TMC3    C7 5295   3.464   0.043   0.787 -0.4140  0.1415  0.0214
  353TMC3    C8 5296   3.481   4.602   1.236 -0.1438 -0.0471 -0.6358
  353TMC3    O1 5297   3.481   4.651   0.749  0.3196 -0.0580  0.3904
  353TMC3    O2 5298   3.480   4.629   1.358  0.3239 -0.0746 -0.4960
  354TMC3    C1 5299   0.779   1.720  13.413  0.3542  0.2244 -0.5511
  354TMC3    C2 5300   0.701   1.727  13.298 -0.2419  0.2824 -0.6815
  354TMC3    C3 5301   0.758   1.760  13.177  0.1510  0.6548  0.5594
  354TMC3    C4 5302   0.910   1.766  13.416  0.2229  0.5451  0.8164
  354TMC3    C5 5303   0.957   1.814  13.292 -0.0181  0.4416 -0.1665
  354TMC3    C6 5304   0.891   1.794  13.173  0.5303  0.4068 -0.2697
  354TMC3     C 5305   0.714   1.754  13.538 -0.1939  0.9006 -0.0229
  354TMC3     O 5306   0.622   1.833  13.545  0.5298 -0.4626  0.6548
  354TMC3     H 5307   0.595   1.705  13.306 -0.1060 -0.0213  0.2953
  354TMC3    H1 5308   0.949   1.797  13.513  1.2846  0.7014  0.3308
  354TMC3    H2 5309   0.942   1.823  13.082 -0.1071  1.9653 -0.1301
  354TMC3    C7 5310   1.011   1.945  13.300 -0.3884 -0.3449 -0.4383
  354TMC3    C8 5311   0.687   1.820  13.070  0.0792  0.2866 -0.3023
  354TMC3    O1 5312   1.071   1.988  13.398 -0.1008  0.0239  0.2552
  354TMC3    O2 5313   0.760   1.851  12.974 -0.0865 -0.0201 -0.1787
  355MPD2     C 5314   0.712   2.414  11.357  0.1174 -0.4516 -0.3083
  355MPD2    C1 5315   0.826   2.447  11.289  0.3501 -0.1326  0.6210
  355MPD2    C2 5316   0.944   2.390  11.338 -0.2468  0.0222 -0.2874
  355MPD2    C3 5317   0.951   2.305  11.441 -0.6791 -0.6588 -0.3118
  355MPD2    C4 5318   0.834   2.270  11.507  0.0781  0.1763  0.0469
  355MPD2    C5 5319   0.720   2.332  11.468 -0.3711 -0.0983  0.3898
  355MPD2     H 5320   1.040   2.413  11.292  1.4755 -0.4634  3.0359
  355MPD2    H1 5321   0.832   2.212  11.598  1.5529 -0.3126 -0.2202
  355MPD2    H2 5322   0.616   2.452  11.323  0.7967  0.8533 -0.7517
  355MPD2    H3 5323   0.623   2.318  11.515 -1.7654 -0.0414 -2.4443
  355MPD2     N 5324   1.073   2.255  11.487  0.2332 -0.1887 -0.6209
  355MPD2    H5 5325   1.071   2.190  11.564  0.6515 -1.0267 -1.3194
  355MPD2    N1 5326   0.839   2.538  11.186 -0.3274  0.0559 -0.4956
  355MPD2    H7 5327   0.930   2.541  11.139 -0.1361 -0.2521 -0.1432
  356TMC3    C1 5328   1.297   2.302  11.552  0.1363  0.5259  0.1921
  356TMC3    C2 5329   1.425   2.322  11.506  0.0454 -0.1359 -0.6354
  356TMC3    C3 5330   1.520   2.385  11.587 -0.2485  0.2928  0.7316
  356TMC3    C4 5331   1.263   2.340  11.679  0.0670  0.2481 -0.9595
  356TMC3    C5 5332   1.358   2.399  11.755 -0.2008 -0.2022  0.0862
  356TMC3    C6 5333   1.486   2.434  11.711  0.1321 -0.0348 -0.6477
  356TMC3     C 5334   1.201   2.300  11.439  0.0933  0.5427 -0.4037
  356TMC3     O 5335   1.233   2.349  11.331  0.4879 -0.0016  0.2384
  356TMC3     H 5336   1.451   2.284  11.407 -0.1435  2.1749 -1.5721
  356TMC3    H1 5337   1.163   2.318  11.714  0.2002  1.1234 -0.0255
  356TMC3    H2 5338   1.562   2.473  11.777 -0.8079  0.2026  0.2938
  356TMC3    C7 5339   1.331   2.411  11.889  0.5355 -0.1078  0.0998
  356TMC3    C8 5340   1.623   2.455  11.513 -0.4965 -0.8064  0.3397
  356TMC3    O1 5341   1.241   2.342  11.931  0.4840  0.2705  0.1067
  356TMC3    O2 5342   1.641   2.415  11.397 -0.0140  0.5179 -0.2548
  357MPD2     C 5343   0.377   2.233   1.513  0.1356  0.4594 -0.2317
  357MPD2    C1 5344   0.447   2.176   1.615  0.3637 -0.1538  0.6488
  357MPD2    C2 5345   0.432   2.222   1.744  0.6718  0.1560 -0.6522
  357MPD2    C3 5346   0.329   2.301   1.775 -0.2007 -0.0098  0.1968
  357MPD2    C4 5347   0.245   2.345   1.671  0.2627  0.0615  0.2526
  357MPD2    C5 5348   0.272   2.311   1.540 -0.4389  0.7439  0.6222
  357MPD2     H 5349   0.500   2.184   1.820  0.5271  0.7589 -0.2235
  357MPD2    H1 5350   0.160   2.409   1.691  0.9255  0.8585  0.4920
  357MPD2    H2 5351   0.397   2.209   1.409 -1.8857 -1.0000 -0.3007
  357MPD2    H3 5352   0.201   2.353   1.470  0.6627 -0.0648 -0.9763
  357MPD2     N 5353   0.296   2.331   1.909  1.1216 -0.1250 -0.3224
  357MPD2    H5 5354   0.207   2.377   1.925  0.8157 -0.5596 -0.7341
  357MPD2    N1 5355   0.545   2.080   1.587 -0.3618 -0.8125  0.5386
  357MPD2    H7 5356   0.551   2.060   1.487 -0.7737 -0.4342  0.4397
  358TMC3    C1 5357   0.737   1.941   1.603 -0.4752  0.4889 -0.1590
  358TMC3    C2 5358   0.754   1.968   1.468 -0.0611  0.7681 -0.2037
  358TMC3    C3 5359   0.868   1.917   1.408 -0.2244  0.6594  0.4072
  358TMC3    C4 5360   0.836   1.882   1.682 -0.4639  0.1707  0.2927
  358TMC3    C5 5361   0.944   1.830   1.617 -0.3083  0.2998 -0.1023
  358TMC3    C6 5362   0.954   1.835   1.479  0.6978  0.7618 -0.2560
  358TMC3     C 5363   0.625   2.006   1.675  0.6985 -0.6017 -0.2015
  358TMC3     O 5364   0.611   1.984   1.794 -0.1713 -0.6151  0.0439
  358TMC3     H 5365   0.690   2.033   1.409 -0.1840  0.8838  0.0581
  358TMC3    H1 5366   0.825   1.872   1.789  2.1229  0.4283  0.5837
  358TMC3    H2 5367   1.052   1.805   1.443 -0.0347 -1.4261 -0.4483
  358TMC3    C7 5368   1.067   1.795   1.687  0.8379 -0.1229 -0.1048
  358TMC3    C8 5369   0.863   1.909   1.268 -0.6930  0.6008  0.0391
  358TMC3    O1 5370   1.140   1.711   1.631 -0.1542  0.5612 -0.6840
  358TMC3    O2 5371   0.838   2.009   1.204  0.4067  0.3043 -0.5013
  359MPD2     C 5372   0.987   0.697  12.269 -1.0315 -0.1772 -0.2311
  359MPD2    C1 5373   0.919   0.761  12.168  0.5701  0.6615  0.3969
  359MPD2    C2 5374   0.781   0.748  12.172  0.8712 -0.4327 -0.4901
  359MPD2    C3 5375   0.718   0.684  12.283 -0.4940  0.6123 -1.3299
  359MPD2    C4 5376   0.792   0.625  12.384  0.0048 -0.1549  0.3533
  359MPD2    C5 5377   0.928   0.630  12.371  1.1377 -0.0249 -0.2077
  359MPD2     H 5378   0.724   0.783  12.086  1.5603  1.6869 -0.0809
  359MPD2    H1 5379   0.746   0.582  12.472 -1.1915  0.2754 -0.0658
  359MPD2    H2 5380   1.096   0.701  12.275 -0.9129 -2.3728 -0.9394
  359MPD2    H3 5381   0.989   0.577  12.444 -1.4972 -2.6254  0.1317
  359MPD2     N 5382   0.578   0.665  12.295 -0.3611 -0.2446  0.0086
  359MPD2    H5 5383   0.535   0.624  12.378 -0.0229  2.2101  1.4191
  359MPD2    N1 5384   0.976   0.839  12.066  0.2037 -0.2835  0.6129
  359MPD2    H7 5385   0.913   0.882  11.999  3.0142  0.3881 -1.5751
  360TMC3    C1 5386   1.135   0.947  11.942 -0.6144  0.6255 -0.2179
  360TMC3    C2 5387   1.230   1.049  11.948 -0.1421 -0.2053  0.3708
  360TMC3    C3 5388   1.214   1.145  11.852  0.7110  0.4046 -0.3284
  360TMC3    C4 5389   1.069   0.919  11.831 -0.9011  0.7456 -0.2423
  360TMC3    C5 5390   1.075   1.003  11.719  0.1518 -0.2813  0.0292
  360TMC3    C6 5391   1.146   1.119  11.740 -0.6956 -0.3224  0.2132
  360TMC3     C 5392   1.108   0.871  12.058 -0.7276 -0.6970 -0.1785
  360TMC3     O 5393   1.190   0.867  12.148 -0.4078  0.6756  0.4308
  360TMC3     H 5394   1.283   1.061  12.042  0.6626 -0.2847 -0.0705
  360TMC3    H1 5395   1.005   0.831  11.827 -0.9313  0.7565 -0.0384
  360TMC3    H2 5396   1.144   1.186  11.655 -0.4928 -1.8106 -0.9662
  360TMC3    C7 5397   1.057   0.957  11.582 -0.3568  0.4464  0.6623
  360TMC3    C8 5398   1.297   1.264  11.846 -0.1092  0.2780  0.1241
  360TMC3    O1 5399   1.080   1.041  11.495  0.0172 -0.1388 -0.1742
  360TMC3    O2 5400   1.239   1.362  11.798 -0.1628 -0.6531  0.2386
  361MPD2     C 5401   2.516   4.537  16.439  0.7279  0.1923  0.2749
  361MPD2    C1 5402   2.560   4.634  16.527 -0.5316 -0.2495 -0.1753
  361MPD2    C2 5403   2.677   4.608  16.589 -0.4822  0.0366 -0.2139
  361MPD2    C3 5404   2.737   4.485  16.585  0.0819 -0.2218 -0.4517
  361MPD2    C4 5405   2.691   4.389  16.500  0.3350 -0.4360 -0.0316
  361MPD2    C5 5406   2.575   4.416  16.423  0.6856  0.2712  0.3627
  361MPD2     H 5407   2.709   4.682  16.662  1.6389 -0.1480 -0.9427
  361MPD2    H1 5408   2.733   4.291  16.482 -0.2678 -0.8930  1.0569
  361MPD2    H2 5409   2.436   4.560  16.370  0.3150 -2.3211 -0.0658
  361MPD2    H3 5410   2.536   4.346  16.351 -0.9104 -1.3824  2.8799
  361MPD2     N 5411   2.854   4.456  16.656 -0.1636  0.2596 -0.2126
  361MPD2    H5 5412   2.874   4.357  16.647 -2.9733 -0.4603  1.2957
  361MPD2    N1 5413   2.499   0.033  16.557  0.0442  0.0364  0.0576
  361MPD2    H7 5414   2.554   0.076  16.630 -0.0996 -0.6181  0.5526
  362TMC3    C1 5415   2.347   0.207  16.555 -1.1224  0.0850 -0.4291
  362TMC3    C2 5416   2.387   0.239  16.678  0.2422 -0.0454  0.6404
  362TMC3    C3 5417   2.369   0.372  16.705 -0.1992  0.2174  0.5149
  362TMC3    C4 5418   2.322   0.292  16.453  0.2108  0.2452  0.0359
  362TMC3    C5 5419   2.307   0.421  16.487 -0.1067 -0.0503 -0.3505
  362TMC3    C6 5420   2.320   0.462  16.615  0.0044  0.1583 -0.4135
  362TMC3     C 5421   2.385   0.081  16.502 -0.5155  0.5329  0.0420
  362TMC3     O 5422   2.334   0.039  16.400  0.0407  0.5587 -0.5928
  362TMC3     H 5423   2.416   0.171  16.758 -0.4840 -0.1281  0.8346
  362TMC3    H1 5424   2.294   0.256  16.355  2.5950  1.1536 -0.9910
  362TMC3    H2 5425   2.299   0.564  16.643 -1.6517  0.5883 -3.3150
  362TMC3    C7 5426   2.248   0.510  16.393  0.4195  0.5976 -0.4966
  362TMC3    C8 5427   2.437   0.424  16.829 -0.5062  0.2269  0.9109
  362TMC3    O1 5428   2.160   0.582  16.433  0.1291 -0.3477  0.0470
  362TMC3    O2 5429   2.544   0.377  16.865 -0.0108  0.2385 -0.2634
  363TMC3    C1 5430   1.325   2.440   9.721 -0.1760  0.4940 -1.2052
  363TMC3    C2 5431   1.455   2.436   9.761 -0.1471 -0.2943 -0.5501
  363TMC3    C3 5432   1.541   2.537   9.733 -0.3655  0.6831  0.2690
  363TMC3    C4 5433   1.268   2.557   9.683  0.4111  0.2026 -0.5281
  363TMC3    C5 5434   1.352   2.661   9.655  0.0611  0.0132  0.3933
  363TMC3    C6 5435   1.486   2.657   9.679 -0.5235  0.2984  0.3396
  363TMC3     C 5436   1.233   2.332   9.759  0.6457 -0.0969  0.4429
  363TMC3     O 5437   1.130   2.361   9.818 -0.1106 -0.4831 -0.8541
  363TMC3     H 5438   1.484   2.357   9.829 -0.8404 -2.1954 -2.4577
  363TMC3    H1 5439   1.162   2.557   9.659  0.2861 -0.5376  0.0367
  363TMC3    H2 5440   1.551   2.733   9.638 -1.3961  0.9605  0.1830
  363TMC3    C7 5441   1.283   2.787   9.633  0.6819 -0.0110 -0.0276
  363TMC3    C8 5442   1.681   2.517   9.748  0.3440  0.4088  0.2080
  363TMC3    O1 5443   1.171   2.777   9.592 -0.3223  0.1753 -0.4942
  363TMC3    O2 5444   1.761   2.607   9.737 -0.5628 -0.5515  0.0827
  364MPD2     C 5445   0.085   2.270  10.983 -0.0281 -0.6187 -0.2983
  364MPD2    C1 5446   0.134   2.240  10.854  0.0843  0.3462  0.0489
  364MPD2    C2 5447   0.154   2.104  10.821 -0.2177 -0.3758 -0.5234
  364MPD2    C3 5448   0.132   2.011  10.918 -0.5950  0.3024 -0.2126
  364MPD2    C4 5449   0.091   2.044  11.047 -0.2583 -0.2682 -0.4660
  364MPD2    C5 5450   0.061   2.175  11.080  0.1980 -0.3974  0.1294
  364MPD2     H 5451   0.203   2.074  10.729 -0.8973  1.6023 -1.5187
  364MPD2    H1 5452   0.080   1.971  11.126 -0.1647  0.6021  0.3568
  364MPD2    H2 5453   0.079   2.373  11.015  0.9106 -0.1374 -1.6673
  364MPD2    H3 5454   0.024   2.204  11.177 -0.4044 -2.1704  0.4328
  364MPD2     N 5455   0.140   1.874  10.897 -0.6629  0.4639  0.2613
  364MPD2    H5 5456   0.109   1.812  10.971 -0.2572 -0.0581 -0.0055
  364MPD2    N1 5457   0.145   2.345  10.754  0.4229  0.2157 -0.1509
  364MPD2    H7 5458   0.124   2.437  10.792 -1.0204  0.8732 -2.4933
  365TMC3    C1 5459   0.224   2.454  10.550 -0.5772 -0.1591 -0.1540
  365TMC3    C2 5460   0.268   2.440  10.425  0.1824 -0.7353 -1.4350
  365TMC3    C3 5461   0.297   2.554  10.357 -0.3283 -0.2916 -0.1773
  365TMC3    C4 5462   0.210   2.570  10.617  0.4295  0.4624 -0.2247
  365TMC3    C5 5463   0.247   2.681  10.552  0.3099  0.2745 -0.0244
  365TMC3    C6 5464   0.279   2.677  10.416 -0.3056 -0.0856  0.0196
  365TMC3     C 5465   0.177   2.329  10.617  0.8743  0.3605 -0.7974
  365TMC3     O 5466   0.162   2.227  10.553  0.1727 -0.1449 -0.1814
  365TMC3     H 5467   0.284   2.346  10.374 -0.1240 -0.2650 -2.3980
  365TMC3    H1 5468   0.210   2.571  10.725  1.1597 -0.5545 -0.2230
  365TMC3    H2 5469   0.308   2.768  10.365 -0.2679  0.4933  1.0600
  365TMC3    C7 5470   0.250   2.810  10.610 -0.0939  0.2471 -0.7505
  365TMC3    C8 5471   0.399   2.544  10.254 -0.4727  0.6207  0.4196
  365TMC3    O1 5472   0.315   2.898  10.555 -0.6142  0.1076  0.2261
  365TMC3    O2 5473   0.469   2.641  10.231  0.5826 -0.1897 -0.1477
  366MPD2     C 5474   3.016   2.736  15.596  0.3726  0.2523  0.2477
  366MPD2    C1 5475   3.070   2.852  15.652  0.0922  0.0524  0.3531
  366MPD2    C2 5476   3.209   2.853  15.696  0.8129  0.4138  0.3328
  366MPD2    C3 5477   3.292   2.746  15.672  0.6089  0.7818 -0.4964
  366MPD2    C4 5478   3.234   2.640  15.609 -0.1951 -0.2800  0.2933
  366MPD2    C5 5479   3.101   2.630  15.586  0.6785  0.3189 -0.5867
  366MPD2     H 5480   3.246   2.951  15.725  2.5573 -0.5755  1.4383
  366MPD2    H1 5481   3.289   2.546  15.601 -2.4185 -1.3995 -1.7821
  366MPD2    H2 5482   2.921   2.719  15.547  0.3437  1.3902 -0.1016
  366MPD2    H3 5483   3.069   2.536  15.542  0.4099 -0.6252  1.6595
  366MPD2     N 5484   3.431   2.729  15.716 -0.3110 -0.1631  0.1002
  366MPD2    H5 5485   3.469   2.636  15.702 -0.6043 -0.6458  2.5723
  366MPD2    N1 5486   2.997   2.974  15.667 -0.1000 -0.2264  0.2705
  366MPD2    H7 5487   3.043   3.049  15.717 -2.1195  1.1107  0.1455
  367TMC3    C1 5488   2.814   3.118  15.686  0.0736 -0.0138 -0.4799
  367TMC3    C2 5489   2.839   3.158  15.812 -0.2930 -0.3466 -0.9298
  367TMC3    C3 5490   2.796   3.274  15.849 -0.0567  0.0397 -0.4290
  367TMC3    C4 5491   2.723   3.182  15.606  0.0329 -0.1441 -0.4772
  367TMC3    C5 5492   2.674   3.301  15.654  0.0812  0.1953 -0.2204
  367TMC3    C6 5493   2.715   3.349  15.772  0.3532 -0.6776  0.5943
  367TMC3     C 5494   2.863   2.998  15.631 -0.1044  0.4576 -0.8462
  367TMC3     O 5495   2.802   2.925  15.556  0.0799  0.4504 -0.2871
  367TMC3     H 5496   2.918   3.106  15.866  0.8513 -1.1058 -3.3188
  367TMC3    H1 5497   2.719   3.154  15.502  0.9720 -4.0790  0.5549
  367TMC3    H2 5498   2.677   3.447  15.799 -2.5997 -1.7676  0.4278
  367TMC3    C7 5499   2.655   3.405  15.554 -0.6036 -0.5991  0.4499
  367TMC3    C8 5500   2.885   3.347  15.941 -0.3723  0.0371  0.4011
  367TMC3    O1 5501   2.688   3.520  15.584  0.0536 -0.3071  0.7123
  367TMC3    O2 5502   2.974   3.275  15.993  0.5764 -0.0070 -0.0289
  368MPD2     C 5503   4.655   0.417  13.390  0.1667 -0.7340 -0.3504
  368MPD2    C1 5504   4.673   0.514  13.299  0.7428 -0.0256 -0.1780
  368MPD2    C2 5505   0.046   0.610  13.314  0.9269 -0.6216  0.3260
  368MPD2    C3 5506   0.134   0.600  13.423  0.0863  0.2876  0.0789
  368MPD2    C4 5507   0.119   0.496  13.517  0.2119  0.3105  0.1392
  368MPD2    C5 5508   0.021   0.398  13.496 -0.0461 -0.5096 -0.0017
  368MPD2     H 5509   0.065   0.666  13.223  0.7204  1.3614  1.5018
  368MPD2    H1 5510   0.194   0.473  13.591 -0.3444 -1.7121  0.0749
  368MPD2    H2 5511   4.594   0.329  13.372 -3.2991  1.8134 -0.8477
  368MPD2    H3 5512   0.007   0.319  13.569  2.7707 -1.3673 -0.3961
  368MPD2     N 5513   0.258   0.664  13.413  0.0027 -0.2134 -0.4434
  368MPD2    H5 5514   0.342   0.636  13.463  0.8017 -1.7010 -2.6437
  368MPD2    N1 5515   4.584   0.528  13.191 -0.2635 -0.1588 -0.1445
  368MPD2    H7 5516   4.501   0.471  13.200  0.7634 -1.6678 -0.3653
  369TMC3    C1 5517   4.470   0.583  13.002  0.1985  0.1583  1.1268
  369TMC3    C2 5518   4.404   0.685  12.942  0.4931  0.3417 -0.6943
  369TMC3    C3 5519   4.290   0.658  12.877  0.4445  0.1398  0.1177
  369TMC3    C4 5520   4.411   0.455  13.006  0.3093  0.4743 -0.3818
  369TMC3    C5 5521   4.300   0.429  12.936 -0.2842  0.4156 -1.3627
  369TMC3    C6 5522   4.233   0.532  12.877 -0.4642 -0.6341 -0.1689
  369TMC3     C 5523   4.581   0.616  13.089 -0.1695 -0.0302  0.0880
  369TMC3     O 5524   4.630   0.723  13.062 -0.1807 -0.1009 -0.2714
  369TMC3     H 5525   4.440   0.786  12.955  0.8761  0.1099  0.0334
  369TMC3    H1 5526   4.462   0.372  13.056 -0.4092 -1.2935 -2.6056
  369TMC3    H2 5527   4.126   0.524  12.858 -0.3052  1.1059 -1.8141
  369TMC3    C7 5528   4.213   0.343  13.014 -0.4403 -0.3535 -0.4981
  369TMC3    C8 5529   4.217   0.750  12.805  1.2569  0.1531  0.4273
  369TMC3    O1 5530   4.241   0.327  13.130 -0.1227  0.1638 -0.2706
  369TMC3    O2 5531   4.132   0.700  12.734 -0.0644  0.5613 -0.4145
  370TMC3    C1 5532   3.554   1.152  16.185  0.0425  0.2067 -0.3621
  370TMC3    C2 5533   3.486   1.068  16.265  0.6016  0.2053 -0.4080
  370TMC3    C3 5534   3.458   0.936  16.239 -0.9349 -0.6136  0.4437
  370TMC3    C4 5535   3.591   1.112  16.062 -0.2087  0.6662 -0.1075
  370TMC3    C5 5536   3.570   0.975  16.035 -0.4672 -0.0012  0.5876
  370TMC3    C6 5537   3.507   0.887  16.119 -0.6193 -0.0865  0.6035
  370TMC3     C 5538   3.535   1.294  16.205  0.9453 -0.5202  0.0474
  370TMC3     O 5539   3.429   1.329  16.241 -0.2786 -0.6929 -0.0452
  370TMC3     H 5540   3.454   1.117  16.356 -0.6888  0.4900 -1.0241
  370TMC3    H1 5541   3.635   1.177  15.987  2.1553 -0.4408  0.3036
  370TMC3    H2 5542   3.496   0.781  16.095 -3.1922  0.3912 -0.3448
  370TMC3    C7 5543   3.620   0.942  15.902  0.2130 -0.0033  0.3550
  370TMC3    C8 5544   3.413   0.841  16.343  0.1120 -0.6438 -0.7862
  370TMC3    O1 5545   3.676   1.034  15.846 -0.5976 -0.4013  0.3706
  370TMC3    O2 5546   3.410   0.722  16.322  0.0848  0.3997  0.2124
  371TMC3    C1 5547   0.222   4.186  15.260 -0.5710  0.4333  0.2238
  371TMC3    C2 5548   0.085   4.185  15.282  0.1285 -0.4972  0.8007
  371TMC3    C3 5549   0.016   4.303  15.290 -0.3747 -0.3689 -0.5222
  371TMC3    C4 5550   0.287   4.306  15.242 -0.1753  0.0049  0.1220
  371TMC3    C5 5551   0.218   4.423  15.260 -0.7412 -0.1163  0.0393
  371TMC3    C6 5552   0.085   4.427  15.288 -0.4991 -0.3919 -0.4550
  371TMC3     C 5553   0.304   4.078  15.292  0.7636  0.1588 -0.0873
  371TMC3     O 5554   0.424   4.085  15.277  0.4911 -0.4888  0.0872
  371TMC3     H 5555   0.028   4.093  15.276  0.4253 -0.6339  0.0249
  371TMC3    H1 5556   0.395   4.303  15.251 -0.2908 -2.3821  0.7182
  371TMC3    H2 5557   0.037   4.523  15.303  3.6106  1.4495  0.9593
  371TMC3    C7 5558   0.289   4.544  15.260  0.0439 -0.3528 -0.4291
  371TMC3    C8 5559   4.599   4.301  15.331  0.3052 -0.0401 -0.3041
  371TMC3    O1 5560   0.255   4.638  15.331  0.6192  0.1945  0.3497
  371TMC3    O2 5561   4.536   4.211  15.274 -0.2421 -0.3394  0.1493
  372MPD2     C 5562   4.245   0.759  13.256  0.0235 -0.0143 -0.1272
  372MPD2    C1 5563   4.359   0.789  13.323  0.2804  0.9209  0.1351
  372MPD2    C2 5564   4.399   0.704  13.421 -0.3191  0.4120 -0.1774
  372MPD2    C3 5565   4.331   0.589  13.454  0.0763  1.0971 -0.6011
  372MPD2    C4 5566   4.217   0.556  13.385 -0.4394 -0.5621  0.1465
  372MPD2    C5 5567   4.175   0.642  13.287  0.4236 -0.0841  0.3029
  372MPD2     H 5568   4.486   0.728  13.482 -0.1289 -1.2699  0.2279
  372MPD2    H1 5569   4.149   0.474  13.404 -0.3915 -0.1480  2.1138
  372MPD2    H2 5570   4.200   0.811  13.171 -2.8071  0.1018  1.4310
  372MPD2    H3 5571   4.089   0.604  13.234  0.7422 -1.1125  0.5213
  372MPD2     N 5572   4.383   0.501  13.557 -0.4186  0.2539  0.0398
  372MPD2    H5 5573   4.451   0.549  13.615 -0.7673  1.7147 -0.7554
  372MPD2    N1 5574   4.439   0.904  13.293  0.0689 -0.2953 -0.3104
  372MPD2    H7 5575   4.521   0.913  13.353  0.2447  1.8659 -0.8642
  373TMC3    C1 5576   4.408   0.321  13.706 -0.1662 -0.6276  0.2981
  373TMC3    C2 5577   4.381   0.396  13.813 -0.1250  0.4313  0.8026
  373TMC3    C3 5578   4.431   0.349  13.931 -0.6307  1.0661 -0.3857
  373TMC3    C4 5579   4.482   0.207  13.701  0.5054  0.1784 -1.0498
  373TMC3    C5 5580   4.526   0.167  13.824  0.1291  0.4468 -0.2792
  373TMC3    C6 5581   4.513   0.242  13.936  0.3774  0.1334  0.4929
  373TMC3     C 5582   4.348   0.372  13.585 -1.1998  0.3758  0.1288
  373TMC3     O 5583   4.275   0.292  13.528  0.4106  0.3708  0.1047
  373TMC3     H 5584   4.312   0.480  13.810 -1.9111 -1.0505  0.3624
  373TMC3    H1 5585   4.505   0.149  13.613 -0.3684 -0.9756 -0.5236
  373TMC3    H2 5586   4.562   0.215  14.029 -0.5052 -1.3132  0.5431
  373TMC3    C7 5587   4.631   0.061  13.814 -0.2051  0.3252  0.4055
  373TMC3    C8 5588   4.410   0.433  14.050 -0.3859  0.8981 -0.2789
  373TMC3    O1 5589   4.692   0.059  13.708 -0.0294  0.4890  0.4578
  373TMC3    O2 5590   4.497   0.443  14.137  0.1468  0.1554 -0.6845
  374TMC3    C1 5591   0.556   4.604   9.905  0.2616 -0.2587  0.2119
  374TMC3    C2 5592   0.694   4.633   9.904 -0.4683 -0.4885  0.5653
  374TMC3    C3 5593   0.768   4.573   9.809 -0.1057  0.6329  0.5212
  374TMC3    C4 5594   0.498   4.513   9.818  0.1015  0.3564 -0.6202
  374TMC3    C5 5595   0.581   4.455   9.718  0.3318  0.2241 -0.5033
  374TMC3    C6 5596   0.718   4.486   9.717 -0.0042 -0.7875  0.5530
  374TMC3     C 5597   0.482   4.631  10.029  0.1409  0.1634 -0.4882
  374TMC3     O 5598   0.524   0.003  10.093  0.4753  0.0281  0.1621
  374TMC3     H 5599   0.730   4.692   9.988  0.2894 -1.1697  0.7076
  374TMC3    H1 5600   0.391   4.499   9.812 -0.0697  0.7662  1.7364
  374TMC3    H2 5601   0.783   4.444   9.640  0.1025 -2.5668  1.6183
  374TMC3    C7 5602   0.517   4.387   9.613  0.5086 -0.6339  0.1165
  374TMC3    C8 5603   0.913   4.592   9.811 -0.8065 -0.0722  0.4030
  374TMC3    O1 5604   0.400   4.354   9.627 -0.3340  0.4038 -0.3905
  374TMC3    O2 5605   0.986   4.545   9.722  0.3025  0.1623  0.3382
  375MPD2     C 5606   0.324   1.006  17.341  0.0397 -0.5080  0.5477
  375MPD2    C1 5607   0.252   1.024  17.222 -0.6841 -0.4452 -0.5179
  375MPD2    C2 5608   0.322   1.026  17.105 -0.5476  0.0822 -0.1838
  375MPD2    C3 5609   0.462   1.019  17.109  0.3497 -0.0750  0.3903
  375MPD2    C4 5610   0.535   1.017  17.226  0.0983  0.1917 -0.7030
  375MPD2    C5 5611   0.466   0.994  17.341  0.0829 -0.4410  0.4785
  375MPD2     H 5612   0.264   1.046  17.015  0.1876  2.3192 -0.1586
  375MPD2    H1 5613   0.643   1.025  17.222  0.3232 -2.1228  1.0000
  375MPD2    H2 5614   0.269   1.015  17.433  0.6833  2.5610  0.6206
  375MPD2    H3 5615   0.512   0.997  17.439 -0.2737  0.1415  0.6261
  375MPD2     N 5616   0.542   1.021  16.994 -0.1293  0.2273 -0.2418
  375MPD2    H5 5617   0.643   1.028  17.002  0.0233  0.6827 -2.6203
  375MPD2    N1 5618   0.115   1.060  17.211 -0.4891  0.7040  0.5461
  375MPD2    H7 5619   0.070   1.046  17.121 -0.5781  1.8708  0.4084
  376TMC3    C1 5620   0.591   0.989  16.763  0.1127  0.0463  0.2643
  376TMC3    C2 5621   0.688   1.087  16.768  0.1242  0.2818 -0.1801
  376TMC3    C3 5622   0.765   1.113  16.653 -0.2557  1.1055 -0.4675
  376TMC3    C4 5623   0.577   0.911  16.651 -0.7395 -0.2091  0.1869
  376TMC3    C5 5624   0.663   0.936  16.543 -0.1505 -0.0298 -0.1043
  376TMC3    C6 5625   0.754   1.036  16.537  0.4258  0.0760  0.7043
  376TMC3     C 5626   0.494   0.984  16.872  0.4350  0.0994 -0.1304
  376TMC3     O 5627   0.395   0.914  16.856  0.4135 -0.3382 -0.6070
  376TMC3     H 5628   0.687   1.151  16.855  2.0858  0.9441 -0.6330
  376TMC3    H1 5629   0.506   0.830  16.656 -0.0603 -0.7362  1.2072
  376TMC3    H2 5630   0.821   1.036  16.451  2.5760  0.1634  2.3931
  376TMC3    C7 5631   0.617   0.867  16.422  0.1367  0.1078 -0.4908
  376TMC3    C8 5632   0.858   1.224  16.645 -0.0255  0.4107  0.7008
  376TMC3    O1 5633   0.556   0.763  16.436  0.1131  0.1275  0.8845
  376TMC3    O2 5634   0.894   1.255  16.530  0.2469 -0.2059 -0.0707
  377MPD2     C 5635   3.818   0.560  12.835 -0.0902 -0.3291 -1.0708
  377MPD2    C1 5636   3.748   0.589  12.727  0.3218  0.0803  0.6297
  377MPD2    C2 5637   3.610   0.608  12.743 -0.5439  0.0945 -0.0932
  377MPD2    C3 5638   3.539   0.571  12.856  0.3769  0.5776 -0.2405
  377MPD2    C4 5639   3.615   0.527  12.963  0.4636  0.2120 -0.0079
  377MPD2    C5 5640   3.752   0.522  12.952  0.6375 -1.0348 -0.4210
  377MPD2     H 5641   3.559   0.648  12.656 -2.3818 -0.2536  0.8362
  377MPD2    H1 5642   3.570   0.499  13.057  0.3607 -2.6871 -0.9135
  377MPD2    H2 5643   3.924   0.536  12.827  0.4083  0.3749  3.0663
  377MPD2    H3 5644   3.800   0.478  13.038  1.8526  2.3458  0.6350
  377MPD2     N 5645   3.395   0.579  12.872 -0.2114  0.3439 -0.0300
  377MPD2    H5 5646   3.354   0.525  12.948  0.6780 -1.1565 -0.6197
  377MPD2    N1 5647   3.819   0.618  12.604  0.2201 -0.2072  0.3400
  377MPD2    H7 5648   3.919   0.604  12.611  0.1956 -1.5223 -1.8579
  378TMC3    C1 5649   3.884   0.503  12.161 -0.3874 -0.4145 -0.4732
  378TMC3    C2 5650   3.801   0.555  12.255  0.3055 -0.0617 -0.4609
  378TMC3    C3 5651   3.861   0.602  12.369  0.4829 -0.2044 -0.0077
  378TMC3    C4 5652   4.019   0.494  12.176 -0.0316  0.1947 -0.7015
  378TMC3    C5 5653   4.074   0.546  12.296 -0.1125 -0.0374  0.3558
  378TMC3    C6 5654   3.994   0.595  12.390 -0.0459 -0.0924 -0.2888
  378TMC3     C 5655   3.825   0.449  12.038 -0.7439 -0.1714 -0.7785
  378TMC3     O 5656   3.878   0.359  11.977  0.3938  0.0877  0.3272
  378TMC3     H 5657   3.693   0.542  12.253  0.4609 -1.5129  0.5068
  378TMC3    H1 5658   4.075   0.470  12.086  0.3061 -0.0429 -0.4314
  378TMC3    H2 5659   4.043   0.655  12.466 -2.4521  0.1372  1.0787
  378TMC3    C7 5660   4.203   0.620  12.289 -0.3760 -0.1097 -0.9891
  378TMC3    C8 5661   3.762   0.622  12.477 -0.2802  0.0408 -0.1062
  378TMC3    O1 5662   4.245   0.701  12.369 -0.2730  0.2254  0.2528
  378TMC3    O2 5663   3.645   0.626  12.441 -0.3504 -0.2004  0.1425
  379MPD2     C 5664   4.217   3.631  16.140  0.4076  0.6400  0.4539
  379MPD2    C1 5665   4.103   3.580  16.206 -0.4748  0.0043 -0.4755
  379MPD2    C2 5666   4.101   3.537  16.337  0.1311  0.6855  0.3234
  379MPD2    C3 5667   4.220   3.530  16.396 -0.4433  0.2963 -0.1028
  379MPD2    C4 5668   4.328   3.594  16.346 -0.0071  0.2267  0.6562
  379MPD2    C5 5669   4.331   3.646  16.218  0.6599 -0.3291 -0.4404
  379MPD2     H 5670   4.009   3.497  16.378 -0.5974  1.7698 -0.2826
  379MPD2    H1 5671   4.422   3.609  16.399 -0.6259  0.9145  1.5596
  379MPD2    H2 5672   4.216   3.664  16.036  2.5800 -0.0195  0.2338
  379MPD2    H3 5673   4.415   3.685  16.163  0.9105 -2.0037 -1.2239
  379MPD2     N 5674   4.233   3.458  16.520  0.5099  0.0619  0.6299
  379MPD2    H5 5675   4.323   3.466  16.566  0.6885  0.1286  0.2733
  379MPD2    N1 5676   3.990   3.577  16.128 -0.0843  0.1177 -0.1180
  379MPD2    H7 5677   3.986   3.600  16.029 -1.9339  0.4212  0.0230
  380TMC3    C1 5678   3.762   3.586  16.083  0.2898 -0.0616 -0.0165
  380TMC3    C2 5679   3.786   3.529  15.956  0.7736 -0.3757  0.1553
  380TMC3    C3 5680   3.685   3.542  15.867  0.2261 -0.6755  0.5152
  380TMC3    C4 5681   3.644   3.637  16.125 -0.4881  0.3027 -0.0699
  380TMC3    C5 5682   3.543   3.640  16.026 -0.1195 -0.6793 -0.0480
  380TMC3    C6 5683   3.565   3.589  15.901  0.2894  0.1701 -0.5928
  380TMC3     C 5684   3.862   3.576  16.184 -0.7047 -0.5541  0.4829
  380TMC3     O 5685   3.823   3.596  16.300 -0.1451  0.1214 -0.7091
  380TMC3     H 5686   3.880   3.486  15.924  1.0739  0.6547 -0.3208
  380TMC3    H1 5687   3.623   3.674  16.225  0.6044  0.1612  0.2118
  380TMC3    H2 5688   3.486   3.591  15.828  0.3496 -0.8934 -0.6877
  380TMC3    C7 5689   3.415   3.686  16.065 -0.0825  0.1854  0.1348
  380TMC3    C8 5690   3.692   3.496  15.732 -0.2118 -0.1245  0.0804
  380TMC3    O1 5691   3.422   3.756  16.168 -0.1334  0.0638 -0.2824
  380TMC3    O2 5692   3.611   3.525  15.645 -0.5653  0.1782  0.2908
  381TMC3    C1 5693   3.268   0.250  16.041  0.0228  0.2228  0.3702
  381TMC3    C2 5694   3.401   0.296  16.026  0.2134  0.3245  0.8157
  381TMC3    C3 5695   3.462   0.362  16.133 -0.6657 -0.8778  0.2684
  381TMC3    C4 5696   3.192   0.279  16.149 -0.4327  0.0995 -0.4481
  381TMC3    C5 5697   3.263   0.345  16.247  0.3160  0.9185 -0.1171
  381TMC3    C6 5698   3.395   0.388  16.242  0.2245  0.3914  0.1262
  381TMC3     C 5699   3.211   0.159  15.939  0.7439 -0.5521  0.2486
  381TMC3     O 5700   3.279   0.082  15.872 -0.6545 -0.1896  0.8702
  381TMC3     H 5701   3.454   0.264  15.937  0.9301 -1.6705  1.9708
  381TMC3    H1 5702   3.091   0.250  16.176 -0.5717  1.5062  0.5852
  381TMC3    H2 5703   3.456   0.401  16.330 -0.5630  2.1186  0.4239
  381TMC3    C7 5704   3.224   0.299  16.378  0.3956 -0.2609 -0.0783
  381TMC3    C8 5705   3.598   0.403  16.114 -0.3847 -0.4185  0.8517
  381TMC3    O1 5706   3.245   0.182  16.400 -0.2122  0.1326  0.3442
  381TMC3    O2 5707   3.653   0.383  16.006 -0.2038  0.4957  0.5924
  382MPD2     C 5708   2.272   2.857  16.805  0.2566 -0.0129 -0.2044
  382MPD2    C1 5709   2.340   2.825  16.918  0.4954  0.2565 -0.0399
  382MPD2    C2 5710   2.375   2.690  16.938 -0.3361  0.2103 -0.3401
  382MPD2    C3 5711   2.345   2.594  16.848  0.4235  0.0464 -0.1472
  382MPD2    C4 5712   2.283   2.626  16.729 -0.2343  0.2097  0.1193
  382MPD2    C5 5713   2.232   2.749  16.721 -0.2808  0.0699  0.0195
  382MPD2     H 5714   2.428   2.664  17.029  0.7512 -0.8484 -1.2769
  382MPD2    H1 5715   2.258   2.545  16.661  0.8084  1.7273 -2.0407
  382MPD2    H2 5716   2.229   2.953  16.777  0.1156  0.4383  1.6063
  382MPD2    H3 5717   2.152   2.772  16.651  1.9609 -1.1764 -2.9652
  382MPD2     N 5718   2.394   2.463  16.864  0.3929 -0.1353 -0.2672
  382MPD2    H5 5719   2.362   2.395  16.795  0.6087  0.6373 -1.1368
  382MPD2    N1 5720   2.382   2.921  17.015  0.0919  0.1199  0.8056
  382MPD2    H7 5721   2.444   2.896  17.091  1.9435  2.8440  0.1647
  383TMC3    C1 5722   2.502   2.272  16.970  0.0302 -0.2934  0.3047
  383TMC3    C2 5723   2.387   2.206  16.972  0.2250 -0.2407  0.3750
  383TMC3    C3 5724   2.374   2.108  17.067 -0.0838 -1.1114  0.4155
  383TMC3    C4 5725   2.605   2.247  17.060 -0.0400 -0.2772 -0.3111
  383TMC3    C5 5726   2.591   2.140  17.148 -0.1587 -0.1228 -0.8474
  383TMC3    C6 5727   2.475   2.071  17.155  0.4928  0.1163  0.4588
  383TMC3     C 5728   2.482   2.409  16.959 -0.4899 -0.1938 -1.0436
  383TMC3     O 5729   2.533   2.470  17.055 -0.4125  0.0577  0.2426
  383TMC3     H 5730   2.294   2.247  16.934 -0.0724  1.3558  2.8639
  383TMC3    H1 5731   2.696   2.306  17.054 -1.2721  1.6003 -0.9247
  383TMC3    H2 5732   2.461   2.000  17.236 -0.5361 -2.0132 -1.6036
  383TMC3    C7 5733   2.640   2.181  17.278 -0.2097 -0.3843 -0.0111
  383TMC3    C8 5734   2.261   2.028  17.043 -0.4464  0.4118 -0.1109
  383TMC3    O1 5735   2.661   2.095  17.365 -0.2309  0.2142  0.0335
  383TMC3    O2 5736   2.177   2.057  16.959  0.3587  0.1833  0.4138
  384MPD2     C 5737   4.356   3.944  12.331  0.3016 -0.0901  0.2591
  384MPD2    C1 5738   4.302   3.820  12.384 -0.1899  0.2397 -0.2514
  384MPD2    C2 5739   4.391   3.718  12.418 -0.1753 -0.3383  0.0918
  384MPD2    C3 5740   4.525   3.716  12.384 -0.1026 -0.5309 -0.4678
  384MPD2    C4 5741   4.580   3.831  12.332  0.1238  0.0602  0.2484
  384MPD2    C5 5742   4.494   3.938  12.309 -0.4024  0.3670  0.4405
  384MPD2     H 5743   4.351   3.625  12.459 -1.0989  0.0028 -0.0356
  384MPD2    H1 5744   4.687   3.844  12.318  0.1043 -0.5362 -0.4909
  384MPD2    H2 5745   4.297   4.029  12.298  0.3579 -0.3937 -0.6332
  384MPD2    H3 5746   4.528   4.034  12.272  2.9385  0.0759  2.7941
  384MPD2     N 5747   4.590   3.591  12.422 -0.3608  0.6352  0.2488
  384MPD2    H5 5748   4.535   3.515  12.461 -0.7700  1.2439  0.8510
  384MPD2    N1 5749   4.169   3.801  12.408 -0.0741  0.5418 -0.0011
  384MPD2    H7 5750   4.154   3.709  12.448 -0.3948 -0.3539 -2.1521
  385TMC3    C1 5751   0.012   3.417  12.422  0.2788  0.1994 -0.0478
  385TMC3    C2 5752   0.027   3.352  12.302 -0.4297  0.3141 -0.0195
  385TMC3    C3 5753   4.673   3.247  12.267  0.2544 -1.0416 -0.8441
  385TMC3    C4 5754   4.663   3.348  12.515 -0.4463  0.4002  0.3814
  385TMC3    C5 5755   4.581   3.239  12.476  0.1649  0.1572 -0.5251
  385TMC3    C6 5756   4.580   3.193  12.355  0.4859  0.0750 -0.0675
  385TMC3     C 5757   4.724   3.560  12.399  0.8974  0.2170 -0.0892
  385TMC3     O 5758   0.084   3.624  12.346  0.8197  0.4741  0.2657
  385TMC3     H 5759   0.097   3.396  12.231 -1.1778 -0.0785 -1.0086
  385TMC3    H1 5760   4.659   3.383  12.618 -1.3432 -1.0006  0.8291
  385TMC3    H2 5761   4.498   3.135  12.313 -0.1414  1.3620 -0.6155
  385TMC3    C7 5762   4.447   3.273  12.512 -0.0820  0.5056  0.3025
  385TMC3    C8 5763   4.673   3.198  12.127 -0.5212 -0.1493  1.3903
  385TMC3    O1 5764   4.422   3.395  12.524 -0.3307  0.3118  0.3422
  385TMC3    O2 5765   4.621   3.092  12.093  0.3809  0.4878 -0.1913
  386TMC3    C1 5766   0.454   0.691  11.677 -0.0757 -0.7187 -0.8349
  386TMC3    C2 5767   0.452   0.657  11.544 -0.1542  0.5583  0.4552
  386TMC3    C3 5768   0.338   0.654  11.473  0.2899 -0.0083  0.7586
  386TMC3    C4 5769   0.340   0.731  11.734  1.1350 -0.0864  0.2359
  386TMC3    C5 5770   0.228   0.735  11.663  0.1326 -0.3178  0.0244
  386TMC3    C6 5771   0.223   0.693  11.527 -0.0592 -0.4437 -0.4089
  386TMC3     C 5772   0.551   0.632  11.763  1.0012  0.0166 -0.0547
  386TMC3     O 5773   0.636   0.704  11.812  0.1629  0.1982  0.3136
  386TMC3     H 5774   0.538   0.617  11.492 -1.3701  1.5975 -2.3719
  386TMC3    H1 5775   0.340   0.770  11.836 -0.5494  1.9718 -0.5491
  386TMC3    H2 5776   0.128   0.703  11.477  0.1704  0.2937 -0.6916
  386TMC3    C7 5777   0.115   0.799  11.725  0.3765  0.3949 -0.8013
  386TMC3    C8 5778   0.335   0.703  11.341 -0.2203  0.0961 -0.0438
  386TMC3    O1 5779   0.006   0.765  11.685 -1.2088 -0.3046 -0.3242
  386TMC3    O2 5780   0.234   0.675  11.275  0.4896  0.8281 -0.5112
  387MPD2     C 5781   2.582   0.759   9.663 -0.1389  0.1885  0.4124
  387MPD2    C1 5782   2.715   0.743   9.680 -0.2016  0.5458  0.3019
  387MPD2    C2 5783   2.769   0.619   9.641  0.0079  0.5128  0.3020
  387MPD2    C3 5784   2.691   0.511   9.603 -0.2833  0.9529  0.3947
  387MPD2    C4 5785   2.555   0.528   9.605 -0.3112  0.7653  0.2242
  387MPD2    C5 5786   2.504   0.649   9.631 -0.2444 -0.3429  0.1765
  387MPD2     H 5787   2.868   0.600   9.680 -1.7751 -0.6526  4.3164
  387MPD2    H1 5788   2.478   0.456   9.579 -1.6219  1.8916  1.0225
  387MPD2    H2 5789   2.532   0.852   9.686 -0.3860 -0.3188  1.9710
  387MPD2    H3 5790   2.398   0.668   9.616 -0.2873 -0.9928 -0.3239
  387MPD2     N 5791   2.752   0.379   9.602 -0.1599 -0.2570  0.1863
  387MPD2    H5 5792   2.852   0.375   9.615  0.0743  1.2901 -1.1276
  387MPD2    N1 5793   2.805   0.839   9.735 -0.7357  0.1735  0.9565
  387MPD2    H7 5794   2.904   0.819   9.724 -0.9468  0.3891 -1.4675
  388TMC3    C1 5795   2.894   1.030   9.850 -0.4812 -0.0010 -0.3085
  388TMC3    C2 5796   2.856   1.112   9.956  0.2459 -0.6371 -0.4453
  388TMC3    C3 5797   2.945   1.126  10.063 -0.3262 -0.5862 -0.4556
  388TMC3    C4 5798   3.005   0.949   9.859 -0.0789  0.0232 -0.0926
  388TMC3    C5 5799   3.082   0.962   9.978 -0.4909  0.0874  0.3142
  388TMC3    C6 5800   3.051   1.048  10.077 -0.1230 -0.5719  0.5254
  388TMC3     C 5801   2.772   0.959   9.800  0.1504 -0.0113 -0.0560
  388TMC3     O 5802   2.658   1.005   9.814 -0.1024  0.6363 -0.4494
  388TMC3     H 5803   2.758   1.157   9.969  0.7481  0.6608 -1.1199
  388TMC3    H1 5804   3.054   0.906   9.773  1.1089 -0.6497  0.9173
  388TMC3    H2 5805   3.111   1.049  10.167  0.4955 -1.3402  0.1220
  388TMC3    C7 5806   3.181   0.858   9.998  0.1171  0.1266 -0.1972
  388TMC3    C8 5807   2.927   1.231  10.160  0.1156 -0.0687 -0.5075
  388TMC3    O1 5808   3.270   0.872  10.082 -0.2465 -0.1995 -0.5147
  388TMC3    O2 5809   2.956   1.207  10.276 -0.0177 -0.4760  0.4939
  389MPD2     C 5810   1.949   4.086  10.877 -0.8626  0.2369  0.2322
  389MPD2    C1 5811   1.945   3.972  10.799  0.1140 -0.5857  0.7506
  389MPD2    C2 5812   1.916   3.850  10.854  0.2155  0.3668 -0.0879
  389MPD2    C3 5813   1.882   3.837  10.985 -0.2777  0.0344 -0.2475
  389MPD2    C4 5814   1.879   3.949  11.067  0.4142  0.2176 -0.1349
  389MPD2    C5 5815   1.909   4.075  11.012  0.2150  0.0809 -0.0659
  389MPD2     H 5816   1.901   3.759  10.797 -2.5575  0.8473 -0.1539
  389MPD2    H1 5817   1.857   3.940  11.172 -2.1627  1.3309 -0.5708
  389MPD2    H2 5818   1.973   4.183  10.836 -0.9216  0.0836 -0.1607
  389MPD2    H3 5819   1.897   4.164  11.074  1.7088 -0.6550  1.2754
  389MPD2     N 5820   1.836   3.717  11.048  0.1642 -0.1279 -0.1890
  389MPD2    H5 5821   1.822   3.716  11.148 -0.2598  1.5898 -0.2244
  389MPD2    N1 5822   1.967   3.999  10.661  0.1612  0.1866  0.3410
  389MPD2    H7 5823   1.998   4.095  10.646 -0.7641  0.4719  0.2835
  390TMC3    C1 5824   1.713   3.519  11.062  0.6544  0.4457 -0.3552
  390TMC3    C2 5825   1.604   3.476  10.989 -0.1737  0.3289  0.2955
  390TMC3    C3 5826   1.565   3.346  11.005 -0.2280 -0.4063  0.2352
  390TMC3    C4 5827   1.776   3.443  11.156  0.2093 -0.9620 -0.2626
  390TMC3    C5 5828   1.735   3.311  11.172  0.2287  0.2181 -0.0138
  390TMC3    C6 5829   1.633   3.263  11.091 -0.4638  0.4463 -0.5963
  390TMC3     C 5830   1.790   3.611  10.981 -0.0665 -0.4155  0.1000
  390TMC3     O 5831   1.794   3.576  10.865  0.2241 -0.4939 -0.2689
  390TMC3     H 5832   1.557   3.539  10.915 -3.7616 -0.5551  1.8465
  390TMC3    H1 5833   1.863   3.485  11.204 -0.0913 -0.9320  0.2560
  390TMC3    H2 5834   1.589   3.164  11.097  0.0165  0.3363  1.2446
  390TMC3    C7 5835   1.749   3.250  11.303 -0.5262  0.0665  0.3521
  390TMC3    C8 5836   1.432   3.303  10.963 -0.1985  0.1836 -0.4210
  390TMC3    O1 5837   1.757   3.325  11.394  0.3095 -0.1824  0.1587
  390TMC3    O2 5838   1.410   3.185  10.962 -0.8049  0.1595  0.0336
  391MPD2     C 5839   0.883   0.338  11.192  0.2546  0.1722  0.4769
  391MPD2    C1 5840   1.010   0.388  11.190  0.1962 -0.3333 -0.5823
  391MPD2    C2 5841   1.075   0.392  11.068  0.5837 -0.0759 -0.4752
  391MPD2    C3 5842   1.011   0.351  10.953  0.0410  0.6225 -0.4926
  391MPD2    C4 5843   0.880   0.305  10.961 -0.1416 -0.2588  0.5643
  391MPD2    C5 5844   0.811   0.306  11.083  0.3717  0.4468 -0.2120
  391MPD2     H 5845   1.166   0.449  11.050  0.7716  0.8631  3.3682
  391MPD2    H1 5846   0.824   0.283  10.871  0.3914  0.9296 -0.0653
  391MPD2    H2 5847   0.837   0.337  11.290 -0.2017  0.6533  0.2630
  391MPD2    H3 5848   0.709   0.269  11.079  1.2422 -1.7860 -1.5655
  391MPD2     N 5849   1.079   0.362  10.828 -0.1337 -0.2771 -0.6364
  391MPD2    H5 5850   1.179   0.380  10.830 -0.1173 -0.7386  2.3918
  391MPD2    N1 5851   1.075   0.438  11.309 -0.1111 -0.2876  0.0704
  391MPD2    H7 5852   1.029   0.426  11.399 -0.4759  0.9393  0.0456
  392TMC3    C1 5853   1.121   0.380  10.587  0.4483 -0.0316  0.0302
  392TMC3    C2 5854   1.067   0.350  10.462  0.1969  0.1111 -0.4732
  392TMC3    C3 5855   1.160   0.358  10.363 -0.1632  0.0081 -0.2534
  392TMC3    C4 5856   1.250   0.416  10.613 -0.1869  0.5374  0.5777
  392TMC3    C5 5857   1.338   0.415  10.501 -0.2439  0.7265  0.0037
  392TMC3    C6 5858   1.293   0.390  10.373 -1.5343 -0.1240 -0.4949
  392TMC3     C 5859   1.023   0.371  10.701 -0.5737 -0.0131  0.7221
  392TMC3     O 5860   0.908   0.361  10.671 -0.1560  0.5022 -0.2462
  392TMC3     H 5861   0.960   0.336  10.454  0.0311  1.2470 -0.2964
  392TMC3    H1 5862   1.287   0.454  10.707  0.0611 -0.7394  0.9944
  392TMC3    H2 5863   1.353   0.417  10.286  1.0080 -0.8464  1.0319
  392TMC3    C7 5864   1.459   0.494  10.509 -0.1387 -0.3684  0.0018
  392TMC3    C8 5865   1.122   0.277  10.249  0.5739 -0.3477  0.0817
  392TMC3    O1 5866   1.463   0.581  10.600 -0.5039  0.4522 -0.7250
  392TMC3    O2 5867   1.002   0.283  10.231  0.2758 -0.6464 -0.7251
  393TMC3    C1 5868   4.414   3.500  10.343 -0.2916 -0.0150 -0.4622
  393TMC3    C2 5869   4.331   3.452  10.443 -0.1655 -0.4870  0.2338
  393TMC3    C3 5870   4.332   3.505  10.563  0.1926 -0.9026  1.1250
  393TMC3    C4 5871   4.512   3.588  10.374 -0.0213 -0.3813  0.1384
  393TMC3    C5 5872   4.518   3.644  10.497  0.1527 -0.3012  0.0683
  393TMC3    C6 5873   4.425   3.604  10.595 -0.5982 -0.5366  0.4350
  393TMC3     C 5874   4.410   3.447  10.213 -0.2197 -0.0766 -0.3305
  393TMC3     O 5875   4.510   3.463  10.142  0.0776  0.4558  0.2567
  393TMC3     H 5876   4.253   3.380  10.421  0.0009  0.2915 -2.9647
  393TMC3    H1 5877   4.582   3.616  10.296 -0.4370 -1.4791 -0.6376
  393TMC3    H2 5878   4.447   3.650  10.691  2.0554  0.3319 -0.5767
  393TMC3    C7 5879   4.635   3.711  10.545 -0.2464  0.3236  0.3945
  393TMC3    C8 5880   4.259   3.435  10.667 -0.0531  0.1442  0.0592
  393TMC3    O1 5881   4.610   3.803  10.616  0.3636 -0.0385 -0.0606
  393TMC3    O2 5882   4.203   3.334  10.634 -0.1942 -0.0666  0.0272
  394TMC3    C1 5883   1.981   3.958  10.425  0.8181 -0.0891  0.3555
  394TMC3    C2 5884   1.946   3.883  10.316  0.1790 -0.3933  0.0950
  394TMC3    C3 5885   1.976   3.931  10.192 -0.3774 -0.3303 -0.9544
  394TMC3    C4 5886   2.072   4.062  10.412  0.0047 -0.1690 -0.1560
  394TMC3    C5 5887   2.105   4.102  10.282  0.0477  0.1216  0.0258
  394TMC3    C6 5888   2.052   4.044  10.172 -0.0982  1.0318 -0.2765
  394TMC3     C 5889   1.934   3.912  10.559 -0.5960  0.3541  0.1955
  394TMC3     O 5890   1.897   3.794  10.564 -0.1067 -0.1927 -0.0702
  394TMC3     H 5891   1.891   3.791  10.330  2.2469 -1.5795  0.3096
  394TMC3    H1 5892   2.097   4.128  10.495 -1.7352  1.2113 -0.7315
  394TMC3    H2 5893   2.078   4.062  10.068 -2.2681 -1.9462 -1.3413
  394TMC3    C7 5894   2.184   4.225  10.258 -0.3975 -0.6042  0.6129
  394TMC3    C8 5895   1.994   3.838  10.088 -0.5775 -0.0356 -0.1548
  394TMC3    O1 5896   2.144   4.296  10.163 -0.3912 -0.0710  0.4931
  394TMC3    O2 5897   1.983   3.869   9.971  0.0641 -0.2163 -0.5315
  395TMC3    C1 5898   1.425   1.159  14.215  0.2880  0.3091 -0.2961
  395TMC3    C2 5899   1.302   1.170  14.273 -0.2911  0.4877  0.3379
  395TMC3    C3 5900   1.278   1.266  14.364 -0.1158 -0.0547  0.1227
  395TMC3    C4 5901   1.536   1.232  14.252 -0.0106  0.4518  0.1819
  395TMC3    C5 5902   1.506   1.334  14.341 -0.5199 -0.0698 -0.8264
  395TMC3    C6 5903   1.376   1.352  14.391  0.1635  0.4523  0.1982
  395TMC3     C 5904   1.471   1.021  14.219  0.2807 -0.7831 -0.0644
  395TMC3     O 5905   1.573   0.997  14.281  0.3832 -0.1812  0.5159
  395TMC3     H 5906   1.214   1.110  14.251 -0.1092 -0.2186  1.5238
  395TMC3    H1 5907   1.641   1.210  14.238  0.3952  1.0463  2.1620
  395TMC3    H2 5908   1.356   1.437  14.456 -1.4547 -0.0946  0.4270
  395TMC3    C7 5909   1.613   1.419  14.390  0.1305  0.0032  0.8168
  395TMC3    C8 5910   1.181   1.235  14.466 -0.2769 -1.0545 -0.5090
  395TMC3    O1 5911   1.600   1.471  14.498 -0.3743 -0.2683  0.1643
  395TMC3    O2 5912   1.148   1.328  14.535  0.8793  0.4013  0.1058
  396MPD2     C 5913   0.769   1.942  17.271 -0.4867 -1.0286 -0.8415
  396MPD2    C1 5914   0.880   2.010  17.314  0.7036 -0.9131 -0.5191
  396MPD2    C2 5915   0.941   2.105  17.232 -0.4885  0.6686 -0.4791
  396MPD2    C3 5916   0.873   2.147  17.118 -1.1264  0.0611 -0.1336
  396MPD2    C4 5917   0.753   2.090  17.081 -0.2886 -0.6032  0.1452
  396MPD2    C5 5918   0.704   1.979  17.156 -0.0920 -0.7106  0.7162
  396MPD2     H 5919   1.028   2.165  17.258 -1.4083  2.1128 -0.7100
  396MPD2    H1 5920   0.693   2.117  16.994 -1.3172  2.6302  1.8663
  396MPD2    H2 5921   0.751   1.847  17.319 -0.8760 -0.6338 -0.2179
  396MPD2    H3 5922   0.617   1.918  17.132 -0.9508  1.2770 -1.2074
  396MPD2     N 5923   0.937   2.251  17.036  0.6842  0.0638 -0.2407
  396MPD2    H5 5924   1.034   2.273  17.055 -0.4686  3.3243  2.0134
  396MPD2    N1 5925   0.939   1.971  17.437 -0.1455 -0.5728 -0.6757
  396MPD2    H7 5926   0.893   1.890  17.479 -2.4306  1.3592  0.5022
  397TMC3    C1 5927   1.119   1.930  17.595  0.5100 -0.1113  0.2860
  397TMC3    C2 5928   1.252   1.932  17.615 -0.4737  0.6274  0.4875
  397TMC3    C3 5929   1.318   1.820  17.650 -0.2265  0.0379 -0.3044
  397TMC3    C4 5930   1.054   1.812  17.630 -0.2618  1.2725 -0.6381
  397TMC3    C5 5931   1.122   1.709  17.686 -0.3027 -0.0469  0.2977
  397TMC3    C6 5932   1.260   1.705  17.698  0.4269  0.0584  0.0082
  397TMC3     C 5933   1.065   2.014  17.491  0.1715 -0.5204  0.3513
  397TMC3     O 5934   1.138   2.107  17.454  0.2954  0.0394  0.0934
  397TMC3     H 5935   1.312   2.005  17.562 -0.2968 -0.3711 -0.6816
  397TMC3    H1 5936   0.946   1.805  17.642 -0.1520  0.6009 -0.0375
  397TMC3    H2 5937   1.318   1.616   0.020  0.2702  0.2854  1.3534
  397TMC3    C7 5938   1.046   1.616   0.073 -0.4013  0.2133  0.4930
  397TMC3    C8 5939   1.457   1.835  17.669  0.3216  0.0721  0.6523
  397TMC3    O1 5940   0.925   1.600   0.054 -0.1205 -0.0871  0.0492
  397TMC3    O2 5941   1.499   1.786   0.073  0.1293 -0.5782 -0.0300
  398MPD2     C 5942   3.546   2.929  17.675 -0.2891  0.1147 -0.3714
  398MPD2    C1 5943   3.634   2.886   0.076  0.7663  0.1889  0.6708
  398MPD2    C2 5944   3.676   2.976   0.174 -0.4234  0.8265 -0.2405
  398MPD2    C3 5945   3.644   3.110   0.168  0.2307 -1.0443 -0.1006
  398MPD2    C4 5946   3.548   3.149   0.075 -0.4019 -0.0837  0.0241
  398MPD2    C5 5947   3.513   3.058  17.678 -0.5945  0.8170 -1.1834
  398MPD2     H 5948   3.726   2.937   0.262 -1.0159  0.8765  0.1167
  398MPD2    H1 5949   3.496   3.244   0.076  1.0176  0.7039 -0.9348
  398MPD2    H2 5950   3.508   2.868  17.594  1.8327 -2.6616  0.7181
  398MPD2    H3 5951   3.436   3.091  17.609 -0.7671  0.0593 -1.3555
  398MPD2     N 5952   3.680   3.193   0.272  0.1974  0.2561 -0.1132
  398MPD2    H5 5953   3.738   3.153   0.344 -0.4973  2.2454  1.5691
  398MPD2    N1 5954   3.672   2.749   0.081 -0.1120 -0.6207  0.2076
  398MPD2    H7 5955   3.748   2.730   0.146 -1.3387 -2.2665  1.1527
  399TMC3    C1 5956   3.695   2.528   0.014 -0.2565 -0.3542 -0.6911
  399TMC3    C2 5957   3.828   2.536   0.015 -0.3985  0.6671  0.2161
  399TMC3    C3 5958   3.893   2.420   0.046  0.2249  0.9987  0.3919
  399TMC3    C4 5959   3.621   2.412   0.027 -0.6098  0.4556  0.1184
  399TMC3    C5 5960   3.692   2.297   0.052 -0.2602 -0.7508  1.2586
  399TMC3    C6 5961   3.830   2.300   0.069 -0.5541 -0.0013  0.7325
  399TMC3     C 5962   3.625   2.654  17.698  0.2090 -1.0120  0.2906
  399TMC3     O 5963   3.517   2.640  17.642 -0.6883 -0.1733 -0.2712
  399TMC3     H 5964   3.876   2.631  17.693 -0.5434  0.4727 -0.9024
  399TMC3    H1 5965   3.514   2.410   0.010 -0.6007  0.3337  0.0708
  399TMC3    H2 5966   3.882   2.210   0.098  1.5108 -0.1439 -3.5918
  399TMC3    C7 5967   3.626   2.192   0.124 -0.3844  0.1440  0.5156
  399TMC3    C8 5968   4.017   2.452   0.116  0.5727 -0.6574  0.2662
  399TMC3    O1 5969   3.701   2.118   0.186  0.3761  0.0830  0.1727
  399TMC3    O2 5970   4.074   2.548   0.071 -0.3796 -0.2444  0.5492
  400TMC3    C1 5971   2.289   1.793  16.740 -0.3182 -0.3978 -0.0822
  400TMC3    C2 5972   2.236   1.669  16.753  0.3186  0.3891  0.3976
  400TMC3    C3 5973   2.102   1.650  16.710  0.7596  0.1366 -0.1349
  400TMC3    C4 5974   2.219   1.895  16.682 -0.3515 -0.0430 -0.4353
  400TMC3    C5 5975   2.084   1.880  16.651 -0.1316  0.1773  0.1848
  400TMC3    C6 5976   2.027   1.757  16.654  0.2523  0.1486 -0.3558
  400TMC3     C 5977   2.424   1.809  16.796  0.3951  0.3465 -0.2190
  400TMC3     O 5978   2.481   1.710  16.845  0.2014  0.4147  0.4266
  400TMC3     H 5979   2.287   1.584  16.796 -0.5606  0.6236  1.9322
  400TMC3    H1 5980   2.267   1.988  16.654 -0.8540  0.5402  0.6250
  400TMC3    H2 5981   1.919   1.751  16.642  0.3362  1.2285 -1.6339
  400TMC3    C7 5982   1.994   1.984  16.628 -0.0872  0.2844 -0.0928
  400TMC3    C8 5983   2.051   1.520  16.726  0.3751  0.0795 -0.0684
  400TMC3    O1 5984   1.917   1.961  16.538 -0.5473 -0.4606 -0.6668
  400TMC3    O2 5985   2.121   1.449  16.802  0.8345  0.2287 -1.5120
  401MPD2     C 5986   1.176   0.286   0.728 -0.8470  0.7803 -0.8399
  401MPD2    C1 5987   1.268   0.212   0.797 -0.2772 -0.2911  0.0987
  401MPD2    C2 5988   1.253   0.076   0.821 -0.5185 -0.3526  0.1047
  401MPD2    C3 5989   1.142   0.012   0.782  0.5705 -0.2054 -0.4594
  401MPD2    C4 5990   1.046   0.079   0.708  0.1178 -0.2451 -0.4803
  401MPD2    C5 5991   1.062   0.214   0.690  0.3831 -0.5722 -0.6218
  401MPD2     H 5992   1.331   0.023   0.874  1.0668  0.1361 -1.7069
  401MPD2    H1 5993   0.963   0.029   0.658 -1.5603  1.5799  0.5019
  401MPD2    H2 5994   1.184   0.392   0.709  0.3950  0.9459  0.5409
  401MPD2    H3 5995   0.987   0.253   0.622  1.2759  3.3854  0.6761
  401MPD2     N 5996   1.127   4.604   0.817  0.2196 -0.5860 -0.0858
  401MPD2    H5 5997   1.209   4.567   0.865  1.8266  2.4489 -0.5111
  401MPD2    N1 5998   1.384   0.275   0.852 -0.3889  0.0915  0.3196
  401MPD2    H7 5999   1.445   0.205   0.893 -0.0782  0.5291  0.6069
  402TMC3    C1 6000   1.041   4.394   0.836  0.3143 -0.0354 -0.0836
  402TMC3    C2 6001   0.970   4.328   0.929 -0.2312  1.1769 -0.3674
  402TMC3    C3 6002   1.012   4.208   0.978 -0.2710  0.0545  0.5079
  402TMC3    C4 6003   1.162   4.352   0.797 -0.0537 -0.1045 -0.0244
  402TMC3    C5 6004   1.206   4.231   0.844  0.7347  0.2014  0.9816
  402TMC3    C6 6005   1.128   4.159   0.935 -0.0491 -0.9918 -0.2590
  402TMC3     C 6006   1.011   4.528   0.811 -0.7482 -0.0806  0.3450
  402TMC3     O 6007   0.898   4.568   0.793 -0.0722 -0.0623  0.4331
  402TMC3     H 6008   0.870   4.358   0.956 -0.5758  0.1850 -0.5335
  402TMC3    H1 6009   1.214   4.412   0.723  0.3417 -1.1814 -0.6206
  402TMC3    H2 6010   1.165   4.064   0.973  0.3529 -0.3508  0.9525
  402TMC3    C7 6011   1.334   4.167   0.796 -0.4826 -0.1074  0.3961
  402TMC3    C8 6012   0.956   4.145   1.095 -0.2441  0.9030 -0.0802
  402TMC3    O1 6013   1.354   4.045   0.815 -0.1790 -0.1802 -0.2572
  402TMC3    O2 6014   1.006   4.035   1.117  0.0947 -0.4928 -0.0625
  403MPD2     C 6015   3.508   3.038  13.713 -0.0882 -0.4751  0.0849
  403MPD2    C1 6016   3.533   3.150  13.639 -0.6857  0.5845 -0.4830
  403MPD2    C2 6017   3.663   3.204  13.629  0.1153  0.8347  0.7725
  403MPD2    C3 6018   3.768   3.144  13.695 -0.5279  0.4295  0.8879
  403MPD2    C4 6019   3.737   3.035  13.778 -0.0724  0.1104  0.3857
  403MPD2    C5 6020   3.608   2.983  13.784 -0.4115  0.3179  0.3691
  403MPD2     H 6021   3.680   3.290  13.566  1.1845 -1.2673 -1.8164
  403MPD2    H1 6022   3.812   2.992  13.844 -0.7396 -1.2928  0.2333
  403MPD2    H2 6023   3.412   2.988  13.710 -0.6018  0.5052  0.1548
  403MPD2    H3 6024   3.583   2.895  13.842  0.2088  1.1172  1.8425
  403MPD2     N 6025   3.891   3.198  13.676 -0.4014 -0.2325 -0.2516
  403MPD2    H5 6026   3.901   3.286  13.626 -0.8599 -0.7769 -1.3130
  403MPD2    N1 6027   3.424   3.201  13.560 -0.0373 -0.3698 -0.9472
  403MPD2    H7 6028   3.336   3.151  13.565  0.3439 -0.9508 -0.0968
  404TMC3    C1 6029   3.309   3.303  13.389 -0.0241 -0.2281  0.2042
  404TMC3    C2 6030   3.197   3.284  13.454 -0.0733 -0.0795 -0.5392
  404TMC3    C3 6031   3.075   3.308  13.401 -0.4285 -0.2544 -0.4854
  404TMC3    C4 6032   3.306   3.333  13.261 -0.1130 -0.4754 -0.4306
  404TMC3    C5 6033   3.183   3.354  13.200  1.3796  0.2627  1.0364
  404TMC3    C6 6034   3.064   3.339  13.270 -1.2615 -0.8808  0.1867
  404TMC3     C 6035   3.436   3.285  13.454  0.2122  0.1071  0.0575
  404TMC3     O 6036   3.524   3.362  13.418  0.4894 -0.0816  0.0569
  404TMC3     H 6037   3.202   3.275  13.562 -2.3307 -1.2676 -0.5314
  404TMC3    H1 6038   3.403   3.327  13.214 -0.2483  0.0735 -0.7794
  404TMC3    H2 6039   2.965   3.354  13.228 -0.7301 -3.8219 -2.1247
  404TMC3    C7 6040   3.174   3.385  13.055 -0.6291 -0.4071  0.6575
  404TMC3    C8 6041   2.952   3.239  13.459 -0.3100  0.1595  0.2103
  404TMC3    O1 6042   3.068   3.438  13.022  0.3721 -0.1781 -0.4125
  404TMC3    O2 6043   2.841   3.277  13.425  0.2567  0.4352 -0.1742
  405MPD2     C 6044   4.310   3.806  14.294  0.5186 -0.0267  0.4531
  405MPD2    C1 6045   4.239   3.694  14.316  0.3658  0.1362 -0.4017
  405MPD2    C2 6046   4.132   3.668  14.243  0.3420 -0.5155 -0.1934
  405MPD2    C3 6047   4.083   3.760  14.151 -0.9117  0.4139 -0.5881
  405MPD2    C4 6048   4.151   3.879  14.132 -0.2853  0.3916  0.2635
  405MPD2    C5 6049   4.269   3.898  14.203 -0.7385 -0.9901  0.1934
  405MPD2     H 6050   4.068   3.581  14.250 -0.9578  0.5574  1.2208
  405MPD2    H1 6051   4.124   3.960  14.065  2.2417  2.9758  2.3723
  405MPD2    H2 6052   4.396   3.836  14.353  1.4132 -1.1010 -0.2818
  405MPD2    H3 6053   4.326   3.989  14.189 -1.1070 -0.7367  0.3312
  405MPD2     N 6054   3.955   3.733  14.097  0.2853  0.2642  0.3582
  405MPD2    H5 6055   3.902   3.653  14.132 -2.1358  0.8883 -1.9202
  405MPD2    N1 6056   4.297   3.604  14.417 -0.3957  0.1833  0.0188
  405MPD2    H7 6057   4.381   3.629  14.467  0.4707 -1.0343 -0.8355
  406TMC3    C1 6058   3.582   3.833  14.133  0.2787  0.1576  0.4385
  406TMC3    C2 6059   3.573   3.707  14.192 -0.0097 -0.3347 -0.1751
  406TMC3    C3 6060   3.644   3.604  14.136 -0.5531 -0.6064  0.0266
  406TMC3    C4 6061   3.673   3.857  14.030  0.4703 -1.1662 -0.4159
  406TMC3    C5 6062   3.764   3.761  13.998 -0.3001 -0.5886  0.2032
  406TMC3    C6 6063   3.743   3.637  14.047  0.1198 -0.5257  0.5923
  406TMC3     C 6064   3.504   3.947  14.172 -0.6569 -0.4292  0.3759
  406TMC3     O 6065   3.490   4.034  14.086  0.0538  0.1667 -0.4768
  406TMC3     H 6066   3.506   3.689  14.275  0.1786  0.4417  0.1505
  406TMC3    H1 6067   3.687   3.953  13.982 -1.3475 -1.3688 -1.3577
  406TMC3    H2 6068   3.800   3.553  14.007  0.5154  0.0156  0.0224
  406TMC3    C7 6069   3.893   3.810  14.007 -0.5249  1.0124 -0.2716
  406TMC3    C8 6070   3.701   3.502  14.224 -0.4180  0.1195 -1.0103
  406TMC3    O1 6071   3.926   3.919  13.962 -0.2749  0.0784  0.1230
  406TMC3    O2 6072   3.821   3.505  14.235 -0.1362 -0.4360 -0.4944
  407MPD2     C 6073   2.076   0.574   9.490 -0.4234 -0.5752  0.3938
  407MPD2    C1 6074   2.023   0.686   9.554 -0.3027 -0.0618  0.0953
  407MPD2    C2 6075   2.068   0.701   9.687 -0.0966 -0.5699 -1.0923
  407MPD2    C3 6076   2.149   0.608   9.749 -0.0006  0.0947 -0.3475
  407MPD2    C4 6077   2.187   0.500   9.683 -0.9203 -0.5908 -0.5438
  407MPD2    C5 6078   2.150   0.479   9.556  0.4980  0.1389  0.4216
  407MPD2     H 6079   2.033   0.785   9.745  0.7718  0.7952 -2.5237
  407MPD2    H1 6080   2.255   0.431   9.733 -0.0917  0.4098 -0.3009
  407MPD2    H2 6081   2.067   0.562   9.383  1.6504  1.6292 -0.0366
  407MPD2    H3 6082   2.197   0.398   9.501  0.7724  1.1741 -0.8744
  407MPD2     N 6083   2.183   0.633   9.886 -0.1422  0.2859 -0.0223
  407MPD2    H5 6084   2.133   0.712   9.926  0.6287  1.4873 -1.4217
  407MPD2    N1 6085   1.950   0.792   9.492 -0.1451 -0.1208 -0.8579
  407MPD2    H7 6086   1.958   0.882   9.538 -0.5116 -0.2664 -0.5049
  408TMC3    C1 6087   1.860   0.907   9.313  0.4386  0.8114 -0.0231
  408TMC3    C2 6088   1.847   0.914   9.178 -0.0309 -0.0683 -0.2448
  408TMC3    C3 6089   1.889   1.024   9.113 -0.1166 -0.0200  0.4395
  408TMC3    C4 6090   1.865   1.022   9.393 -0.1654  0.1594 -0.2646
  408TMC3    C5 6091   1.894   1.140   9.322 -0.3127 -0.5641 -0.5428
  408TMC3    C6 6092   1.912   1.138   9.185  0.1781  0.2833  0.8623
  408TMC3     C 6093   1.892   0.776   9.368 -0.4000 -0.9787  0.6258
  408TMC3     O 6094   1.880   0.677   9.301 -0.0072  0.3761  0.2822
  408TMC3     H 6095   1.833   0.820   9.126 -1.5038  1.1332 -2.0078
  408TMC3    H1 6096   1.881   1.022   9.500 -0.0533 -1.7054 -0.2917
  408TMC3    H2 6097   1.954   1.222   9.130  0.6306 -2.0367 -2.3071
  408TMC3    C7 6098   1.985   1.218   9.400 -0.1358 -0.3129  0.2105
  408TMC3    C8 6099   1.988   0.992   9.013 -0.0959 -0.6048  0.0700
  408TMC3    O1 6100   2.069   1.153   9.459 -0.0800 -0.1099 -0.8896
  408TMC3    O2 6101   1.964   0.906   8.931 -0.3870  0.1121 -0.1832
  409MPD2     C 6102   1.518   0.919  16.929  0.0566 -0.5582  0.1329
  409MPD2    C1 6103   1.582   1.014  17.001 -0.3186  0.3036  0.3203
  409MPD2    C2 6104   1.593   1.141  16.955 -0.4192  0.0243  1.3739
  409MPD2    C3 6105   1.531   1.180  16.832  0.0256  0.4327  0.1919
  409MPD2    C4 6106   1.457   1.083  16.766 -0.0784 -0.3591 -0.3983
  409MPD2    C5 6107   1.456   0.957  16.813 -0.2057  0.3601 -0.3865
  409MPD2     H 6108   1.658   1.206  17.013 -1.4622  0.1926  2.3508
  409MPD2    H1 6109   1.411   1.107  16.671  0.9393 -0.1611 -0.8355
  409MPD2    H2 6110   1.513   0.815  16.960  0.6897  0.0779  2.3175
  409MPD2    H3 6111   1.402   0.882  16.757 -1.1015 -0.1237  1.1159
  409MPD2     N 6112   1.538   1.317  16.787  0.2875  0.6987  0.0764
  409MPD2    H5 6113   1.486   1.337  16.703 -0.9874 -0.7139  0.5154
  409MPD2    N1 6114   1.659   0.989  17.117 -0.1848  0.0667 -0.4501
  409MPD2    H7 6115   1.692   1.074  17.162 -0.5691 -0.2019  0.3477
  410TMC3    C1 6116   1.586   1.556  16.805  0.2451  0.1159  0.0062
  410TMC3    C2 6117   1.614   1.647  16.902 -0.6570  0.7323  0.6621
  410TMC3    C3 6118   1.656   1.769  16.869  0.4713 -0.7907  0.6332
  410TMC3    C4 6119   1.588   1.589  16.669  0.1297 -0.0859  0.3481
  410TMC3    C5 6120   1.617   1.722  16.640  0.4767 -0.1347 -0.8095
  410TMC3    C6 6121   1.649   1.812  16.737 -0.1489  1.0525  0.2736
  410TMC3     C 6122   1.613   1.413  16.849 -0.3429  0.0792 -0.0025
  410TMC3     O 6123   1.691   1.405  16.941  0.3390 -0.0069 -0.7656
  410TMC3     H 6124   1.598   1.611  17.003 -0.9291  4.3026  1.8979
  410TMC3    H1 6125   1.577   1.521  16.585  0.7857  0.6930 -0.3605
  410TMC3    H2 6126   1.697   1.906  16.711  0.7425  0.2402 -1.0100
  410TMC3    C7 6127   1.624   1.762  16.504 -0.2918 -0.0319 -0.4254
  410TMC3    C8 6128   1.782   1.803  16.928  0.2612  0.2862  0.7509
  410TMC3    O1 6129   1.629   1.668  16.423  0.4776 -0.6987 -0.4815
  410TMC3    O2 6130   1.824   1.910  16.892  0.7531 -0.3824 -0.3073
  411MPD2     C 6131   1.996   2.108  14.347 -0.1518  0.2931  0.1010
  411MPD2    C1 6132   1.909   2.182  14.266 -0.3543 -0.3133  0.0166
  411MPD2    C2 6133   1.822   2.108  14.183  0.4608  0.1636 -0.0850
  411MPD2    C3 6134   1.826   1.975  14.174  0.1889  0.3629 -0.0756
  411MPD2    C4 6135   1.924   1.905  14.241 -0.2944 -0.4414 -0.1982
  411MPD2    C5 6136   2.001   1.973  14.337  0.3597 -0.3446  0.1857
  411MPD2     H 6137   1.764   2.160  14.107  0.7651 -0.8766 -1.0213
  411MPD2    H1 6138   1.929   1.797  14.246  2.1616 -0.2001  2.3025
  411MPD2    H2 6139   2.061   2.158  14.417 -1.8713  0.1373  1.8169
  411MPD2    H3 6140   2.068   1.919  14.403  1.2636 -0.7285 -1.0399
  411MPD2     N 6141   1.720   1.918  14.099  0.0162  0.4708 -0.1552
  411MPD2    H5 6142   1.649   1.975  14.055 -0.9790  1.5222  2.7575
  411MPD2    N1 6143   1.908   2.323  14.285 -0.4565 -0.3131  0.2867
  411MPD2    H7 6144   1.967   2.357  14.360 -1.8972  0.3455  1.1221
  412TMC3    C1 6145   1.570   1.753  14.027 -0.4748  0.0293 -0.1677
  412TMC3    C2 6146   1.504   1.644  14.081  0.4274  0.6301 -0.6204
  412TMC3    C3 6147   1.380   1.608  14.040 -0.4212 -0.1744 -0.1350
  412TMC3    C4 6148   1.527   1.812  13.908  0.3826 -0.0505  0.3098
  412TMC3    C5 6149   1.406   1.759  13.863 -0.4008 -0.2448  0.3745
  412TMC3    C6 6150   1.334   1.661  13.925  0.2752 -0.4108  0.1508
  412TMC3     C 6151   1.689   1.782  14.104  0.5355 -0.6316 -0.0259
  412TMC3     O 6152   1.728   1.698  14.186 -0.3917  0.1470 -0.6240
  412TMC3     H 6153   1.530   1.618  14.183  1.0571 -1.0531 -1.1917
  412TMC3    H1 6154   1.567   1.906  13.874  1.3247 -0.8496 -0.7525
  412TMC3    H2 6155   1.248   1.621  13.872  0.4215 -0.7740  0.1835
  412TMC3    C7 6156   1.303   1.856  13.818 -0.1591  0.5840  0.2057
  412TMC3    C8 6157   1.283   1.613  14.147  0.2283  0.4583  0.2612
  412TMC3    O1 6158   1.192   1.837  13.862  0.3281  0.4385 -0.5756
  412TMC3    O2 6159   1.317   1.595  14.263 -0.0078  0.1471 -0.9150
  413MPD2     C 6160   3.671   0.038  15.721  0.3759  0.7711  0.6230
  413MPD2    C1 6161   3.689   0.107  15.606  0.9781 -0.6128 -0.9572
  413MPD2    C2 6162   3.780   0.060  15.518 -0.1150  0.4700 -0.1698
  413MPD2    C3 6163   3.836   4.661  15.535  1.1413  0.0600 -0.1452
  413MPD2    C4 6164   3.821   4.589  15.652  0.0619 -0.0341 -0.0264
  413MPD2    C5 6165   3.739   4.648  15.745  0.1249 -0.0191  0.0080
  413MPD2     H 6166   3.804   0.119  15.430  1.9576  1.2922  0.9476
  413MPD2    H1 6167   3.861   4.490  15.667 -0.3134 -0.3864 -1.3726
  413MPD2    H2 6168   3.607   0.076  15.799 -0.3972 -1.1398  0.9255
  413MPD2    H3 6169   3.727   4.599  15.840  1.9324 -1.4582 -0.5158
  413MPD2     N 6170   3.918   4.607  15.426 -0.6359 -0.0016  0.6808
  413MPD2    H5 6171   3.945   4.682  15.364 -0.0187  1.9637  3.2869
  413MPD2    N1 6172   3.599   0.218  15.588  0.7571 -0.0132 -0.0587
  413MPD2    H7 6173   3.534   0.237  15.664  0.3347 -0.2884 -0.3483
  414TMC3    C1 6174   4.029   4.460  15.284  0.2736 -0.5039  0.1786
  414TMC3    C2 6175   3.988   4.349  15.219  0.2255 -0.1752 -0.1288
  414TMC3    C3 6176   4.058   4.302  15.119  0.0250  0.1490  0.0709
  414TMC3    C4 6177   4.142   4.529  15.241  0.4823 -0.4797  0.4159
  414TMC3    C5 6178   4.213   4.474  15.134 -0.5883 -0.0890  0.4529
  414TMC3    C6 6179   4.176   4.354  15.073  0.5024  0.0063 -0.1262
  414TMC3     C 6180   3.942   4.479  15.397  0.2861  0.0340  0.8986
  414TMC3     O 6181   3.898   4.376  15.450 -0.2605 -0.1834 -0.2113
  414TMC3     H 6182   3.907   4.288  15.255 -1.0473  0.5068 -1.8495
  414TMC3    H1 6183   4.190   4.612  15.292 -0.2045  0.6066 -0.6853
  414TMC3    H2 6184   4.231   4.325  14.984 -1.7439 -1.0584 -1.1709
  414TMC3    C7 6185   4.341   4.534  15.099 -0.0573 -0.0323 -0.8609
  414TMC3    C8 6186   4.008   4.182  15.045  0.1679 -0.0422 -0.8278
  414TMC3    O1 6187   4.359   4.649  15.122 -0.1931 -0.2067  0.2129
  414TMC3    O2 6188   3.946   4.100  15.112  0.2143  0.4108  0.0497
  415TMC3    C1 6189   4.251   1.376   9.516 -0.0186 -0.2862  0.0429
  415TMC3    C2 6190   4.364   1.448   9.513 -0.1025  0.5692  0.4515
  415TMC3    C3 6191   4.433   1.463   9.395  0.3612 -0.6024  0.4210
  415TMC3    C4 6192   4.191   1.336   9.394  0.4657  0.6512 -0.0285
  415TMC3    C5 6193   4.250   1.387   9.275 -0.6228  0.0220  0.1607
  415TMC3    C6 6194   4.377   1.440   9.274  0.4130 -0.2795  0.2484
  415TMC3     C 6195   4.163   1.381   9.624  0.1706 -0.5249  0.0993
  415TMC3     O 6196   4.041   1.367   9.618 -0.4077 -0.5555 -0.8870
  415TMC3     H 6197   4.407   1.495   9.601  0.0591 -0.9595  1.1833
  415TMC3    H1 6198   4.103   1.273   9.398  1.7141 -1.1574 -1.0574
  415TMC3    H2 6199   4.421   1.482   9.185  0.3825  0.9545  0.8204
  415TMC3    C7 6200   4.170   1.390   9.153 -0.0047  0.1830 -0.0042
  415TMC3    C8 6201   4.541   1.555   9.402 -0.2861  0.2336 -0.4978
  415TMC3    O1 6202   4.226   1.423   9.051  0.6516  0.3045 -0.2381
  415TMC3    O2 6203   4.634   1.544   9.327  0.0820  0.0891  0.2038
  416MPD2     C 6204   1.272   1.431  11.458 -0.2878  0.2677  0.3414
  416MPD2    C1 6205   1.203   1.490  11.352 -0.5248 -0.1168  0.1691
  416MPD2    C2 6206   1.219   1.435  11.227 -0.9287 -0.0757 -0.2789
  416MPD2    C3 6207   1.282   1.314  11.212 -0.3377  0.4180 -0.3915
  416MPD2    C4 6208   1.346   1.251  11.320  0.1516 -0.7700  0.6244
  416MPD2    C5 6209   1.344   1.319  11.438 -0.0042 -0.2757 -0.6138
  416MPD2     H 6210   1.165   1.473  11.141 -1.7140 -0.0863  0.2060
  416MPD2    H1 6211   1.386   1.150  11.314  1.1602 -0.2951 -0.5796
  416MPD2    H2 6212   1.255   1.470  11.558 -0.4578 -1.5741  1.0396
  416MPD2    H3 6213   1.398   1.282  11.525 -0.7591  1.4940  0.6019
  416MPD2     N 6214   1.269   1.241  11.093 -0.6177 -0.4024  0.2027
  416MPD2    H5 6215   1.276   1.140  11.097  1.2874 -0.2007  1.9997
  416MPD2    N1 6216   1.119   1.606  11.370  0.1722  0.4332  0.2232
  416MPD2    H7 6217   1.104   1.634  11.467 -0.5013 -0.3451  0.3486
  417TMC3    C1 6218   0.949   1.775  11.325 -0.4892  0.2977 -0.2772
  417TMC3    C2 6219   0.920   1.783  11.461  0.1315  0.2760 -0.5204
  417TMC3    C3 6220   0.821   1.868  11.490 -0.0071 -0.1601  0.2652
  417TMC3    C4 6221   0.883   1.850  11.229  0.1178 -0.3857  0.4373
  417TMC3    C5 6222   0.780   1.936  11.264  0.7645  0.6191  0.3988
  417TMC3    C6 6223   0.752   1.952  11.400 -0.1425  0.1054  0.1169
  417TMC3     C 6224   1.044   1.677  11.273 -0.1163  0.6035 -0.7087
  417TMC3     O 6225   1.074   1.677  11.156 -0.4966 -0.0203  0.6289
  417TMC3     H 6226   0.971   1.731  11.542 -0.6335 -1.1439 -0.9414
  417TMC3    H1 6227   0.921   1.837  11.128 -0.2281  3.0838 -0.1464
  417TMC3    H2 6228   0.685   2.030  11.434  0.1235  0.5063 -0.2670
  417TMC3    C7 6229   0.735   2.045  11.177  0.0370 -0.2681 -0.5065
  417TMC3    C8 6230   0.783   1.878  11.625 -0.2575 -0.8596  0.1675
  417TMC3    O1 6231   0.779   2.050  11.066  0.1127  0.7512 -0.3353
  417TMC3    O2 6232   0.744   1.986  11.664  0.0846  0.5814  0.7152
  418TMC3    C1 6233   3.921   3.488   0.460  0.6485 -0.6195  0.1987
  418TMC3    C2 6234   3.821   3.479   0.367  0.1107 -0.1250 -0.0761
  418TMC3    C3 6235   3.736   3.376   0.392  0.4267  0.1690  0.2382
  418TMC3    C4 6236   3.927   3.415   0.575 -0.7137  0.8129 -0.0526
  418TMC3    C5 6237   3.830   3.325   0.607  0.6610 -0.3861  0.3540
  418TMC3    C6 6238   3.735   3.304   0.508  0.1233  0.2752 -1.0611
  418TMC3     C 6239   4.051   3.475   0.390  0.2990  0.0672 -0.1877
  418TMC3     O 6240   4.126   3.384   0.427 -0.2006  0.1331  0.8811
  418TMC3     H 6241   3.813   3.531   0.272 -1.2323 -2.5528 -1.3093
  418TMC3    H1 6242   4.014   3.423   0.639  1.6439 -1.9389 -2.8940
  418TMC3    H2 6243   3.664   3.223   0.525 -0.0229  0.6258 -0.0011
  418TMC3    C7 6244   3.861   3.209   0.687  0.0191  0.0472 -0.4183
  418TMC3    C8 6245   3.672   3.327   0.274 -0.6601  0.9463 -1.0049
  418TMC3    O1 6246   3.847   3.102   0.630  0.4835  0.3473  0.3958
  418TMC3    O2 6247   3.646   3.412   0.187 -0.3282  0.3520 -0.0908
  419MPD2     C 6248   2.722   1.894  12.106 -0.0898 -0.3978  0.5843
  419MPD2    C1 6249   2.796   2.006  12.129  0.6928 -0.2852  0.1829
  419MPD2    C2 6250   2.801   2.059  12.262  1.1952 -0.7482  0.4137
  419MPD2    C3 6251   2.728   2.004  12.363  0.3343 -0.2580  0.2448
  419MPD2    C4 6252   2.654   1.885  12.338  0.3772  0.1861 -0.2199
  419MPD2    C5 6253   2.655   1.838  12.212 -0.5257  0.8963 -0.7885
  419MPD2     H 6254   2.865   2.143  12.286  0.9830 -1.3038  2.9232
  419MPD2    H1 6255   2.598   1.829  12.412  1.9567 -0.8476  0.1749
  419MPD2    H2 6256   2.717   1.848  12.008  0.0439  0.1139  0.3369
  419MPD2    H3 6257   2.609   1.741  12.195 -1.0600  0.9604  0.3226
  419MPD2     N 6258   2.717   2.072  12.487  0.6557 -0.3971  0.0414
  419MPD2    H5 6259   2.755   2.166  12.486  2.3144 -1.0524  1.0120
  419MPD2    N1 6260   2.880   2.067  12.037 -0.2682 -0.0005  0.1271
  419MPD2    H7 6261   2.945   2.134  12.075 -2.0825  1.3786  0.8144
  420TMC3    C1 6262   2.652   2.155  12.694  0.2200 -0.1263 -0.2397
  420TMC3    C2 6263   2.651   2.279  12.643  0.2341  0.1008  0.0565
  420TMC3    C3 6264   2.700   2.383  12.717  0.0598 -0.8233  0.6876
  420TMC3    C4 6265   2.684   2.124  12.820  0.1494  0.1874  0.3045
  420TMC3    C5 6266   2.741   2.224  12.894 -0.4347 -0.1591  0.1407
  420TMC3    C6 6267   2.751   2.355  12.843  0.3177  0.4322 -0.0517
  420TMC3     C 6268   2.658   2.035  12.601  0.4924 -0.6878  0.2555
  420TMC3     O 6269   2.624   1.922  12.636 -0.0770 -0.8143 -0.2734
  420TMC3     H 6270   2.609   2.296  12.545  0.6970  1.7356  0.1516
  420TMC3    H1 6271   2.690   2.023  12.857 -0.7187 -0.0632 -0.2512
  420TMC3    H2 6272   2.829   2.420  12.880 -1.7415  2.1631  1.2283
  420TMC3    C7 6273   2.786   2.187  13.030 -0.2016  0.2200  0.1818
  420TMC3    C8 6274   2.692   2.523  12.662 -0.2197 -0.2997 -0.3736
  420TMC3    O1 6275   2.817   2.069  13.054  0.5368  0.1428 -0.1503
  420TMC3    O2 6276   2.663   2.529  12.545 -0.3537 -0.0631  0.3153
  421TMC3    C1 6277   4.129   3.231  13.722  0.1485 -1.1273 -0.1578
  421TMC3    C2 6278   4.113   3.368  13.694  0.9412 -0.2210 -0.4214
  421TMC3    C3 6279   4.223   3.445  13.708  0.1856  0.2930 -0.3836
  421TMC3    C4 6280   4.251   3.181  13.764 -0.0733  0.6530  0.2575
  421TMC3    C5 6281   4.357   3.270  13.775  0.6173 -0.7441 -0.3029
  421TMC3    C6 6282   4.344   3.405  13.762  0.4347  0.0710  0.0787
  421TMC3     C 6283   4.009   3.139  13.714 -0.5222  0.1622  0.4129
  421TMC3     O 6284   4.022   3.036  13.775  0.0439  0.1654  0.5985
  421TMC3     H 6285   4.025   3.406  13.644 -0.5923 -1.8348  1.0371
  421TMC3    H1 6286   4.259   3.074  13.778 -0.7333  0.4377 -1.0378
  421TMC3    H2 6287   4.428   3.472  13.774  1.0598 -0.5270 -1.0635
  421TMC3    C7 6288   4.466   3.230  13.855 -0.0827 -0.1983  0.5320
  421TMC3    C8 6289   4.200   3.582  13.676  0.1861 -0.4228 -0.4307
  421TMC3    O1 6290   4.538   3.313  13.906 -0.0438 -0.3038 -0.4845
  421TMC3    O2 6291   4.117   3.605  13.592 -0.9075  0.0456  0.6742
  422TMC3    C1 6292   2.196   0.112  13.035  0.7397  0.4137  0.1899
  422TMC3    C2 6293   2.152   0.228  12.985 -0.1088 -0.0507 -0.7757
  422TMC3    C3 6294   2.031   0.270  13.034 -1.1624  0.1731 -0.0432
  422TMC3    C4 6295   2.123   0.026  13.119 -0.7931  0.3238 -0.0259
  422TMC3    C5 6296   2.004   0.068  13.158 -0.1187 -1.0133 -0.4114
  422TMC3    C6 6297   1.954   0.188  13.118 -0.1970 -0.9058 -0.0066
  422TMC3     C 6298   2.317   0.059  12.972  0.0050 -0.1277  0.4941
  422TMC3     O 6299   2.372   0.137  12.894  0.1572  0.3477 -0.4316
  422TMC3     H 6300   2.210   0.281  12.910  0.2295  2.3733  1.2014
  422TMC3    H1 6301   2.168   4.659  13.155 -0.8278 -1.0565 -3.4763
  422TMC3    H2 6302   1.863   0.227  13.163 -1.9692 -3.9140 -1.0503
  422TMC3    C7 6303   1.926   4.704  13.246  0.8722  0.0103  0.0696
  422TMC3    C8 6304   1.994   0.404  12.994 -0.3480 -0.8599  0.3083
  422TMC3    O1 6305   1.987   4.618  13.305  1.2853 -0.2203  0.9944
  422TMC3    O2 6306   2.075   0.479  12.941  0.0977  0.4520 -0.0075
  423MPD2     C 6307   2.595   0.919   0.446 -0.4288  0.7448  0.2182
  423MPD2    C1 6308   2.624   0.785   0.477 -0.4972 -0.7468 -0.3417
  423MPD2    C2 6309   2.690   0.704   0.384 -0.5010 -0.4000  0.0083
  423MPD2    C3 6310   2.723   0.756   0.262  0.0699 -0.4689  0.1848
  423MPD2    C4 6311   2.711   0.889   0.243 -0.0752 -0.3850  0.6867
  423MPD2    C5 6312   2.649   0.966   0.333  0.6555 -0.8453  0.3829
  423MPD2     H 6313   2.693   0.597   0.403  0.5235 -0.4916 -0.7209
  423MPD2    H1 6314   2.762   0.933   0.158 -0.5367  0.7591  1.0030
  423MPD2    H2 6315   2.541   0.984   0.514 -0.6104  0.1880  0.6083
  423MPD2    H3 6316   2.640   1.071   0.308  1.6687 -0.7154  0.5703
  423MPD2     N 6317   2.790   0.684   0.160  0.0869  0.5523  0.2264
  423MPD2    H5 6318   2.824   0.741   0.083  0.3990 -0.3991 -0.3376
  423MPD2    N1 6319   2.576   0.732   0.596  0.2549  0.0075 -0.7712
  423MPD2    H7 6320   2.598   0.634   0.609 -2.4220 -0.3439  1.1051
  424TMC3    C1 6321   2.513   0.727   0.820  0.0290  0.0123 -0.0130
  424TMC3    C2 6322   2.621   0.654   0.854  0.3090 -0.3818 -0.0180
  424TMC3    C3 6323   2.635   0.621   0.984 -0.4511 -0.1086 -0.1688
  424TMC3    C4 6324   2.431   0.784   0.911 -0.4952  0.4302  0.3070
  424TMC3    C5 6325   2.453   0.754   1.037  0.1336  0.3742 -0.7848
  424TMC3    C6 6326   2.547   0.665   1.082 -0.2005  0.1417 -0.3127
  424TMC3     C 6327   2.503   0.793   0.692 -0.6026  0.3488  0.2597
  424TMC3     O 6328   2.477   0.911   0.714  0.4803  0.2552 -0.3201
  424TMC3     H 6329   2.695   0.623   0.781 -0.3924 -1.7678 -0.1403
  424TMC3    H1 6330   2.349   0.850   0.886 -1.9965 -1.9313 -0.9760
  424TMC3    H2 6331   2.550   0.637   1.187 -0.3929 -2.4684 -0.9895
  424TMC3    C7 6332   2.336   0.765   1.114  0.1520  0.0033 -0.1575
  424TMC3    C8 6333   2.713   0.498   1.008  0.3712  0.1451 -0.9202
  424TMC3    O1 6334   2.239   0.717   1.055  0.4068  0.0878 -0.4924
  424TMC3    O2 6335   2.808   0.479   0.937  0.1627 -0.3306 -0.0848
  425MPD2     C 6336   2.379   0.207  17.285 -0.6222  0.5256 -0.2065
  425MPD2    C1 6337   2.318   0.106  17.354 -0.0485  0.3217  0.3060
  425MPD2    C2 6338   2.206   0.144  17.425 -0.6149 -0.4556  0.3394
  425MPD2    C3 6339   2.165   0.279  17.445  0.0889 -0.2058 -0.3367
  425MPD2    C4 6340   2.224   0.374  17.358 -0.7175 -0.4105 -0.9061
  425MPD2    C5 6341   2.333   0.338  17.285 -0.0175  0.2653 -0.1325
  425MPD2     H 6342   2.159   0.068  17.487  0.0893 -0.9948  0.2170
  425MPD2    H1 6343   2.192   0.477  17.368 -0.3509 -0.3680 -0.1248
  425MPD2    H2 6344   2.465   0.192  17.219 -1.1041  2.1317 -1.2028
  425MPD2    H3 6345   2.390   0.407  17.224  1.5749  0.2409  1.3294
  425MPD2     N 6346   2.053   0.301  17.531 -0.0059 -0.0856 -0.2961
  425MPD2    H5 6347   2.017   0.227  17.591  1.3204  1.9061  2.9802
  425MPD2    N1 6348   2.362   4.698  17.326 -0.8104 -0.6217  0.0157
  425MPD2    H7 6349   2.447   4.679  17.274 -0.8357  2.3510 -1.0712
  426TMC3    C1 6350   2.346   4.472  17.290  0.2094 -0.6147  0.1689
  426TMC3    C2 6351   2.283   4.407  17.192 -0.2858  0.0217  1.2108
  426TMC3    C3 6352   2.349   4.314  17.113  0.3858 -0.9667 -0.1435
  426TMC3    C4 6353   2.484   4.450  17.318  0.0111  0.3372 -0.7735
  426TMC3    C5 6354   2.548   4.359  17.239  0.0865  0.4087  0.7880
  426TMC3    C6 6355   2.481   4.287  17.140  0.0915 -0.1670  0.4426
  426TMC3     C 6356   2.285   4.588  17.347 -0.2188 -0.6695  0.0064
  426TMC3     O 6357   2.169   4.586  17.382  0.1630 -0.4711 -0.3313
  426TMC3     H 6358   2.180   4.437  17.178  0.0729  0.1728 -1.0842
  426TMC3    H1 6359   2.535   4.500  17.399 -0.7222 -1.2721  0.6821
  426TMC3    H2 6360   2.541   4.225  17.075 -0.2656 -0.0791  0.0318
  426TMC3    C7 6361   2.651   4.280  17.295 -0.2066  0.3364 -0.3059
  426TMC3    C8 6362   2.278   4.231  17.019  0.0201  0.6860 -0.0026
  426TMC3    O1 6363   2.715   4.212  17.214  0.7561 -0.9066 -0.8479
  426TMC3    O2 6364   2.346   4.161  16.945 -0.1737  0.1492 -0.0370
  427MPD2     C 6365   1.008   2.038  14.439  0.9673  0.6581 -0.3978
  427MPD2    C1 6366   0.980   1.938  14.533 -0.4127 -0.0688 -0.2756
  427MPD2    C2 6367   0.850   1.928  14.581  1.1755  0.2771  0.4877
  427MPD2    C3 6368   0.749   2.022  14.551 -0.0334  0.1167  0.3010
  427MPD2    C4 6369   0.775   2.124  14.460 -0.6027 -0.0283 -0.8006
  427MPD2    C5 6370   0.909   2.128  14.410  0.2920  0.3822 -0.5116
  427MPD2     H 6371   0.824   1.842  14.642 -0.4966  0.3323 -0.1614
  427MPD2    H1 6372   0.703   2.192  14.418  2.1087  2.7074 -1.0512
  427MPD2    H2 6373   1.101   2.049  14.384  0.6720 -2.7299 -1.5855
  427MPD2    H3 6374   0.928   2.209  14.340  0.7682  0.2226 -0.5645
  427MPD2     N 6375   0.617   2.013  14.598 -0.4337 -0.3686 -0.7221
  427MPD2    H5 6376   0.565   2.099  14.586  0.6577  0.2571 -0.9927
  427MPD2    N1 6377   1.079   1.849  14.580 -0.3629 -0.9107 -0.4412
  427MPD2    H7 6378   1.040   1.788  14.652 -0.6427 -2.1266 -1.6073
  428TMC3    C1 6379   1.295   1.764  14.636  0.3316 -0.1859 -0.5755
  428TMC3    C2 6380   1.247   1.637  14.675 -0.5398 -0.0114  0.6574
  428TMC3    C3 6381   1.327   1.566  14.759  0.2151 -0.8111 -0.3307
  428TMC3    C4 6382   1.413   1.814  14.681 -0.4117 -0.8528 -0.2907
  428TMC3    C5 6383   1.490   1.731  14.767  0.0555  0.7634  0.1035
  428TMC3    C6 6384   1.448   1.606  14.805 -0.3183 -0.7628 -0.0664
  428TMC3     C 6385   1.214   1.846  14.547 -0.4742 -0.5602  0.3333
  428TMC3     O 6386   1.274   1.924  14.473  0.3002  0.4048 -0.0826
  428TMC3     H 6387   1.154   1.594  14.639 -0.8340  0.8482  0.3909
  428TMC3    H1 6388   1.444   1.912  14.648 -1.8443 -0.3038  0.0280
  428TMC3    H2 6389   1.499   1.532  14.866 -0.2678 -1.8889 -1.4797
  428TMC3    C7 6390   1.616   1.779  14.820 -0.0601 -0.1720  0.6174
  428TMC3    C8 6391   1.291   1.441  14.799 -0.1124 -0.8377 -0.1143
  428TMC3    O1 6392   1.647   1.750  14.936  0.2100  0.0547 -0.0573
  428TMC3    O2 6393   1.378   1.358  14.808  0.4265 -0.5200 -0.2516
  429MPD2     C 6394   1.764   2.309   0.002 -0.4163 -0.1638 -0.0865
  429MPD2    C1 6395   1.872   2.270  17.629  0.4216 -0.5313  0.3625
  429MPD2    C2 6396   1.935   2.358  17.545  0.1363 -1.1786  0.4956
  429MPD2    C3 6397   1.880   2.486  17.528 -0.3077  0.2012  0.4846
  429MPD2    C4 6398   1.769   2.528  17.605 -0.1734  0.1359 -0.5185
  429MPD2    C5 6399   1.709   2.430  17.686 -0.5544  0.3071  0.2930
  429MPD2     H 6400   2.029   2.334  17.497  1.4026 -1.1767  2.9343
  429MPD2    H1 6401   1.724   2.626  17.600  0.5969  0.4983 -0.3616
  429MPD2    H2 6402   1.722   2.242   0.076  1.7325 -0.9126  0.4473
  429MPD2    H3 6403   1.615   2.461   0.030 -1.1733 -0.9116 -0.1745
  429MPD2     N 6404   1.927   2.561  17.414 -0.2091 -0.4339  0.3045
  429MPD2    H5 6405   1.994   2.511  17.356  0.2195 -1.2563  1.5155
  429MPD2    N1 6406   1.921   2.140  17.629  0.0668  0.4092 -0.7153
  429MPD2    H7 6407   2.010   2.117  17.586 -0.4315 -1.4397 -0.7375
  430TMC3    C1 6408   1.915   2.706  17.233 -0.3127 -0.6237  0.7588
  430TMC3    C2 6409   1.863   2.819  17.176 -0.5969  0.6703 -0.2996
  430TMC3    C3 6410   1.895   2.845  17.044 -0.7639  0.2781 -0.3867
  430TMC3    C4 6411   1.997   2.623  17.161  0.3597 -0.5012 -0.0719
  430TMC3    C5 6412   2.040   2.655  17.038 -0.3746  0.8234 -0.0638
  430TMC3    C6 6413   1.991   2.771  16.978 -0.2440 -0.3891  0.2890
  430TMC3     C 6414   1.870   2.675  17.370  0.1397 -0.7127  0.0509
  430TMC3     O 6415   1.789   2.747  17.422 -0.1446 -0.2439 -0.4558
  430TMC3     H 6416   1.777   2.864  17.223 -0.8742 -0.1558 -0.0243
  430TMC3    H1 6417   2.043   2.534  17.202  2.3956  0.8546  0.5494
  430TMC3    H2 6418   2.033   2.799  16.883  0.3088  2.5683  1.3962
  430TMC3    C7 6419   2.053   2.535  16.957  0.0305 -0.0570 -0.2765
  430TMC3    C8 6420   1.781   2.840  16.956  0.4127  0.3940  0.6054
  430TMC3    O1 6421   2.109   2.440  17.012  0.1862  0.1842 -0.2654
  430TMC3    O2 6422   1.792   2.784  16.849  0.1751  0.0405  0.2287
  431MPD2     C 6423   3.565   2.368  12.343 -0.2291 -0.4550  0.3922
  431MPD2    C1 6424   3.498   2.469  12.274  0.2555  0.1250 -0.3252
  431MPD2    C2 6425   3.435   2.442  12.152  0.0177 -0.3116 -0.2165
  431MPD2    C3 6426   3.438   2.315  12.104  0.3007  0.2371 -0.3733
  431MPD2    C4 6427   3.502   2.211  12.174 -0.4316  0.3835 -0.0947
  431MPD2    C5 6428   3.562   2.243  12.296  0.4681  0.0307 -0.1503
  431MPD2     H 6429   3.391   2.527  12.100  1.3651 -0.1572 -1.1045
  431MPD2    H1 6430   3.489   2.108  12.142 -3.2383  0.6577  0.1518
  431MPD2    H2 6431   3.617   2.383  12.437  0.5038  2.3050 -0.4528
  431MPD2    H3 6432   3.612   2.164  12.351  0.0677 -0.5151 -0.5727
  431MPD2     N 6433   3.358   2.278  12.001 -0.0681  0.0327  0.0081
  431MPD2    H5 6434   3.372   2.186  11.961  0.0915 -0.5003  1.3075
  431MPD2    N1 6435   3.500   2.606  12.312 -0.0081  0.0095 -0.0754
  431MPD2    H7 6436   3.456   2.675  12.253  0.2740  0.1695 -0.0967
  432TMC3    C1 6437   3.162   2.258  11.880  1.0653  1.0059 -0.6419
  432TMC3    C2 6438   3.232   2.204  11.780 -0.1487  0.1973 -0.6097
  432TMC3    C3 6439   3.160   2.126  11.699  0.2150  0.0606  0.5909
  432TMC3    C4 6440   3.028   2.231  11.916 -0.2956 -0.5016 -0.2739
  432TMC3    C5 6441   2.963   2.146  11.841  0.6013  0.0889  0.0168
  432TMC3    C6 6442   3.031   2.094  11.730  0.2912 -0.0418 -0.2542
  432TMC3     C 6443   3.237   2.336  11.972 -0.5807 -0.7306 -0.0269
  432TMC3     O 6444   3.179   2.425  12.030  0.4055 -0.2780  0.8791
  432TMC3     H 6445   3.337   2.223  11.764 -0.0201  0.3745  0.4326
  432TMC3    H1 6446   2.974   2.292  11.987  1.2274 -0.3597  0.7736
  432TMC3    H2 6447   2.970   2.029  11.668 -1.4489  1.2114  0.1638
  432TMC3    C7 6448   2.872   2.045  11.903 -0.0058 -0.2611  0.2036
  432TMC3    C8 6449   3.223   2.036  11.610  0.9606  0.0866  0.2031
  432TMC3    O1 6450   2.812   1.960  11.839 -0.0545  0.0428  0.3495
  432TMC3    O2 6451   3.148   1.991  11.529  0.4688 -0.5672 -0.2676
  433MPD2     C 6452   2.296   1.118  10.929  0.1988 -0.4716  0.1965
  433MPD2    C1 6453   2.230   1.026  11.008 -0.5899  0.0489  0.0443
  433MPD2    C2 6454   2.200   1.057  11.140  0.2977  0.8725  0.4665
  433MPD2    C3 6455   2.250   1.175  11.197  0.4679 -0.7652 -0.0381
  433MPD2    C4 6456   2.325   1.260  11.123  0.3646  0.1941 -0.0269
  433MPD2    C5 6457   2.351   1.226  10.993  0.0026 -0.3947  0.0280
  433MPD2     H 6458   2.146   0.989  11.205 -0.4089 -0.6235 -1.7093
  433MPD2    H1 6459   2.364   1.354  11.159 -0.2930  0.0965  0.9315
  433MPD2    H2 6460   2.308   1.110  10.821 -1.8546 -0.2840 -0.0521
  433MPD2    H3 6461   2.415   1.290  10.933 -0.0494  1.2073  1.6687
  433MPD2     N 6462   2.224   1.195  11.334 -0.4924 -0.4247  0.0092
  433MPD2    H5 6463   2.153   1.136  11.374  0.1874  0.0161  1.8656
  433MPD2    N1 6464   2.190   0.905  10.947  0.3542  0.3075  0.5882
  433MPD2    H7 6465   2.235   0.875  10.861 -0.5016  1.7665 -0.3646
  434TMC3    C1 6466   2.100   0.693  10.932 -0.8137 -0.1395 -0.0821
  434TMC3    C2 6467   2.102   0.581  11.010  0.0432 -0.4829 -0.2543
  434TMC3    C3 6468   2.142   0.464  10.963 -0.5064  0.1750 -0.4326
  434TMC3    C4 6469   2.135   0.692  10.800  0.2943 -0.0599  1.0986
  434TMC3    C5 6470   2.166   0.569  10.751 -0.1958 -0.9810 -0.2343
  434TMC3    C6 6471   2.177   0.454  10.825 -0.2594  0.7388  0.2348
  434TMC3     C 6472   2.109   0.812  11.008 -0.2118 -0.1064 -0.5654
  434TMC3     O 6473   2.048   0.815  11.112 -0.0272 -0.5373 -0.1010
  434TMC3     H 6474   2.097   0.592  11.117 -2.3708  0.2435 -0.4414
  434TMC3    H1 6475   2.134   0.784  10.742 -2.9684 -0.8806 -0.1073
  434TMC3    H2 6476   2.208   0.360  10.779 -1.3018  0.3267  0.3729
  434TMC3    C7 6477   2.180   0.546  10.608 -0.2279 -0.2891 -0.1790
  434TMC3    C8 6478   2.229   0.395  11.056 -0.4368 -0.3541  0.9161
  434TMC3    O1 6479   2.229   0.636  10.543 -0.5954  0.3132 -0.6507
  434TMC3    O2 6480   2.207   0.403  11.175  0.2785 -0.4400 -0.0546
  435MPD2     C 6481   3.962   1.160  15.337 -0.3820 -0.3315 -0.6002
  435MPD2    C1 6482   3.909   1.134  15.459 -0.3294  0.1316 -0.5299
  435MPD2    C2 6483   3.985   1.060  15.547 -0.1184 -0.0293  0.0691
  435MPD2    C3 6484   4.109   1.005  15.517 -0.2330  0.1313 -0.4818
  435MPD2    C4 6485   4.160   1.041  15.393 -0.1741 -0.1590  0.4735
  435MPD2    C5 6486   4.084   1.114  15.303  0.2152 -0.3262  0.0310
  435MPD2     H 6487   3.940   1.033  15.642 -0.7167  2.0927  0.3771
  435MPD2    H1 6488   4.258   1.003  15.365  0.4953  1.0245  1.2391
  435MPD2    H2 6489   3.905   1.205  15.257 -1.1842 -0.8358 -0.3124
  435MPD2    H3 6490   4.125   1.134  15.205  0.8392 -0.0101  0.3577
  435MPD2     N 6491   4.179   0.920  15.612  0.0141 -0.3758 -0.0606
  435MPD2    H5 6492   4.132   0.918  15.702  0.2616 -0.2923  0.0688
  435MPD2    N1 6493   3.777   1.171  15.494 -0.5767 -0.2001 -0.7467
  435MPD2    H7 6494   3.745   1.148  15.587  0.9922 -3.5299 -1.0517
  436TMC3    C1 6495   3.409   1.412  15.573  0.0047 -0.0075 -0.2431
  436TMC3    C2 6496   3.508   1.390  15.486 -0.1993  0.2796  0.1659
  436TMC3    C3 6497   3.568   1.267  15.496  0.0874 -0.9685 -0.7098
  436TMC3    C4 6498   3.361   1.325  15.666  0.1124 -0.2246  0.3628
  436TMC3    C5 6499   3.430   1.213  15.681  0.4774 -0.4897 -0.1914
  436TMC3    C6 6500   3.532   1.181  15.596  0.4983 -1.2019 -0.4617
  436TMC3     C 6501   3.344   1.540  15.556 -0.3990 -0.0966 -0.5795
  436TMC3     O 6502   3.357   1.593  15.449  0.3061  0.3813  0.1117
  436TMC3     H 6503   3.540   1.468  15.417  0.2315 -0.6632 -0.7010
  436TMC3    H1 6504   3.276   1.353  15.727 -0.3174 -0.9999  0.1208
  436TMC3    H2 6505   3.575   1.082  15.609  0.9304 -0.9683 -0.1304
  436TMC3    C7 6506   3.361   1.106  15.750 -0.6878  0.3991 -0.0912
  436TMC3    C8 6507   3.693   1.251  15.425 -0.1003 -0.4096 -0.2877
  436TMC3    O1 6508   3.372   0.995  15.705 -0.1971 -0.5883  0.7843
  436TMC3    O2 6509   3.713   1.328  15.332  0.6035  0.2708 -0.0793
  437TMC3    C1 6510   2.306   3.301  12.970  0.1205 -0.4843 -0.4433
  437TMC3    C2 6511   2.243   3.345  13.080  0.1475 -0.6421  0.7181
  437TMC3    C3 6512   2.242   3.474  13.100  0.2188  0.3716  0.2679
  437TMC3    C4 6513   2.365   3.392  12.889 -0.1500 -0.5363  0.6209
  437TMC3    C5 6514   2.363   3.528  12.919  0.6229 -0.6369  0.3526
  437TMC3    C6 6515   2.300   3.573  13.031  0.5038  0.6187 -0.7520
  437TMC3     C 6516   2.323   3.162  12.937 -0.0195  0.0951 -0.6211
  437TMC3     O 6517   2.422   3.128  12.867  0.4995 -0.1887  0.5625
  437TMC3     H 6518   2.207   3.281  13.160  1.1026 -2.0128  0.0530
  437TMC3    H1 6519   2.403   3.353  12.795  0.0184 -1.2183  0.9779
  437TMC3    H2 6520   2.307   3.674  13.070 -0.0962  0.8690 -1.2870
  437TMC3    C7 6521   2.475   3.612  12.875  0.7566  0.3002  0.3485
  437TMC3    C8 6522   2.180   3.525  13.223  0.3707  0.7409 -0.2321
  437TMC3    O1 6523   2.524   3.698  12.946  0.2726 -0.3364  0.0982
  437TMC3    O2 6524   2.203   3.641  13.253 -0.0605 -0.1058 -0.6869
  438MPD2     C 6525   4.406   3.675  16.697  0.0549 -0.2785  0.3583
  438MPD2    C1 6526   4.474   3.606  16.794 -0.0214 -0.6089 -0.1538
  438MPD2    C2 6527   4.418   3.598  16.913  0.1279 -0.9292 -0.5699
  438MPD2    C3 6528   4.299   3.656  16.948 -0.2758  0.4768  0.0881
  438MPD2    C4 6529   4.226   3.718  16.847  0.4306 -0.2690  0.4380
  438MPD2    C5 6530   4.288   3.733  16.721 -0.4564 -0.6358 -0.1654
  438MPD2     H 6531   4.483   3.541  16.979  0.4452  1.1260  0.8903
  438MPD2    H1 6532   4.131   3.762  16.875  0.1826  0.3215 -1.3405
  438MPD2    H2 6533   4.457   3.693  16.602  0.2424  0.7885  0.6542
  438MPD2    H3 6534   4.229   3.772  16.639  0.4219 -1.2007 -1.0649
  438MPD2     N 6535   4.252   3.656  17.077 -0.6438  0.1243 -0.0460
  438MPD2    H5 6536   4.168   3.712  17.087 -1.6286 -1.7096  1.8810
  438MPD2    N1 6537   4.604   3.547  16.780  0.0218  0.1767  0.0027
  438MPD2    H7 6538   4.652   3.508  16.860 -0.2386  3.1076  1.5683
  439TMC3    C1 6539   0.085   3.516  16.662 -0.3220  0.0352 -0.3898
  439TMC3    C2 6540   0.151   3.504  16.545  0.0788  0.9578  0.4793
  439TMC3    C3 6541   0.288   3.485  16.542  0.3468  0.0415 -0.2743
  439TMC3    C4 6542   0.152   3.513  16.788  0.2547 -0.0440  0.0048
  439TMC3    C5 6543   0.285   3.498  16.781  0.4127  0.3232 -0.2212
  439TMC3    C6 6544   0.360   3.482  16.660 -0.2926 -0.3047  0.5280
  439TMC3     C 6545   4.665   3.538  16.658  0.0841 -0.6242 -0.2284
  439TMC3     O 6546   4.613   3.525  16.548  0.0198  0.4673  0.1533
  439TMC3     H 6547   0.097   3.530  16.455 -0.7630  0.4205  0.8314
  439TMC3    H1 6548   0.102   3.538  16.881 -2.7260  0.7573 -1.8062
  439TMC3    H2 6549   0.463   3.449  16.657 -0.1735  0.3102 -2.6818
  439TMC3    C7 6550   0.361   3.445  16.893  0.6267  0.4178  0.4363
  439TMC3    C8 6551   0.356   3.441  16.422  0.9230 -0.1452  0.7824
  439TMC3    O1 6552   0.482   3.456  16.895  0.1549  0.0091 -0.2076
  439TMC3    O2 6553   0.443   3.356  16.432 -0.0639 -0.5359 -0.4036
  440MPD2     C 6554   3.632   4.259  14.849  0.0137 -0.2448 -0.3601
  440MPD2    C1 6555   3.623   4.185  14.963 -0.0511 -0.0327  0.3912
  440MPD2    C2 6556   3.618   4.050  14.965  0.1037  0.1108  0.1734
  440MPD2    C3 6557   3.620   3.982  14.842 -0.2363  1.1400  0.4058
  440MPD2    C4 6558   3.622   4.059  14.729  0.7575 -0.2339  0.1372
  440MPD2    C5 6559   3.630   4.194  14.727  0.3179  0.5574  0.7371
  440MPD2     H 6560   3.622   3.990  15.055 -2.6180 -0.8221 -0.3003
  440MPD2    H1 6561   3.620   4.018  14.629  0.6925  0.1464 -0.0189
  440MPD2    H2 6562   3.634   4.367  14.852  0.7116 -0.2376 -0.9980
  440MPD2    H3 6563   3.627   4.241  14.630 -1.9060 -0.7964  0.1533
  440MPD2     N 6564   3.612   3.845  14.826 -0.1139 -0.3150  0.3610
  440MPD2    H5 6565   3.629   3.809  14.733 -0.7093  0.4669 -0.0434
  440MPD2    N1 6566   3.606   4.250  15.090 -0.4921 -0.1067  0.6766
  440MPD2    H7 6567   3.579   4.188  15.167  0.6238  1.7350  2.5566
  441TMC3    C1 6568   3.618   3.612  14.890  0.2934  0.4454  0.3753
  441TMC3    C2 6569   3.723   3.600  14.813 -0.2802  0.1123  0.3901
  441TMC3    C3 6570   3.824   3.511  14.847 -0.2887  1.0554  0.1597
  441TMC3    C4 6571   3.594   3.533  14.997 -0.5259 -0.3398 -0.1339
  441TMC3    C5 6572   3.704   3.455  15.040  0.0737 -0.3851 -0.1300
  441TMC3    C6 6573   3.823   3.448  14.971 -0.0864 -0.7887  0.7757
  441TMC3     C 6574   3.598   3.751  14.927 -0.4424 -0.0012 -0.1980
  441TMC3     O 6575   3.598   3.767  15.051  0.0658  0.3402  0.8047
  441TMC3     H 6576   3.716   3.652  14.718 -1.3317 -0.7368  0.0016
  441TMC3    H1 6577   3.510   3.553  15.063 -0.0287 -2.2130  1.0528
  441TMC3    H2 6578   3.914   3.395  14.995  0.6067 -0.6779 -1.5575
  441TMC3    C7 6579   3.713   3.435  15.182  0.1936  0.1321  0.8022
  441TMC3    C8 6580   3.958   3.574  14.811 -0.9681  0.8003  0.0776
  441TMC3    O1 6581   3.632   3.489  15.255 -0.0601  0.0586  0.1208
  441TMC3    O2 6582   3.993   3.554  14.695  0.9803  0.3200 -0.5616
  442MPD2     C 6583   2.335   4.496  16.818  0.7052 -0.1257  0.1883
  442MPD2    C1 6584   2.201   4.524  16.830 -0.5521 -0.1681 -0.3932
  442MPD2    C2 6585   2.105   4.460  16.753 -0.2079  0.5528  0.5256
  442MPD2    C3 6586   2.147   4.371  16.656 -0.5725 -0.6625  0.0888
  442MPD2    C4 6587   2.285   4.344  16.643 -0.1803 -0.3437  0.1309
  442MPD2    C5 6588   2.372   4.412  16.714 -0.3588 -0.1013  0.0763
  442MPD2     H 6589   2.001   4.467  16.781 -0.0560  0.5450  1.0941
  442MPD2    H1 6590   2.323   4.269  16.576 -0.0761 -2.8027  2.9151
  442MPD2    H2 6591   2.413   4.536  16.882  1.5338 -0.1438 -0.8072
  442MPD2    H3 6592   2.477   4.386  16.711 -0.6526 -1.3420  0.2488
  442MPD2     N 6593   2.050   4.293  16.586 -0.3377 -0.2797  0.1176
  442MPD2    H5 6594   2.094   4.215  16.537 -0.8423 -0.9450  0.7156
  442MPD2    N1 6595   2.160   4.624  16.921 -0.4408 -0.0659  0.2108
  442MPD2    H7 6596   2.062   4.650  16.915 -0.1598  0.3455 -2.5974
  443TMC3    C1 6597   2.158   0.071  17.078  1.2136  0.2029  1.3220
  443TMC3    C2 6598   2.162   0.206  17.033  0.0422  0.1671  0.5264
  443TMC3    C3 6599   2.033   0.261  17.028  0.1387 -1.1448 -0.5435
  443TMC3    C4 6600   2.048   0.005  17.132  1.2276  0.1983 -0.0251
  443TMC3    C5 6601   1.933   0.078  17.143 -0.1722 -0.3164  0.2862
  443TMC3    C6 6602   1.932   0.203  17.087 -0.2295  0.5731 -0.2961
  443TMC3     C 6603   2.242   4.704  17.002 -0.0697 -0.1634  0.2521
  443TMC3     O 6604   2.364   0.003  17.007 -0.2364  0.0985  0.3913
  443TMC3     H 6605   2.240   0.242  16.967  0.6442 -1.3354  0.4075
  443TMC3    H1 6606   2.054   4.631  17.177  1.2626 -0.7652 -2.1338
  443TMC3    H2 6607   1.834   0.247  17.072  1.2165  3.8033 -0.2827
  443TMC3    C7 6608   1.833   0.033  17.233 -0.0703  0.0210  0.0101
  443TMC3    C8 6609   2.008   0.331  16.911 -0.5752 -0.7892  0.1005
  443TMC3    O1 6610   1.831   4.649  17.287  0.4074 -0.0778 -0.1692
  443TMC3    O2 6611   2.087   0.411  16.866 -0.4464  0.2510  0.1269
  444MPD2     C 6612   1.994   4.235  17.619  0.1210  0.7518 -0.8629
  444MPD2    C1 6613   1.893   4.144  17.589  0.0333 -0.2585  0.0513
  444MPD2    C2 6614   1.909   4.053  17.486 -0.1004 -0.5233  0.7604
  444MPD2    C3 6615   2.031   4.047  17.418 -0.3905  0.0672  0.2643
  444MPD2    C4 6616   2.134   4.137  17.458  0.5455 -0.5332 -0.1110
  444MPD2    C5 6617   2.116   4.231  17.554  0.1712  0.4088 -0.6283
  444MPD2     H 6618   1.825   3.996  17.448  1.9283 -1.7974 -1.8249
  444MPD2    H1 6619   2.235   4.128  17.420  1.1328  0.6498  1.1490
  444MPD2    H2 6620   1.982   4.318  17.687 -0.9540 -0.7296  0.7478
  444MPD2    H3 6621   2.194   4.303  17.578 -1.5675  2.2151 -0.4378
  444MPD2     N 6622   2.048   3.951  17.314 -0.5912  0.3008 -0.2616
  444MPD2    H5 6623   1.971   3.888  17.292 -0.1471 -0.2426 -0.2464
  444MPD2    N1 6624   1.779   4.127  17.671  0.3471  0.0391  0.6282
  444MPD2    H7 6625   1.724   4.045  17.650  1.0658 -0.6961  1.6544
  445TMC3    C1 6626   2.132   3.839  17.124  0.0019  0.4787 -0.8613
  445TMC3    C2 6627   2.013   3.774  17.105  0.3962  0.0900 -0.2722
  445TMC3    C3 6628   2.001   3.675  17.009  0.6666 -0.0107  0.5619
  445TMC3    C4 6629   2.233   3.826  17.023  0.1390  0.9230  0.4340
  445TMC3    C5 6630   2.210   3.732  16.928  0.3515  0.8009  0.0835
  445TMC3    C6 6631   2.104   3.651  16.925 -0.1847  0.2109  0.1492
  445TMC3     C 6632   2.159   3.938  17.235 -0.0463 -0.1051 -0.4571
  445TMC3     O 6633   2.271   3.980  17.252 -0.3502  0.2260 -0.1210
  445TMC3     H 6634   1.928   3.793  17.169  0.0147  0.6872 -0.9478
  445TMC3    H1 6635   2.313   3.899  17.030  0.3856  0.6354  0.6333
  445TMC3    H2 6636   2.073   3.577  16.851  1.6058 -0.1937 -0.2044
  445TMC3    C7 6637   2.325   3.689  16.833  0.2522 -0.1224 -0.1294
  445TMC3    C8 6638   1.868   3.630  16.966 -0.1850 -0.7761 -0.0375
  445TMC3    O1 6639   2.402   3.783  16.809 -0.0046  0.1288  0.1252
  445TMC3    O2 6640   1.843   3.620  16.845  0.1918 -0.3568 -0.3124
  446MPD2     C 6641   1.916   0.372  11.637  0.5008 -0.0317 -0.3318
  446MPD2    C1 6642   1.943   0.332  11.504  0.0992 -0.1330  0.4420
  446MPD2    C2 6643   2.033   0.406  11.434 -0.3381 -0.2211 -0.2373
  446MPD2    C3 6644   2.111   0.512  11.494 -0.0472 -0.0703 -0.7268
  446MPD2    C4 6645   2.090   0.535  11.626 -0.2780 -0.1170  0.4987
  446MPD2    C5 6646   2.002   0.459  11.699 -0.2000 -0.3292  0.2084
  446MPD2     H 6647   2.058   0.371  11.335 -0.7719  0.5475 -0.6107
  446MPD2    H1 6648   2.141   0.609  11.686 -2.4112  1.0671  0.8611
  446MPD2    H2 6649   1.832   0.324  11.685  0.3874 -3.0192 -3.4655
  446MPD2    H3 6650   1.983   0.467  11.805 -0.0947 -0.0913  0.2084
  446MPD2     N 6651   2.201   0.589  11.420  0.1434 -0.0562  0.0541
  446MPD2    H5 6652   2.214   0.561  11.323  0.7134 -0.8277  0.3484
  446MPD2    N1 6653   1.872   0.225  11.437  0.6773  0.1897  0.4546
  446MPD2    H7 6654   1.885   0.196  11.340  0.7897  0.2540  0.4497
  447TMC3    C1 6655   2.390   0.733  11.383 -0.3433  0.0267  0.2442
  447TMC3    C2 6656   2.380   0.699  11.248 -0.0040  1.3073 -0.4508
  447TMC3    C3 6657   2.494   0.665  11.184 -0.1958  0.4608 -0.2780
  447TMC3    C4 6658   2.509   0.730  11.449 -0.4505 -0.0791 -0.4413
  447TMC3    C5 6659   2.625   0.695  11.380  0.5454  0.0487 -0.6735
  447TMC3    C6 6660   2.614   0.656  11.248  0.1780  0.2571 -0.2922
  447TMC3     C 6661   2.288   0.687  11.472 -0.1101  0.1290 -0.1000
  447TMC3     O 6662   2.299   0.724  11.587 -0.2449  0.1806  0.0948
  447TMC3     H 6663   2.286   0.715  11.195  0.2367 -1.1587 -1.6466
  447TMC3    H1 6664   2.517   0.753  11.554  1.3091 -0.4465 -0.4803
  447TMC3    H2 6665   2.708   0.637  11.198  0.5214 -3.3966  1.7802
  447TMC3    C7 6666   2.751   0.679  11.451 -0.1859 -0.6850  1.2189
  447TMC3    C8 6667   2.495   0.654  11.038 -0.0483  0.5881  1.0720
  447TMC3    O1 6668   2.821   0.597  11.396  0.2297  0.8705 -0.0104
  447TMC3    O2 6669   2.407   0.707  10.981  0.0862  0.2430 -0.2748
  448TMC3    C1 6670   0.761   0.568  17.019 -0.1326  0.2922 -0.3774
  448TMC3    C2 6671   0.645   0.496  17.020 -1.1634  0.6799 -0.2696
  448TMC3    C3 6672   0.622   0.402  17.113 -0.1578  0.0809 -0.6067
  448TMC3    C4 6673   0.857   0.542  17.116 -0.4833 -0.6865 -0.4175
  448TMC3    C5 6674   0.821   0.460  17.222  0.5246  0.1073 -0.2016
  448TMC3    C6 6675   0.709   0.376  17.214  0.4662  0.1505 -0.0151
  448TMC3     C 6676   0.790   0.649  16.903 -0.2976  0.7339  0.4133
  448TMC3     O 6677   0.725   0.625  16.804 -0.1744  0.2608  0.4199
  448TMC3     H 6678   0.579   0.511  16.935 -0.1713  2.1324 -0.7795
  448TMC3    H1 6679   0.951   0.596  17.120 -0.8333 -0.1115  0.1213
  448TMC3    H2 6680   0.679   0.302  17.288  0.7127  0.1459  0.0811
  448TMC3    C7 6681   0.910   0.437  17.329  0.3755  0.2592 -0.2172
  448TMC3    C8 6682   0.498   0.323  17.112  0.9058  0.2216 -0.3975
  448TMC3    O1 6683   1.028   0.447  17.303  0.3401  0.1043 -0.0063
  448TMC3    O2 6684   0.491   0.227  17.185 -0.3918  0.5060 -0.2456
  449MPD2     C 6685   1.586   3.606  14.448  1.1138 -0.9819  0.2444
  449MPD2    C1 6686   1.479   3.677  14.394 -0.2601  0.6217 -0.6809
  449MPD2    C2 6687   1.352   3.658  14.447  0.8273 -0.2624  0.0570
  449MPD2    C3 6688   1.329   3.553  14.539 -1.3323 -0.3084 -0.3127
  449MPD2    C4 6689   1.433   3.475  14.576 -0.1934 -0.1848 -0.4844
  449MPD2    C5 6690   1.564   3.506  14.534  0.0755 -1.1789 -0.4220
  449MPD2     H 6691   1.272   3.718  14.408  1.6365 -0.5657 -2.0538
  449MPD2    H1 6692   1.423   3.381  14.629 -3.1304  0.6792  0.5041
  449MPD2    H2 6693   1.689   3.627  14.424  0.2819  1.3542 -1.3551
  449MPD2    H3 6694   1.633   3.428  14.563 -0.1449 -1.5519 -0.8973
  449MPD2     N 6695   1.192   3.523  14.567  0.7402  0.3837  0.4857
  449MPD2    H5 6696   1.117   3.577  14.523  1.5961  0.7280 -0.5536
  449MPD2    N1 6697   1.495   3.754  14.279 -0.1282  0.0397  0.0595
  449MPD2    H7 6698   1.419   3.809  14.242 -0.0436 -1.0434 -1.7532
  450TMC3    C1 6699   1.579   3.866  14.093  0.1973 -0.0085 -0.0684
  450TMC3    C2 6700   1.621   3.818  13.970 -0.2868  0.1158 -0.0085
  450TMC3    C3 6701   1.530   3.820  13.872  1.2972  0.2779  0.1797
  450TMC3    C4 6702   1.459   3.929  14.108 -0.3730  0.0369  0.0035
  450TMC3    C5 6703   1.363   3.925  14.008  0.2402 -0.6286  0.5596
  450TMC3    C6 6704   1.402   3.868  13.890  0.2942 -0.0995  0.5145
  450TMC3     C 6705   1.608   3.773  14.198 -0.0258  0.5440 -0.7838
  450TMC3     O 6706   1.704   3.696  14.190 -0.3986 -0.4425  0.5778
  450TMC3     H 6707   1.720   3.773  13.965 -0.8865 -1.2524  0.3510
  450TMC3    H1 6708   1.432   3.979  14.200  0.6871 -2.9565  1.9346
  450TMC3    H2 6709   1.328   3.849  13.813  1.5814 -2.2699 -0.1799
  450TMC3    C7 6710   1.240   3.874  14.061 -0.9289  0.3439  0.3596
  450TMC3    C8 6711   1.565   3.769  13.740  0.3664  0.3796 -0.4161
  450TMC3    O1 6712   1.245   3.830  14.177 -0.2397 -0.1531  0.6094
  450TMC3    O2 6713   1.474   3.716  13.675 -0.3554  0.2388 -0.3018
  451MPD2     C 6714   3.034   3.228   1.336  0.2008 -0.4517  0.4322
  451MPD2    C1 6715   2.994   3.113   1.395 -0.0135  0.4425  0.1921
  451MPD2    C2 6716   3.087   3.037   1.453  0.3244  0.4111 -0.4250
  451MPD2    C3 6717   3.220   3.060   1.440  0.0743  0.0199 -0.4619
  451MPD2    C4 6718   3.263   3.170   1.371  0.2944  0.1196  0.5904
  451MPD2    C5 6719   3.163   3.251   1.327  0.0614 -0.5809 -0.1056
  451MPD2     H 6720   3.046   2.948   1.501 -1.5701  0.6262 -1.6263
  451MPD2    H1 6721   3.368   3.191   1.351  0.0176 -2.3791 -3.4104
  451MPD2    H2 6722   2.965   3.302   1.297  0.4024 -0.3709  0.2348
  451MPD2    H3 6723   3.199   3.342   1.281 -1.4286  0.6365  1.1441
  451MPD2     N 6724   3.315   2.962   1.487 -0.2842 -0.2381  0.1231
  451MPD2    H5 6725   3.408   2.962   1.445  0.3377  0.9196  1.4981
  451MPD2    N1 6726   2.851   3.099   1.411 -0.4297 -0.0852 -0.4068
  451MPD2    H7 6727   2.797   3.166   1.357 -0.4070  0.9367  0.8640
  452TMC3    C1 6728   3.392   2.768   1.593 -0.2623  0.3888  0.9427
  452TMC3    C2 6729   3.385   2.695   1.702 -0.6215 -0.4885  0.4119
  452TMC3    C3 6730   3.453   2.574   1.690 -0.0325  0.3283 -0.5190
  452TMC3    C4 6731   3.461   2.736   1.479  0.7265 -1.6840 -0.0747
  452TMC3    C5 6732   3.540   2.624   1.484 -0.0587 -0.4119 -0.8644
  452TMC3    C6 6733   3.539   2.540   1.590  0.1444 -0.1294 -0.5131
  452TMC3     C 6734   3.284   2.861   1.576  0.0745 -0.3752  0.6074
  452TMC3     O 6735   3.185   2.844   1.647 -0.0854 -0.2795 -0.1166
  452TMC3     H 6736   3.310   2.718   1.776  1.5795  1.1170  2.1355
  452TMC3    H1 6737   3.456   2.795   1.388  0.9114 -2.4881 -0.6140
  452TMC3    H2 6738   3.605   2.455   1.592  0.9847  0.5377 -0.1062
  452TMC3    C7 6739   3.613   2.576   1.363  0.5635 -0.2483 -0.3225
  452TMC3    C8 6740   3.433   2.477   1.797 -0.3811 -0.9313 -0.1934
  452TMC3    O1 6741   3.561   2.582   1.254  0.0895 -0.7045 -0.3663
  452TMC3    O2 6742   3.423   2.362   1.765 -0.0835  0.6110 -0.4287
  453TMC3    C1 6743   4.267   3.950  11.679 -0.3834  0.3594  0.6933
  453TMC3    C2 6744   4.155   3.891  11.725  0.6475 -0.1131  0.1707
  453TMC3    C3 6745   4.049   3.885  11.649  0.2692  0.7216  0.5080
  453TMC3    C4 6746   4.275   3.991  11.550  0.4037  0.7637  0.1607
  453TMC3    C5 6747   4.164   4.007  11.476  0.0293 -0.7651  0.2027
  453TMC3    C6 6748   4.055   3.940  11.520 -0.6621 -0.4412 -0.4277
  453TMC3     C 6749   4.382   3.987  11.761 -0.8545 -0.7289 -0.2471
  453TMC3     O 6750   4.495   3.979  11.719  0.2172  0.0574 -0.0075
  453TMC3     H 6751   4.149   3.854  11.826  0.5586 -0.3513  0.0777
  453TMC3    H1 6752   4.364   4.049  11.528 -1.2543  4.0040  1.8690
  453TMC3    H2 6753   3.973   3.945  11.450  0.4531 -2.0349 -1.8427
  453TMC3    C7 6754   4.169   4.066  11.343 -0.2981 -0.6740  0.4530
  453TMC3    C8 6755   3.933   3.797  11.683  0.0233 -0.5523  0.1924
  453TMC3    O1 6756   4.074   4.038  11.267  0.7487  0.0754  0.0375
  453TMC3    O2 6757   3.859   3.755  11.594  0.2123  0.2460  0.0180
  454MPD2     C 6758   2.648   4.094  15.970 -0.3710  1.0414 -0.4074
  454MPD2    C1 6759   2.578   3.982  15.938  0.1081  0.1870 -0.3569
  454MPD2    C2 6760   2.527   3.904  16.040 -0.2587 -0.1481  0.5769
  454MPD2    C3 6761   2.552   3.937  16.172 -1.0432 -0.2051  0.0576
  454MPD2    C4 6762   2.617   4.050  16.203  0.6309 -0.1263  0.4523
  454MPD2    C5 6763   2.666   4.129  16.104  0.7619 -0.0822 -0.3324
  454MPD2     H 6764   2.459   3.822  16.020  0.7741 -0.5679 -1.2073
  454MPD2    H1 6765   2.635   4.080  16.306  0.2160  0.9807  0.2007
  454MPD2    H2 6766   2.681   4.168  15.898 -0.4633  1.5760  0.0924
  454MPD2    H3 6767   2.702   4.229  16.125 -1.2962  0.6102 -0.1280
  454MPD2     N 6768   2.484   3.876  16.278 -0.5507  0.1277  0.1478
  454MPD2    H5 6769   2.479   3.925  16.367 -2.8234  1.3881 -0.6590
  454MPD2    N1 6770   2.554   3.951  15.805  0.1685 -0.3758 -0.2857
  454MPD2    H7 6771   2.577   4.024  15.739  2.0727 -1.0371 -0.3744
  455TMC3    C1 6772   2.306   3.746  16.358 -0.6191  0.4082  0.4580
  455TMC3    C2 6773   2.254   3.855  16.426 -0.2210  0.1025 -0.0414
  455TMC3    C3 6774   2.143   3.837  16.512 -0.3441  0.2502  0.6294
  455TMC3    C4 6775   2.249   3.623  16.363  0.2544 -0.0737  0.2725
  455TMC3    C5 6776   2.146   3.611  16.455  0.0908 -0.8540 -0.2111
  455TMC3    C6 6777   2.087   3.713  16.527 -0.9308 -0.8597  0.1769
  455TMC3     C 6778   2.415   3.757  16.267 -0.4023  0.8603 -0.2575
  455TMC3     O 6779   2.425   3.668  16.179 -0.4546  0.0512  0.0319
  455TMC3     H 6780   2.317   3.943  16.429 -1.1351  0.8798 -3.9909
  455TMC3    H1 6781   2.286   3.544  16.299 -4.4101 -1.5067 -0.6701
  455TMC3    H2 6782   2.007   3.688  16.596 -1.5798  0.2856 -0.1749
  455TMC3    C7 6783   2.090   3.478  16.488  0.0792  0.6554 -0.2798
  455TMC3    C8 6784   2.106   3.955  16.592  0.2768  0.1168  0.0484
  455TMC3    O1 6785   2.001   3.474  16.568 -0.2319  0.8272 -0.1353
  455TMC3    O2 6786   2.163   4.055  16.562  0.8374  0.5382  0.4154
  456MPD2     C 6787   0.284   3.982  16.244 -0.3141 -0.4367 -0.2128
  456MPD2    C1 6788   0.327   3.931  16.362 -0.3352  0.7133  0.9778
  456MPD2    C2 6789   0.293   3.988  16.477 -0.4525  0.5468  0.6193
  456MPD2    C3 6790   0.215   4.100  16.479  0.9312  0.0987  0.0833
  456MPD2    C4 6791   0.148   4.138  16.369  0.0140 -0.2794  0.4231
  456MPD2    C5 6792   0.190   4.088  16.247 -0.2669 -0.0728  0.1901
  456MPD2     H 6793   0.330   3.953  16.573  0.7934 -0.0198 -0.0783
  456MPD2    H1 6794   0.067   4.211  16.361 -0.3351 -0.7841 -0.6553
  456MPD2    H2 6795   0.312   3.936  16.150 -0.0589  0.8036 -0.7461
  456MPD2    H3 6796   0.134   4.129  16.164 -0.2697 -0.4133  0.0255
  456MPD2     N 6797   0.184   4.157  16.604  0.6870  0.4421 -0.2329
  456MPD2    H5 6798   0.223   4.098  16.677 -0.4386  0.2324  0.1824
  456MPD2    N1 6799   0.411   3.816  16.358 -0.6194  0.3859 -0.0480
  456MPD2    H7 6800   0.451   3.802  16.266 -0.0947  0.7287  0.1259
  457TMC3    C1 6801   0.137   4.302  16.762  0.6493  0.2019  1.1304
  457TMC3    C2 6802   0.162   4.436  16.793  0.1193 -0.0426 -0.5154
  457TMC3    C3 6803   0.216   4.472  16.911 -0.3081  0.0122 -0.2038
  457TMC3    C4 6804   0.157   4.203  16.849 -0.0495  0.4586 -0.6814
  457TMC3    C5 6805   0.199   4.241  16.974 -1.5324 -0.0077  0.6450
  457TMC3    C6 6806   0.232   4.371  17.005  0.2599  0.3501 -0.5229
  457TMC3     C 6807   0.136   4.275  16.621 -0.1779 -0.5186  1.0200
  457TMC3     O 6808   0.125   4.368  16.542 -0.1919  0.4607  0.5105
  457TMC3     H 6809   0.171   4.504  16.710 -2.1105  0.9276  0.0320
  457TMC3    H1 6810   0.131   4.099  16.830  1.4790 -0.0660  0.0884
  457TMC3    H2 6811   0.268   4.401  17.103 -1.2217 -0.5509  0.3011
  457TMC3    C7 6812   0.178   4.165  17.094 -0.3778  0.3653  0.7536
  457TMC3    C8 6813   0.263   4.609  16.933  0.7703 -0.0978  0.2538
  457TMC3    O1 6814   0.233   4.200  17.199 -0.0053  0.1909 -0.3176
  457TMC3    O2 6815   0.376   4.620  16.980 -0.0863 -0.4222  0.7021
  458MPD2     C 6816   2.881   3.667  12.566 -0.2100 -0.1049 -0.6179
  458MPD2    C1 6817   2.825   3.538  12.547  0.1292  0.3807 -0.2340
  458MPD2    C2 6818   2.707   3.504  12.611  0.9857 -0.6912 -0.7385
  458MPD2    C3 6819   2.647   3.598  12.695  0.3686 -0.2637 -0.1957
  458MPD2    C4 6820   2.705   3.720  12.722  0.2508 -0.7562  0.3707
  458MPD2    C5 6821   2.819   3.753  12.653  1.1731 -0.1754 -0.5151
  458MPD2     H 6822   2.668   3.404  12.602 -1.3937  0.3068 -1.4187
  458MPD2    H1 6823   2.663   3.793  12.790 -0.3375 -0.0580 -0.7398
  458MPD2    H2 6824   2.963   3.698  12.503 -0.6038  2.3616  0.0988
  458MPD2    H3 6825   2.876   3.842  12.675  3.3659 -1.2206 -1.9505
  458MPD2     N 6826   2.536   3.555  12.768 -0.1339 -0.2875 -0.0900
  458MPD2    H5 6827   2.480   3.493  12.710 -1.3206  0.8139 -0.1251
  458MPD2    N1 6828   2.897   3.445  12.465  0.1509 -0.0289 -0.1735
  458MPD2    H7 6829   2.986   3.468  12.422 -0.0662  1.5945  0.2721
  459TMC3    C1 6830   2.957   3.239  12.437  0.1856 -0.2844  0.0274
  459TMC3    C2 6831   3.043   3.248  12.331 -0.2167  0.1462 -0.1138
  459TMC3    C3 6832   3.163   3.189  12.353 -0.0958  0.5574  0.4063
  459TMC3    C4 6833   2.982   3.173  12.550 -0.5286 -0.5544 -0.6822
  459TMC3    C5 6834   3.093   3.100  12.558 -0.3100 -0.4620 -0.1476
  459TMC3    C6 6835   3.182   3.101  12.457  0.4793  0.2275  0.0731
  459TMC3     C 6836   2.845   3.321  12.443 -0.0530  0.0664  0.1609
  459TMC3     O 6837   2.742   3.260  12.471 -0.0592 -0.1673  0.4717
  459TMC3     H 6838   3.025   3.324  12.256  1.1102 -1.4496 -2.0825
  459TMC3    H1 6839   2.908   3.185  12.629  1.6228 -2.5338  1.6054
  459TMC3    H2 6840   3.277   3.051  12.471  0.4272  0.1551  0.1680
  459TMC3    C7 6841   3.123   3.030  12.672  0.5507  0.8174 -0.6513
  459TMC3    C8 6842   3.280   3.236  12.283 -0.1862 -0.4702 -0.1073
  459TMC3    O1 6843   3.204   2.941  12.663 -0.5943  0.5568 -0.2622
  459TMC3    O2 6844   3.382   3.207  12.341  0.3638  0.1318  0.2401
  460MPD2     C 6845   2.746   0.491  10.827  0.8375  0.0287 -0.3629
  460MPD2    C1 6846   2.621   0.555  10.847 -0.1040  0.9366  0.3993
  460MPD2    C2 6847   2.542   0.604  10.743  0.6209  0.3059 -0.0844
  460MPD2    C3 6848   2.588   0.588  10.612 -0.8059 -0.2240 -0.1762
  460MPD2    C4 6849   2.708   0.531  10.598 -0.1702 -0.6474  0.2854
  460MPD2    C5 6850   2.790   0.488  10.699 -0.4980  0.5922  0.0089
  460MPD2     H 6851   2.448   0.650  10.769 -0.0262 -2.7405  3.0505
  460MPD2    H1 6852   2.753   0.523  10.499  1.0054 -0.0914  0.7718
  460MPD2    H2 6853   2.820   0.465  10.902 -0.2423 -0.5488  0.4988
  460MPD2    H3 6854   2.892   0.454  10.683 -0.2507  1.7678 -0.9158
  460MPD2     N 6855   2.508   0.631  10.505  0.1365 -0.4627  0.3936
  460MPD2    H5 6856   2.425   0.686  10.519  0.4769 -0.0960  0.9479
  460MPD2    N1 6857   2.600   0.585  10.985 -0.1886  0.2955  0.2891
  460MPD2    H7 6858   2.663   0.539  11.051  1.1392 -0.7016 -1.6850
  461TMC3    C1 6859   2.437   0.662  10.279  0.4907 -0.0180  0.2259
  461TMC3    C2 6860   2.410   0.595  10.165 -0.5781 -0.7068 -0.0715
  461TMC3    C3 6861   2.333   0.662  10.073  0.2549 -1.0585  0.6711
  461TMC3    C4 6862   2.388   0.791  10.303  0.2735 -0.5708  0.3387
  461TMC3    C5 6863   2.305   0.848  10.208  1.1691 -0.3073 -0.0851
  461TMC3    C6 6864   2.285   0.788  10.088  0.4558  0.6893 -0.6031
  461TMC3     C 6865   2.533   0.606  10.371 -0.5363  0.4325 -0.4223
  461TMC3     O 6866   2.606   0.528  10.316 -0.5534 -0.2025 -0.3265
  461TMC3     H 6867   2.440   0.492  10.152 -0.6487 -0.3659 -3.0774
  461TMC3    H1 6868   2.420   0.839  10.395 -0.4780  2.6045 -1.0587
  461TMC3    H2 6869   2.222   0.841  10.018 -2.0203 -1.6283 -0.1173
  461TMC3    C7 6870   2.291   0.992  10.193  0.1585  0.1389 -0.1249
  461TMC3    C8 6871   2.301   0.598   9.949 -0.9591 -0.6926  0.4496
  461TMC3    O1 6872   2.197   1.038  10.128  0.0302 -0.0098 -0.2621
  461TMC3    O2 6873   2.387   0.527   9.909 -0.3550 -0.1836  0.1406
  462TMC3    C1 6874   2.335   2.256   0.075 -0.2744  0.4959  0.1052
  462TMC3    C2 6875   2.462   2.206   0.063 -0.4117  0.1836 -0.9694
  462TMC3    C3 6876   2.502   2.120   0.166  0.0132 -0.0994  0.8131
  462TMC3    C4 6877   2.243   2.211   0.165 -0.2583  0.4414  0.3212
  462TMC3    C5 6878   2.284   2.120   0.265 -0.2219  0.3799  0.7121
  462TMC3    C6 6879   2.411   2.072   0.260  0.7177 -0.4293  0.0208
  462TMC3     C 6880   2.334   2.390   0.030  0.1952  0.3765 -0.1753
  462TMC3     O 6881   2.326   2.470   0.125 -0.0229 -0.7335  0.0588
  462TMC3     H 6882   2.529   2.254  17.692 -1.2741 -0.7393 -2.4042
  462TMC3    H1 6883   2.159   2.276   0.185  0.2872  1.0185  0.7474
  462TMC3    H2 6884   2.448   2.015   0.344  1.7624 -0.5061 -0.4966
  462TMC3    C7 6885   2.189   2.040   0.336  0.2385 -0.7098 -0.2694
  462TMC3    C8 6886   2.646   2.089   0.174  0.3541 -0.3971  0.1594
  462TMC3    O1 6887   2.237   1.949   0.399 -0.0327 -0.6667 -0.4974
  462TMC3    O2 6888   2.702   2.081   0.284  0.4179 -0.7886  0.3241
  463MPD2     C 6889   2.581   0.701   2.477 -0.3739  0.3761  0.3183
  463MPD2    C1 6890   2.550   0.689   2.340 -0.1628 -0.2431  0.2063
  463MPD2    C2 6891   2.610   0.780   2.254  0.2580  0.7379 -0.3419
  463MPD2    C3 6892   2.713   0.867   2.298  1.1076  0.3568 -0.0751
  463MPD2    C4 6893   2.746   0.864   2.428 -0.0250  0.4577  0.2735
  463MPD2    C5 6894   2.677   0.788   2.511  0.4689 -0.1727 -0.2785
  463MPD2     H 6895   2.583   0.780   2.149 -0.6954 -1.9898 -0.0984
  463MPD2    H1 6896   2.798   0.942   2.482  0.0637  2.7906 -3.2082
  463MPD2    H2 6897   2.530   0.648   2.557 -4.2725  1.0745 -1.6613
  463MPD2    H3 6898   2.710   0.791   2.614 -0.4459  1.5642 -0.0205
  463MPD2     N 6899   2.771   0.968   2.212  0.1545 -0.3249  0.3974
  463MPD2    H5 6900   2.849   1.024   2.244 -1.3923  0.2291  3.2390
  463MPD2    N1 6901   2.452   0.599   2.286  0.2566 -0.1883 -0.1654
  463MPD2    H7 6902   2.439   0.585   2.187 -1.9241 -0.3632  0.1512
  464TMC3    C1 6903   2.327   0.408   2.286 -0.9546 -0.3526  0.3473
  464TMC3    C2 6904   2.317   0.423   2.145  0.5475 -0.0458  0.4271
  464TMC3    C3 6905   2.325   0.310   2.069 -0.6472  0.1191  0.4733
  464TMC3    C4 6906   2.335   0.280   2.337 -0.0775  0.2519  0.9712
  464TMC3    C5 6907   2.338   0.171   2.252  0.1699  0.7798 -0.3113
  464TMC3    C6 6908   2.349   0.186   2.116 -0.4268  0.1075 -0.8056
  464TMC3     C 6909   2.390   0.509   2.368 -0.4131  0.4455 -0.4906
  464TMC3     O 6910   2.400   0.478   2.488  0.2004 -0.0950  0.4316
  464TMC3     H 6911   2.289   0.519   2.103 -2.0540 -1.1539 -0.3701
  464TMC3    H1 6912   2.335   0.266   2.444 -2.3324  0.1971  0.9713
  464TMC3    H2 6913   2.381   0.106   2.050  0.6035  0.6629 -0.9703
  464TMC3    C7 6914   2.333   0.034   2.309 -0.5684  0.0162  0.4347
  464TMC3    C8 6915   2.302   0.314   1.927 -0.3997 -0.0003  0.6829
  464TMC3    O1 6916   2.347   0.044   2.430 -0.9077  0.0530  0.2120
  464TMC3    O2 6917   2.366   0.240   1.854 -0.1522  0.0382  0.4120
  465MPD2     C 6918   4.496   4.048  16.559 -0.6497 -0.0939 -0.8176
  465MPD2    C1 6919   4.381   4.049  16.624 -0.2218 -0.4918  0.4513
  465MPD2    C2 6920   4.268   4.013  16.560 -0.9848  0.1683 -0.1470
  465MPD2    C3 6921   4.268   3.981  16.432  0.5774 -0.3920 -0.1253
  465MPD2    C4 6922   4.388   3.973  16.362 -0.1285  0.4109  0.1339
  465MPD2    C5 6923   4.500   4.010  16.431 -0.0464  0.5131 -0.1495
  465MPD2     H 6924   4.169   4.024  16.604 -0.1064 -2.4143  2.4482
  465MPD2    H1 6925   4.379   3.954  16.256 -0.9837 -3.0060  0.8032
  465MPD2    H2 6926   4.591   4.063  16.611 -0.7023 -1.6689 -0.2848
  465MPD2    H3 6927   4.594   3.994  16.378 -0.6516 -1.1392 -0.7272
  465MPD2     N 6928   4.142   3.970  16.376 -0.4362  0.1692  0.5864
  465MPD2    H5 6929   4.067   3.975  16.444 -0.4555  0.1757  0.5643
  465MPD2    N1 6930   4.363   4.072  16.759  0.4136  0.2557 -0.3103
  465MPD2    H7 6931   4.266   4.066  16.790  0.2948 -0.0359 -0.7403
  466TMC3    C1 6932   3.788   3.945  16.363 -0.1566 -0.3067  0.0384
  466TMC3    C2 6933   3.734   4.064  16.320 -0.4411 -0.0094  0.1611
  466TMC3    C3 6934   3.814   4.131  16.228  0.1772  0.3121  0.1149
  466TMC3    C4 6935   3.908   3.896  16.320  0.1416  0.2813 -0.2672
  466TMC3    C5 6936   3.975   3.969  16.221  0.8531 -0.8478 -0.1564
  466TMC3    C6 6937   3.933   4.090  16.174 -0.5762  0.3452 -0.2175
  466TMC3     C 6938   3.738   3.892  16.497  0.2744  0.0416  0.6431
  466TMC3     O 6939   3.667   3.966  16.558  0.1106  0.6669  0.0305
  466TMC3     H 6940   3.642   4.106  16.360 -0.9489 -2.0853  1.2022
  466TMC3    H1 6941   3.949   3.806  16.364 -1.5583 -0.8253 -0.9320
  466TMC3    H2 6942   3.994   4.148  16.106 -0.2816 -0.1321 -0.3565
  466TMC3    C7 6943   4.118   3.968  16.239  0.2274 -0.0476  0.8765
  466TMC3    C8 6944   3.768   4.261  16.186  0.2367  0.8374 -0.0235
  466TMC3    O1 6945   4.194   3.988  16.144 -0.4385 -0.4598  0.3229
  466TMC3    O2 6946   3.801   4.295  16.071 -0.2192 -0.0919  0.1616
  467TMC3    C1 6947   0.334   2.861  14.036  0.0193 -0.1758 -0.5863
  467TMC3    C2 6948   0.282   2.861  13.903  0.2698  0.0817  0.5765
  467TMC3    C3 6949   0.208   2.755  13.865 -0.2537  0.4977  0.8513
  467TMC3    C4 6950   0.321   2.755  14.118  0.2073 -0.5807 -0.1510
  467TMC3    C5 6951   0.240   2.649  14.074 -0.0192 -0.4197 -0.0850
  467TMC3    C6 6952   0.178   2.655  13.951 -0.7933  0.0933  0.1617
  467TMC3     C 6953   0.440   2.950  14.077 -0.3829  0.5401 -0.1206
  467TMC3     O 6954   0.525   2.907  14.152 -0.8664  0.4736 -0.1911
  467TMC3     H 6955   0.314   2.938  13.834 -1.2623  1.4686  1.4191
  467TMC3    H1 6956   0.348   2.755  14.223  0.7436 -2.9762 -0.3073
  467TMC3    H2 6957   0.139   2.561  13.913 -1.9678  0.5155  0.3461
  467TMC3    C7 6958   0.199   2.552  14.169 -0.2847 -0.7047 -0.2577
  467TMC3    C8 6959   0.168   2.744  13.730  0.6126  0.0580  0.3613
  467TMC3    O1 6960   0.291   2.519  14.241  0.3955  0.4596  0.5389
  467TMC3    O2 6961   0.065   2.679  13.702  0.7593  0.2132  0.0141
  468MPD2     C 6962   4.258   0.991  10.946  0.1252  0.0963 -0.1454
  468MPD2    C1 6963   4.374   0.919  10.935 -0.1844 -0.1608 -0.1835
  468MPD2    C2 6964   4.383   0.791  10.981 -0.1444 -0.3035 -0.2298
  468MPD2    C3 6965   4.266   0.722  11.010  0.6890  0.3203  0.0878
  468MPD2    C4 6966   4.144   0.787  11.007  0.1865 -0.8443  0.2658
  468MPD2    C5 6967   4.143   0.921  10.975 -0.4888  0.2968  0.9344
  468MPD2     H 6968   4.481   0.746  10.977 -0.3190 -0.7696  0.6604
  468MPD2    H1 6969   4.052   0.735  11.031  0.6883 -1.8887 -0.0619
  468MPD2    H2 6970   4.248   1.097  10.927  0.6915 -0.3309 -2.8495
  468MPD2    H3 6971   4.052   0.979  10.983 -1.0857 -0.5230  0.0760
  468MPD2     N 6972   4.256   0.582  11.043 -0.4004 -0.2243 -0.5650
  468MPD2    H5 6973   4.164   0.542  11.054  0.3848 -2.6205 -2.7354
  468MPD2    N1 6974   4.495   0.982  10.892  0.1980 -0.0788  0.2449
  468MPD2    H7 6975   4.571   0.914  10.893  0.1725 -0.1262 -0.9893
  469TMC3    C1 6976   4.634   1.146  10.779  0.2245 -0.2958  0.2379
  469TMC3    C2 6977   0.023   1.075  10.821 -0.2743 -0.4480 -0.3611
  469TMC3    C3 6978   0.132   1.097  10.743 -0.4314 -0.2565 -0.6365
  469TMC3    C4 6979   4.627   1.236  10.671  0.3542  0.0856 -0.1074
  469TMC3    C5 6980   0.019   1.257  10.594 -0.2902  0.1840 -0.6290
  469TMC3    C6 6981   0.130   1.174  10.623 -0.0552 -0.6356  0.0119
  469TMC3     C 6982   4.504   1.103  10.818  0.5883 -0.6097  0.3323
  469TMC3     O 6983   4.412   1.179  10.786  1.1715 -0.0291  0.2296
  469TMC3     H 6984   0.030   1.026  10.917 -0.4364  1.5185  0.6647
  469TMC3    H1 6985   4.533   1.282  10.647  0.4269 -0.5994 -1.6710
  469TMC3    H2 6986   0.221   1.175  10.564 -0.2732  0.9714 -0.3035
  469TMC3    C7 6987   0.014   1.330  10.468  0.5185 -0.2466  0.5614
  469TMC3    C8 6988   0.263   1.059  10.790 -0.3824  0.4515  0.5013
  469TMC3    O1 6989   0.112   1.315  10.399 -0.5661 -0.4534 -0.3113
  469TMC3    O2 6990   0.363   1.093  10.730 -1.5651  0.3471  0.1871
  470TMC3    C1 6991   1.754   1.378   1.046  0.6401  0.0536 -0.5267
  470TMC3    C2 6992   1.771   1.516   1.058  0.0107  0.2145  0.3966
  470TMC3    C3 6993   1.781   1.566   1.188  0.7160 -0.6565 -0.1627
  470TMC3    C4 6994   1.762   1.287   1.148 -0.2528 -0.3922  0.1330
  470TMC3    C5 6995   1.772   1.339   1.274 -0.7637 -0.1934  0.9397
  470TMC3    C6 6996   1.783   1.479   1.298 -0.3184 -0.0481 -0.6422
  470TMC3     C 6997   1.708   1.349   0.910  0.4679 -0.0732  0.8268
  470TMC3     O 6998   1.730   1.425   0.820  0.3113  0.5762  0.6969
  470TMC3     H 6999   1.782   1.574   0.967 -0.7122  0.2803  0.3571
  470TMC3    H1 7000   1.748   1.181   1.132  1.8337 -0.7277  0.5136
  470TMC3    H2 7001   1.783   1.507   1.403 -1.6850  1.5519 -1.0798
  470TMC3    C7 7002   1.751   1.244   1.385  0.6692  0.1205  0.6101
  470TMC3    C8 7003   1.765   1.709   1.209  0.3899 -1.4681 -0.1261
  470TMC3    O1 7004   1.698   1.135   1.366 -0.5866 -0.4396  0.4127
  470TMC3    O2 7005   1.797   1.766   1.312 -0.1025  0.2556 -0.1123
  471MPD2     C 7006   1.301   2.939  16.799  0.2895 -0.6811  0.2230
  471MPD2    C1 7007   1.393   2.842  16.763 -0.3463 -0.2692  0.1368
  471MPD2    C2 7008   1.508   2.828  16.833  0.2617  0.3398  0.0092
  471MPD2    C3 7009   1.541   2.909  16.942 -0.2332 -0.0163  0.2167
  471MPD2    C4 7010   1.453   3.006  16.978 -0.0307  0.3340  0.0589
  471MPD2    C5 7011   1.336   3.015  16.908 -0.1914 -0.1394  0.0376
  471MPD2     H 7012   1.577   2.752  16.799  0.9251  0.7551  0.4407
  471MPD2    H1 7013   1.473   3.076  17.058 -0.0433 -2.2958  2.3799
  471MPD2    H2 7014   1.212   2.946  16.739  1.1165 -1.0451 -1.0431
  471MPD2    H3 7015   1.267   3.096  16.931  2.3937  2.1420 -0.2932
  471MPD2     N 7016   1.672   2.908  17.006 -0.5665 -0.2006 -0.2966
  471MPD2    H5 7017   1.681   2.963  17.091  0.7129  1.6768 -1.6635
  471MPD2    N1 7018   1.381   2.751  16.654  0.5334 -0.7639  0.2767
  471MPD2    H7 7019   1.444   2.672  16.645  0.2383 -0.9363 -0.2808
  472TMC3    C1 7020   1.294   2.647  16.460 -0.4850 -0.3625  0.1339
  472TMC3    C2 7021   1.179   2.598  16.406  0.1336  0.0080  0.3430
  472TMC3    C3 7022   1.191   2.487  16.323  0.3947 -0.1793 -0.8012
  472TMC3    C4 7023   1.414   2.584  16.425 -0.0165  0.5437  1.3752
  472TMC3    C5 7024   1.416   2.479  16.340 -0.2536  0.1278 -0.4865
  472TMC3    C6 7025   1.307   2.421  16.290  0.0743 -0.0866  0.5790
  472TMC3     C 7026   1.279   2.752  16.562 -1.0743  0.5815  0.3173
  472TMC3     O 7027   1.168   2.808  16.566  0.4415  0.1861  0.4821
  472TMC3     H 7028   1.086   2.648  16.432  0.2594 -0.0512  0.9126
  472TMC3    H1 7029   1.507   2.621  16.467  0.6747 -0.8903  1.1061
  472TMC3    H2 7030   1.303   2.322  16.246 -2.5016  1.3556 -2.4091
  472TMC3    C7 7031   1.516   2.384  16.375  0.1321  0.4004  0.0453
  472TMC3    C8 7032   1.066   2.408  16.321  0.1016 -0.0899  0.1467
  472TMC3    O1 7033   1.537   2.364  16.496  0.0088 -0.0194  0.7420
  472TMC3    O2 7034   1.004   2.401  16.218 -0.1216 -0.2411 -0.2329
  473MPD2     C 7035   2.247   0.249  14.231 -0.4155 -0.5814 -0.1823
  473MPD2    C1 7036   2.222   0.305  14.108  0.2186 -0.2314  0.0395
  473MPD2    C2 7037   2.222   0.442  14.105 -1.0009  0.5307  0.3990
  473MPD2    C3 7038   2.244   0.527  14.210  0.1469 -0.0623  0.2385
  473MPD2    C4 7039   2.272   0.470  14.333 -0.3057 -0.5360 -0.3973
  473MPD2    C5 7040   2.280   0.335  14.340 -0.1965  0.6382 -0.4575
  473MPD2     H 7041   2.191   0.483  14.009  1.1621 -0.7437 -0.8347
  473MPD2    H1 7042   2.296   0.531  14.420  1.5790  0.6836 -1.7515
  473MPD2    H2 7043   2.261   0.144  14.251  3.1496 -0.1763 -0.5262
  473MPD2    H3 7044   2.311   0.295  14.436 -3.4798 -1.2136 -0.1923
  473MPD2     N 7045   2.234   0.666  14.193 -0.3985  0.6479  0.4060
  473MPD2    H5 7046   2.238   0.728  14.273 -3.5492  1.1902  0.1258
  473MPD2    N1 7047   2.182   0.221  14.006 -0.2913  0.4828 -0.6033
  473MPD2    H7 7048   2.127   0.268  13.935 -1.2743 -0.6089 -0.5648
  474TMC3    C1 7049   2.231   0.871  14.085  0.0107  0.3391 -0.6618
  474TMC3    C2 7050   2.160   0.940  13.997  0.7171 -1.0915  0.5797
  474TMC3    C3 7051   2.146   1.078  14.003  0.1386 -0.0487  0.3329
  474TMC3    C4 7052   2.287   0.941  14.196 -0.7729  0.1704  0.4528
  474TMC3    C5 7053   2.264   1.077  14.206 -0.0726  0.7481  0.0083
  474TMC3    C6 7054   2.198   1.144  14.108  0.1249 -0.2696 -0.0268
  474TMC3     C 7055   2.245   0.726  14.066  0.1738  0.4820 -0.4641
  474TMC3     O 7056   2.250   0.686  13.950  0.2823 -0.0524  0.0081
  474TMC3     H 7057   2.122   0.890  13.909 -0.3884  0.6820  0.0415
  474TMC3    H1 7058   2.353   0.892  14.267  1.6821 -0.3267 -2.1877
  474TMC3    H2 7059   2.170   1.248  14.124  1.8182  0.1925 -0.0471
  474TMC3    C7 7060   2.323   1.164  14.309 -0.3523  0.1590 -0.5237
  474TMC3    C8 7061   2.050   1.139  13.923  0.0715 -0.4709  0.2398
  474TMC3    O1 7062   2.332   1.275  14.269  0.3521 -0.9517  0.0660
  474TMC3    O2 7063   1.967   1.072  13.865  0.1250  0.2893  0.0853
  475MPD2     C 7064   0.416   3.712  10.614  0.0621  0.1509 -0.0015
  475MPD2    C1 7065   0.385   3.607  10.530  0.0581  0.6015  0.0832
  475MPD2    C2 7066   0.253   3.591  10.481 -0.0699 -0.2355 -0.1188
  475MPD2    C3 7067   0.153   3.676  10.536  0.1890  0.5335 -0.0782
  475MPD2    C4 7068   0.191   3.775  10.626 -0.1217  0.3091  1.0540
  475MPD2    C5 7069   0.321   3.800  10.662  0.9041  0.6397  0.2359
  475MPD2     H 7070   0.229   3.519  10.404 -1.7752  1.6117 -1.3118
  475MPD2    H1 7071   0.110   3.838  10.664 -0.0663  0.4231  0.9840
  475MPD2    H2 7072   0.513   3.732  10.657 -0.1499 -0.1529  0.6290
  475MPD2    H3 7073   0.344   3.876  10.735 -0.5940 -0.0753  1.4437
  475MPD2     N 7074   0.021   3.653  10.497  0.2428 -0.1696 -0.3891
  475MPD2    H5 7075   0.008   3.567  10.444  0.9345 -2.0465  2.4762
  475MPD2    N1 7076   0.497   3.539  10.486 -0.5879 -0.5342 -0.3958
  475MPD2    H7 7077   0.586   3.568  10.523 -0.5255 -0.9328 -0.2319
  476TMC3    C1 7078   0.611   3.362  10.378 -0.1612  0.0177  0.1891
  476TMC3    C2 7079   0.605   3.227  10.336 -0.2121 -0.2329 -0.5254
  476TMC3    C3 7080   0.711   3.163  10.283 -0.6516  0.4114  0.4597
  476TMC3    C4 7081   0.729   3.426  10.381  0.2153 -0.5937 -0.0504
  476TMC3    C5 7082   0.839   3.357  10.343 -0.1328  0.1026 -0.6810
  476TMC3    C6 7083   0.832   3.230  10.289 -0.2478  0.0630  0.0750
  476TMC3     C 7084   0.480   3.430  10.407 -0.3216  0.2906 -0.5216
  476TMC3     O 7085   0.382   3.363  10.384  0.2946  0.5730 -0.1866
  476TMC3     H 7086   0.508   3.180  10.329 -0.4754  0.2202  0.0628
  476TMC3    H1 7087   0.732   3.531  10.405  2.3325 -0.2089 -1.9659
  476TMC3    H2 7088   0.923   3.184  10.251 -0.1678 -1.3625  1.9567
  476TMC3    C7 7089   0.956   3.426  10.313  0.0386 -0.1815  0.1154
  476TMC3    C8 7090   0.691   3.038  10.200 -0.1659  0.7684 -0.5192
  476TMC3    O1 7091   1.042   3.376  10.242  0.2862  0.2254 -0.4131
  476TMC3    O2 7092   0.582   2.992  10.174 -0.7836  0.3792 -1.0752
  477MPD2     C 7093   3.057   0.276  12.188  0.1055  0.9955  0.4255
  477MPD2    C1 7094   3.014   0.186  12.093  0.1671  0.0867 -0.2233
  477MPD2    C2 7095   3.039   0.054  12.124 -0.1799 -0.1215  0.4163
  477MPD2    C3 7096   3.111   0.010  12.234 -0.5075  0.1536 -0.1253
  477MPD2    C4 7097   3.169   0.109  12.315  0.7890 -0.2563 -0.2495
  477MPD2    C5 7098   3.143   0.245  12.290 -0.5676  0.1180 -0.5000
  477MPD2     H 7099   2.980   4.704  12.071 -0.2830  0.0043  0.3544
  477MPD2    H1 7100   3.236   0.102  12.400  0.5259 -1.1554 -0.1084
  477MPD2    H2 7101   3.025   0.379  12.180 -0.1097  1.0818  2.5184
  477MPD2    H3 7102   3.181   0.322  12.356 -1.2169 -0.8238  0.9618
  477MPD2     N 7103   3.109   4.600  12.267  0.6737 -0.4073 -0.0311
  477MPD2    H5 7104   3.068   4.537  12.198 -1.1494  2.1618 -1.3226
  477MPD2    N1 7105   2.930   0.218  11.987  0.4533  0.1366 -0.5715
  477MPD2    H7 7106   2.900   0.315  11.983 -0.3423 -0.0074  1.8760
  478TMC3    C1 7107   2.793   0.197  11.794  0.0149  0.1536  0.2316
  478TMC3    C2 7108   2.708   0.294  11.839 -0.0471 -0.6183 -0.0451
  478TMC3    C3 7109   2.629   0.361  11.745  0.2599  0.5700  0.3298
  478TMC3    C4 7110   2.807   0.164  11.663 -0.0899  0.3947 -0.0203
  478TMC3    C5 7111   2.712   0.226  11.574 -0.3484 -0.1148 -0.6925
  478TMC3    C6 7112   2.631   0.326  11.610  0.8215  0.3733 -0.1542
  478TMC3     C 7113   2.886   0.130  11.884 -0.0926  0.6255  0.0059
  478TMC3     O 7114   2.923   0.023  11.842  0.4790  0.2402 -0.5497
  478TMC3     H 7115   2.715   0.309  11.946  0.7066  1.0831 -0.3447
  478TMC3    H1 7116   2.868   0.078  11.635  1.3466  0.8214  1.8532
  478TMC3    H2 7117   2.587   0.392  11.537  0.0421  1.1692  1.0308
  478TMC3    C7 7118   2.727   0.195  11.432  0.2993  0.2246 -0.2309
  478TMC3    C8 7119   2.547   0.478  11.785 -0.5021  0.3449 -0.0779
  478TMC3    O1 7120   2.831   0.146  11.389  0.9134  0.2785  0.4920
  478TMC3    O2 7121   2.506   0.540  11.693 -0.1110 -0.0655  0.1471
  479MPD2     C 7122   1.850   2.024  14.682 -0.3302 -0.2541 -0.1958
  479MPD2    C1 7123   1.776   1.955  14.779  0.6369  0.8275 -0.3133
  479MPD2    C2 7124   1.780   1.998  14.913  0.3403 -0.2776  0.2825
  479MPD2    C3 7125   1.858   2.111  14.946 -0.6679 -0.2320  0.1383
  479MPD2    C4 7126   1.927   2.177  14.848  0.9194  0.3458 -0.6633
  479MPD2    C5 7127   1.927   2.135  14.716  0.1029  0.0434  0.3170
  479MPD2     H 7128   1.715   1.962  14.992 -1.2725  1.1158 -0.4102
  479MPD2    H1 7129   1.988   2.265  14.866  0.8390  0.6210 -1.6959
  479MPD2    H2 7130   1.840   2.002  14.577  2.3658 -2.1004 -0.0536
  479MPD2    H3 7131   1.986   2.189  14.643 -0.4679 -0.6492 -0.6521
  479MPD2     N 7132   1.869   2.167  15.074 -0.3848 -0.1186 -0.0903
  479MPD2    H5 7133   1.921   2.254  15.077  2.3459 -1.7319 -0.7845
  479MPD2    N1 7134   1.685   1.858  14.739  0.3370  0.3233 -0.3182
  479MPD2    H7 7135   1.660   1.863  14.641  1.6968 -1.3346 -0.7614
  480TMC3    C1 7136   1.615   2.280  15.455  0.7931 -0.8435  0.0194
  480TMC3    C2 7137   1.624   2.410  15.426  0.1365  0.6587  0.3715
  480TMC3    C3 7138   1.691   2.448  15.315 -0.0663 -0.2049 -0.3458
  480TMC3    C4 7139   1.688   2.187  15.385 -0.4120  0.2881 -0.2628
  480TMC3    C5 7140   1.766   2.233  15.278 -0.8024 -0.0480  0.0290
  480TMC3    C6 7141   1.776   2.367  15.241  0.5697  0.0637  0.4765
  480TMC3     C 7142   1.534   2.236  15.567 -0.3593 -0.4747 -0.1985
  480TMC3     O 7143   1.566   2.124  15.606  0.9544  0.4590  0.4064
  480TMC3     H 7144   1.577   2.488  15.485  0.0007 -0.0256  1.1773
  480TMC3    H1 7145   1.681   2.081  15.407 -0.5696  0.8754  2.4546
  480TMC3    H2 7146   1.854   2.403  15.175 -0.2568  1.0900  0.0516
  480TMC3    C7 7147   1.798   2.125  15.185  0.2153  0.0440  0.4949
  480TMC3    C8 7148   1.672   2.579  15.269  1.1474  0.2772  0.0323
  480TMC3    O1 7149   1.759   2.013  15.212  0.0325 -0.3020 -0.4759
  480TMC3    O2 7150   1.624   2.664  15.345  0.0004 -0.1132 -0.4203
  481MPD2     C 7151   3.162   1.511  14.189  0.2265 -0.7046  0.0926
  481MPD2    C1 7152   3.074   1.615  14.193 -0.4288 -0.2358  0.0244
  481MPD2    C2 7153   3.021   1.663  14.311 -0.4766  0.9200 -0.3545
  481MPD2    C3 7154   3.067   1.614  14.432 -0.4721 -0.4478  0.6195
  481MPD2    C4 7155   3.156   1.509  14.430  0.4161  0.7877  0.0757
  481MPD2    C5 7156   3.209   1.468  14.311 -0.2566  0.1901 -1.0749
  481MPD2     H 7157   2.954   1.748  14.309 -1.4636  0.2061  2.5268
  481MPD2    H1 7158   3.197   1.473  14.524  0.6760 -0.4934 -0.5224
  481MPD2    H2 7159   3.203   1.465  14.101  1.1668 -2.0207  1.2178
  481MPD2    H3 7160   3.288   1.394  14.319 -1.1013 -0.5010  0.6795
  481MPD2     N 7161   3.025   1.656  14.562  0.3713  0.2934  0.0638
  481MPD2    H5 7162   3.070   1.611  14.641  1.1040 -0.1074 -0.5778
  481MPD2    N1 7163   3.036   1.654  14.064 -0.5494 -0.2450 -0.5514
  481MPD2    H7 7164   3.075   1.608  13.983  0.3755  1.3137 -0.9773
  482TMC3    C1 7165   2.928   1.759  13.897 -0.2893 -0.0944 -0.2628
  482TMC3    C2 7166   2.986   1.666  13.816  0.1553  0.2360 -0.3456
  482TMC3    C3 7167   2.992   1.694  13.680  0.7773 -0.5339 -0.3096
  482TMC3    C4 7168   2.877   1.876  13.840 -0.0151 -0.1397 -0.1635
  482TMC3    C5 7169   2.884   1.894  13.706 -0.2414 -0.7239  0.7106
  482TMC3    C6 7170   2.929   1.801  13.621 -0.1164  0.2942 -0.0029
  482TMC3     C 7171   2.941   1.752  14.040  0.7593 -0.2416  0.5438
  482TMC3     O 7172   2.874   1.828  14.112  0.1344 -0.5176 -0.2958
  482TMC3     H 7173   3.032   1.570  13.839  1.8309  1.5056  1.6381
  482TMC3    H1 7174   2.844   1.952  13.910  2.2599  0.0260  0.7257
  482TMC3    H2 7175   2.956   1.825  13.518  1.1116  0.2655  0.3041
  482TMC3    C7 7176   2.844   2.028  13.662  0.3880  0.6791 -0.5588
  482TMC3    C8 7177   2.998   1.571  13.598 -0.0869  0.1638 -0.1743
  482TMC3    O1 7178   2.815   2.099  13.756 -0.5678  0.0281  0.3393
  482TMC3    O2 7179   3.065   1.474  13.636 -0.2709  0.1780 -0.7401
  483TMC3    C1 7180   1.533   0.440   0.924 -0.9529  0.4390  1.0077
  483TMC3    C2 7181   1.600   0.547   0.874  0.4984  0.3611 -0.0066
  483TMC3    C3 7182   1.728   0.564   0.904  0.0307  0.3842  0.0811
  483TMC3    C4 7183   1.600   0.343   1.002 -0.4745  0.1488  0.1369
  483TMC3    C5 7184   1.732   0.370   1.028  0.5809  0.3537  0.2321
  483TMC3    C6 7185   1.798   0.483   0.978 -0.1083  0.6104 -1.0308
  483TMC3     C 7186   1.404   0.411   0.863  0.7099  0.0073  0.0301
  483TMC3     O 7187   1.338   0.508   0.831  0.4068 -0.0151 -0.2719
  483TMC3     H 7188   1.546   0.612   0.805 -1.2628 -0.5662  0.5013
  483TMC3    H1 7189   1.548   0.254   1.035 -0.6471 -0.0754 -0.7513
  483TMC3    H2 7190   1.904   0.503   0.990 -0.4819  1.2838  1.1492
  483TMC3    C7 7191   1.807   0.250   1.049 -0.9638  1.0249 -0.7104
  483TMC3    C8 7192   1.784   0.697   0.876 -0.3870 -0.2803  0.6466
  483TMC3    O1 7193   1.766   0.177   1.140  0.1618 -0.4165  0.9952
  483TMC3    O2 7194   1.768   0.733   0.758 -0.1361  0.1406  0.5641
  484MPD2     C 7195   3.318   3.459  11.990  0.2884 -0.3510 -0.3882
  484MPD2    C1 7196   3.344   3.414  12.119 -0.3536  0.1444  0.4493
  484MPD2    C2 7197   3.460   3.456  12.198 -0.6598  0.2505  0.2680
  484MPD2    C3 7198   3.532   3.562  12.148 -0.2212 -0.0899  0.3376
  484MPD2    C4 7199   3.486   3.624  12.035  0.0290  0.1582  0.5088
  484MPD2    C5 7200   3.404   3.562  11.949 -0.2714  0.2514 -1.1184
  484MPD2     H 7201   3.485   3.401  12.288  0.3016 -1.2521 -0.9267
  484MPD2    H1 7202   3.546   3.705  11.995 -2.4201  0.3262 -2.8365
  484MPD2    H2 7203   3.244   3.422  11.921  0.7439 -0.2320 -0.9371
  484MPD2    H3 7204   3.394   3.604  11.849  1.3811  0.2282 -1.2940
  484MPD2     N 7205   3.639   3.619  12.222  0.4491  1.0051  0.5837
  484MPD2    H5 7206   3.667   3.712  12.190 -1.1925  2.0213  2.0811
  484MPD2    N1 7207   3.260   3.307  12.167 -0.1321  0.0775  0.4519
  484MPD2    H7 7208   3.180   3.286  12.110 -0.4051 -0.8576  1.1837
  485TMC3    C1 7209   3.783   3.641  12.411  0.1685 -0.1744  0.6439
  485TMC3    C2 7210   3.811   3.602  12.537 -0.0791  0.2123 -0.3240
  485TMC3    C3 7211   3.914   3.653  12.607 -0.4327 -0.0388  0.4171
  485TMC3    C4 7212   3.846   3.754  12.352  0.1332 -0.4455 -0.4265
  485TMC3    C5 7213   3.943   3.812  12.432 -0.6745  1.0965 -0.2555
  485TMC3    C6 7214   3.969   3.761  12.553  0.0626  0.1231 -0.7332
  485TMC3     C 7215   3.691   3.561  12.339 -0.2547  0.2879  0.5469
  485TMC3     O 7216   3.687   3.442  12.372  0.2512 -0.0323 -0.0581
  485TMC3     H 7217   3.749   3.521  12.575 -0.8115  1.4126  1.0289
  485TMC3    H1 7218   3.828   3.789  12.251  2.9010 -1.9645 -1.4633
  485TMC3    H2 7219   4.046   3.803  12.616  0.1559  1.2656 -1.6058
  485TMC3    C7 7220   4.061   3.885  12.379 -0.4916 -0.4948 -0.2224
  485TMC3    C8 7221   4.013   3.555  12.656 -0.9394  0.4767  0.6744
  485TMC3    O1 7222   4.043   3.981  12.301 -0.0552 -0.3877  0.0341
  485TMC3    O2 7223   4.128   3.594  12.652 -0.0410 -0.0786  0.5189
  486MPD2     C 7224   0.676   2.748  13.375 -0.1364  0.1555 -0.1254
  486MPD2    C1 7225   0.673   2.787  13.241  0.0762  0.2860 -0.3317
  486MPD2    C2 7226   0.752   2.891  13.202 -0.1134 -0.8218 -1.0382
  486MPD2    C3 7227   0.841   2.955  13.296 -0.1183  0.1083  0.0532
  486MPD2    C4 7228   0.836   2.913  13.427 -0.0553  0.3560  0.4894
  486MPD2    C5 7229   0.755   2.809  13.467  0.1635 -0.1574  0.1627
  486MPD2     H 7230   0.745   2.929  13.101  0.5636  3.1894  0.4289
  486MPD2    H1 7231   0.900   2.959  13.501  1.8037 -1.1154 -0.1913
  486MPD2    H2 7232   0.616   2.660  13.397  0.3462 -0.1202  0.0797
  486MPD2    H3 7233   0.747   2.786  13.572  0.8411 -1.1123  0.0117
  486MPD2     N 7234   0.932   3.044  13.245 -0.0887 -0.0912 -0.0998
  486MPD2    H5 7235   0.913   3.090  13.157 -2.1896 -1.1653 -0.2073
  486MPD2    N1 7236   0.577   2.724  13.163 -0.6513  0.1986 -0.2430
  486MPD2    H7 7237   0.515   2.659  13.211 -0.0589 -0.3562 -0.2236
  487TMC3    C1 7238   0.501   2.622  12.965  0.8029 -0.0515  0.4374
  487TMC3    C2 7239   0.577   2.546  12.884  0.3094  0.5719 -0.0870
  487TMC3    C3 7240   0.554   2.410  12.894 -0.3543  0.1847 -0.7522
  487TMC3    C4 7241   0.397   2.582  13.036  0.3866  0.0684  0.1585
  487TMC3    C5 7242   0.375   2.449  13.044 -0.2004 -0.2301  0.2684
  487TMC3    C6 7243   0.450   2.366  12.975 -0.4950 -0.4009  0.4102
  487TMC3     C 7244   0.582   2.717  13.027  0.1648  0.3866  0.8813
  487TMC3     O 7245   0.658   2.774  12.951 -0.1962 -0.2509  0.0002
  487TMC3     H 7246   0.668   2.583  12.839  1.5112 -2.2096  0.0609
  487TMC3    H1 7247   0.350   2.646  13.110  0.1849  0.6939 -0.5097
  487TMC3    H2 7248   0.457   2.261  13.001 -1.2848 -0.8084 -1.0049
  487TMC3    C7 7249   0.371   2.399  13.177 -0.4496 -0.4790 -1.3861
  487TMC3    C8 7250   0.670   2.329  12.919 -0.2855  0.1996 -0.0228
  487TMC3    O1 7251   0.469   2.421  13.246  0.0273 -0.0619 -0.0976
  487TMC3    O2 7252   0.658   2.204  12.911  0.2566 -0.2210 -0.1625
  488MPD2     C 7253   1.217   4.167  16.585  0.3287  0.4421 -0.2790
  488MPD2    C1 7254   1.301   4.276  16.628 -0.2335 -0.1278 -0.4137
  488MPD2    C2 7255   1.291   4.316  16.764  0.3918  0.3724  0.1391
  488MPD2    C3 7256   1.210   4.246  16.853  0.6766  1.1206  0.2712
  488MPD2    C4 7257   1.140   4.140  16.807 -0.3902 -0.0929 -0.3672
  488MPD2    C5 7258   1.132   4.102  16.675 -0.5057  0.1928  0.9385
  488MPD2     H 7259   1.332   4.410  16.799 -1.0863  1.4726 -1.0855
  488MPD2    H1 7260   1.090   4.083  16.884  0.6517 -0.1704  0.2593
  488MPD2    H2 7261   1.213   4.134  16.482 -0.0085  3.7029 -1.3063
  488MPD2    H3 7262   1.077   4.015  16.643 -0.3611  0.4558 -0.0271
  488MPD2     N 7263   1.223   4.276  16.989 -0.4508 -0.7010  0.4513
  488MPD2    H5 7264   1.295   4.346  17.004 -0.2888 -1.2605  2.2989
  488MPD2    N1 7265   1.386   4.355  16.547  0.1901  0.6548  0.0231
  488MPD2    H7 7266   1.427   4.439  16.588  1.4590 -0.0865  0.2719
  489TMC3    C1 7267   1.159   4.302  17.216 -0.7269  0.0867  0.2327
  489TMC3    C2 7268   1.279   4.362  17.245  0.1639  0.5879 -0.3097
  489TMC3    C3 7269   1.284   4.422  17.368  0.3913 -0.1516  0.3335
  489TMC3    C4 7270   1.055   4.317  17.300  0.1609  0.0976  0.0161
  489TMC3    C5 7271   1.064   4.387  17.418 -0.3835  0.4336 -0.3122
  489TMC3    C6 7272   1.182   4.442  17.455 -0.0557 -0.5724  0.5277
  489TMC3     C 7273   1.137   4.232  17.089 -0.1848  0.4611  0.4962
  489TMC3     O 7274   1.030   4.172  17.078  0.3346  0.4005 -0.1023
  489TMC3     H 7275   1.373   4.329  17.204  1.0202  2.5832  0.0787
  489TMC3    H1 7276   0.970   4.254  17.276  0.3329  0.4735 -1.5768
  489TMC3    H2 7277   1.210   4.458  17.558 -0.5254 -0.2950  0.6135
  489TMC3    C7 7278   0.976   4.366  17.527  0.1430 -0.3511  0.3627
  489TMC3    C8 7279   1.402   4.505  17.388 -0.1034 -0.3766  0.8800
  489TMC3    O1 7280   1.018   4.390  17.633  0.1191  0.1840  0.1029
  489TMC3    O2 7281   1.511   4.464  17.338  0.1795 -0.5526 -0.1701
  490MPD2     C 7282   2.105   3.390  17.300 -0.1309  0.1743 -0.2031
  490MPD2    C1 7283   2.019   3.434  17.395  0.2517 -0.1141 -0.1086
  490MPD2    C2 7284   2.047   3.549  17.468 -0.2173  0.7937  0.2592
  490MPD2    C3 7285   2.156   3.628  17.439 -0.2408  0.1448 -0.1057
  490MPD2    C4 7286   2.241   3.593  17.333 -0.3186  0.4006 -0.2361
  490MPD2    C5 7287   2.208   3.471  17.267 -0.3579 -0.0773  0.0942
  490MPD2     H 7288   1.982   3.572  17.552  0.5877 -1.3325  1.4674
  490MPD2    H1 7289   2.329   3.648  17.302 -0.2456  0.3341 -0.1478
  490MPD2    H2 7290   2.089   3.307  17.231  0.2699  0.3131 -0.4624
  490MPD2    H3 7291   2.264   3.433  17.182  3.9624 -0.1445  2.9429
  490MPD2     N 7292   2.193   3.745  17.512  0.0055  0.9307 -0.3690
  490MPD2    H5 7293   2.279   3.783  17.473  1.2723 -3.3985 -1.8073
  490MPD2    N1 7294   1.901   3.364  17.435  0.2705 -0.0488  0.0647
  490MPD2    H7 7295   1.842   3.403  17.508  2.6816  0.9288  1.4662
  491TMC3    C1 7296   1.742   3.181  17.445  0.1034 -0.5252  0.1555
  491TMC3    C2 7297   1.701   3.219  17.575 -0.4405 -0.0514  0.0382
  491TMC3    C3 7298   1.600   3.150  17.630  0.1158 -0.8577 -0.1600
  491TMC3    C4 7299   1.690   3.077  17.374 -0.4170  0.5292 -0.2653
  491TMC3    C5 7300   1.594   3.007  17.437 -0.4569 -0.5612 -0.0537
  491TMC3    C6 7301   1.553   3.038  17.566  0.9843  0.7323 -0.4095
  491TMC3     C 7302   1.854   3.251  17.376 -0.2061 -0.1992  0.1766
  491TMC3     O 7303   1.895   3.178  17.289  0.4331 -0.0373  0.0737
  491TMC3     H 7304   1.761   3.290  17.630  1.1908 -2.2265  1.0656
  491TMC3    H1 7305   1.692   3.071  17.265 -0.5471 -1.4262 -0.1561
  491TMC3    H2 7306   1.466   2.988  17.606  1.1303 -1.6359 -3.0179
  491TMC3    C7 7307   1.488   2.965  17.350 -0.3606 -0.5064 -0.4835
  491TMC3    C8 7308   1.541   3.195   0.059 -0.4787 -0.0379  0.2402
  491TMC3    O1 7309   1.510   2.874  17.269  0.7104  0.3439  0.3231
  491TMC3    O2 7310   1.478   3.118   0.130 -0.0002  0.4908  0.0103
  492MPD2     C 7311   2.720   3.410  11.932 -0.0593 -0.2331 -0.4272
  492MPD2    C1 7312   2.638   3.359  11.828  0.1101  0.0430  0.5144
  492MPD2    C2 7313   2.555   3.251  11.856  0.1349  0.0388 -0.4388
  492MPD2    C3 7314   2.537   3.208  11.991  0.4845 -0.1358  0.4812
  492MPD2    C4 7315   2.623   3.255  12.091  0.0921  0.1037  0.3385
  492MPD2    C5 7316   2.710   3.355  12.060  0.7300 -0.0351 -0.6276
  492MPD2     H 7317   2.498   3.211  11.773 -0.0054  0.1443 -0.3926
  492MPD2    H1 7318   2.619   3.226  12.196 -1.2995  0.0082  0.2531
  492MPD2    H2 7319   2.799   3.482  11.914  0.5268 -0.8504 -0.3209
  492MPD2    H3 7320   2.755   3.411  12.141 -0.9133 -0.1820  0.3849
  492MPD2     N 7321   2.424   3.122  12.030 -0.8108 -0.3743  0.2832
  492MPD2    H5 7322   2.416   3.105  12.129 -0.7773 -0.9961  0.1761
  492MPD2    N1 7323   2.659   3.418  11.709  0.5781 -0.3976  0.1659
  492MPD2    H7 7324   2.721   3.498  11.703 -2.1949  1.6652 -0.9600
  493TMC3    C1 7325   2.615   3.475  11.484  0.5324 -0.1901  0.2648
  493TMC3    C2 7326   2.610   3.612  11.516  0.1374 -0.4933  0.1966
  493TMC3    C3 7327   2.594   3.704  11.417  0.7454 -0.5232  0.4112
  493TMC3    C4 7328   2.586   3.432  11.356  0.6233  0.4154 -0.2144
  493TMC3    C5 7329   2.553   3.522  11.259 -0.4860 -0.2352 -0.1746
  493TMC3    C6 7330   2.561   3.657  11.292  0.5825  0.3545 -0.2389
  493TMC3     C 7331   2.601   3.373  11.591  0.5232  0.4354 -0.4056
  493TMC3     O 7332   2.536   3.276  11.557 -0.5659 -0.0417  0.0066
  493TMC3     H 7333   2.610   3.651  11.617  3.4325 -0.6035  0.2529
  493TMC3    H1 7334   2.594   3.326  11.336 -0.3740  0.4009 -0.5442
  493TMC3    H2 7335   2.526   3.730  11.220 -0.2895 -1.3635 -1.5605
  493TMC3    C7 7336   2.562   3.473  11.120 -0.3878 -0.8054 -0.0380
  493TMC3    C8 7337   2.567   3.839  11.448 -0.2027  0.6573 -0.0359
  493TMC3    O1 7338   2.547   3.354  11.097 -0.0229 -0.2007 -0.0219
  493TMC3    O2 7339   2.547   3.869  11.562  0.0670 -0.6111  0.4405
  494TMC3    C1 7340   2.381   0.349   0.239 -0.2428 -0.3283 -0.2682
  494TMC3    C2 7341   2.423   0.221   0.216  0.0233  0.0874  0.6295
  494TMC3    C3 7342   2.454   0.181   0.086  0.1159  0.2368 -0.2469
  494TMC3    C4 7343   2.388   0.444   0.141 -0.0405  0.1972 -0.5285
  494TMC3    C5 7344   2.441   0.410   0.019  0.1625  0.2173 -0.3067
  494TMC3    C6 7345   2.460   0.278  17.686  0.3658 -0.6372  0.2378
  494TMC3     C 7346   2.374   0.394   0.379 -0.0809 -0.0260 -0.1908
  494TMC3     O 7347   2.405   0.313   0.463  0.2172  0.0130 -0.3473
  494TMC3     H 7348   2.421   0.146   0.294 -0.3366 -1.5096 -0.9218
  494TMC3    H1 7349   2.358   0.546   0.161  0.3288  0.5569 -1.7961
  494TMC3    H2 7350   2.480   0.249  17.584 -1.0933  0.8418 -0.4698
  494TMC3    C7 7351   2.517   0.505  17.637  0.5350  0.1932 -0.8922
  494TMC3    C8 7352   2.529   0.058   0.064 -0.5486  0.6237 -0.5813
  494TMC3    O1 7353   2.588   0.459  17.548 -0.1815 -0.2033 -0.3624
  494TMC3    O2 7354   2.594   0.051  17.659 -0.3689  0.3865  0.0342
  495TMC3    C1 7355   1.799   2.531  14.280 -0.0782  0.0830  0.3659
  495TMC3    C2 7356   1.709   2.618  14.219  0.3226 -0.3218  0.3373
  495TMC3    C3 7357   1.633   2.699  14.300  0.2792  0.0614 -0.0629
  495TMC3    C4 7358   1.821   2.524  14.417  0.5523  0.1999  0.4185
  495TMC3    C5 7359   1.745   2.612  14.493 -0.4532 -0.3064  0.3666
  495TMC3    C6 7360   1.644   2.688  14.435 -0.0068 -0.0842  0.1652
  495TMC3     C 7361   1.823   2.404  14.214  0.2835 -0.0555 -0.1438
  495TMC3     O 7362   1.759   2.382  14.110 -0.2141 -0.1217  0.4849
  495TMC3     H 7363   1.683   2.597  14.116  0.1663 -2.8668  0.9057
  495TMC3    H1 7364   1.879   2.451  14.473  2.5955  1.9132  0.5397
  495TMC3    H2 7365   1.578   2.742  14.501  0.0858  0.4404 -0.1698
  495TMC3    C7 7366   1.759   2.615  14.637 -0.4721  0.1682 -0.5450
  495TMC3    C8 7367   1.509   2.760  14.249  0.3053  0.5119 -0.3013
  495TMC3    O1 7368   1.809   2.517  14.691  0.5349 -0.4112 -0.2154
  495TMC3    O2 7369   1.426   2.793  14.337  0.1783 -0.3186  0.1899
  496MPD2     C 7370   3.928   2.463  15.856 -0.6873  0.5035  0.2727
  496MPD2    C1 7371   3.821   2.397  15.792 -0.0705 -0.3217 -0.4738
  496MPD2    C2 7372   3.694   2.417  15.834 -0.0139 -0.2449 -0.5340
  496MPD2    C3 7373   3.663   2.508  15.933  0.6444  0.0359 -0.7374
  496MPD2    C4 7374   3.766   2.569  16.003 -0.4818  0.1098 -0.0546
  496MPD2    C5 7375   3.898   2.550  15.956 -0.0482  0.5214 -0.2867
  496MPD2     H 7376   3.611   2.359  15.795 -0.8367  0.9311 -0.5367
  496MPD2    H1 7377   3.738   2.633  16.086  0.2408 -1.3972  1.3593
  496MPD2    H2 7378   4.029   2.450  15.819 -0.8796  0.0213 -0.0856
  496MPD2    H3 7379   3.977   2.607  16.004 -0.3315  0.3509  0.3839
  496MPD2     N 7380   3.534   2.524  15.987 -0.3234 -0.0376  1.0227
  496MPD2    H5 7381   3.526   2.594  16.060 -1.5450  0.1099  0.7546
  496MPD2    N1 7382   3.857   2.303  15.701 -0.4092  0.6025  0.8995
  496MPD2    H7 7383   3.956   2.289  15.684 -0.4158 -0.4743  1.7715
  497TMC3    C1 7384   3.306   2.508  16.026 -0.3994  0.3830  0.3117
  497TMC3    C2 7385   3.185   2.514  15.962 -0.9278 -0.6745 -0.4123
  497TMC3    C3 7386   3.080   2.563  16.019 -0.7919  0.2379 -0.0801
  497TMC3    C4 7387   3.318   2.523  16.164  0.0554  0.5708  0.3906
  497TMC3    C5 7388   3.210   2.585  16.224  0.3963 -0.2205  0.2912
  497TMC3    C6 7389   3.092   2.605  16.148  0.4864 -0.3141  0.5027
  497TMC3     C 7390   3.417   2.474  15.941 -0.7602 -0.3342 -0.0304
  497TMC3     O 7391   3.397   2.424  15.831 -0.5027  0.4090 -0.1285
  497TMC3     H 7392   3.188   2.516  15.854  2.3774 -0.8360 -0.2957
  497TMC3    H1 7393   3.412   2.510  16.216 -0.9858  0.7020  2.2959
  497TMC3    H2 7394   3.004   2.646  16.196 -0.5381 -0.1211 -1.5685
  497TMC3    C7 7395   3.210   2.608  16.370  0.7461 -0.5410  0.7745
  497TMC3    C8 7396   2.953   2.573  15.951 -0.3847  0.0017 -0.1168
  497TMC3    O1 7397   3.107   2.632  16.427 -0.4014  0.1415 -0.0328
  497TMC3    O2 7398   2.858   2.622  16.015  0.8523  0.3063 -0.1476
  498MPD2     C 7399   0.024   2.007   9.546  0.0629 -0.2332 -0.1010
  498MPD2    C1 7400   4.612   2.014   9.574 -0.5992  0.1616 -1.0451
  498MPD2    C2 7401   4.534   1.901   9.550 -0.5966  0.1261 -0.7654
  498MPD2    C3 7402   4.584   1.784   9.484  0.3379  1.1228  0.2236
  498MPD2    C4 7403   4.717   1.792   9.451 -0.6238 -0.2468  0.0962
  498MPD2    C5 7404   0.074   1.897   9.482 -0.3608  0.0461 -0.0090
  498MPD2     H 7405   4.428   1.886   9.571 -0.6501 -0.5425 -1.5370
  498MPD2    H1 7406   0.041   1.708   9.401  0.6986 -0.0727  1.0842
  498MPD2    H2 7407   0.095   2.087   9.563  0.2877 -1.4223  4.7421
  498MPD2    H3 7408   0.177   1.895   9.450 -0.5338 -1.0673 -0.5043
  498MPD2     N 7409   4.506   1.671   9.469 -0.1442 -0.5558  0.3202
  498MPD2    H5 7410   4.417   1.668   9.518  0.6995  0.1869  1.9015
  498MPD2    N1 7411   4.548   2.126   9.631  0.3739 -0.9313 -0.2341
  498MPD2    H7 7412   4.452   2.117   9.662  0.4755  2.7950  1.2386
  499TMC3    C1 7413   4.540   2.354   9.707 -0.0992 -0.1090 -0.4178
  499TMC3    C2 7414   4.421   2.330   9.774 -1.0667  0.4298 -0.5038
  499TMC3    C3 7415   4.368   2.433   9.852 -0.0572  0.7089 -0.7573
  499TMC3    C4 7416   4.593   2.481   9.702  0.0393  0.8239 -0.1219
  499TMC3    C5 7417   4.536   2.583   9.774 -0.5485  0.3052 -0.2290
  499TMC3    C6 7418   4.424   2.559   9.843 -0.7314 -0.0790 -0.5502
  499TMC3     C 7419   4.617   2.253   9.627  0.2087  1.2164  0.0991
  499TMC3     O 7420   4.706   2.299   9.557  0.1365 -0.0836 -0.1014
  499TMC3     H 7421   4.369   2.235   9.776 -1.4624  0.6305 -1.4347
  499TMC3    H1 7422   4.675   2.498   9.633 -0.2194 -1.1029 -0.9136
  499TMC3    H2 7423   4.381   2.641   9.900 -1.2007 -0.7541  0.0594
  499TMC3    C7 7424   4.607   2.709   9.752  0.0353 -0.3438  0.0761
  499TMC3    C8 7425   4.246   2.422   9.932 -0.2393 -0.2128 -0.7244
  499TMC3    O1 7426   4.688   2.709   9.664 -0.6771 -0.5439  0.4419
  499TMC3    O2 7427   4.185   2.521   9.955  0.3790  0.2770  0.4484
  500MPD2     C 7428   1.275   4.483  10.503  0.0679 -0.0664 -0.1198
  500MPD2    C1 7429   1.344   4.480  10.381 -0.7151 -0.1928  0.3565
  500MPD2    C2 7430   1.280   4.460  10.256  0.9227  0.3033 -0.0457
  500MPD2    C3 7431   1.141   4.432  10.260  0.5843 -0.0092  0.1386
  500MPD2    C4 7432   1.080   4.430  10.380 -1.1363 -0.6025  0.7856
  500MPD2    C5 7433   1.134   4.458  10.504 -0.1656 -0.3778 -0.0874
  500MPD2     H 7434   1.345   4.477  10.172 -0.5787  1.9771 -0.8706
  500MPD2    H1 7435   0.973   4.420  10.365 -1.0149 -2.8561  1.4157
  500MPD2    H2 7436   1.323   4.485  10.600  0.2521  1.9708 -0.2521
  500MPD2    H3 7437   1.079   4.453  10.597 -0.6646  2.4295 -0.2129
  500MPD2     N 7438   1.065   4.413  10.143 -0.1502  0.0107 -0.4124
  500MPD2    H5 7439   0.963   4.414  10.148 -0.1759 -0.7524 -0.7506
  500MPD2    N1 7440   1.487   4.477  10.376 -0.3560 -0.0252  0.1750
  500MPD2    H7 7441   1.539   4.468  10.290 -2.6271  2.3087 -1.4449
  501TMC3    C1 7442   1.705   4.465  10.441  0.5544  0.0602  0.2658
  501TMC3    C2 7443   1.732   4.579  10.371  0.1641 -0.9210  0.6065
  501TMC3    C3 7444   1.859   4.604  10.337 -0.8460 -0.1620  0.0371
  501TMC3    C4 7445   1.795   4.367  10.467 -0.1434  0.2540  0.0172
  501TMC3    C5 7446   1.925   4.395  10.432 -0.1719  0.0956  0.0174
  501TMC3    C6 7447   1.957   4.504  10.353 -0.2232 -0.0423 -1.1124
  501TMC3     C 7448   1.567   4.440  10.481  0.0509  0.2097 -0.3373
  501TMC3     O 7449   1.549   4.392  10.590  0.2333 -0.1617  0.1501
  501TMC3     H 7450   1.660   4.660  10.362  1.1988  0.0824  1.3555
  501TMC3    H1 7451   1.768   4.298  10.546 -0.1106 -0.2000 -0.3701
  501TMC3    H2 7452   2.057   4.526  10.318 -0.0665 -0.0010 -0.6388
  501TMC3    C7 7453   2.008   4.387  10.549  0.0251 -0.0676 -0.6217
  501TMC3    C8 7454   1.897   0.026  10.348  0.1716  0.0077  0.8014
  501TMC3    O1 7455   2.008   4.286  10.615  0.2496 -0.1430  0.3483
  501TMC3    O2 7456   1.814   0.108  10.388 -0.7814  0.2062 -0.3425
  502TMC3    C1 7457   1.176   3.496  15.283  0.2909 -0.5539 -1.5142
  502TMC3    C2 7458   1.160   3.633  15.255  0.7927 -0.2235  0.0267
  502TMC3    C3 7459   1.088   3.669  15.149 -0.5814  0.1965  0.2715
  502TMC3    C4 7460   1.108   3.403  15.217  0.3807  0.7982 -0.1450
  502TMC3    C5 7461   1.030   3.441  15.113  0.6674 -0.4717  0.2084
  502TMC3    C6 7462   1.027   3.571  15.071  0.5576 -0.4880 -1.0494
  502TMC3     C 7463   1.242   3.457  15.406  0.1287  0.0245  0.7268
  502TMC3     O 7464   1.328   3.530  15.459 -0.8100  0.2118 -0.5731
  502TMC3     H 7465   1.194   3.715  15.317 -2.0626  2.6719 -2.2531
  502TMC3    H1 7466   1.132   3.299  15.240  0.1527  0.6465 -0.5970
  502TMC3    H2 7467   0.960   3.601  14.992  1.9842 -0.1377 -2.1224
  502TMC3    C7 7468   0.949   3.335  15.053  0.0046  0.6945  0.0496
  502TMC3    C8 7469   1.011   3.795  15.155 -0.3585 -0.4253 -0.5867
  502TMC3    O1 7470   0.993   3.220  15.072 -0.5577  0.0763  0.5408
  502TMC3    O2 7471   0.962   3.834  15.049  0.3212 -0.0837  0.0845
  503MPD2     C 7472   2.864   3.885  16.778  0.3856 -0.1034 -0.1202
  503MPD2    C1 7473   3.005   3.892  16.792  0.3437  0.6023  0.4660
  503MPD2    C2 7474   3.070   3.774  16.822 -0.0713 -0.4915 -0.4432
  503MPD2    C3 7475   2.994   3.657  16.834 -0.7669 -0.3432 -0.7950
  503MPD2    C4 7476   2.862   3.658  16.819  1.5825  0.1085  0.1259
  503MPD2    C5 7477   2.792   3.774  16.784  0.2756 -0.5123  0.0182
  503MPD2     H 7478   3.176   3.783  16.841 -0.4022  1.7435  0.2822
  503MPD2    H1 7479   2.800   3.575  16.850 -0.7576  2.1147  0.7626
  503MPD2    H2 7480   2.811   3.976  16.753  0.7982  0.4238  0.9062
  503MPD2    H3 7481   2.684   3.773  16.789  0.4145  0.3022  2.9100
  503MPD2     N 7482   3.058   3.543  16.880  1.1032 -0.0400 -0.3410
  503MPD2    H5 7483   3.156   3.558  16.905  0.9227 -1.8399  1.4129
  503MPD2    N1 7484   3.086   4.015  16.791 -0.4019 -0.6271  0.6230
  503MPD2    H7 7485   3.186   4.001  16.800 -0.7162 -2.8470  0.5442
  504TMC3    C1 7486   3.111   3.330  16.968 -0.3975 -0.1573  0.2578
  504TMC3    C2 7487   3.053   3.225  17.036 -0.1016  0.3193 -0.0358
  504TMC3    C3 7488   3.124   3.173  17.140 -0.3287  0.6568 -0.5720
  504TMC3    C4 7489   3.227   3.394  17.013 -0.0452  0.3381 -0.6101
  504TMC3    C5 7490   3.297   3.328  17.111  0.4757 -0.8953 -0.2634
  504TMC3    C6 7491   3.248   3.215  17.174  0.0250  0.1689  0.1955
  504TMC3     C 7492   3.019   3.411  16.881 -0.2109 -0.6127  0.1841
  504TMC3     O 7493   2.909   3.364  16.849 -0.2699 -0.1086  0.1551
  504TMC3     H 7494   2.949   3.199  17.016 -0.0202  0.8991 -1.2430
  504TMC3    H1 7495   3.278   3.469  16.953 -0.9059  0.2696 -1.4233
  504TMC3    H2 7496   3.307   3.136  17.220 -1.0291 -0.8699 -0.2450
  504TMC3    C7 7497   3.445   3.342  17.114  0.7055 -0.6522  1.2273
  504TMC3    C8 7498   3.057   3.073  17.209 -0.6288  1.4750  0.0254
  504TMC3    O1 7499   3.499   3.399  17.017  0.7674  1.0317 -0.0735
  504TMC3    O2 7500   2.959   3.012  17.169  0.4168  0.0805  0.4809
  505MPD2     C 7501   3.429   1.821   9.586 -0.6861  0.2801 -0.8591
  505MPD2    C1 7502   3.393   1.691   9.583 -0.0500  0.4224  0.4794
  505MPD2    C2 7503   3.415   1.612   9.691 -0.6241  0.3454 -0.3740
  505MPD2    C3 7504   3.470   1.667   9.807  0.0336 -0.2519  0.5540
  505MPD2    C4 7505   3.504   1.798   9.813  0.5013  1.0219  0.6781
  505MPD2    C5 7506   3.482   1.875   9.702  0.1205  0.2579  0.3975
  505MPD2     H 7507   3.415   1.503   9.689  0.2447  0.3071  1.5226
  505MPD2    H1 7508   3.539   1.850   9.902  0.7094  1.4776  0.3281
  505MPD2    H2 7509   3.417   1.883   9.498 -1.5747  0.8731 -0.3276
  505MPD2    H3 7510   3.509   1.980   9.698  2.1289 -0.2082  1.7378
  505MPD2     N 7511   3.493   1.586   9.928 -0.4335 -0.3195  0.6361
  505MPD2    H5 7512   3.546   1.625  10.005 -0.5786  1.0811  0.0252
  505MPD2    N1 7513   3.320   1.638   9.465  0.2533 -0.1701  0.2714
  505MPD2    H7 7514   3.308   1.697   9.383  0.4798  1.4495  1.4093
  506TMC3    C1 7515   3.224   1.468   9.334  0.3539  0.8130 -0.2813
  506TMC3    C2 7516   3.321   1.480   9.230  0.2426  0.2956 -0.0844
  506TMC3    C3 7517   3.334   1.369   9.149  0.1903 -0.1927  0.1155
  506TMC3    C4 7518   3.158   1.343   9.351  0.1398 -0.9667  0.2283
  506TMC3    C5 7519   3.180   1.234   9.275  0.0580  0.2233  0.0883
  506TMC3    C6 7520   3.253   1.253   9.163 -0.5732 -0.2924  0.2912
  506TMC3     C 7521   3.274   1.505   9.461  0.1729  0.8352  0.2260
  506TMC3     O 7522   3.294   1.414   9.539  0.7815 -0.0569  0.0423
  506TMC3     H 7523   3.382   1.570   9.229  2.0067 -0.9239 -1.1942
  506TMC3    H1 7524   3.094   1.329   9.438 -0.5828  1.3710  0.0843
  506TMC3    H2 7525   3.285   1.168   9.103 -1.9640 -0.8190  0.2990
  506TMC3    C7 7526   3.235   1.110   9.331  0.3319 -0.2831  0.1401
  506TMC3    C8 7527   3.445   1.354   9.055 -0.5556  0.2236 -0.3263
  506TMC3    O1 7528   3.256   1.008   9.274  0.0849  0.0531  0.1019
  506TMC3    O2 7529   3.434   1.268   8.970 -0.3287 -0.0315 -0.4223
  507TMC3    C1 7530   4.292   3.424  14.773 -0.9840 -0.1379  0.7288
  507TMC3    C2 7531   4.225   3.308  14.791  0.1369  0.3050  0.3630
  507TMC3    C3 7532   4.182   3.246  14.675  0.5681 -0.1395 -1.1489
  507TMC3    C4 7533   4.336   3.471  14.658  0.1935  0.3049  0.5658
  507TMC3    C5 7534   4.303   3.402  14.548 -0.5808 -0.0380 -0.3469
  507TMC3    C6 7535   4.223   3.289  14.554 -0.3597  0.2762  0.1761
  507TMC3     C 7536   4.336   3.500  14.892  0.0152  0.0102 -0.4433
  507TMC3     O 7537   4.409   3.593  14.869  0.3947  0.1683 -0.1923
  507TMC3     H 7538   4.174   3.274  14.881  0.3213 -1.1772 -0.0885
  507TMC3    H1 7539   4.395   3.562  14.652  0.0962  0.3686  0.5684
  507TMC3    H2 7540   4.212   3.224  14.468 -0.8925 -0.5231  0.8439
  507TMC3    C7 7541   4.244   3.481  14.440 -0.8604 -0.4966 -0.1268
  507TMC3    C8 7542   4.043   3.212  14.680 -0.8838 -0.4128 -0.5885
  507TMC3    O1 7543   4.144   3.429  14.387 -0.4277  0.3332 -0.3709
  507TMC3    O2 7544   3.998   3.142  14.772  0.0742  0.5872 -0.6547
  508MPD2     C 7545   0.548   0.810  16.129 -0.0205  0.7539 -0.1951
  508MPD2    C1 7546   0.565   0.936  16.187  0.1083 -0.5561 -0.2350
  508MPD2    C2 7547   0.545   1.049  16.114 -0.5543 -0.5200  0.4375
  508MPD2    C3 7548   0.480   1.039  15.996  0.3989 -0.4234  0.5091
  508MPD2    C4 7549   0.438   0.918  15.946  0.5029 -0.5232  0.4519
  508MPD2    C5 7550   0.480   0.805  16.008 -0.5828 -1.1278  1.1674
  508MPD2     H 7551   0.565   1.145  16.161 -1.1303  0.4396 -1.2487
  508MPD2    H1 7552   0.383   0.904  15.854  3.3431  2.2789 -1.6854
  508MPD2    H2 7553   0.573   0.717  16.178 -2.5908 -0.1583 -0.6239
  508MPD2    H3 7554   0.466   0.708  15.961  3.4850 -0.7071 -0.9012
  508MPD2     N 7555   0.451   1.164  15.938 -0.2182 -0.2402  1.2850
  508MPD2    H5 7556   0.508   1.243  15.964  0.7881 -0.3529 -0.5879
  508MPD2    N1 7557   0.621   0.958  16.315  0.0507 -0.4382 -0.3406
  508MPD2    H7 7558   0.641   1.054  16.340  1.7184 -0.6348 -0.9096
  509TMC3    C1 7559   0.231   1.474  15.658 -0.1139  0.0672 -0.2164
  509TMC3    C2 7560   0.341   1.554  15.637  0.2255  0.4932  0.7768
  509TMC3    C3 7561   0.455   1.504  15.700  0.0990 -0.3608  0.3210
  509TMC3    C4 7562   0.234   1.354  15.728  0.3853  0.1495  0.2927
  509TMC3    C5 7563   0.353   1.314  15.785  0.1944 -0.4102  0.4297
  509TMC3    C6 7564   0.465   1.382  15.762  0.7503 -0.4571 -0.0958
  509TMC3     C 7565   0.112   1.492  15.571 -0.0573 -0.2010 -0.2198
  509TMC3     O 7566   4.724   1.461  15.613  0.0847  0.5103  0.2522
  509TMC3     H 7567   0.343   1.640  15.572 -1.8501  1.8518  2.5015
  509TMC3    H1 7568   0.140   1.300  15.739  0.0170  0.5496 -0.8690
  509TMC3    H2 7569   0.568   1.353  15.781  0.4871 -2.1946 -1.2099
  509TMC3    C7 7570   0.345   1.177  15.848 -0.8494  0.2752 -0.8324
  509TMC3    C8 7571   0.580   1.578  15.676  0.2340 -0.4116 -0.5847
  509TMC3    O1 7572   0.249   1.108  15.816  0.5939 -0.6888  0.4808
  509TMC3    O2 7573   0.681   1.511  15.656 -0.6028  0.0331  0.0774
  510MPD2     C 7574   2.812   2.841  14.939 -0.0339 -0.2052 -0.0062
  510MPD2    C1 7575   2.814   2.713  14.887 -0.1688  0.2784 -0.6798
  510MPD2    C2 7576   2.876   2.689  14.766  1.1516 -0.0545  0.1759
  510MPD2    C3 7577   2.952   2.783  14.708 -0.1136 -0.0772 -0.0982
  510MPD2    C4 7578   2.966   2.908  14.769  0.1896  0.3204  0.8149
  510MPD2    C5 7579   2.896   2.933  14.886  0.0097 -0.8918 -0.3871
  510MPD2     H 7580   2.855   2.593  14.719  3.1186 -0.2438 -0.3156
  510MPD2    H1 7581   3.029   2.991  14.740 -2.1165  0.4810 -3.7858
  510MPD2    H2 7582   2.760   2.866  15.031 -1.4319 -1.9423 -0.3243
  510MPD2    H3 7583   2.905   3.029  14.934  0.0363 -2.3141  2.4931
  510MPD2     N 7584   3.009   2.742  14.589 -0.3476 -0.3666  0.1902
  510MPD2    H5 7585   2.990   2.647  14.558 -0.7674 -0.7310  1.5502
  510MPD2    N1 7586   2.750   2.610  14.960 -0.0189 -0.7216 -0.3189
  510MPD2    H7 7587   2.711   2.627  15.052  0.6696 -0.1454 -0.1316
  511TMC3    C1 7588   2.670   2.383  15.005 -0.0404  0.2425  0.8125
  511TMC3    C2 7589   2.614   2.422  15.124 -0.6113 -0.2270  0.0317
  511TMC3    C3 7590   2.537   2.327  15.191  0.3630 -0.6950 -0.1391
  511TMC3    C4 7591   2.673   2.253  14.960 -0.5851 -0.5771  0.3950
  511TMC3    C5 7592   2.608   2.163  15.041 -0.1816 -0.2965  0.7599
  511TMC3    C6 7593   2.538   2.196  15.153  0.7402  0.2022 -0.6663
  511TMC3     C 7594   2.729   2.480  14.913 -0.3655 -0.1750 -0.0238
  511TMC3     O 7595   2.741   2.430  14.799  0.1632 -0.4015 -0.2334
  511TMC3     H 7596   2.588   2.527  15.135 -0.7658 -0.1095 -1.4691
  511TMC3    H1 7597   2.726   2.220  14.871  0.3266 -0.0892  0.7543
  511TMC3    H2 7598   2.491   2.115  15.209 -0.7354  0.2833 -1.7967
  511TMC3    C7 7599   2.609   2.029  14.980  0.7567 -0.3595  0.2707
  511TMC3    C8 7600   2.437   2.375  15.280 -0.1578  0.5184  0.2387
  511TMC3    O1 7601   2.656   2.007  14.872  0.0221  0.5343 -0.4027
  511TMC3    O2 7602   2.451   2.488  15.321  0.4534 -0.1817  0.2501
  512TMC3    C1 7603   1.466   2.293  12.985 -0.1706 -0.1241  0.1183
  512TMC3    C2 7604   1.562   2.264  13.073  0.3032 -0.7558  0.7746
  512TMC3    C3 7605   1.652   2.169  13.039 -0.3228  0.0671  0.4522
  512TMC3    C4 7606   1.454   2.228  12.860  0.1214  0.2912  0.6402
  512TMC3    C5 7607   1.549   2.133  12.834  0.4070  0.3854  0.1932
  512TMC3    C6 7608   1.641   2.087  12.928  0.4895  0.0064 -0.2461
  512TMC3     C 7609   1.373   2.404  13.020 -0.3397 -0.0855  0.1511
  512TMC3     O 7610   1.417   2.490  13.098 -0.0430  0.3267  0.3958
  512TMC3     H 7611   1.566   2.309  13.171 -1.2597  0.5339  0.2567
  512TMC3    H1 7612   1.398   2.277  12.781  1.1048 -1.1730 -0.9522
  512TMC3    H2 7613   1.719   2.013  12.912 -0.4090 -1.4345  2.1888
  512TMC3    C7 7614   1.530   2.059  12.712  0.3383  0.0443  0.2728
  512TMC3    C8 7615   1.765   2.141  13.127  0.3176  0.5442  0.0008
  512TMC3    O1 7616   1.442   2.095  12.634 -0.2337 -0.1602  0.2853
  512TMC3    O2 7617   1.814   2.028  13.127  0.8120  0.4730  0.0996
  513MPD2     C 7618   3.673   1.651  13.320 -0.4427  0.4275  0.1427
  513MPD2    C1 7619   3.612   1.741  13.234  0.0737 -0.2076 -0.3817
  513MPD2    C2 7620   3.608   1.874  13.274 -0.2558  0.2364  0.3927
  513MPD2    C3 7621   3.664   1.923  13.387  0.4538  0.8654  0.2636
  513MPD2    C4 7622   3.739   1.838  13.460  1.0406 -0.6048 -0.3166
  513MPD2    C5 7623   3.727   1.701  13.433  0.4631 -0.1263 -0.2385
  513MPD2     H 7624   3.551   1.937  13.206  0.0694 -0.1932 -0.2843
  513MPD2    H1 7625   3.780   1.869  13.556 -0.2326  2.0080 -0.5912
  513MPD2    H2 7626   3.672   1.543  13.325 -1.5094  0.3830 -0.8288
  513MPD2    H3 7627   3.766   1.631  13.506 -2.1260 -1.3129  0.0139
  513MPD2     N 7628   3.640   2.056  13.429  0.5329  0.2803  0.6405
  513MPD2    H5 7629   3.586   2.113  13.364  3.4106 -0.4638 -2.3391
  513MPD2    N1 7630   3.561   1.710  13.109 -0.3858  0.2966 -0.2538
  513MPD2    H7 7631   3.498   1.775  13.064  0.0734 -0.8780 -2.5646
  514TMC3    C1 7632   3.561   1.614  12.889 -0.2410  0.0131  0.0675
  514TMC3    C2 7633   3.635   1.542  12.798  0.5439 -0.1184 -0.9835
  514TMC3    C3 7634   3.646   1.586  12.672 -0.3058  0.2055 -0.4802
  514TMC3    C4 7635   3.488   1.710  12.847  0.2510  0.0968  0.1667
  514TMC3    C5 7636   3.480   1.746  12.712  0.2851 -0.1605 -0.0629
  514TMC3    C6 7637   3.569   1.688  12.625 -0.2481  0.2256 -0.0362
  514TMC3     C 7638   3.610   1.607  13.028 -0.5722  0.9395  0.6340
  514TMC3     O 7639   3.702   1.530  13.054  0.0603  0.0469 -0.4603
  514TMC3     H 7640   3.684   1.449  12.825  0.8251  0.1844 -0.4448
  514TMC3    H1 7641   3.406   1.754  12.902 -1.3033 -1.8834 -0.5743
  514TMC3    H2 7642   3.556   1.717  12.522  0.0272 -0.3328 -0.2252
  514TMC3    C7 7643   3.441   1.885  12.678 -0.4798  0.3660  0.4366
  514TMC3    C8 7644   3.659   1.491  12.565  0.5058 -0.4711 -0.5157
  514TMC3    O1 7645   3.450   1.923  12.566  0.6106 -0.5747  0.2564
  514TMC3    O2 7646   3.618   1.378  12.577  0.5481  0.7095  0.0110
  515MPD2     C 7647   1.965   4.380  14.746 -0.9168  0.1123  0.2127
  515MPD2    C1 7648   1.962   4.265  14.821 -0.2214 -0.7648 -0.2516
  515MPD2    C2 7649   2.074   4.234  14.889  0.2577 -0.8549 -0.0285
  515MPD2    C3 7650   2.180   4.324  14.904  0.5586 -0.3505 -0.6728
  515MPD2    C4 7651   2.173   4.442  14.835 -0.7476  0.0092  0.0661
  515MPD2    C5 7652   2.069   4.470  14.752 -0.0426 -0.6158 -0.7717
  515MPD2     H 7653   2.079   4.143  14.948 -0.9877 -0.1785  1.1303
  515MPD2    H1 7654   2.243   4.521  14.861 -1.6016 -0.0834  2.5889
  515MPD2    H2 7655   1.882   4.405  14.680 -0.4440  2.4777  0.5043
  515MPD2    H3 7656   2.064   4.552  14.680  0.6946 -1.2390 -1.5292
  515MPD2     N 7657   2.292   4.302  14.981  0.2987  0.2087 -0.0792
  515MPD2    H5 7658   2.357   4.378  14.996  2.7857 -1.6957 -1.1864
  515MPD2    N1 7659   1.842   4.182  14.810  0.4398  0.2263 -0.8859
  515MPD2    H7 7660   1.768   4.215  14.749 -0.4627 -3.8970 -1.9645
  516TMC3    C1 7661   1.687   4.003  14.870 -0.2093  0.1124 -0.4697
  516TMC3    C2 7662   1.626   4.020  14.749 -0.1013  0.0818  0.0878
  516TMC3    C3 7663   1.518   3.943  14.727  0.2105  0.2506 -0.1615
  516TMC3    C4 7664   1.648   3.911  14.961  0.0369  0.5418  0.4032
  516TMC3    C5 7665   1.537   3.837  14.937  0.2623 -0.0596 -0.4494
  516TMC3    C6 7666   1.468   3.849  14.820  0.1633  0.0607  0.0598
  516TMC3     C 7667   1.816   4.069  14.892 -0.6473 -0.3527  0.0443
  516TMC3     O 7668   1.887   4.025  14.983  0.1947 -0.1659  0.0804
  516TMC3     H 7669   1.661   4.098  14.681 -0.1788 -1.1762 -1.4016
  516TMC3    H1 7670   1.706   3.902  15.052 -0.3125 -0.7811  0.4979
  516TMC3    H2 7671   1.375   3.796  14.801  0.1463 -0.1028  0.5980
  516TMC3    C7 7672   1.536   3.716  15.008 -0.4611 -0.3539  0.7092
  516TMC3    C8 7673   1.419   3.997  14.631  0.3998  0.2792 -0.6244
  516TMC3    O1 7674   1.605   3.725  15.110 -0.0543 -0.1055  0.2791
  516TMC3    O2 7675   1.302   3.966  14.642  0.0827  0.1305  0.1411
  517MPD2     C 7676   1.430   0.853   0.081  0.6774  0.3992 -0.2207
  517MPD2    C1 7677   1.562   0.827   0.107 -0.3765 -0.1633  0.7497
  517MPD2    C2 7678   1.637   0.909   0.187 -0.3237  0.3067 -0.6106
  517MPD2    C3 7679   1.576   1.021   0.245  0.1111 -0.0624  0.1513
  517MPD2    C4 7680   1.443   1.045   0.219  0.2462 -0.2463  0.4134
  517MPD2    C5 7681   1.375   0.953   0.150  0.2439 -0.2571  0.0970
  517MPD2     H 7682   1.745   0.896   0.191 -0.6598 -2.6194 -1.4021
  517MPD2    H1 7683   1.394   1.135   0.254 -0.0735 -0.2054 -0.1419
  517MPD2    H2 7684   1.365   0.793   0.019 -1.4882  2.0978  0.3885
  517MPD2    H3 7685   1.271   0.973   0.128 -0.2565 -0.5082  2.2724
  517MPD2     N 7686   1.646   1.112   0.321 -0.6266 -0.6183 -0.3907
  517MPD2    H5 7687   1.599   1.196   0.353 -1.0709 -0.5228 -1.2942
  517MPD2    N1 7688   1.628   0.719   0.050  0.0829  0.2024 -0.4280
  517MPD2    H7 7689   1.728   0.710   0.067  0.0235 -1.7000 -0.9872
  518TMC3    C1 7690   1.655   0.497  17.670 -0.5929 -0.1265 -0.4086
  518TMC3    C2 7691   1.612   0.379   0.023 -0.1005 -0.0719  0.7859
  518TMC3    C3 7692   1.695   0.273   0.019  0.6504 -0.7015 -0.1581
  518TMC3    C4 7693   1.777   0.513  17.615  0.5133  0.1941 -0.7390
  518TMC3    C5 7694   1.864   0.410  17.614 -0.9433  0.3402  0.6958
  518TMC3    C6 7695   1.827   0.290  17.677 -0.8617 -0.5328 -0.1868
  518TMC3     C 7696   1.565   0.603  17.696  0.2961  0.3001  0.1479
  518TMC3     O 7697   1.447   0.575  17.689  0.0611  0.2684  0.3896
  518TMC3     H 7698   1.510   0.356   0.051 -0.4787 -1.9666 -2.1982
  518TMC3    H1 7699   1.807   0.607  17.570  0.4454  0.9681  0.8476
  518TMC3    H2 7700   1.894   0.206  17.684 -1.2259 -0.6367  2.0073
  518TMC3    C7 7701   1.976   0.420  17.526  0.0329 -0.0116  0.2251
  518TMC3    C8 7702   1.675   0.153   0.100 -0.5166  0.1151 -0.8635
  518TMC3    O1 7703   1.989   0.526  17.470 -0.0683  0.0992 -0.8489
  518TMC3    O2 7704   1.734   0.049   0.074  0.0831 -0.5151 -0.0804
  519MPD2     C 7705   3.206   3.513  14.794 -0.2159 -0.6753 -0.0688
  519MPD2    C1 7706   3.168   3.546  14.663  0.0943 -0.2405 -0.3543
  519MPD2    C2 7707   3.153   3.447  14.572  0.0017  0.7651 -0.1690
  519MPD2    C3 7708   3.166   3.316  14.602  0.1270  0.7882 -0.1939
  519MPD2    C4 7709   3.204   3.282  14.731  0.9194  0.3471  0.0254
  519MPD2    C5 7710   3.229   3.375  14.825  0.0341 -0.9531 -0.0633
  519MPD2     H 7711   3.144   3.470  14.466  0.2801  1.2713 -0.0811
  519MPD2    H1 7712   3.221   3.182  14.769 -0.8529 -0.3527 -1.0281
  519MPD2    H2 7713   3.234   3.576  14.878 -1.1300  0.6315 -0.7228
  519MPD2    H3 7714   3.251   3.352  14.929  2.3994  0.8449 -0.1555
  519MPD2     N 7715   3.154   3.214  14.505  0.1617  0.6576  0.1956
  519MPD2    H5 7716   3.203   3.128  14.528 -0.8593  0.8914  3.1554
  519MPD2    N1 7717   3.168   3.684  14.618  0.4598  0.0762  0.4186
  519MPD2    H7 7718   3.205   3.757  14.677  0.4841  0.5985 -0.2412
  520TMC3    C1 7719   3.171   3.154  14.288 -0.9912  0.0989 -0.2590
  520TMC3    C2 7720   3.123   3.160  14.161  0.4189  1.1643 -0.0520
  520TMC3    C3 7721   3.211   3.147  14.055  0.4359  0.2198 -0.2052
  520TMC3    C4 7722   3.304   3.132  14.311 -0.0822  0.4021 -0.1539
  520TMC3    C5 7723   3.388   3.116  14.207  0.3746 -0.0464  0.7574
  520TMC3    C6 7724   3.341   3.117  14.074  0.4587  0.3131 -0.1777
  520TMC3     C 7725   3.104   3.236  14.380 -0.0611  0.0590 -0.0359
  520TMC3     O 7726   3.033   3.329  14.337  0.0716 -0.2363 -0.3077
  520TMC3     H 7727   3.018   3.169  14.136  0.3458 -2.3218 -0.9076
  520TMC3    H1 7728   3.352   3.150  14.407  0.8178 -2.3890 -0.0723
  520TMC3    H2 7729   3.400   3.096  13.986  2.1280  1.7398  0.6029
  520TMC3    C7 7730   3.523   3.086  14.237  0.1767 -0.0050  0.0369
  520TMC3    C8 7731   3.182   3.214  13.931 -0.2306  0.5798  0.4243
  520TMC3    O1 7732   3.544   3.036  14.343  0.0239 -0.3687 -0.0104
  520TMC3    O2 7733   3.251   3.175  13.837 -0.0746 -0.8331 -0.1348
  521MPD2     C 7734   4.216   1.917  17.307  0.2680 -0.1238  0.3495
  521MPD2    C1 7735   4.124   1.815  17.290  0.3426 -0.0354 -0.6270
  521MPD2    C2 7736   4.175   1.687  17.289 -0.9046 -0.0265 -0.6273
  521MPD2    C3 7737   4.305   1.654  17.319  0.3403 -0.1065 -0.3347
  521MPD2    C4 7738   4.391   1.757  17.347  0.3192  0.5445 -0.0230
  521MPD2    C5 7739   4.344   1.888  17.349 -0.7152  0.4672  0.1704
  521MPD2     H 7740   4.103   1.607  17.273  1.0605 -1.9493  0.1290
  521MPD2    H1 7741   4.487   1.736  17.392  0.0701  0.8316  0.6355
  521MPD2    H2 7742   4.189   2.021  17.298 -0.5035 -0.3779 -0.3015
  521MPD2    H3 7743   4.407   1.969  17.382  0.6395 -0.5963  0.1906
  521MPD2     N 7744   4.347   1.520  17.314  0.0967  0.9588  0.4752
  521MPD2    H5 7745   4.292   1.466  17.248  0.9140 -0.0967  0.6529
  521MPD2    N1 7746   3.987   1.857  17.270  0.0705 -0.4696 -0.2893
  521MPD2    H7 7747   3.977   1.954  17.243 -0.1815 -0.9121 -1.8068
  522TMC3    C1 7748   4.496   1.345  17.299  0.0590 -0.3577  0.2656
  522TMC3    C2 7749   4.587   1.266  17.354  0.0301 -0.0915 -0.1183
  522TMC3    C3 7750   4.632   1.157  17.281 -0.9122 -0.0483 -0.0576
  522TMC3    C4 7751   4.455   1.328  17.172  0.4652 -0.0605 -0.2150
  522TMC3    C5 7752   4.489   1.212  17.108  0.4669 -0.2778 -0.0305
  522TMC3    C6 7753   4.579   1.122  17.159  0.2686  0.5365 -0.7451
  522TMC3     C 7754   4.459   1.465  17.368 -0.6237  0.2067  0.3726
  522TMC3     O 7755   4.518   1.506  17.467  0.1339 -0.1561 -0.2427
  522TMC3     H 7756   4.626   1.295  17.451  0.5172 -0.7541 -0.1192
  522TMC3    H1 7757   4.389   1.398  17.123 -0.4368 -0.6506  0.1746
  522TMC3    H2 7758   4.592   1.020  17.123  0.8955  0.1890  0.4680
  522TMC3    C7 7759   4.452   1.192  16.962 -0.3221  0.1892 -0.2747
  522TMC3    C8 7760   0.036   1.101  17.319  0.1944 -0.5843 -0.4158
  522TMC3    O1 7761   4.522   1.120  16.896  0.0277 -0.4419  0.9400
  522TMC3    O2 7762   0.065   1.108  17.436  0.2025 -0.0571 -0.2945
  523MPD2     C 7763   2.510   1.273  10.275 -0.6555  0.0753 -0.2714
  523MPD2    C1 7764   2.413   1.200  10.210 -0.0354  0.3912  0.4512
  523MPD2    C2 7765   2.334   1.265  10.117  0.1152  0.5510 -0.4693
  523MPD2    C3 7766   2.339   1.398  10.093  0.7514 -0.5644 -0.7888
  523MPD2    C4 7767   2.434   1.469  10.159 -0.0119 -0.3140 -0.3764
  523MPD2    C5 7768   2.519   1.405  10.250  0.9117  1.0315 -0.2337
  523MPD2     H 7769   2.277   1.208  10.044  2.4145 -1.5171 -0.6802
  523MPD2    H1 7770   2.443   1.574  10.133 -0.8580  0.2865  1.7633
  523MPD2    H2 7771   2.587   1.227  10.335  0.5169  2.6987  0.2610
  523MPD2    H3 7772   2.593   1.463  10.304  1.6707 -0.5082  0.3516
  523MPD2     N 7773   2.258   1.477  10.004 -0.4971  0.1716  0.3683
  523MPD2    H5 7774   2.292   1.572  10.008 -0.1603 -0.0037  1.6159
  523MPD2    N1 7775   2.396   1.062  10.236 -0.1660 -0.4545 -0.0282
  523MPD2    H7 7776   2.464   1.018  10.297  0.8846  0.1248 -0.7815
  524TMC3    C1 7777   2.086   1.521   9.847 -0.2420 -0.1652  0.6417
  524TMC3    C2 7778   1.975   1.481   9.777  0.1275  0.2958 -0.5082
  524TMC3    C3 7779   1.882   1.580   9.755  0.1447  0.0903  0.6619
  524TMC3    C4 7780   2.114   1.657   9.855 -0.0539 -0.1184 -0.0370
  524TMC3    C5 7781   2.026   1.752   9.819  0.6346 -0.4689  0.1763
  524TMC3    C6 7782   1.908   1.714   9.763  0.4422  0.5859 -0.9181
  524TMC3     C 7783   2.166   1.426   9.921 -0.9163 -0.8071 -0.0990
  524TMC3     O 7784   2.112   1.315   9.915 -0.2442 -0.3611 -0.0844
  524TMC3     H 7785   1.945   1.376   9.778 -0.3057  0.4144 -2.4384
  524TMC3    H1 7786   2.196   1.696   9.915 -1.7753  2.3210  0.7364
  524TMC3    H2 7787   1.844   1.786   9.712 -2.2080 -0.8603  0.4158
  524TMC3    C7 7788   2.070   1.893   9.815 -0.0711 -0.4369 -1.3792
  524TMC3    C8 7789   1.748   1.554   9.705  0.3128  0.1720  0.1640
  524TMC3    O1 7790   2.190   1.914   9.798  0.5762 -0.0256  0.0609
  524TMC3    O2 7791   1.667   1.644   9.710 -0.0606 -0.0388  0.1840
  525MPD2     C 7792   4.559   3.069  14.541 -0.6965  0.1663 -0.1236
  525MPD2    C1 7793   4.670   3.098  14.622 -0.0584  0.6890  0.6187
  525MPD2    C2 7794   0.024   3.211  14.590 -0.4240 -0.0314  0.3431
  525MPD2    C3 7795   4.703   3.292  14.494 -0.2272 -0.2517  0.3251
  525MPD2    C4 7796   4.591   3.265  14.422  0.0300 -0.1076  0.2970
  525MPD2    C5 7797   4.521   3.150  14.440  0.3160 -0.5559  0.5353
  525MPD2     H 7798   0.118   3.228  14.641  0.8110 -1.1317 -1.5750
  525MPD2    H1 7799   4.570   3.325  14.335 -1.1149 -0.9984 -0.0424
  525MPD2    H2 7800   4.500   2.980  14.564 -0.9968  0.1501 -0.9756
  525MPD2    H3 7801   4.444   3.118  14.371  1.8415  3.8379 -3.1890
  525MPD2     N 7802   0.034   3.417  14.462 -0.1528 -0.6092  0.2897
  525MPD2    H5 7803   4.714   3.471  14.389 -1.1877  1.2560  2.3295
  525MPD2    N1 7804   4.714   3.002  14.712 -0.1180  0.5347  0.3973
  525MPD2    H7 7805   0.076   3.028  14.759  0.8294  0.2823 -1.2023
  526TMC3    C1 7806   4.719   2.822  14.876  0.0686 -0.5603 -0.0162
  526TMC3    C2 7807   4.659   2.834  14.999 -0.4312  0.2501  0.2695
  526TMC3    C3 7808   0.002   2.805  15.107  0.0922  0.1110  0.8380
  526TMC3    C4 7809   0.128   2.816  14.870 -0.6539 -0.6920  0.0812
  526TMC3    C5 7810   0.198   2.811  14.986  0.0101 -0.2818 -0.0592
  526TMC3    C6 7811   0.140   2.797  15.104 -0.0499 -0.2484  0.3950
  526TMC3     C 7812   4.649   2.888  14.759  0.4428 -0.7384 -0.0975
  526TMC3     O 7813   4.530   2.866  14.758  0.4540 -0.3696 -0.0820
  526TMC3     H 7814   4.553   2.856  15.001 -0.1135  1.7182  1.4298
  526TMC3    H1 7815   0.178   2.825  14.774  1.7726 -0.5233  1.3670
  526TMC3    H2 7816   0.193   2.782  15.197 -1.5290  0.8510  1.4026
  526TMC3    C7 7817   0.341   2.775  14.988  0.2166  0.3267 -0.2605
  526TMC3    C8 7818   4.666   2.834  15.235 -0.2605 -0.0194 -0.3705
  526TMC3    O1 7819   0.398   2.768  15.096  0.5578  0.6099 -0.4516
  526TMC3    O2 7820   0.011   2.890  15.317  0.2580  0.2122 -0.4875
  527MPD2     C 7821   2.108   0.734   1.579 -0.3720  0.4465 -0.3322
  527MPD2    C1 7822   2.218   0.815   1.594  0.3394 -0.0443 -0.1594
  527MPD2    C2 7823   2.305   0.828   1.483 -0.5841  0.0916 -0.2985
  527MPD2    C3 7824   2.276   0.774   1.361  0.5492 -0.1623 -0.2499
  527MPD2    C4 7825   2.154   0.720   1.342 -0.7873 -0.1866  0.5977
  527MPD2    C5 7826   2.070   0.697   1.452 -0.3708 -0.3787 -0.1663
  527MPD2     H 7827   2.401   0.876   1.501 -0.2941  0.0144 -1.6459
  527MPD2    H1 7828   2.131   0.674   1.246 -1.4900  0.3973  0.4947
  527MPD2    H2 7829   2.047   0.716   1.667  1.6059 -3.3333  0.2985
  527MPD2    H3 7830   1.983   0.631   1.450  0.5193 -1.5414 -0.7449
  527MPD2     N 7831   2.355   0.799   1.248 -0.1471 -0.7692  0.7000
  527MPD2    H5 7832   2.447   0.835   1.272 -0.0229 -0.0698 -0.7891
  527MPD2    N1 7833   2.259   0.865   1.718  0.1450  0.1075  0.1844
  527MPD2    H7 7834   2.355   0.897   1.726 -0.7482  2.5510  0.9574
  528TMC3    C1 7835   2.247   0.937   1.949  0.1496 -0.0681  0.3424
  528TMC3    C2 7836   2.346   1.031   1.930  0.4681 -0.1291 -0.4141
  528TMC3    C3 7837   2.390   1.099   2.036  0.2869 -0.2974  0.3052
  528TMC3    C4 7838   2.200   0.918   2.076  0.0674  0.8023 -0.4902
  528TMC3    C5 7839   2.239   0.995   2.183 -0.6598 -0.1543  0.3060
  528TMC3    C6 7840   2.343   1.083   2.164  0.1265 -0.2648 -0.7915
  528TMC3     C 7841   2.178   0.877   1.837  0.2337  0.3638  0.6455
  528TMC3     O 7842   2.060   0.840   1.856 -0.0152  0.1312  0.1779
  528TMC3     H 7843   2.365   1.075   1.832 -1.9510 -1.6747 -1.5843
  528TMC3    H1 7844   2.118   0.849   2.094 -0.7514  2.1511  1.0247
  528TMC3    H2 7845   2.383   1.140   2.246  1.1915 -0.4409 -1.1859
  528TMC3    C7 7846   2.125   1.043   2.264 -0.1206 -0.2177  0.1267
  528TMC3    C8 7847   2.494   1.199   2.019  0.0685  0.2899 -0.4522
  528TMC3    O1 7848   2.019   1.055   2.206  0.4801 -0.9512  0.3223
  528TMC3    O2 7849   2.525   1.277   2.108  0.1862 -0.0501  0.7346
  529MPD2     C 7850   1.019   4.037   0.649 -0.0239 -0.2326 -0.2195
  529MPD2    C1 7851   0.890   4.059   0.695 -0.6289  0.1342 -0.0248
  529MPD2    C2 7852   0.831   4.175   0.643 -0.4146 -0.1617  0.1837
  529MPD2    C3 7853   0.885   4.260   0.551 -0.3812 -0.2056 -0.1655
  529MPD2    C4 7854   1.011   4.226   0.506 -0.1635 -0.4770 -0.5451
  529MPD2    C5 7855   1.076   4.112   0.546 -0.2570  0.5022  0.3956
  529MPD2     H 7856   0.728   4.200   0.667 -0.8465 -0.1443 -1.7420
  529MPD2    H1 7857   1.063   4.295   0.440 -0.8656 -1.5044 -2.1617
  529MPD2    H2 7858   1.084   3.965   0.697 -0.0005 -1.0607 -1.4962
  529MPD2    H3 7859   1.179   4.098   0.514 -0.7919 -3.1188  0.1954
  529MPD2     N 7860   0.824   4.380   0.498  0.2743 -0.6758 -0.2468
  529MPD2    H5 7861   0.889   4.430   0.438 -0.3223 -1.1270 -1.2733
  529MPD2    N1 7862   0.820   3.977   0.787 -0.9666 -0.4976 -0.3415
  529MPD2    H7 7863   0.739   4.024   0.826 -0.3489  1.6223 -1.5807
  530TMC3    C1 7864   0.777   3.781   0.909 -0.8877 -0.5093 -0.1865
  530TMC3    C2 7865   0.722   3.841   1.016  0.4957 -0.1363  0.3654
  530TMC3    C3 7866   0.665   3.757   1.114  0.6948  0.6789  0.9540
  530TMC3    C4 7867   0.768   3.645   0.884 -0.3712  0.2865  0.0281
  530TMC3    C5 7868   0.689   3.569   0.969  0.6920  1.0770 -0.2207
  530TMC3    C6 7869   0.641   3.624   1.084  0.1312 -0.6697  0.2898
  530TMC3     C 7870   0.870   3.854   0.820 -0.2028 -0.3725  0.1197
  530TMC3     O 7871   0.954   3.780   0.768  0.2524 -0.1620  0.7238
  530TMC3     H 7872   0.746   3.943   1.041 -1.7794  0.5837 -0.3928
  530TMC3    H1 7873   0.837   3.593   0.819 -0.5168 -3.4463  2.8463
  530TMC3    H2 7874   0.588   3.566   1.159 -1.3732  0.1308 -0.1655
  530TMC3    C7 7875   0.673   3.430   0.945 -0.3076  0.3693  0.5296
  530TMC3    C8 7876   0.678   3.794   1.252  0.4047 -0.0646 -0.4536
  530TMC3    O1 7877   0.773   3.376   0.896  0.1962  0.3514 -0.0662
  530TMC3    O2 7878   0.659   3.912   1.287 -0.4889 -0.0346 -0.1851
  531MPD2     C 7879   3.436   2.379  12.825  0.5209  0.0210 -0.2777
  531MPD2    C1 7880   3.455   2.295  12.937 -0.3336  0.6482  0.1165
  531MPD2    C2 7881   3.435   2.156  12.921  0.1121 -0.1112 -0.2431
  531MPD2    C3 7882   3.420   2.103  12.795 -0.3031  0.0852 -0.2409
  531MPD2    C4 7883   3.408   2.182  12.681 -0.7140 -0.3329 -0.5625
  531MPD2    C5 7884   3.426   2.320  12.698 -0.3623  0.5125  0.6662
  531MPD2     H 7885   3.462   2.085  12.999  1.7776  0.5625 -0.1939
  531MPD2    H1 7886   3.383   2.141  12.584  0.8084 -0.2927 -0.9727
  531MPD2    H2 7887   3.455   2.485  12.824 -0.6796  0.2300 -0.6555
  531MPD2    H3 7888   3.424   2.378  12.607 -0.3559 -1.2685 -0.4636
  531MPD2     N 7889   3.421   1.960  12.790 -0.0073 -0.1576 -0.7360
  531MPD2    H5 7890   3.421   1.909  12.878 -3.5734  0.1976 -0.5562
  531MPD2    N1 7891   3.496   2.349  13.061 -0.0849  0.1603 -0.0436
  531MPD2    H7 7892   3.534   2.443  13.066  0.0890  0.1493 -1.2068
  532TMC3    C1 7893   3.569   2.356  13.291  0.6069 -0.1353  0.2304
  532TMC3    C2 7894   3.557   2.283  13.406  0.2530 -0.4666 -0.1545
  532TMC3    C3 7895   3.660   2.271  13.498  0.4421 -0.0592 -0.3492
  532TMC3    C4 7896   3.684   2.422  13.262 -0.1410 -0.2933  0.3842
  532TMC3    C5 7897   3.778   2.420  13.361  0.5439  0.4038  0.4977
  532TMC3    C6 7898   3.764   2.353  13.481  0.1620  0.4296  0.3917
  532TMC3     C 7899   3.502   2.281  13.183  0.0348 -0.6866  0.8888
  532TMC3     O 7900   3.468   2.168  13.209 -0.1697  0.1011  0.1193
  532TMC3     H 7901   3.466   2.228  13.427  0.3736 -0.7328 -0.3350
  532TMC3    H1 7902   3.708   2.459  13.163  1.3626  1.5004  1.4236
  532TMC3    H2 7903   3.849   2.363  13.548  0.6311 -1.2524  0.0398
  532TMC3    C7 7904   3.914   2.456  13.319 -0.3294 -0.0316  0.3585
  532TMC3    C8 7905   3.695   2.131  13.526  0.1270  0.3861 -0.0640
  532TMC3    O1 7906   3.976   2.513  13.408 -0.2791 -0.0945 -0.3074
  532TMC3    O2 7907   3.790   2.105  13.597  0.0196  0.5330  0.8546
  533TMC3    C1 7908   0.165   3.615  14.470 -0.0082  0.6163 -0.0140
  533TMC3    C2 7909   0.251   3.692  14.542  0.3007  0.1055  0.2229
  533TMC3    C3 7910   0.236   3.833  14.536  0.4612 -0.1255 -0.1867
  533TMC3    C4 7911   0.065   3.669  14.388  0.3183  0.4221 -0.8448
  533TMC3    C5 7912   0.040   3.802  14.402  0.4727 -0.3801  0.1705
  533TMC3    C6 7913   0.132   3.885  14.468  0.3843 -0.1624 -0.6256
  533TMC3     C 7914   0.144   3.476  14.523 -0.0088 -0.0857  0.0424
  533TMC3     O 7915   0.230   3.421  14.591  0.0307 -0.3556  0.3198
  533TMC3     H 7916   0.323   3.647  14.608  0.6206  2.1908  1.3010
  533TMC3    H1 7917   4.716   3.611  14.334  0.6278  0.3413 -1.1819
  533TMC3    H2 7918   0.119   3.992  14.478  0.3186 -0.2352  0.0039
  533TMC3    C7 7919   4.632   3.802  14.471  0.2593  0.0709 -0.2439
  533TMC3    C8 7920   0.350   3.918  14.573 -0.2069 -0.5973 -0.2918
  533TMC3    O1 7921   4.572   3.697  14.483  0.5111 -0.0758  0.0861
  533TMC3    O2 7922   0.394   3.896  14.685 -0.4485 -0.5677 -0.0862
  534MPD2     C 7923   2.348   4.478   2.403 -0.2023 -0.4094  0.1895
  534MPD2    C1 7924   2.333   4.521   2.272  0.1401 -0.4819 -0.1589
  534MPD2    C2 7925   2.325   4.425   2.176 -0.6195 -1.6118 -0.8593
  534MPD2    C3 7926   2.319   4.292   2.208  0.6697 -0.0789  0.2156
  534MPD2    C4 7927   2.327   4.247   2.339  0.1622 -0.0700 -0.0120
  534MPD2    C5 7928   2.345   4.345   2.436  0.9264 -0.2785 -0.5187
  534MPD2     H 7929   2.310   4.460   2.074 -0.0634  0.6756 -0.1517
  534MPD2    H1 7930   2.340   4.144   2.372  0.3736  0.3175  1.1279
  534MPD2    H2 7931   2.349   4.554   2.480  2.0559  2.0953 -2.3074
  534MPD2    H3 7932   2.359   4.310   2.538 -2.1697 -1.2977 -0.4457
  534MPD2     N 7933   2.304   4.189   2.111  0.8383  0.0919  0.1705
  534MPD2    H5 7934   2.264   4.107   2.154 -0.7000 -0.1443 -1.7005
  534MPD2    N1 7935   2.326   4.654   2.223  0.3121  0.4535 -0.0233
  534MPD2    H7 7936   2.335   4.656   2.122  0.0198  0.6483 -0.0469
  535TMC3    C1 7937   2.301   4.074   1.912  0.3711  0.4655 -0.0159
  535TMC3    C2 7938   2.206   3.991   1.967  0.5999 -0.0169  0.4007
  535TMC3    C3 7939   2.157   3.885   1.892  0.1239  0.0738  0.4127
  535TMC3    C4 7940   2.353   4.050   1.785  0.0087  0.3918  0.0502
  535TMC3    C5 7941   2.323   3.925   1.732 -0.3635  0.3873  0.2953
  535TMC3    C6 7942   2.218   3.853   1.773 -0.3937  0.4356  0.2926
  535TMC3     C 7943   2.336   4.195   1.977 -0.2440  0.1133  0.1543
  535TMC3     O 7944   2.382   4.287   1.912  0.2047  0.0705  0.1048
  535TMC3     H 7945   2.176   4.001   2.071  0.6180 -1.2034  0.5194
  535TMC3    H1 7946   2.438   4.103   1.744 -0.2721 -0.3022 -1.4290
  535TMC3    H2 7947   2.188   3.766   1.716 -1.0779  0.4356  0.6439
  535TMC3    C7 7948   2.397   3.865   1.625 -0.2476 -0.3380 -0.4300
  535TMC3    C8 7949   2.017   3.845   1.900 -0.6205  0.5839  0.6192
  535TMC3    O1 7950   2.339   3.791   1.544 -0.0275 -0.4266  0.4298
  535TMC3    O2 7951   1.952   3.800   1.805  0.1717 -0.0890 -0.3056
  536MPD2     C 7952   0.681   2.982  16.677  0.1626  0.0731 -0.2289
  536MPD2    C1 7953   0.759   2.889  16.613  0.2325 -0.5357  0.3792
  536MPD2    C2 7954   0.757   2.883  16.475 -0.1790  0.1692  0.1211
  536MPD2    C3 7955   0.672   2.964  16.406 -0.5882  0.5229  0.0033
  536MPD2    C4 7956   0.586   3.057  16.467 -0.3147 -0.5836  0.1590
  536MPD2    C5 7957   0.604   3.066  16.598 -0.8540 -0.6386  0.1933
  536MPD2     H 7958   0.837   2.823  16.433  0.7138  3.1653 -2.4102
  536MPD2    H1 7959   0.521   3.125  16.413  2.4002  1.4505 -0.5410
  536MPD2    H2 7960   0.676   2.990  16.785  0.5132  0.3957 -0.2335
  536MPD2    H3 7961   0.553   3.146  16.649 -0.9154 -0.2336 -0.5044
  536MPD2     N 7962   0.660   2.966  16.264 -0.0579  0.0300  0.2392
  536MPD2    H5 7963   0.588   3.025  16.223  0.4921  0.4342 -0.1408
  536MPD2    N1 7964   0.838   2.796  16.686 -0.3572  0.6299  0.2468
  536MPD2    H7 7965   0.849   2.812  16.786  1.6297 -0.8363  0.2732
  537TMC3    C1 7966   0.938   2.602  16.743  0.2372  0.0402 -0.0583
  537TMC3    C2 7967   1.012   2.678  16.829 -0.2059 -0.1704  0.3047
  537TMC3    C3 7968   1.061   2.631  16.947 -0.3695  0.0634  0.3004
  537TMC3    C4 7969   0.894   2.480  16.780  0.0231 -0.6680  0.2957
  537TMC3    C5 7970   0.953   2.424  16.893 -0.0388  0.2598 -0.8611
  537TMC3    C6 7971   1.029   2.499  16.983 -0.4810 -1.4692  0.4727
  537TMC3     C 7972   0.861   2.667  16.642 -0.7907 -0.1329 -0.0275
  537TMC3     O 7973   0.827   2.609  16.536 -0.4947 -0.2014 -0.6076
  537TMC3     H 7974   1.034   2.780  16.802 -1.0352 -0.3511 -1.0648
  537TMC3    H1 7975   0.828   2.417  16.722 -2.4192  1.7338  0.4346
  537TMC3    H2 7976   1.070   2.462  17.077 -0.4723  1.3010  1.5855
  537TMC3    C7 7977   0.872   2.317  16.942  0.4904  0.1542  0.6333
  537TMC3    C8 7978   1.150   2.715  17.030 -0.2576  0.4884  0.3528
  537TMC3    O1 7979   0.759   2.299  16.888 -0.2136 -1.0224  0.2259
  537TMC3    O2 7980   1.235   2.665  17.101  0.1384 -0.4952  0.5192
  538TMC3    C1 7981   2.829   0.887  10.713  0.3424 -0.5146 -0.3183
  538TMC3    C2 7982   2.936   0.972  10.727  0.5969 -0.7261  0.2448
  538TMC3    C3 7983   2.956   1.076  10.638  0.0575  0.9028 -0.2429
  538TMC3    C4 7984   2.745   0.910  10.604 -0.0622 -0.4842 -0.0708
  538TMC3    C5 7985   2.751   1.030  10.533 -0.2520  0.1557 -0.2810
  538TMC3    C6 7986   2.857   1.109  10.552 -0.4465  0.0153  0.0109
  538TMC3     C 7987   2.749   0.886  10.832  0.8783  0.2165  0.0568
  538TMC3     O 7988   2.637   0.926  10.815 -0.3442 -0.2361  0.4244
  538TMC3     H 7989   3.016   0.946  10.795 -0.0244 -0.5088  1.0557
  538TMC3    H1 7990   2.658   0.846  10.603  0.9648 -1.9019  0.0738
  538TMC3    H2 7991   2.863   1.197  10.488 -0.4495 -0.6593 -0.9056
  538TMC3    C7 7992   2.619   1.099  10.536  0.0023 -0.2588  0.0946
  538TMC3    C8 7993   3.070   1.159  10.651  0.0766  0.6512 -0.0922
  538TMC3    O1 7994   2.516   1.037  10.505  0.2159  0.0764  0.6862
  538TMC3    O2 7995   3.130   1.157  10.759  0.2256  0.5365  0.2983
  539MPD2     C 7996   2.488   0.623  12.114 -0.3073 -0.1627  0.6041
  539MPD2    C1 7997   2.498   0.624  11.980 -0.2840  0.4603  0.8997
  539MPD2    C2 7998   2.465   0.734  11.901  0.4931  0.5882  0.7580
  539MPD2    C3 7999   2.438   0.856  11.973 -0.4008 -0.0962  0.2352
  539MPD2    C4 8000   2.427   0.851  12.107  0.3245  0.1021  0.5555
  539MPD2    C5 8001   2.454   0.739  12.176 -0.5092  0.5447  0.1827
  539MPD2     H 8002   2.448   0.722  11.795 -0.3240 -0.4417  0.9991
  539MPD2    H1 8003   2.388   0.940  12.157 -1.1553 -1.0627  1.4672
  539MPD2    H2 8004   2.523   0.536  12.168  0.3474 -0.6062 -0.5442
  539MPD2    H3 8005   2.441   0.731  12.284  0.3089  1.4464  0.3437
  539MPD2     N 8006   2.381   0.976  11.914 -0.3952  0.1604 -0.1314
  539MPD2    H5 8007   2.316   1.034  11.965  0.3681  1.0276 -0.1264
  539MPD2    N1 8008   2.550   0.506  11.923 -0.3950  0.2591  1.3045
  539MPD2    H7 8009   2.587   0.436  11.987 -1.2044  0.9463  2.5183
  540TMC3    C1 8010   2.303   1.085  11.721  0.6209 -0.1498  0.0233
  540TMC3    C2 8011   2.348   1.161  11.611  0.6784  0.1401 -0.2983
  540TMC3    C3 8012   2.266   1.253  11.555 -0.3242 -0.1151  0.4033
  540TMC3    C4 8013   2.171   1.093  11.759 -0.0331 -0.1516  0.2757
  540TMC3    C5 8014   2.090   1.179  11.693  1.2253  0.5886 -0.1158
  540TMC3    C6 8015   2.136   1.256  11.590 -0.2614  0.0438  0.0386
  540TMC3     C 8016   2.407   1.007  11.782 -0.1209 -0.2730  0.8671
  540TMC3     O 8017   2.501   0.967  11.708 -0.2699 -0.5176  0.1442
  540TMC3     H 8018   2.453   1.157  11.584  0.4880  0.1041 -1.0328
  540TMC3    H1 8019   2.135   1.048  11.851  0.7645  0.5387  0.9312
  540TMC3    H2 8020   2.079   1.325  11.529 -0.2107  0.6908  0.7198
  540TMC3    C7 8021   1.957   1.195  11.749 -0.0711  0.4912  0.8532
  540TMC3    C8 8022   2.293   1.282  11.417  0.2637  0.8469 -0.1888
  540TMC3    O1 8023   1.897   1.102  11.800  0.4591 -0.0006 -0.3067
  540TMC3    O2 8024   2.350   1.382  11.388  0.6145  0.2047 -0.0098
  541MPD2     C 8025   0.339   1.965  13.071  0.1349  0.4586  0.0353
  541MPD2    C1 8026   0.462   1.928  13.014  0.0234 -0.1607  0.0181
  541MPD2    C2 8027   0.490   1.948  12.878  0.6130  0.0576  0.1293
  541MPD2    C3 8028   0.393   2.020  12.811  0.3153 -0.9976 -0.0001
  541MPD2    C4 8029   0.285   2.076  12.870 -0.2480  0.4255  0.0953
  541MPD2    C5 8030   0.259   2.050  13.001 -0.3703  0.6755 -0.4237
  541MPD2     H 8031   0.569   1.897  12.824  0.0192  0.6387 -1.2960
  541MPD2    H1 8032   0.219   2.145  12.818  0.2929  0.7927 -0.0991
  541MPD2    H2 8033   0.315   1.965  13.177 -0.0013 -0.9696  0.0115
  541MPD2    H3 8034   0.177   2.100  13.051 -1.6043 -0.8167 -0.9495
  541MPD2     N 8035   0.397   2.047  12.670  0.7318 -0.4403 -0.2132
  541MPD2    H5 8036   0.336   2.122  12.640 -1.3294 -1.5580  1.1266
  541MPD2    N1 8037   0.555   1.861  13.099  0.3779  0.5182 -0.0165
  541MPD2    H7 8038   0.530   1.850  13.197  4.1085  1.6143  1.0790
  542TMC3    C1 8039   0.457   2.063  12.444 -0.3232 -0.4663  0.4239
  542TMC3    C2 8040   0.550   2.042  12.346  0.2081 -0.2279 -0.0678
  542TMC3    C3 8041   0.534   2.104  12.231 -0.3403 -0.1455 -0.4934
  542TMC3    C4 8042   0.344   2.143  12.426 -0.5142  0.3591  0.5274
  542TMC3    C5 8043   0.341   2.211  12.313 -0.1194  0.5142  0.0792
  542TMC3    C6 8044   0.433   2.194  12.214  0.5078 -0.3882 -0.1754
  542TMC3     C 8045   0.485   1.998  12.578 -0.1841  0.7945  0.7638
  542TMC3     O 8046   0.571   1.908  12.584 -0.4310  0.0273 -0.1434
  542TMC3     H 8047   0.636   1.977  12.351 -0.4610 -0.9631  1.7655
  542TMC3    H1 8048   0.279   2.156  12.512 -0.4725  1.1775  0.4346
  542TMC3    H2 8049   0.425   2.252  12.123 -1.5758 -0.0644  0.2240
  542TMC3    C7 8050   0.214   2.285  12.283  0.1433 -0.0851  0.4824
  542TMC3    C8 8051   0.586   2.046  12.105 -1.1408  0.6784 -0.1232
  542TMC3    O1 8052   0.180   2.285  12.168  0.4778  0.0381  0.0331
  542TMC3    O2 8053   0.600   2.111  12.003 -0.1701  0.0634  0.2411
  543TMC3    C1 8054   4.202   3.567  17.293 -0.6213 -0.1780 -0.0603
  543TMC3    C2 8055   4.250   3.487  17.389 -0.5429 -0.2416  0.3613
  543TMC3    C3 8056   4.162   3.418  17.467 -0.4386 -0.0097  0.6016
  543TMC3    C4 8057   4.070   3.572  17.263  0.8261 -0.0599  0.1526
  543TMC3    C5 8058   3.985   3.524  17.358  0.0502 -0.0463  0.7636
  543TMC3    C6 8059   4.026   3.438  17.458  0.0296  0.7647 -0.1287
  543TMC3     C 8060   4.295   3.573  17.173  0.0321 -0.1679  0.8064
  543TMC3     O 8061   4.396   3.503  17.172  0.2464 -0.0458 -0.1214
  543TMC3     H 8062   4.358   3.474  17.393 -0.5784 -0.6104  0.1661
  543TMC3    H1 8063   4.033   3.628  17.177  0.2523  0.4360  0.7179
  543TMC3    H2 8064   3.963   3.409  17.541 -0.1875 -2.8370 -1.5640
  543TMC3    C7 8065   3.845   3.548  17.341 -0.8086  0.1189  0.0081
  543TMC3    C8 8066   4.225   3.296  17.511 -0.7041 -0.1643 -0.7851
  543TMC3    O1 8067   3.820   3.616  17.245 -0.0682  0.0966  0.1908
  543TMC3    O2 8068   4.346   3.280  17.492 -0.1320 -0.4827  0.0300
  544MPD2     C 8069   4.210   2.810  17.647 -0.3319 -0.2227 -0.8104
  544MPD2    C1 8070   4.316   2.895  17.640  0.4490  0.1236  0.3060
  544MPD2    C2 8071   4.290   3.027  17.619  0.0344  0.1271 -0.2687
  544MPD2    C3 8072   4.161   3.071  17.600  0.7460  0.5129 -0.0651
  544MPD2    C4 8073   4.058   2.987  17.610 -0.4551 -0.0801  0.0305
  544MPD2    C5 8074   4.079   2.854  17.632  0.0599 -0.6468  0.5539
  544MPD2     H 8075   4.372   3.099  17.617 -1.3886  1.7521  0.0358
  544MPD2    H1 8076   3.954   3.018  17.608 -0.7355 -1.0234  0.2060
  544MPD2    H2 8077   4.234   2.706  17.665  1.0701 -0.0506 -1.6188
  544MPD2    H3 8078   3.993   2.789  17.639  0.7585 -1.4388  1.7515
  544MPD2     N 8079   4.135   3.211  17.576 -0.7451  0.1048  0.3218
  544MPD2    H5 8080   4.038   3.241  17.583 -0.5387  0.9859 -0.5463
  544MPD2    N1 8081   4.444   2.831  17.638 -0.4495  0.2528 -0.1807
  544MPD2    H7 8082   4.449   2.731  17.649  1.3819  0.5362  1.5427
  545TMC3    C1 8083   4.681   2.814  17.623  0.0352  0.2622  0.1036
  545TMC3    C2 8084   0.060   2.842  17.537 -1.1186  0.6643 -0.4243
  545TMC3    C3 8085   0.166   2.764  17.532 -0.1305 -0.6311  0.0438
  545TMC3    C4 8086   4.681   2.698   0.001  0.4288  0.7524  0.0996
  545TMC3    C5 8087   0.070   2.623  17.689 -0.5085  0.0757  0.6032
  545TMC3    C6 8088   0.181   2.650  17.612  0.5674  0.7441 -0.6280
  545TMC3     C 8089   4.558   2.897  17.609  0.7578  1.0869 -0.5600
  545TMC3     O 8090   4.571   3.011  17.568  0.2930 -0.1134  1.1145
  545TMC3     H 8091   0.055   2.935  17.481 -0.2737 -0.3428 -2.1511
  545TMC3    H1 8092   4.591   2.683   0.060  1.7279 -0.6056  1.7045
  545TMC3    H2 8093   0.266   2.584  17.609  0.4127  0.4245  1.4745
  545TMC3    C7 8094   0.062   2.489   0.042  0.0672 -0.1829 -0.0375
  545TMC3    C8 8095   0.266   2.805  17.436  0.0656  0.0044  0.0519
  545TMC3    O1 8096   4.676   2.440   0.035  0.1792 -0.3161 -0.6256
  545TMC3    O2 8097   0.228   2.871  17.339  0.6464 -0.0008  0.1170
  546MPD2     C 8098   0.851   3.835   0.018 -0.3194 -0.4738 -0.5962
  546MPD2    C1 8099   0.959   3.755  17.696 -0.1141  0.1575 -0.2476
  546MPD2    C2 8100   1.088   3.807   0.022 -0.4819 -0.7084 -0.2487
  546MPD2    C3 8101   1.099   3.941   0.073 -0.0340  0.1041 -0.1952
  546MPD2    C4 8102   0.985   4.019   0.092  0.3020 -0.5103  0.0001
  546MPD2    C5 8103   0.863   3.969   0.054 -0.0512 -0.1416  0.0050
  546MPD2     H 8104   1.169   3.736   0.014  1.3475  1.3504 -0.1067
  546MPD2    H1 8105   0.978   4.126   0.110 -0.2739 -0.6712  0.7265
  546MPD2    H2 8106   0.751   3.795   0.005  0.0380 -1.2335 -1.0056
  546MPD2    H3 8107   0.776   4.029   0.080  1.7928  1.8362  1.6759
  546MPD2     N 8108   1.215   4.007   0.110  0.2424 -0.2742  0.5539
  546MPD2    H5 8109   1.218   4.100   0.150  2.6967  0.6490 -1.7701
  546MPD2    N1 8110   0.937   3.627  17.649 -0.3601  0.1380  0.4131
  546MPD2    H7 8111   0.840   3.604  17.627 -1.0051  4.8260 -1.7524
  547TMC3    C1 8112   0.971   3.423  17.538 -0.6055  0.1760  0.2985
  547TMC3    C2 8113   0.885   3.438  17.442  0.2089 -0.5288 -0.1442
  547TMC3    C3 8114   0.791   3.340  17.427  0.3987  0.2176  0.7681
  547TMC3    C4 8115   0.974   3.314  17.620 -0.4453  0.2382  0.5985
  547TMC3    C5 8116   0.879   3.222  17.599 -0.5657  0.4640 -0.7256
  547TMC3    C6 8117   0.784   3.229  17.505 -0.5830  0.0583 -0.4072
  547TMC3     C 8118   1.029   3.536  17.605  0.3143 -0.5406  0.4133
  547TMC3     O 8119   1.152   3.521  17.634 -0.2835 -0.0866  0.5983
  547TMC3     H 8120   0.873   3.533  17.390 -0.3604  0.4359  1.7377
  547TMC3    H1 8121   1.031   3.312   0.012  1.3882 -1.2655 -0.5558
  547TMC3    H2 8122   0.710   3.150  17.509 -0.9181  0.3965  0.0201
  547TMC3    C7 8123   0.832   3.146   0.018  0.0643  0.4391 -0.0245
  547TMC3    C8 8124   0.680   3.370  17.337  0.7924  0.5564 -0.7873
  547TMC3    O1 8125   0.709   3.140   0.032 -0.0232 -0.4535  0.1534
  547TMC3    O2 8126   0.717   3.424  17.233 -0.1408 -0.0018 -0.2888
  548MPD2     C 8127   1.385   3.789  12.058  0.1781  0.2048  0.9285
  548MPD2    C1 8128   1.347   3.754  12.184  0.2397 -0.4194 -0.0469
  548MPD2    C2 8129   1.401   3.640  12.242  0.6317 -0.1388 -0.2856
  548MPD2    C3 8130   1.479   3.558  12.165 -0.3522  1.0345  0.9566
  548MPD2    C4 8131   1.502   3.588  12.039 -0.3188 -0.7505 -0.5188
  548MPD2    C5 8132   1.458   3.705  11.983  0.5542  0.4158  0.1212
  548MPD2     H 8133   1.375   3.609  12.342  0.1067  2.5707  0.4163
  548MPD2    H1 8134   1.569   3.529  11.977 -0.2370 -1.3217  0.1222
  548MPD2    H2 8135   1.349   3.871  11.997 -0.0715  0.6190  1.6448
  548MPD2    H3 8136   1.483   3.730  11.880 -1.6951  2.3335  0.0530
  548MPD2     N 8137   1.523   3.429  12.225  0.4320 -0.1666  0.1211
  548MPD2    H5 8138   1.507   3.420  12.325 -1.0323 -2.0751 -0.2862
  548MPD2    N1 8139   1.279   3.855  12.254  0.4598 -0.0974  0.0597
  548MPD2    H7 8140   1.259   3.945  12.212  2.3217 -1.4224 -3.6202
  549TMC3    C1 8141   1.162   3.945  12.442  0.0421 -0.1111  0.0539
  549TMC3    C2 8142   1.100   4.040  12.363 -0.4999  0.7467 -0.3895
  549TMC3    C3 8143   1.032   4.139  12.430  0.1314 -0.7556  0.5781
  549TMC3    C4 8144   1.153   3.944  12.584  0.0681 -0.8482  0.1721
  549TMC3    C5 8145   1.078   4.041  12.647 -0.6973  0.0630 -0.6107
  549TMC3    C6 8146   1.013   4.134  12.571 -0.1943 -0.0251  0.2031
  549TMC3     C 8147   1.234   3.836  12.385 -0.1008 -0.0684 -0.2207
  549TMC3     O 8148   1.246   3.740  12.458 -0.7602 -0.6434  0.1387
  549TMC3     H 8149   1.112   4.051  12.256  0.7508 -0.4698 -0.3797
  549TMC3    H1 8150   1.211   3.872  12.640  0.1345 -0.4241  0.6526
  549TMC3    H2 8151   0.938   4.198  12.618 -0.1046  1.3161 -1.4878
  549TMC3    C7 8152   1.025   4.021  12.777 -0.2396  0.2439  0.2330
  549TMC3    C8 8153   0.943   4.221  12.354  0.4465 -0.3666 -0.2592
  549TMC3    O1 8154   0.997   4.117  12.847 -0.8985  0.1949  0.1592
  549TMC3    O2 8155   0.874   4.160  12.271  0.3233 -0.3172 -0.3333
  550TMC3    C1 8156   0.293   1.756  11.835 -0.3974  0.3782 -0.9311
  550TMC3    C2 8157   0.297   1.744  11.969 -0.8110 -0.5651  0.0474
  550TMC3    C3 8158   0.269   1.853  12.040  0.2748  0.5423  0.0272
  550TMC3    C4 8159   0.281   1.876  11.772 -0.8260  0.0087 -0.0639
  550TMC3    C5 8160   0.236   1.982  11.843  0.5262  1.3032  0.1087
  550TMC3    C6 8161   0.239   1.974  11.982  0.7078 -0.7527 -0.5389
  550TMC3     C 8162   0.237   1.640  11.762  0.0006  0.3710 -0.6272
  550TMC3     O 8163   0.260   1.526  11.806 -0.4825 -0.1277  0.5163
  550TMC3     H 8164   0.317   1.647  12.014 -0.2877 -0.9830 -1.0890
  550TMC3    H1 8165   0.278   1.887  11.664 -1.5834  0.6796  0.0259
  550TMC3    H2 8166   0.216   2.065  12.037  0.6959 -0.0337 -1.7362
  550TMC3    C7 8167   0.104   2.013  11.802  0.3823 -0.1719  0.4565
  550TMC3    C8 8168   0.271   1.840  12.180  0.0758 -0.1282  0.1637
  550TMC3    O1 8169   0.022   2.010  11.894 -0.0667  0.0170  0.6866
  550TMC3    O2 8170   0.372   1.795  12.235 -0.9324 -0.1288 -0.3932
  551TMC3    C1 8171   2.437   0.017  13.697 -0.7732  0.5422 -0.5809
  551TMC3    C2 8172   2.520   0.081  13.612  0.8721  0.7740 -0.7970
  551TMC3    C3 8173   2.622   0.156  13.665  0.8289 -0.1583 -0.7603
  551TMC3    C4 8174   2.444   0.025  13.833  0.5375 -0.7065  0.0923
  551TMC3    C5 8175   2.544   0.105  13.878  0.5224  0.0632  0.7988
  551TMC3    C6 8176   2.641   0.160  13.797 -0.4420 -0.5595  0.1540
  551TMC3     C 8177   2.327   4.666  13.642 -0.6952  0.4440 -0.2055
  551TMC3     O 8178   2.274   4.706  13.536  0.4752  0.2094 -0.6708
  551TMC3     H 8179   2.498   0.087  13.506 -2.6998 -0.9618 -0.1785
  551TMC3    H1 8180   2.369   4.712  13.902  0.0802 -0.6742 -0.3906
  551TMC3    H2 8181   2.721   0.218  13.841 -0.8887  0.3557 -0.2487
  551TMC3    C7 8182   2.520   0.159  14.011  0.0156  0.1067  0.1333
  551TMC3    C8 8183   2.746   0.120  13.603 -0.4615 -0.2316  0.3586
  551TMC3    O1 8184   2.488   0.083  14.105  0.4898 -0.0848  0.0629
  551TMC3    O2 8185   2.825   0.056  13.673 -0.2887  0.0467 -0.0970
  552MPD2     C 8186   4.175   2.190  13.463 -0.2872  0.5064  0.2834
  552MPD2    C1 8187   4.192   2.053  13.493  0.4719 -0.6618  0.3466
  552MPD2    C2 8188   4.264   2.018  13.605 -0.0068  0.7312 -0.3276
  552MPD2    C3 8189   4.316   2.119  13.687  0.5408  0.0100 -0.2672
  552MPD2    C4 8190   4.304   2.248  13.650 -0.3001 -0.2565  0.7442
  552MPD2    C5 8191   4.236   2.285  13.535 -0.0788 -0.1632  0.8877
  552MPD2     H 8192   4.274   1.911  13.620  0.9540  0.6383 -1.6599
  552MPD2    H1 8193   4.346   2.326  13.713 -1.1194 -0.2352  1.2703
  552MPD2    H2 8194   4.124   2.217  13.371  1.4520 -1.3770 -1.2236
  552MPD2    H3 8195   4.228   2.391  13.512  0.3765 -0.5240 -0.9711
  552MPD2     N 8196   4.405   2.092  13.792  0.7409  0.1735 -0.1401
  552MPD2    H5 8197   4.450   2.167  13.844 -0.3796 -0.8140  2.2620
  552MPD2    N1 8198   4.134   1.954  13.413  0.2401 -0.1979 -0.0813
  552MPD2    H7 8199   4.150   1.857  13.436 -2.6751 -0.6976 -0.2256
  553TMC3    C1 8200   4.020   1.843  13.247  0.5150 -0.1230  0.5710
  553TMC3    C2 8201   4.015   1.834  13.112 -0.3144 -0.1510 -0.1725
  553TMC3    C3 8202   4.004   1.708  13.053  0.3720 -0.2209 -0.0040
  553TMC3    C4 8203   4.044   1.734  13.326  0.8506 -0.2198  0.6674
  553TMC3    C5 8204   4.043   1.617  13.267  0.4954 -0.1328 -0.7841
  553TMC3    C6 8205   4.021   1.598  13.136 -0.1878 -0.5144 -0.1803
  553TMC3     C 8206   4.045   1.976  13.304  0.8208 -0.0056  0.2490
  553TMC3     O 8207   4.008   2.070  13.237  0.0991  0.0992 -0.6536
  553TMC3     H 8208   4.003   1.927  13.058  0.9036 -0.5725 -1.1781
  553TMC3    H1 8209   4.028   1.736  13.433  0.6641 -2.4186  0.6883
  553TMC3    H2 8210   4.015   1.498  13.096  1.0472 -0.2774 -0.9831
  553TMC3    C7 8211   4.074   1.495  13.340  0.3135 -0.4044  0.8189
  553TMC3    C8 8212   4.017   1.711  12.908 -0.6366 -0.9787  0.4548
  553TMC3    O1 8213   3.992   1.404  13.346  0.0238 -0.4156  0.3115
  553TMC3    O2 8214   4.055   1.816  12.851  0.3516  0.5388 -0.0481
  554TMC3    C1 8215   1.240   0.529  11.674 -0.1164 -0.2242  0.3862
  554TMC3    C2 8216   1.192   0.477  11.552 -0.2329  0.1643 -0.4656
  554TMC3    C3 8217   1.221   0.554  11.442 -0.1556 -0.3502  0.2225
  554TMC3    C4 8218   1.304   0.654  11.678  0.3705 -0.1655  0.0102
  554TMC3    C5 8219   1.334   0.730  11.562 -0.0253 -0.1548 -0.7252
  554TMC3    C6 8220   1.292   0.666  11.447 -0.9171 -0.4921 -0.2418
  554TMC3     C 8221   1.194   0.454  11.793  0.6571  0.5386  0.8564
  554TMC3     O 8222   1.132   0.353  11.774  0.1341  0.1062  0.4173
  554TMC3     H 8223   1.131   0.388  11.545  0.9286 -0.7750  1.1314
  554TMC3    H1 8224   1.343   0.699  11.769  3.6688 -1.8175 -0.6025
  554TMC3    H2 8225   1.315   0.706  11.349 -1.2938  0.6467  0.1326
  554TMC3    C7 8226   1.422   0.836  11.568 -0.0406  0.3886 -0.3807
  554TMC3    C8 8227   1.192   0.506  11.313 -0.0877  0.3759 -0.5430
  554TMC3    O1 8228   1.466   0.876  11.681  0.5734  0.6616  0.2862
  554TMC3    O2 8229   1.270   0.520  11.222 -0.4049  0.3771  0.1208
  555TMC3    C1 8230   0.561   0.652  15.277  0.2610  0.0379 -0.3640
  555TMC3    C2 8231   0.564   0.708  15.404 -0.3183  0.2497 -0.3068
  555TMC3    C3 8232   0.602   0.626  15.500 -0.3489  0.6027  0.3995
  555TMC3    C4 8233   0.570   0.520  15.247 -0.5701  1.0878  0.4080
  555TMC3    C5 8234   0.590   0.437  15.356 -0.7063  0.1596 -0.5215
  555TMC3    C6 8235   0.613   0.489  15.482 -0.4518  0.0670  0.1188
  555TMC3     C 8236   0.585   0.745  15.164 -0.3295 -0.3267  0.0627
  555TMC3     O 8237   0.660   0.709  15.079 -0.0672 -0.9699 -0.4656
  555TMC3     H 8238   0.569   0.814  15.425  3.0379 -0.3067  1.7592
  555TMC3    H1 8239   0.562   0.490  15.143  1.5350  1.3305  0.1724
  555TMC3    H2 8240   0.644   0.420  15.559 -0.0506  0.5639  0.3931
  555TMC3    C7 8241   0.586   0.290  15.343 -0.0217  0.4342 -0.6342
  555TMC3    C8 8242   0.686   0.684  15.606 -0.0414 -0.1558  0.3282
  555TMC3    O1 8243   0.512   0.233  15.418  0.2346  0.2483  0.4799
  555TMC3    O2 8244   0.763   0.775  15.565  0.5366  0.1133  0.3845
  556MPD2     C 8245   3.181   2.378  10.562  0.4798 -0.0704 -0.0219
  556MPD2    C1 8246   3.157   2.245  10.610  0.5259 -0.1115 -0.0176
  556MPD2    C2 8247   3.110   2.154  10.515 -0.0439 -0.5172  0.0518
  556MPD2    C3 8248   3.093   2.178  10.378  0.2736 -0.6924 -0.1161
  556MPD2    C4 8249   3.124   2.304  10.332  0.0673  0.7238 -0.1570
  556MPD2    C5 8250   3.162   2.395  10.423 -0.5882  0.5626 -0.7255
  556MPD2     H 8251   3.108   2.049  10.543 -0.3017 -0.9629 -1.6760
  556MPD2    H1 8252   3.118   2.342  10.231 -1.0803  0.9576 -0.0019
  556MPD2    H2 8253   3.207   2.465  10.621 -1.7260 -1.7155  3.3862
  556MPD2    H3 8254   3.184   2.490  10.375 -3.4067  1.1983 -0.7782
  556MPD2     N 8255   3.069   2.068  10.297  0.7874  0.2938  0.4724
  556MPD2    H5 8256   3.056   1.983  10.351  1.5356  0.3343  0.7208
  556MPD2    N1 8257   3.162   2.211  10.743 -0.5036 -0.2718  0.2546
  556MPD2    H7 8258   3.118   2.126  10.776 -0.0705 -1.1003 -1.2598
  557TMC3    C1 8259   3.080   1.934  10.101 -0.7420  1.5749  0.0386
  557TMC3    C2 8260   3.065   1.926   9.965  0.2212 -0.3775  0.4617
  557TMC3    C3 8261   3.088   1.806   9.906  0.6562  0.2892  0.1507
  557TMC3    C4 8262   3.130   1.833  10.173 -0.4227 -0.5779  0.4166
  557TMC3    C5 8263   3.174   1.718  10.103  0.0766 -0.3649 -0.2701
  557TMC3    C6 8264   3.150   1.706   9.969 -0.2588 -0.1485  0.2569
  557TMC3     C 8265   3.065   2.069  10.161 -0.4253 -0.2746 -0.2071
  557TMC3     O 8266   3.059   2.167  10.088 -0.5365 -0.6684  0.3778
  557TMC3     H 8267   3.020   2.011   9.916 -0.1625 -1.7916 -1.6336
  557TMC3    H1 8268   3.164   1.849  10.275  0.5540 -0.9214  0.1423
  557TMC3    H2 8269   3.165   1.611   9.919 -1.3199 -0.2848  0.1829
  557TMC3    C7 8270   3.205   1.606  10.181 -0.1389  0.1319 -0.4232
  557TMC3    C8 8271   3.019   1.795   9.776  0.6359 -0.6355 -0.1124
  557TMC3    O1 8272   3.200   1.492  10.139 -0.3851  0.1874  0.3840
  557TMC3    O2 8273   2.983   1.900   9.722  0.3228 -1.0158 -0.0700
  558TMC3    C1 8274   1.003   4.297   9.952  0.7026  0.6060 -0.0727
  558TMC3    C2 8275   0.887   4.309  10.015 -0.1241 -0.0093 -0.9840
  558TMC3    C3 8276   0.795   4.209  10.017  0.2004 -0.1560 -0.0494
  558TMC3    C4 8277   1.032   4.173   9.905  0.5248 -0.9400 -0.7777
  558TMC3    C5 8278   0.951   4.065   9.929 -0.0311  0.2879 -0.2975
  558TMC3    C6 8279   0.823   4.083   9.976 -0.1311 -0.0444 -0.2018
  558TMC3     C 8280   1.114   4.362  10.026  0.6942 -0.0210 -0.4603
  558TMC3     O 8281   1.230   4.340   9.992  0.7771  0.3250  0.2129
  558TMC3     H 8282   0.857   4.410  10.044 -2.2762 -1.4036  1.6646
  558TMC3    H1 8283   1.131   4.163   9.864  0.3929 -2.5446 -0.6949
  558TMC3    H2 8284   0.742   4.012   9.980 -0.0047 -0.3236 -2.5285
  558TMC3    C7 8285   0.994   3.934   9.870 -1.1300  0.0791 -0.1129
  558TMC3    C8 8286   0.694   4.229  10.116 -0.9658 -0.2395 -0.0804
  558TMC3    O1 8287   1.116   3.921   9.870 -0.0606 -0.4613 -0.3845
  558TMC3    O2 8288   0.604   4.309  10.095  0.4376 -0.3025 -0.0344
  559MPD2     C 8289   1.246   0.046  10.692  0.4698 -0.2531 -0.1391
  559MPD2    C1 8290   1.170   0.026  10.799 -0.1841  0.2266 -0.1947
  559MPD2    C2 8291   1.225   0.003  10.920  0.5046 -0.1371 -1.0242
  559MPD2    C3 8292   1.361   0.017  10.938 -0.4926 -0.4344 -0.3859
  559MPD2    C4 8293   1.443   0.034  10.824  0.0859  0.5860 -1.0572
  559MPD2    C5 8294   1.384   0.052  10.705 -0.1779  0.2928 -0.5458
  559MPD2     H 8295   1.159   4.725  11.006 -0.4752  0.0230 -1.7755
  559MPD2    H1 8296   1.551   0.031  10.830 -0.0827  0.5248  2.3093
  559MPD2    H2 8297   1.199   0.069  10.597  2.3953  0.9742 -0.7840
  559MPD2    H3 8298   1.446   0.078  10.620  1.3487 -1.8617 -0.0767
  559MPD2     N 8299   1.413   0.008  11.066 -0.0406  0.0645  0.0928
  559MPD2    H5 8300   1.356   4.715  11.147 -1.4544  0.2219 -0.8724
  559MPD2    N1 8301   1.031   0.023  10.775 -0.1578 -0.2720 -1.1648
  559MPD2    H7 8302   1.005   0.026  10.676  0.5418  2.4513 -1.2795
  560TMC3    C1 8303   1.566   0.010  11.250  0.4407 -0.1561 -0.5667
  560TMC3    C2 8304   1.524   4.619  11.311 -0.4858 -0.4216 -0.5570
  560TMC3    C3 8305   1.595   4.560  11.414 -0.5355 -0.0081 -0.1526
  560TMC3    C4 8306   1.666   0.080  11.304 -0.1306 -0.1756  0.1773
  560TMC3    C5 8307   1.734   0.029  11.416  0.5608 -0.1142  0.5308
  560TMC3    C6 8308   1.705   4.628  11.464 -0.2723 -0.9343 -0.0292
  560TMC3     C 8309   1.541   0.038  11.103  0.1226 -0.3183 -0.3944
  560TMC3     O 8310   1.620   0.102  11.036  0.0652  0.4848 -0.1167
  560TMC3     H 8311   1.447   4.567  11.256 -0.5889 -1.9917  1.0852
  560TMC3    H1 8312   1.706   0.171  11.260  0.5941 -0.1498  0.8863
  560TMC3    H2 8313   1.747   4.593  11.558  0.3224 -0.0923  0.0145
  560TMC3    C7 8314   1.802   0.130  11.500  0.7928  0.8732 -0.2287
  560TMC3    C8 8315   1.638   4.437  11.360 -0.0569 -0.4255 -0.1004
  560TMC3    O1 8316   1.812   0.107  11.621  0.4126  0.0049  0.4670
  560TMC3    O2 8317   1.555   4.351  11.335  0.0122 -0.7573  0.0768
  561TMC3    C1 8318   3.481   4.280  11.214  0.5178  0.1515 -1.1823
  561TMC3    C2 8319   3.430   4.179  11.290  0.5914  0.0743 -0.0461
  561TMC3    C3 8320   3.404   4.206  11.422 -0.4896  0.1062 -0.1300
  561TMC3    C4 8321   3.511   4.405  11.265 -0.1492 -0.2636  0.0269
  561TMC3    C5 8322   3.502   4.420  11.403 -0.7449  0.2869 -0.3010
  561TMC3    C6 8323   3.450   4.321  11.479 -0.6883 -0.0577 -0.9549
  561TMC3     C 8324   3.516   4.254  11.075 -0.0584 -0.0619  0.0265
  561TMC3     O 8325   3.555   4.343  11.004 -0.8994  0.3931  0.3144
  561TMC3     H 8326   3.401   4.084  11.247 -1.8840 -0.1751  2.1810
  561TMC3    H1 8327   3.558   4.481  11.203  0.4373 -3.1752 -3.0791
  561TMC3    H2 8328   3.453   4.344  11.585 -0.4436 -1.5614 -0.6435
  561TMC3    C7 8329   3.556   4.540  11.459  0.2618  0.1370  0.3619
  561TMC3    C8 8330   3.351   4.107  11.507  0.9711  0.7177  0.0119
  561TMC3    O1 8331   3.523   4.571  11.571  0.7375  0.5381  0.3582
  561TMC3    O2 8332   3.327   4.000  11.451 -0.7104  0.1927  0.2484
  562TMC3    C1 8333   0.053   0.784  15.804  0.5187  0.8483 -0.1763
  562TMC3    C2 8334   0.092   0.857  15.700  0.5631 -0.4701 -0.0554
  562TMC3    C3 8335   0.203   0.820  15.635 -0.1470 -0.0406 -0.5251
  562TMC3    C4 8336   0.119   0.672  15.851  0.7514  0.4420 -0.1597
  562TMC3    C5 8337   0.240   0.641  15.783 -0.0399 -0.3570  0.1246
  562TMC3    C6 8338   0.285   0.714  15.675  0.3298 -0.3518 -0.4892
  562TMC3     C 8339   4.654   0.830  15.868  0.2611  0.1405  0.2125
  562TMC3     O 8340   4.592   0.920  15.814 -0.5997  0.0805  0.3897
  562TMC3     H 8341   0.053   0.957  15.684 -0.0742 -0.7214 -0.0624
  562TMC3    H1 8342   0.086   0.608  15.932  1.1550 -0.1207 -0.4373
  562TMC3    H2 8343   0.378   0.696  15.622  1.3107 -1.7996  1.7070
  562TMC3    C7 8344   0.327   0.531  15.816 -0.8434 -1.1357  0.5438
  562TMC3    C8 8345   0.271   0.924  15.559 -0.0375  0.1319 -0.3861
  562TMC3    O1 8346   0.419   0.508  15.739 -0.3767  0.6206 -0.2341
  562TMC3    O2 8347   0.394   0.923  15.553  0.5951  0.0533 -0.7161
  563MPD2     C 8348   2.475   2.113  15.752 -0.1266  0.2854  0.6735
  563MPD2    C1 8349   2.433   2.191  15.860  0.6797  0.9316 -0.3846
  563MPD2    C2 8350   2.529   2.243  15.946 -1.3339  0.0093  0.1371
  563MPD2    C3 8351   2.663   2.205  15.941  0.3376  0.4959 -0.1195
  563MPD2    C4 8352   2.689   2.112  15.837  1.0605  0.6061 -0.2297
  563MPD2    C5 8353   2.602   2.074  15.742 -0.2875  0.3471 -0.2690
  563MPD2     H 8354   2.497   2.306  16.028  0.3018  0.1778  0.6525
  563MPD2    H1 8355   2.787   2.073  15.815  0.8318 -0.7828  1.1970
  563MPD2    H2 8356   2.398   2.074  15.687 -0.2024  0.7179  0.5052
  563MPD2    H3 8357   2.637   1.999  15.672 -2.7065 -0.7471 -0.2993
  563MPD2     N 8358   2.756   2.236  16.042 -0.1760  0.1643  0.2207
  563MPD2    H5 8359   2.713   2.289  16.117 -0.5964 -0.3871  0.3704
  563MPD2    N1 8360   2.292   2.207  15.880 -0.3840 -0.3041  0.3596
  563MPD2    H7 8361   2.238   2.144  15.823 -2.5850  1.7595  0.1806
  564TMC3    C1 8362   2.136   2.227  16.054  0.2967 -0.5325  0.2321
  564TMC3    C2 8363   2.053   2.131  16.005 -0.0328  0.2163  0.1106
  564TMC3    C3 8364   1.985   2.042  16.096 -1.0952  0.4854 -0.2806
  564TMC3    C4 8365   2.154   2.245  16.194  0.7099 -0.2193 -0.1241
  564TMC3    C5 8366   2.102   2.143  16.269 -0.9629  0.2854  0.3668
  564TMC3    C6 8367   2.004   2.054  16.227  0.0067  0.1859 -0.1312
  564TMC3     C 8368   2.244   2.290  15.976 -0.1581 -0.4496 -0.1010
  564TMC3     O 8369   2.296   2.393  16.019  0.3837  0.9195 -0.0763
  564TMC3     H 8370   2.050   2.111  15.898 -1.4184 -1.7987  0.5131
  564TMC3    H1 8371   2.222   2.318  16.236  0.5232 -0.0655 -0.0873
  564TMC3    H2 8372   1.947   1.990  16.294 -1.0463  0.1905 -1.0158
  564TMC3    C7 8373   2.207   2.082  16.347 -0.2016 -0.5253  0.7496
  564TMC3    C8 8374   1.952   1.907  16.062  0.0312 -0.0802 -0.3369
  564TMC3    O1 8375   2.278   2.151  16.415  0.0583  0.1810 -0.0162
  564TMC3    O2 8376   1.969   1.820  16.145 -0.1337  0.1293 -0.2441
  565TMC3    C1 8377   2.977   2.753  10.448  0.0973 -0.2709 -0.1037
  565TMC3    C2 8378   3.003   2.703  10.570 -0.3526  0.6081 -0.0284
  565TMC3    C3 8379   2.955   2.579  10.594 -0.9657  0.1581  0.9391
  565TMC3    C4 8380   2.900   2.685  10.353  0.0824 -0.2010 -0.4553
  565TMC3    C5 8381   2.840   2.567  10.391  0.5735  1.2172  0.2862
  565TMC3    C6 8382   2.868   2.502  10.506 -0.2796  0.6728  0.2460
  565TMC3     C 8383   3.013   2.888  10.406  0.3691 -0.4189  0.2789
  565TMC3     O 8384   3.035   2.905  10.285 -0.4067  0.3004 -0.0900
  565TMC3     H 8385   3.071   2.753  10.639 -0.7960 -2.0285  2.2976
  565TMC3    H1 8386   2.876   2.750  10.269  0.4548  1.0601  0.4161
  565TMC3    H2 8387   2.795   2.433  10.547  1.1486 -1.5736 -0.9643
  565TMC3    C7 8388   2.766   2.499  10.290  0.2119  0.5651 -0.5813
  565TMC3    C8 8389   2.950   2.550  10.742 -0.2386 -1.0596  0.0860
  565TMC3    O1 8390   2.738   2.560  10.186 -0.2416  0.4565 -0.8332
  565TMC3    O2 8391   3.003   2.634  10.815 -0.1726  0.3292 -0.2157
  566MPD2     C 8392   4.190   0.881  14.158 -0.7284 -0.1864 -0.0272
  566MPD2    C1 8393   4.324   0.841  14.179 -0.1544 -0.6068  0.5674
  566MPD2    C2 8394   4.347   0.707  14.165  0.0578  0.0961  0.1867
  566MPD2    C3 8395   4.257   0.612  14.111  0.1566 -0.1967  0.6962
  566MPD2    C4 8396   4.131   0.662  14.092 -0.0251 -0.3001 -0.2312
  566MPD2    C5 8397   4.099   0.790  14.123  0.4348  0.3306 -0.8404
  566MPD2     H 8398   4.447   0.675  14.189  0.7319  2.1153  0.1198
  566MPD2    H1 8399   4.051   0.610  14.039 -0.6109  0.5335 -0.1594
  566MPD2    H2 8400   4.156   0.984  14.162  1.8590  0.6984 -1.3609
  566MPD2    H3 8401   3.999   0.822  14.097 -0.3660 -0.0921  1.7911
  566MPD2     N 8402   4.284   0.491  14.050 -0.0444 -0.3908 -0.3181
  566MPD2    H5 8403   4.224   0.455  13.977 -1.0863  0.9343 -0.1177
  566MPD2    N1 8404   4.417   0.931  14.214  0.0873  0.2096 -0.1644
  566MPD2    H7 8405   4.397   1.030  14.201 -1.5228 -0.0132  0.6017
  567TMC3    C1 8406   4.631   1.016  14.284 -0.0118  0.0702  0.1373
  567TMC3    C2 8407   4.638   1.107  14.180 -0.3439 -0.1699 -0.2432
  567TMC3    C3 8408   0.033   1.142  14.135 -0.3017  0.1685 -0.4614
  567TMC3    C4 8409   0.016   0.981  14.346 -0.6086 -0.2939  0.6627
  567TMC3    C5 8410   0.134   1.024  14.295 -0.3393 -0.0926  0.9537
  567TMC3    C6 8411   0.151   1.117  14.199 -0.4628  0.1293  0.4397
  567TMC3     C 8412   4.537   0.905  14.271 -0.3642  0.1585  0.2157
  567TMC3     O 8413   4.573   0.803  14.324  0.5859  0.5283  0.1384
  567TMC3     H 8414   4.554   1.135  14.117  1.1717  2.4514 -1.1164
  567TMC3    H1 8415   0.010   0.921  14.436  1.5516 -1.3928  0.0875
  567TMC3    H2 8416   0.247   1.139  14.154 -1.3096  1.1260 -0.9108
  567TMC3    C7 8417   0.261   0.982  14.361  0.3465 -0.3212  0.2888
  567TMC3    C8 8418   0.042   1.167  13.989  0.1867  0.5169 -0.0344
  567TMC3    O1 8419   0.362   1.022  14.308  0.2105 -0.1318 -0.1627
  567TMC3    O2 8420   4.667   1.132  13.922  0.3142  0.3845  0.8423
  568MPD2     C 8421   2.310   0.522  16.020 -0.5545  0.6177  0.1244
  568MPD2    C1 8422   2.254   0.562  16.142 -0.4134  0.7324  0.3089
  568MPD2    C2 8423   2.148   0.642  16.135 -1.2088  0.2835 -0.4093
  568MPD2    C3 8424   2.095   0.684  16.012  0.6242  0.0161  0.3532
  568MPD2    C4 8425   2.156   0.640  15.893  0.8041  0.6600 -0.0662
  568MPD2    C5 8426   2.259   0.554  15.895 -0.4986 -0.2834  0.4115
  568MPD2     H 8427   2.102   0.676  16.227  1.1223 -0.1366  0.8900
  568MPD2    H1 8428   2.117   0.665  15.796 -1.6204 -1.1623  0.4527
  568MPD2    H2 8429   2.397   0.458  16.019 -1.6095 -0.7861 -3.7534
  568MPD2    H3 8430   2.307   0.520  15.804 -1.2139  0.2802 -0.1776
  568MPD2     N 8431   1.994   0.787  16.018  0.0773  0.1597 -0.5976
  568MPD2    H5 8432   1.970   0.812  16.114  1.9268 -1.2358  0.2355
  568MPD2    N1 8433   2.295   0.492  16.260  0.1323 -0.1919 -0.4595
  568MPD2    H7 8434   2.361   0.418  16.239 -0.7516 -1.1304  0.0486
  569TMC3    C1 8435   1.862   0.963  15.975  0.7167  0.0117 -0.4497
  569TMC3    C2 8436   1.792   0.946  16.093 -0.2301 -0.1333  0.4637
  569TMC3    C3 8437   1.740   1.064  16.139 -0.1372  0.0889 -0.0725
  569TMC3    C4 8438   1.863   1.077  15.907 -1.0936  0.6843  0.4828
  569TMC3    C5 8439   1.814   1.186  15.959  0.3806  0.6935  0.0793
  569TMC3    C6 8440   1.743   1.184  16.075 -0.0003  0.5002  0.2050
  569TMC3     C 8441   1.941   0.858  15.916 -0.1850  0.4194  0.4459
  569TMC3     O 8442   1.959   0.856  15.797  0.2311 -0.7879 -0.2457
  569TMC3     H 8443   1.788   0.854  16.148 -0.8104 -0.4372 -0.0868
  569TMC3    H1 8444   1.920   1.086  15.815 -0.2562  1.6186  1.0898
  569TMC3    H2 8445   1.708   1.274  16.123  0.2835  0.6369  0.1560
  569TMC3    C7 8446   1.798   1.302  15.876 -0.0597  0.8788  0.0312
  569TMC3    C8 8447   1.711   1.058  16.280 -0.7131 -0.4513  0.2908
  569TMC3    O1 8448   1.785   1.282  15.753 -0.0434  0.1392 -0.1471
  569TMC3    O2 8449   1.727   0.950  16.330 -0.3658 -0.2786 -0.6208
  570TMC3    C1 8450   1.499   4.431  16.358 -0.2644  0.1470 -0.1100
  570TMC3    C2 8451   1.597   4.391  16.275 -0.0658  0.3450 -0.4438
  570TMC3    C3 8452   1.706   4.471  16.263 -0.1055  0.5081 -0.0110
  570TMC3    C4 8453   1.501   4.554  16.423 -0.5109  0.4680 -0.1536
  570TMC3    C5 8454   1.618   4.628  16.420  0.3672  0.8379 -0.0467
  570TMC3    C6 8455   1.717   4.589  16.333 -0.2755  0.8525 -0.4607
  570TMC3     C 8456   1.409   4.331  16.415  1.0337  0.2045 -0.4154
  570TMC3     O 8457   1.385   4.228  16.353  0.3898 -0.0813 -0.4643
  570TMC3     H 8458   1.589   4.301  16.214 -1.1808 -1.1621  1.9498
  570TMC3    H1 8459   1.422   4.582  16.492 -1.3927  0.3288 -1.1076
  570TMC3    H2 8460   1.811   4.642  16.337  0.3911 -0.4370  1.1700
  570TMC3    C7 8461   1.628   0.011  16.508  0.0641 -0.2082  0.1826
  570TMC3    C8 8462   1.792   4.452  16.147  0.4081 -0.1105  0.4650
  570TMC3    O1 8463   1.580   4.709  16.622  0.3487  0.7004 -0.6194
  570TMC3    O2 8464   1.889   4.529  16.152  1.0221 -0.1026  0.0351
  571MPD2     C 8465   4.165   1.085  17.538 -0.1564  0.2526  0.5092
  571MPD2    C1 8466   4.030   1.078  17.556 -0.0125 -0.6268  0.1282
  571MPD2    C2 8467   3.963   1.194  17.581  0.4255 -1.0803  0.4554
  571MPD2    C3 8468   4.024   1.310  17.594 -0.2475 -0.1919 -0.3794
  571MPD2    C4 8469   4.159   1.320  17.563 -0.2919 -0.5635  0.7320
  571MPD2    C5 8470   4.228   1.204  17.538 -0.3635  0.1223 -0.4886
  571MPD2     H 8471   3.856   1.193  17.598  0.1578  0.3967 -1.1623
  571MPD2    H1 8472   4.217   1.412  17.563  0.0511 -0.7761  1.7193
  571MPD2    H2 8473   4.218   0.994  17.515 -1.3418 -0.4336  0.5073
  571MPD2    H3 8474   4.331   1.217  17.508 -1.0655  1.3967 -2.3857
  571MPD2     N 8475   3.951   1.427  17.617 -0.0370  0.4437 -0.0193
  571MPD2    H5 8476   4.005   1.511  17.638  0.7483  0.3487 -1.6846
  571MPD2    N1 8477   3.967   0.949  17.535 -0.0682  0.4712  0.1507
  571MPD2    H7 8478   4.024   0.866  17.526 -1.3230 -0.7455  3.2432
  572TMC3    C1 8479   3.777   1.583  17.659 -0.7978 -0.4049  0.3170
  572TMC3    C2 8480   3.662   1.590   0.023 -0.4167 -0.0970  0.1544
  572TMC3    C3 8481   3.610   1.712   0.040 -0.3631 -0.1347  0.1126
  572TMC3    C4 8482   3.844   1.691  17.607  0.1992 -0.1288 -0.4626
  572TMC3    C5 8483   3.789   1.817  17.627  0.5545  0.4816 -0.2491
  572TMC3    C6 8484   3.660   1.824  17.682 -0.8792 -0.0990 -0.1097
  572TMC3     C 8485   3.815   1.447  17.612 -0.5217  0.8286  0.3291
  572TMC3     O 8486   3.728   1.362  17.609 -0.0426 -0.0405 -0.6010
  572TMC3     H 8487   3.596   1.507   0.046 -1.1549  0.4102 -0.1261
  572TMC3    H1 8488   3.937   1.683  17.551 -0.8495  0.7322 -2.3262
  572TMC3    H2 8489   3.609   1.916   0.008 -1.0216 -0.5144  1.0550
  572TMC3    C7 8490   3.852   1.941  17.589 -0.4711  0.2040  0.4553
  572TMC3    C8 8491   3.482   1.724   0.099  0.1398  0.1333 -0.0153
  572TMC3    O1 8492   3.778   2.032  17.551 -0.7888  0.7558  0.0147
  572TMC3    O2 8493   3.409   1.806   0.045 -0.2808 -0.6273 -0.1497
  573MPD2     C 8494   0.909   1.606   1.088 -0.6534  0.2591 -0.1535
  573MPD2    C1 8495   0.902   1.745   1.101 -0.2283 -0.0049 -0.7235
  573MPD2    C2 8496   0.897   1.814   0.989 -0.5053  0.2657  0.3671
  573MPD2    C3 8497   0.888   1.750   0.863 -0.7975 -0.0715 -0.1247
  573MPD2    C4 8498   0.894   1.611   0.855 -0.0992  0.1126  0.7423
  573MPD2    C5 8499   0.894   1.538   0.969  0.6710 -0.3126 -0.4433
  573MPD2     H 8500   0.896   1.922   1.001 -1.9868 -0.0488  3.1916
  573MPD2    H1 8501   0.896   1.558   0.760  1.0605  0.0627  0.7906
  573MPD2    H2 8502   0.942   1.548   1.173 -2.3012 -0.5685 -0.0673
  573MPD2    H3 8503   0.898   1.430   0.959 -0.1418 -0.1351 -2.7123
  573MPD2     N 8504   0.873   1.829   0.745  0.0297 -0.3242  0.5335
  573MPD2    H5 8505   0.844   1.778   0.662  1.2305 -0.0733 -0.0390
  573MPD2    N1 8506   0.894   1.783   1.237  0.1658 -0.1989  0.2403
  573MPD2    H7 8507   0.898   1.717   1.314 -1.4873  0.2742  0.7349
  574TMC3    C1 8508   0.842   2.023   0.612  0.4643  0.8930 -0.0012
  574TMC3    C2 8509   0.714   1.997   0.575  0.4308 -0.4824 -0.5140
  574TMC3    C3 8510   0.673   2.085   0.475  0.3716  0.3163  0.2646
  574TMC3    C4 8511   0.917   2.133   0.577 -0.1661  0.5399  0.6115
  574TMC3    C5 8512   0.865   2.221   0.485  0.6303  0.7226 -0.4716
  574TMC3    C6 8513   0.746   2.194   0.426 -0.6179 -0.1648  0.5928
  574TMC3     C 8514   0.878   1.964   0.737 -0.0949  0.3596  0.3597
  574TMC3     O 8515   0.912   2.049   0.816  0.4493 -0.3028  1.1242
  574TMC3     H 8516   0.656   1.913   0.611  3.3193 -2.1162  0.3290
  574TMC3    H1 8517   1.013   2.149   0.625 -0.9979 -0.1439  2.5257
  574TMC3    H2 8518   0.712   2.263   0.350 -1.3811  0.4987  1.5386
  574TMC3    C7 8519   0.892   2.364   0.500  0.6764 -0.5801 -0.6816
  574TMC3    C8 8520   0.534   2.068   0.431  0.4320  0.2583 -0.0903
  574TMC3    O1 8521   0.809   2.454   0.505 -0.0848  0.4717  0.0885
  574TMC3    O2 8522   0.490   1.955   0.434 -0.1520 -0.0927 -0.2801
  575TMC3    C1 8523   3.069   2.806  11.562  0.4893 -0.2984 -0.2024
  575TMC3    C2 8524   3.011   2.734  11.663 -0.3357 -0.4652  0.8178
  575TMC3    C3 8525   2.923   2.629  11.629  0.6071 -0.2694  0.2834
  575TMC3    C4 8526   3.061   2.761  11.431  0.4321 -0.7157  0.1547
  575TMC3    C5 8527   2.991   2.649  11.406 -0.5062  0.5538 -0.2963
  575TMC3    C6 8528   2.922   2.579  11.499 -0.5623  0.3581  0.4417
  575TMC3     C 8529   3.182   2.891  11.576  0.5644 -0.2474 -0.2609
  575TMC3     O 8530   3.263   2.910  11.483 -0.4514  0.5843  0.3158
  575TMC3     H 8531   3.014   2.777  11.763 -1.5480 -0.6679  0.9420
  575TMC3    H1 8532   3.120   2.801  11.350 -1.1866  0.9025 -0.2250
  575TMC3    H2 8533   2.847   2.502  11.482  1.7058 -1.6272 -0.5003
  575TMC3    C7 8534   2.968   2.607  11.269 -0.3742 -0.8436  0.1015
  575TMC3    C8 8535   2.867   2.542  11.732 -0.2069 -0.5322  0.6722
  575TMC3    O1 8536   2.960   2.700  11.189 -0.4069 -0.2434  0.1639
  575TMC3    O2 8537   2.839   2.429  11.695 -0.3349 -0.4467 -0.5473
  576MPD2     C 8538   3.185   4.128  12.967 -0.1225 -0.9704 -0.2964
  576MPD2    C1 8539   3.123   4.238  12.905 -0.2113 -0.0986  0.6069
  576MPD2    C2 8540   3.041   4.318  12.975  0.2785 -0.5144 -0.2158
  576MPD2    C3 8541   2.998   4.285  13.100  0.5575 -0.0516  0.1478
  576MPD2    C4 8542   3.060   4.181  13.162 -0.1012  0.0449  0.0042
  576MPD2    C5 8543   3.159   4.108  13.101 -0.4188 -0.2706 -0.3676
  576MPD2     H 8544   2.982   4.390  12.920  0.6359 -0.3842 -0.4293
  576MPD2    H1 8545   3.053   4.174  13.270 -2.3731  1.7314 -0.0383
  576MPD2    H2 8546   3.260   4.066  12.917  0.7845 -0.4699  0.4425
  576MPD2    H3 8547   3.220   4.047  13.167 -0.8128 -0.9171 -0.5977
  576MPD2     N 8548   2.900   4.369  13.160 -0.1435  0.3444 -0.3687
  576MPD2    H5 8549   2.868   4.444  13.100 -1.2945 -1.4336 -2.0058
  576MPD2    N1 8550   3.144   4.264  12.769 -0.0344  0.5219  0.0537
  576MPD2    H7 8551   3.110   4.356  12.741  0.7975  0.6425 -0.5511
  577TMC3    C1 8552   3.186   4.230  12.553 -0.1906 -1.1685  0.3519
  577TMC3    C2 8553   3.204   4.135  12.455 -0.1450  0.2088  0.0453
  577TMC3    C3 8554   3.175   4.184  12.325 -0.5904 -0.5348  0.3349
  577TMC3    C4 8555   3.147   4.358  12.525 -0.2056  0.0438 -0.0857
  577TMC3    C5 8556   3.133   4.406  12.400  0.0251  0.2716  0.2009
  577TMC3    C6 8557   3.156   4.320  12.296 -0.0595  0.0415  0.1254
  577TMC3     C 8558   3.198   4.178  12.684 -0.3315 -0.0945  0.1195
  577TMC3     O 8559   3.227   4.059  12.694  0.2437 -0.2599 -0.2330
  577TMC3     H 8560   3.220   4.030  12.475 -1.2261  0.3252  1.5415
  577TMC3    H1 8561   3.142   4.436  12.600 -1.2154  1.3398 -1.5099
  577TMC3    H2 8562   3.145   4.352  12.193 -0.9849  0.6958  0.4212
  577TMC3    C7 8563   3.152   4.551  12.388 -0.5275 -0.1984 -0.0023
  577TMC3    C8 8564   3.189   4.084  12.217 -0.3641  0.1197 -0.4322
  577TMC3    O1 8565   3.198   4.609  12.484 -0.3053 -0.1815 -0.2454
  577TMC3    O2 8566   3.194   3.969  12.257 -0.3829  0.3439 -0.2472
  578MPD2     C 8567   0.775   4.295   1.381  0.5583  0.3882  0.3220
  578MPD2    C1 8568   0.853   4.202   1.311  0.7852 -0.3862 -0.2207
  578MPD2    C2 8569   0.906   4.096   1.385 -0.1366  0.3703 -0.4577
  578MPD2    C3 8570   0.897   4.093   1.519  0.3826 -0.3300  0.2603
  578MPD2    C4 8571   0.829   4.191   1.586 -0.0790 -0.1255  0.0855
  578MPD2    C5 8572   0.761   4.287   1.513 -1.3723 -0.5094 -0.3934
  578MPD2     H 8573   0.956   4.018   1.329  0.0447 -0.9061  1.4839
  578MPD2    H1 8574   0.802   4.191   1.691  1.2561 -0.3857  0.4278
  578MPD2    H2 8575   0.728   4.378   1.330 -0.9141 -0.3371  0.4838
  578MPD2    H3 8576   0.699   4.352   1.574  1.4155  0.4847  1.4227
  578MPD2     N 8577   0.966   3.988   1.585  0.9100  0.7756 -0.5138
  578MPD2    H5 8578   1.010   3.920   1.524  0.8523  0.0221  0.2904
  578MPD2    N1 8579   0.876   4.223   1.173 -0.1237 -0.7343 -0.0703
  578MPD2    H7 8580   0.831   4.298   1.122  1.2421  0.4321  0.4634
  579TMC3    C1 8581   1.069   3.870   1.772  0.1563 -0.0102  0.4416
  579TMC3    C2 8582   1.142   3.889   1.892 -0.6857 -0.3861 -0.6852
  579TMC3    C3 8583   1.252   3.808   1.909  0.3446 -0.3534  0.0824
  579TMC3    C4 8584   1.094   3.769   1.685 -0.6074  0.4069 -0.7223
  579TMC3    C5 8585   1.206   3.686   1.712 -0.4760 -0.3343 -0.3661
  579TMC3    C6 8586   1.286   3.705   1.820  0.0172 -0.4800 -0.5059
  579TMC3     C 8587   0.985   3.982   1.720  0.0355  0.2021  0.3853
  579TMC3     O 8588   0.953   4.055   1.810 -0.0551 -0.3511 -0.6314
  579TMC3     H 8589   1.121   3.984   1.940 -0.4116 -0.2585 -0.8147
  579TMC3    H1 8590   1.024   3.743   1.606 -0.3410  0.6896 -1.0537
  579TMC3    H2 8591   1.373   3.642   1.840  0.9659  0.7945 -0.5963
  579TMC3    C7 8592   1.247   3.576   1.627 -0.7507  0.4308  0.0828
  579TMC3    C8 8593   1.350   3.856   2.011 -0.1371  0.4765 -0.1656
  579TMC3    O1 8594   1.324   3.497   1.674 -0.3101  0.2896  0.1883
  579TMC3    O2 8595   1.310   3.918   2.110 -0.1921  0.5387 -0.2788
  580TMC3    C1 8596   1.250   3.363  11.963 -0.2024  0.3463  0.2919
  580TMC3    C2 8597   1.308   3.270  11.880  0.1027 -0.0847 -0.4929
  580TMC3    C3 8598   1.327   3.142  11.920  1.1228  0.6221  0.2868
  580TMC3    C4 8599   1.238   3.331  12.100 -0.3938  0.1395 -0.5234
  580TMC3    C5 8600   1.268   3.198  12.135  0.2480 -0.0991 -0.1506
  580TMC3    C6 8601   1.316   3.098  12.053  0.0752 -0.4042 -0.0676
  580TMC3     C 8602   1.188   3.485  11.916  0.0581  0.4726 -0.0179
  580TMC3     O 8603   1.190   3.496  11.793 -0.0832  0.1835 -0.0771
  580TMC3     H 8604   1.313   3.291  11.774 -0.1188  0.8471 -0.3201
  580TMC3    H1 8605   1.191   3.384  12.181  0.7025  0.8392 -0.3480
  580TMC3    H2 8606   1.343   2.999  12.088 -1.6482 -1.2441 -1.1285
  580TMC3    C7 8607   1.256   3.177  12.274 -0.2741  0.6073  0.1640
  580TMC3    C8 8608   1.394   3.045  11.833  1.0631 -0.1715 -0.2460
  580TMC3    O1 8609   1.274   3.267  12.349 -0.0292  0.2837  0.4624
  580TMC3    O2 8610   1.396   2.923  11.864  0.4082 -0.3791 -0.7502
  581MPD2     C 8611   3.141   2.939  15.339 -0.3787 -0.0307  0.7250
  581MPD2    C1 8612   3.190   3.063  15.370  0.7251 -0.5108 -0.0219
  581MPD2    C2 8613   3.131   3.175  15.316  0.4158 -0.2855  0.0276
  581MPD2    C3 8614   3.024   3.169  15.234  0.2373 -0.4617 -0.1002
  581MPD2    C4 8615   2.968   3.044  15.215 -0.0154  0.0349 -0.2244
  581MPD2    C5 8616   3.025   2.936  15.270  0.5584  0.3640 -0.3399
  581MPD2     H 8617   3.177   3.272  15.330  1.1893 -0.6092 -0.2381
  581MPD2    H1 8618   2.887   3.027  15.145 -0.4339  1.1773 -0.0047
  581MPD2    H2 8619   3.196   2.853  15.376 -1.3439 -1.4645 -1.1826
  581MPD2    H3 8620   2.973   2.841  15.259  1.4977 -0.2518  0.4289
  581MPD2     N 8621   2.978   3.286  15.171 -0.0073  0.3674 -0.0535
  581MPD2    H5 8622   3.036   3.368  15.188  0.3474 -0.0518  0.7756
  581MPD2    N1 8623   3.307   3.067  15.450  0.3923  0.6401 -0.3548
  581MPD2    H7 8624   3.349   2.976  15.470  2.0006  1.5674  0.4569
  582TMC3    C1 8625   3.464   3.142  15.604 -0.7194 -0.5216 -0.0981
  582TMC3    C2 8626   3.459   3.225  15.712  0.3530 -0.7322  0.2529
  582TMC3    C3 8627   3.473   3.174  15.839  0.0624 -0.1602  0.9932
  582TMC3    C4 8628   3.481   3.006  15.623  0.3237 -0.3715  0.1018
  582TMC3    C5 8629   3.485   2.962  15.754  0.2082  0.7391  0.4431
  582TMC3    C6 8630   3.487   3.044  15.865 -0.0776  0.1306 -0.6382
  582TMC3     C 8631   3.362   3.179  15.505  0.1370 -0.0847  0.4810
  582TMC3     O 8632   3.328   3.298  15.496 -0.2563  0.5079  0.7848
  582TMC3     H 8633   3.437   3.331  15.706  0.5184 -0.7275 -0.2810
  582TMC3    H1 8634   3.500   2.925  15.552  0.7350 -1.6225  1.6327
  582TMC3    H2 8635   3.502   2.990  15.957 -2.1273  0.6002 -0.0359
  582TMC3    C7 8636   3.509   2.820  15.780 -0.5452 -0.5235  0.1710
  582TMC3    C8 8637   3.439   3.263  15.945 -0.4587 -0.3315 -0.3202
  582TMC3    O1 8638   3.611   2.805  15.847  0.0662  0.0675  0.1850
  582TMC3    O2 8639   3.342   3.336  15.925 -0.3079  0.1178 -0.0420
  583MPD2     C 8640   3.118   0.262  16.643  0.1306  0.3558 -0.7773
  583MPD2    C1 8641   3.157   0.384  16.599  0.1016 -0.3595  0.4866
  583MPD2    C2 8642   3.139   0.495  16.675 -0.1223 -0.4969 -0.9336
  583MPD2    C3 8643   3.093   0.481  16.805 -0.7614 -0.4496 -0.0281
  583MPD2    C4 8644   3.061   0.356  16.855  0.3761 -0.6101 -0.0585
  583MPD2    C5 8645   3.064   0.251  16.772  0.0313  1.2220  0.3461
  583MPD2     H 8646   3.182   0.587  16.637  0.4148  1.3528  4.2266
  583MPD2    H1 8647   3.034   0.334  16.957  2.4159  2.3921  1.1335
  583MPD2    H2 8648   3.122   0.177  16.576 -1.3205 -0.2448 -0.1014
  583MPD2    H3 8649   3.017   0.155  16.792 -1.1109  1.5646 -0.7246
  583MPD2     N 8650   3.093   0.594  16.887  0.6304 -0.1057 -0.8129
  583MPD2    H5 8651   3.115   0.686  16.849  0.0502  0.6586  0.6944
  583MPD2    N1 8652   3.199   0.401  16.466 -0.7299  0.0420  0.3603
  583MPD2    H7 8653   3.193   0.495  16.427  2.7969  0.3081  0.4787
  584TMC3    C1 8654   3.118   0.707  17.097  0.4247  0.1398  0.8428
  584TMC3    C2 8655   3.178   0.811  17.028 -0.3356 -0.2991  0.3341
  584TMC3    C3 8656   3.184   0.937  17.090  0.0329  0.1173  0.0983
  584TMC3    C4 8657   3.051   0.734  17.210 -0.5416  0.2081 -0.4112
  584TMC3    C5 8658   3.066   0.857  17.270  0.0874 -0.6913 -0.6874
  584TMC3    C6 8659   3.118   0.961  17.207  0.7205  0.4795  0.3813
  584TMC3     C 8660   3.089   0.582  17.025 -0.4156  0.6774 -0.2523
  584TMC3     O 8661   3.069   0.490  17.099  0.1388  0.4436 -0.1321
  584TMC3     H 8662   3.210   0.797  16.926 -0.2281 -0.2182  0.3560
  584TMC3    H1 8663   3.037   0.639  17.260 -1.5903  1.1388  1.0561
  584TMC3    H2 8664   3.101   1.061  17.246  0.6472  0.5753  0.1003
  584TMC3    C7 8665   2.976   0.888  17.385  0.4080  0.2194  0.4566
  584TMC3    C8 8666   3.206   1.048  17.008 -0.3977  0.7506 -0.2616
  584TMC3    O1 8667   3.003   0.988  17.449  0.1443  0.4627 -0.6283
  584TMC3    O2 8668   3.180   1.030  16.889 -0.1427 -0.0952 -0.0308
  585MPD2     C 8669   2.248   3.650   0.812  0.0826  0.2168 -0.5409
  585MPD2    C1 8670   2.374   3.639   0.753 -0.1149 -0.3351 -0.6645
  585MPD2    C2 8671   2.388   3.672   0.619 -0.2103  0.4568  0.1435
  585MPD2    C3 8672   2.278   3.711   0.543 -0.1067 -0.3970 -0.2154
  585MPD2    C4 8673   2.155   3.725   0.611  0.0909  0.0070  0.6130
  585MPD2    C5 8674   2.138   3.692   0.741  0.1169 -0.0259 -0.2039
  585MPD2     H 8675   2.482   3.660   0.567 -0.0553  2.1636  0.0270
  585MPD2    H1 8676   2.062   3.758   0.566  0.7500 -2.7666 -2.7874
  585MPD2    H2 8677   2.232   3.628   0.917 -1.4920  1.6014 -0.4935
  585MPD2    H3 8678   2.045   3.699   0.795  0.1775  4.1973 -0.6358
  585MPD2     N 8679   2.293   3.748   0.408  0.1203  0.2182  1.0374
  585MPD2    H5 8680   2.203   3.770   0.367 -0.1702 -0.9518  1.0473
  585MPD2    N1 8681   2.477   3.593   0.834  0.6726  0.0539 -1.2852
  585MPD2    H7 8682   2.459   3.574   0.933 -0.7735  1.0438 -1.3570
  586TMC3    C1 8683   2.383   3.791   0.191  0.3425  0.1981 -0.1654
  586TMC3    C2 8684   2.495   3.816   0.111 -0.3686  0.6712  0.1584
  586TMC3    C3 8685   2.474   3.876  17.691  0.5182 -0.9344  0.3981
  586TMC3    C4 8686   2.252   3.802   0.140  0.0700  0.4397 -0.0460
  586TMC3    C5 8687   2.240   3.848   0.009 -0.1028  0.1265  0.1350
  586TMC3    C6 8688   2.348   3.901  17.646 -0.5631  0.3383  0.3436
  586TMC3     C 8689   2.401   3.739   0.329  0.1943  0.0662 -0.6597
  586TMC3     O 8690   2.519   3.732   0.361  0.1015  0.7456  0.3955
  586TMC3     H 8691   2.596   3.807   0.149 -0.5242 -2.4206 -0.1556
  586TMC3    H1 8692   2.164   3.779   0.198  1.1505 -1.6348  0.7787
  586TMC3    H2 8693   2.332   3.943  17.547  1.0460  2.9634  1.2102
  586TMC3    C7 8694   2.139   3.780  17.635 -0.4752  0.3179 -0.3211
  586TMC3    C8 8695   2.567   3.833  17.592  0.2521 -1.1103 -1.0065
  586TMC3    O1 8696   2.041   3.739   0.000  0.4784  0.3527 -0.0395
  586TMC3    O2 8697   2.621   3.725  17.611 -0.0331 -0.0123 -0.1301
  587TMC3    C1 8698   0.286   2.612  17.128  0.1452 -0.2894  0.3074
  587TMC3    C2 8699   0.264   2.716  17.039 -0.2303  0.6181  0.0533
  587TMC3    C3 8700   0.370   2.790  16.993  0.2895  0.0013  0.3170
  587TMC3    C4 8701   0.412   2.579  17.166 -0.2762  0.1157  0.3205
  587TMC3    C5 8702   0.514   2.643  17.097  0.2307  0.2296  0.0050
  587TMC3    C6 8703   0.496   2.747  17.014  1.2252 -0.1255  0.0705
  587TMC3     C 8704   0.170   2.540  17.190 -0.0821  0.5044  0.8832
  587TMC3     O 8705   0.183   2.502  17.308  0.0465 -0.2428 -0.4691
  587TMC3     H 8706   0.164   2.755  17.025 -0.9256 -1.1180  0.2440
  587TMC3    H1 8707   0.422   2.497  17.236 -4.0052 -0.2065  0.5081
  587TMC3    H2 8708   0.576   2.803  16.968  1.0035  0.7743  0.7705
  587TMC3    C7 8709   0.657   2.613  17.131 -0.0295 -0.1322  0.2152
  587TMC3    C8 8710   0.354   2.880  16.880 -0.0288 -0.1611 -0.1066
  587TMC3    O1 8711   0.739   2.680  17.066 -0.3007 -0.2059 -0.1622
  587TMC3    O2 8712   0.422   2.856  16.779  0.1756 -0.3576 -0.5152
  588TMC3    C1 8713   2.787   0.138   9.631 -0.0142 -0.0488  0.2139
  588TMC3    C2 8714   2.726   0.028   9.685  1.1056 -0.3911 -0.7336
  588TMC3    C3 8715   2.793   4.673   9.769  0.1064 -0.2802  0.5224
  588TMC3    C4 8716   2.915   0.171   9.656 -0.3301 -0.8694 -0.2065
  588TMC3    C5 8717   2.985   0.088   9.741 -0.1127 -0.4835  0.2423
  588TMC3    C6 8718   2.917   4.708   9.802  0.7216  0.5008 -0.2285
  588TMC3     C 8719   2.691   0.255   9.606  0.1916 -0.0606  0.6593
  588TMC3     O 8720   2.571   0.226   9.607 -0.1676 -0.7610  0.0277
  588TMC3     H 8721   2.621   0.008   9.667  0.9145 -1.8813  2.0307
  588TMC3    H1 8722   2.962   0.256   9.609 -0.5707 -0.0512  1.0453
  588TMC3    H2 8723   2.976   4.648   9.871 -1.1498  0.2587  1.1804
  588TMC3    C7 8724   3.110   0.147   9.792  0.5131 -0.0715 -0.1895
  588TMC3    C8 8725   2.722   4.551   9.817 -0.4981 -0.8566  0.3523
  588TMC3    O1 8726   3.208   0.071   9.819 -0.0377 -0.0359  0.3177
  588TMC3    O2 8727   2.618   4.521   9.761 -0.4600  0.1864 -0.2352
  589TMC3    C1 8728   1.461   2.444   1.597 -0.6223  0.8324  0.3918
  589TMC3    C2 8729   1.541   2.464   1.707 -0.7627 -0.1475  0.1431
  589TMC3    C3 8730   1.664   2.408   1.703  0.4371 -0.8425 -0.4445
  589TMC3    C4 8731   1.503   2.365   1.497  0.5249 -0.0038 -0.2390
  589TMC3    C5 8732   1.626   2.306   1.500 -0.6000 -0.4488  0.0017
  589TMC3    C6 8733   1.711   2.338   1.594 -0.8306 -0.4056 -0.3535
  589TMC3     C 8734   1.317   2.459   1.614  0.0643  0.5827 -0.7177
  589TMC3     O 8735   1.238   2.394   1.548  0.3842 -0.3267  0.4334
  589TMC3     H 8736   1.518   2.535   1.786  2.1311  0.4974  0.4071
  589TMC3    H1 8737   1.429   2.337   1.422  1.4903  1.5477 -1.7694
  589TMC3    H2 8738   1.812   2.298   1.588 -0.9270 -0.7498  0.3825
  589TMC3    C7 8739   1.656   2.192   1.417  0.4053  0.9239  0.4808
  589TMC3    C8 8740   1.767   2.461   1.790  0.4235 -0.0859 -0.2747
  589TMC3    O1 8741   1.748   2.119   1.444 -0.3222  0.4984  0.1795
  589TMC3    O2 8742   1.742   2.474   1.909 -0.3845 -0.6574 -0.7690
  590MPD2     C 8743   1.050   1.404  16.887 -0.6585  0.7022 -0.1196
  590MPD2    C1 8744   0.985   1.383  16.770 -0.4000 -0.3124 -0.3085
  590MPD2    C2 8745   1.034   1.448  16.659  0.8198  0.4654  0.1094
  590MPD2    C3 8746   1.138   1.546  16.663  0.5804 -0.1896 -0.1034
  590MPD2    C4 8747   1.207   1.559  16.778 -0.1006  0.0489  0.3463
  590MPD2    C5 8748   1.166   1.486  16.889 -0.1637 -0.9210  0.4098
  590MPD2     H 8749   0.985   1.449  16.562 -1.3830  2.9255  1.2276
  590MPD2    H1 8750   1.294   1.623  16.783  1.2700 -1.8180  0.2620
  590MPD2    H2 8751   1.027   1.358  16.983 -1.2888  1.4885  0.1058
  590MPD2    H3 8752   1.226   1.503  16.977 -0.0816  0.0557  0.1742
  590MPD2     N 8753   1.168   1.618  16.548 -0.4615  0.8276  0.7697
  590MPD2    H5 8754   1.114   1.590  16.467 -0.3016  3.0575 -0.1029
  590MPD2    N1 8755   0.885   1.288  16.761  0.4622 -0.0108 -0.4075
  590MPD2    H7 8756   0.859   1.243  16.848 -0.8477 -2.2993 -1.9654
  591TMC3    C1 8757   1.272   1.754  16.386 -0.0425  0.1504  0.1426
  591TMC3    C2 8758   1.297   1.645  16.309  0.9135 -0.4750  0.1801
  591TMC3    C3 8759   1.295   1.654  16.175  0.1308  0.2858 -0.4860
  591TMC3    C4 8760   1.262   1.880  16.332  0.7047  0.0845  0.2615
  591TMC3    C5 8761   1.282   1.880  16.191 -0.1894 -0.8020 -0.0493
  591TMC3    C6 8762   1.282   1.773  16.102 -0.0793 -0.1502  0.3648
  591TMC3     C 8763   1.255   1.721  16.524  0.0069  0.5434  0.0019
  591TMC3     O 8764   1.295   1.810  16.601 -0.2727 -0.1894  0.2337
  591TMC3     H 8765   1.309   1.549  16.359 -1.3027 -0.9635 -0.2285
  591TMC3    H1 8766   1.253   1.971  16.389 -1.4005 -0.8532  1.4543
  591TMC3    H2 8767   1.287   1.786  15.995  2.1730  2.5590  0.7840
  591TMC3    C7 8768   1.265   2.014  16.140 -0.2171 -0.3827  0.5258
  591TMC3    C8 8769   1.290   1.522  16.100  0.2713  0.4459 -0.4481
  591TMC3    O1 8770   1.202   2.082  16.220  0.2432 -0.0743 -0.3315
  591TMC3    O2 8771   1.304   1.423  16.169 -0.5762 -0.3959 -0.3107
  592MPD2     C 8772   1.989   2.798  11.438  0.0433  0.0690 -0.1660
  592MPD2    C1 8773   1.915   2.851  11.542  0.5510  0.3614  1.1163
  592MPD2    C2 8774   1.809   2.774  11.586 -0.1069 -0.7686 -0.3883
  592MPD2    C3 8775   1.779   2.645  11.530 -0.1382  0.9070 -0.3369
  592MPD2    C4 8776   1.869   2.593  11.436 -0.6278  0.4396  0.1057
  592MPD2    C5 8777   1.971   2.669  11.388  0.4747  1.0519 -0.0741
  592MPD2     H 8778   1.743   2.810  11.663  0.2756  0.3127 -0.5550
  592MPD2    H1 8779   1.868   2.495  11.389 -0.5422  1.0900 -1.2724
  592MPD2    H2 8780   2.075   2.850  11.398  0.0270 -0.5575 -0.9986
  592MPD2    H3 8781   2.031   2.631  11.306 -1.9044 -0.4977 -1.1016
  592MPD2     N 8782   1.671   2.568  11.579  0.4480 -0.3262  0.4722
  592MPD2    H5 8783   1.614   2.591  11.660  2.2880 -1.0513  1.9455
  592MPD2    N1 8784   1.941   2.981  11.584 -0.5294  0.1980  0.2784
  592MPD2    H7 8785   1.999   3.037  11.523  0.1045 -1.6911 -0.8382
  593TMC3    C1 8786   1.939   3.169  11.724  0.0707  0.5365 -0.5971
  593TMC3    C2 8787   1.954   3.210  11.853  0.3723  0.3827  0.9141
  593TMC3    C3 8788   2.014   3.334  11.877  0.3561 -0.3064 -0.5528
  593TMC3    C4 8789   1.981   3.243  11.612 -0.6270 -0.5556  0.2020
  593TMC3    C5 8790   2.036   3.370  11.644  0.4760 -1.0101  0.1448
  593TMC3    C6 8791   2.050   3.417  11.773  0.3303 -0.6873 -0.4998
  593TMC3     C 8792   1.892   3.034  11.700  0.1993  0.0137  1.1503
  593TMC3     O 8793   1.839   2.979  11.796 -0.3905 -0.6592  1.0644
  593TMC3     H 8794   1.901   3.165  11.937  1.5953 -0.0858  1.4397
  593TMC3    H1 8795   1.953   3.219  11.510 -2.0617  2.2810 -0.0602
  593TMC3    H2 8796   2.094   3.515  11.789  0.6687 -0.7840 -0.8439
  593TMC3    C7 8797   2.036   3.466  11.538 -0.8580 -1.1918  0.2208
  593TMC3    C8 8798   1.970   3.390  12.003  0.6756  0.2556 -0.0163
  593TMC3    O1 8799   2.046   3.579  11.582  0.8423 -0.7506  0.0686
  593TMC3    O2 8800   1.922   3.314  12.088 -0.2368  0.3673 -0.2746
  594MPD2     C 8801   0.229   2.357  13.698  0.0708  0.0766  0.0522
  594MPD2    C1 8802   0.242   2.299  13.824  0.0594  0.5150 -0.0811
  594MPD2    C2 8803   0.340   2.336  13.905 -0.2690 -0.2052  0.0088
  594MPD2    C3 8804   0.437   2.429  13.871 -0.0939 -0.5939  0.4152
  594MPD2    C4 8805   0.429   2.479  13.740 -0.5636 -0.1070 -0.6601
  594MPD2    C5 8806   0.326   2.444  13.658  0.4916 -0.0625 -1.1909
  594MPD2     H 8807   0.359   2.295  14.003 -2.2905 -0.2947  0.3670
  594MPD2    H1 8808   0.497   2.552  13.699  2.1391 -1.4851  1.3583
  594MPD2    H2 8809   0.154   2.334  13.623  0.2023 -1.1037  0.2809
  594MPD2    H3 8810   0.341   2.483  13.558 -0.5247  5.2669  0.7680
  594MPD2     N 8811   0.532   2.481  13.962 -0.0337 -0.0817 -0.3257
  594MPD2    H5 8812   0.523   2.455  14.059 -0.0682  0.6512 -0.1321
  594MPD2    N1 8813   0.144   2.201  13.858 -1.0466  0.3622 -0.4071
  594MPD2    H7 8814   0.070   2.180  13.792  2.5095  0.0377 -4.3130
  595TMC3    C1 8815   0.843   2.790  14.145  0.3059  0.2704  0.8741
  595TMC3    C2 8816   0.783   2.729  14.038 -0.1976  0.4866  0.4472
  595TMC3    C3 8817   0.680   2.639  14.055 -0.2899 -0.5969 -0.8208
  595TMC3    C4 8818   0.796   2.760  14.271  0.3379 -0.3817 -0.7083
  595TMC3    C5 8819   0.713   2.653  14.288 -0.4952  0.4060 -0.5782
  595TMC3    C6 8820   0.646   2.602  14.178  0.2037  0.8769  0.5410
  595TMC3     C 8821   0.978   2.824  14.142 -0.0512 -0.1970  0.3369
  595TMC3     O 8822   1.038   2.791  14.242 -0.3549 -0.5280  0.2534
  595TMC3     H 8823   0.809   2.750  13.935  1.2297 -3.4726  0.0200
  595TMC3    H1 8824   0.837   2.806  14.360 -0.7338  1.2464 -1.0668
  595TMC3    H2 8825   0.558   2.542  14.200  2.4840 -2.3550  0.8809
  595TMC3    C7 8826   0.647   2.655  14.422  0.4704  0.0138 -0.6206
  595TMC3    C8 8827   0.627   2.576  13.935 -0.1655 -0.6076 -0.0691
  595TMC3    O1 8828   0.528   2.674  14.405  0.0094  0.6793 -0.5887
  595TMC3    O2 8829   0.672   2.608  13.827  0.5037  0.5417  0.0649
  596MPD2     C 8830   3.857   4.663  16.609 -0.1405  0.1519 -0.4345
  596MPD2    C1 8831   3.876   0.066  16.559  0.1489  0.7810 -0.0302
  596MPD2    C2 8832   3.909   0.083  16.425  0.0258 -0.4124 -0.4470
  596MPD2    C3 8833   3.923   4.702  16.345  0.1364 -0.2460 -0.3042
  596MPD2    C4 8834   3.909   4.573  16.398  0.6303 -0.5189 -0.0459
  596MPD2    C5 8835   3.874   4.553  16.528 -0.3004  0.7441 -0.4565
  596MPD2     H 8836   3.944   0.183  16.401  1.1981 -0.9932 -1.1792
  596MPD2    H1 8837   3.916   4.496  16.322  1.7983  0.0411 -0.4951
  596MPD2    H2 8838   3.852   4.650  16.717 -0.0575 -0.3850 -0.4978
  596MPD2    H3 8839   3.856   4.456  16.572  2.1400  0.2918 -0.4450
  596MPD2     N 8840   3.968   4.719  16.216 -0.1454 -0.2693 -0.3694
  596MPD2    H5 8841   4.008   4.640  16.166 -1.3669 -0.4507 -1.0632
  596MPD2    N1 8842   3.875   0.181  16.646 -0.5325 -0.0925 -0.2741
  596MPD2    H7 8843   3.917   0.264  16.605 -0.7409  0.1796  0.0759
  597TMC3    C1 8844   3.822   0.327  16.826 -0.5606 -0.6576  0.1045
  597TMC3    C2 8845   3.921   0.416  16.792  0.1891 -0.1301  0.0022
  597TMC3    C3 8846   3.916   0.535  16.865  0.0490 -0.3038  0.0469
  597TMC3    C4 8847   3.730   0.347  16.927  0.1750  0.7180  0.1241
  597TMC3    C5 8848   3.733   0.469  16.997 -0.2190  0.2832 -0.1968
  597TMC3    C6 8849   3.826   0.561  16.961  0.2121  0.0457  0.1447
  597TMC3     C 8850   3.818   0.194  16.771 -0.5159 -0.3307 -0.7892
  597TMC3     O 8851   3.746   0.108  16.831 -0.0464  0.1722  0.2491
  597TMC3     H 8852   3.985   0.391  16.709 -0.5597 -2.0862  0.0087
  597TMC3    H1 8853   3.657   0.272  16.957 -0.8191  2.4229  1.9650
  597TMC3    H2 8854   3.839   0.649  17.022 -0.4415  0.7489 -0.7418
  597TMC3    C7 8855   3.625   0.503  17.087  0.6004 -0.4567  0.3124
  597TMC3    C8 8856   3.971   0.653  16.802  0.1417 -0.1131 -0.0674
  597TMC3    O1 8857   3.531   0.424  17.079  0.3256 -0.0031 -0.2228
  597TMC3    O2 8858   3.927   0.758  16.847  0.2009  0.0035  0.2110
  598TMC3    C1 8859   2.079   1.455  15.475 -0.3540 -0.3441 -0.7664
  598TMC3    C2 8860   2.009   1.340  15.483  0.1131  0.6283  0.2857
  598TMC3    C3 8861   1.983   1.271  15.371 -0.0343 -0.0772 -0.3265
  598TMC3    C4 8862   2.142   1.501  15.367  0.0790 -0.0477 -0.5285
  598TMC3    C5 8863   2.118   1.432  15.252 -0.5946  0.3581 -0.3987
  598TMC3    C6 8864   2.044   1.312  15.255  0.2649  0.1433  0.6920
  598TMC3     C 8865   2.127   1.527  15.596  0.0470 -0.2811  0.4243
  598TMC3     O 8866   2.168   1.640  15.581  0.2826  0.0282 -0.2610
  598TMC3     H 8867   1.948   1.311  15.568 -0.4168 -2.1018 -1.0404
  598TMC3    H1 8868   2.209   1.586  15.371  0.3113 -0.2320 -0.4715
  598TMC3    H2 8869   2.049   1.241  15.173  2.4879 -0.3702  1.2589
  598TMC3    C7 8870   2.210   1.450  15.137 -0.6098  0.1729  0.4733
  598TMC3    C8 8871   1.903   1.159  15.360  0.0405  0.3912 -0.2786
  598TMC3    O1 8872   2.176   1.394  15.030 -0.4539  0.1296  0.0752
  598TMC3    O2 8873   1.898   1.105  15.253  0.4023  0.1147 -0.1682
  599MPD2     C 8874   1.736   3.885  15.718  0.2060 -0.3954 -0.4596
  599MPD2    C1 8875   1.857   3.908  15.774 -0.1574  0.3957  0.7824
  599MPD2    C2 8876   1.854   3.943  15.912 -0.0753  0.2707  0.9599
  599MPD2    C3 8877   1.735   3.946  15.987  0.1884 -0.1526  0.1114
  599MPD2    C4 8878   1.616   3.902  15.926  0.5324 -0.1570 -0.5645
  599MPD2    C5 8879   1.623   3.877  15.795  0.1810 -0.0713  0.5404
  599MPD2     H 8880   1.946   3.970  15.962 -1.0392  0.8430  2.4412
  599MPD2    H1 8881   1.515   3.895  15.966  0.6245 -4.2350 -1.0520
  599MPD2    H2 8882   1.735   3.861  15.613  1.6730 -1.3718 -0.2600
  599MPD2    H3 8883   1.536   3.848  15.738  0.1338  2.3182 -0.6103
  599MPD2     N 8884   1.732   3.980  16.129 -0.4694  0.2894  0.2243
  599MPD2    H5 8885   1.644   3.971  16.178 -0.2331  0.5985  0.7034
  599MPD2    N1 8886   1.970   3.925  15.688  0.0300 -0.5691 -0.4100
  599MPD2    H7 8887   1.955   3.926  15.588 -0.3372 -1.9065 -0.3762
  600TMC3    C1 8888   1.815   4.056  16.346 -0.4324  0.1357 -0.1809
  600TMC3    C2 8889   1.708   4.002  16.408  0.0034  0.4117 -0.6826
  600TMC3    C3 8890   1.665   4.053  16.530 -0.4091 -0.0316 -0.4859
  600TMC3    C4 8891   1.894   4.143  16.405  0.0660  0.5873  0.2433
  600TMC3    C5 8892   1.848   4.192  16.528  0.3918  0.2738  0.8843
  600TMC3    C6 8893   1.732   4.152  16.594 -0.0619  0.5994 -0.3092
  600TMC3     C 8894   1.840   4.021  16.206  0.2573  0.1836 -0.5391
  600TMC3     O 8895   1.952   4.056  16.166 -0.1575 -0.6879  0.3434
  600TMC3     H 8896   1.646   3.929  16.358  0.1858 -0.1378 -0.1074
  600TMC3    H1 8897   1.984   4.180  16.358 -0.1367  0.8092  0.0269
  600TMC3    H2 8898   1.690   4.211  16.675 -1.1846 -1.5825  0.7131
  600TMC3    C7 8899   1.916   4.310  16.573 -0.1722 -1.3089  0.1503
  600TMC3    C8 8900   1.567   3.971  16.615  0.6273  0.3931 -0.4373
  600TMC3    O1 8901   1.849   4.402  16.621 -0.1750  0.5243 -0.5161
  600TMC3    O2 8902   1.577   3.993  16.732  0.5439 -0.0351  0.4179
  601MPD2     C 8903   4.269   2.247  17.567  0.6627  0.0073 -0.5208
  601MPD2    C1 8904   4.138   2.273  17.529 -0.4426 -0.4674 -0.8941
  601MPD2    C2 8905   4.045   2.175  17.550 -0.0902  0.3290 -0.4646
  601MPD2    C3 8906   4.075   2.053  17.596  0.2614 -0.3936 -0.4608
  601MPD2    C4 8907   4.209   2.026  17.642 -0.1926 -0.3418 -0.7043
  601MPD2    C5 8908   4.309   2.125  17.624  0.0961 -0.9392  0.2320
  601MPD2     H 8909   3.939   2.182  17.527 -0.3322  0.0266  0.6009
  601MPD2    H1 8910   4.235   1.940   0.003  2.3554  2.0348  1.5543
  601MPD2    H2 8911   4.346   2.320  17.542  0.1262  1.4651  2.1632
  601MPD2    H3 8912   4.410   2.110  17.659 -0.1122 -0.6197  0.9632
  601MPD2     N 8913   3.985   1.946  17.608 -0.5134 -0.2826 -0.8657
  601MPD2    H5 8914   4.022   1.867  17.660 -1.2950  1.3659  2.1914
  601MPD2    N1 8915   4.097   2.394  17.472  0.3899 -0.0746  0.1226
  601MPD2    H7 8916   3.999   2.403  17.448  0.3749  0.9337  0.5432
  602TMC3    C1 8917   4.119   2.614  17.380  0.1949 -0.6392 -0.4564
  602TMC3    C2 8918   3.985   2.637  17.409 -0.2918  0.1729  0.6051
  602TMC3    C3 8919   3.924   2.736  17.343 -0.0371  0.3048 -0.3998
  602TMC3    C4 8920   4.191   2.681  17.286  0.1309 -0.9162  0.0921
  602TMC3    C5 8921   4.125   2.792  17.233 -0.2112 -0.4095  0.1383
  602TMC3    C6 8922   3.994   2.821  17.260 -0.1319 -0.4473 -0.4661
  602TMC3     C 8923   4.183   2.497  17.431 -1.1385 -0.0553 -0.1345
  602TMC3     O 8924   4.305   2.512  17.437  0.1483 -0.1527 -0.0903
  602TMC3     H 8925   3.929   2.569  17.472  0.2862  1.6994  2.7715
  602TMC3    H1 8926   4.298   2.667  17.270  0.2936  0.3135  0.1516
  602TMC3    H2 8927   3.945   2.912  17.230 -1.8863 -1.0331  0.6292
  602TMC3    C7 8928   4.181   2.833  17.109 -0.1169  0.3875 -0.4874
  602TMC3    C8 8929   3.774   2.740  17.344  1.0809 -0.0242  0.3794
  602TMC3    O1 8930   4.296   2.805  17.078  0.1175  0.3341  0.0698
  602TMC3    O2 8931   3.715   2.648  17.403  0.0052 -0.1014 -0.3072
  603TMC3    C1 8932   2.425   2.311  10.725 -0.4558  0.0927 -0.3696
  603TMC3    C2 8933   2.418   2.297  10.861  0.6848 -0.4355  0.5785
  603TMC3    C3 8934   2.468   2.399  10.940  1.5200 -0.2423 -0.1806
  603TMC3    C4 8935   2.465   2.428  10.669 -0.4801  0.7212  0.1169
  603TMC3    C5 8936   2.514   2.525  10.746 -0.3529  0.3301 -0.8099
  603TMC3    C6 8937   2.516   2.514  10.884  0.4107  0.8410 -0.3973
  603TMC3     C 8938   2.451   2.194  10.639  0.5229 -0.6816  0.4421
  603TMC3     O 8939   2.561   2.191  10.589 -0.2306 -0.1714 -0.8923
  603TMC3     H 8940   2.378   2.206  10.905  1.3925  0.7134  3.6209
  603TMC3    H1 8941   2.493   2.414  10.566 -0.0927 -0.2528  0.3601
  603TMC3    H2 8942   2.525   2.604  10.944 -1.4744 -1.0904  2.7846
  603TMC3    C7 8943   2.547   2.648  10.679  0.0577 -0.8157 -0.1426
  603TMC3    C8 8944   2.481   2.369  11.081 -0.2978  0.5831 -0.2751
  603TMC3    O1 8945   2.643   2.705  10.721  0.6566 -0.6148  0.3206
  603TMC3    O2 8946   2.419   2.273  11.115 -0.0606  0.1261 -0.2272
  604MPD2     C 8947   3.051   1.907  15.762 -0.4997  0.0102 -0.3135
  604MPD2    C1 8948   3.105   1.830  15.862 -0.1341 -0.2912 -0.0382
  604MPD2    C2 8949   3.190   1.730  15.830  0.1840  0.2718  0.2196
  604MPD2    C3 8950   3.221   1.702  15.700 -0.6674  0.4268  0.5296
  604MPD2    C4 8951   3.184   1.790  15.602 -0.6226  0.4525  0.6118
  604MPD2    C5 8952   3.090   1.880  15.632 -0.3601  0.5617 -0.3065
  604MPD2     H 8953   3.240   1.672  15.906 -1.0375 -0.5162  0.4159
  604MPD2    H1 8954   3.223   1.786  15.501 -3.0915 -2.7500 -0.1886
  604MPD2    H2 8955   2.984   1.990  15.783  1.9896  2.0163 -0.2893
  604MPD2    H3 8956   3.047   1.939  15.553  0.6055  0.4528 -0.9108
  604MPD2     N 8957   3.305   1.590  15.678  0.0333 -0.1429  0.1864
  604MPD2    H5 8958   3.330   1.536  15.760  2.1296  1.5394  0.6681
  604MPD2    N1 8959   3.064   1.859  15.997  0.1408  0.6736 -0.5108
  604MPD2    H7 8960   2.992   1.931  16.003  0.2372  0.7095  0.2960
  605TMC3    C1 8961   3.057   1.841  16.224 -0.7480  0.1018  0.1004
  605TMC3    C2 8962   3.128   1.822  16.341 -0.5333  0.1758 -0.2547
  605TMC3    C3 8963   3.066   1.850  16.462  0.0416  0.1222  0.3018
  605TMC3    C4 8964   2.931   1.899  16.228 -0.0878 -0.2029 -0.0153
  605TMC3    C5 8965   2.882   1.919  16.348 -1.1541  0.7541  0.0596
  605TMC3    C6 8966   2.940   1.901  16.469 -0.3122 -0.2305 -0.7215
  605TMC3     C 8967   3.121   1.801  16.106  0.1134 -0.3719 -0.4748
  605TMC3     O 8968   3.203   1.708  16.120  0.2193  0.4624  0.3451
  605TMC3     H 8969   3.231   1.789  16.336 -0.2209  1.2612 -1.0516
  605TMC3    H1 8970   2.876   1.915  16.137  0.0525 -1.3624 -0.2999
  605TMC3    H2 8971   2.890   1.922  16.563  1.5710  2.9660 -0.4523
  605TMC3    C7 8972   2.745   1.942  16.342 -0.0640  0.2704 -0.0195
  605TMC3    C8 8973   3.155   1.860  16.578  0.0045 -0.2073  0.0286
  605TMC3    O1 8974   2.697   2.015  16.259 -0.2106  0.2416 -0.5190
  605TMC3    O2 8975   3.256   1.789  16.565 -0.0896 -0.3794  0.2731
  606TMC3    C1 8976   4.589   0.201  17.408  0.3824  0.2728  0.8737
  606TMC3    C2 8977   4.645   0.199  17.531 -0.3419 -0.5754 -0.2487
  606TMC3    C3 8978   4.613   0.097  17.611  0.0140  0.5918  0.3432
  606TMC3    C4 8979   4.492   0.110  17.370 -0.7909 -0.3164  0.3225
  606TMC3    C5 8980   4.480   4.718  17.443  0.4015 -0.5863 -0.3934
  606TMC3    C6 8981   4.542   4.714  17.566 -0.4010  0.0974  0.2073
  606TMC3     C 8982   4.615   0.289  17.299 -0.3845 -0.1685 -0.2873
  606TMC3     O 8983   4.534   0.297  17.205 -0.3340  0.2360 -0.1432
  606TMC3     H 8984   4.706   0.281  17.568  2.9365 -1.4580 -3.7905
  606TMC3    H1 8985   4.433   0.126  17.281  0.4283 -0.0544 -0.4401
  606TMC3    H2 8986   4.529   4.618  17.615  2.5892  0.3462  1.4308
  606TMC3    C7 8987   4.395   4.611  17.399  0.3277 -0.2630  0.2791
  606TMC3    C8 8988   4.699   0.080   0.021 -0.7940  0.1621 -0.6372
  606TMC3    O1 8989   4.331   4.540  17.480 -0.1406  0.4493 -0.0951
  606TMC3    O2 8990   0.076   0.149   0.016 -0.0484  0.2837  0.3974
  607MPD2     C 8991   1.868   2.446  11.819  0.2690  0.1841 -0.4212
  607MPD2    C1 8992   1.857   2.518  11.934 -0.8749 -0.4801  0.1334
  607MPD2    C2 8993   1.787   2.459  12.036  0.5213  1.0323 -0.1239
  607MPD2    C3 8994   1.728   2.336  12.020  0.4359  0.4073  0.1238
  607MPD2    C4 8995   1.737   2.266  11.905  0.8772  0.6231 -0.6704
  607MPD2    C5 8996   1.818   2.317  11.808  0.1620 -0.5472  0.0608
  607MPD2     H 8997   1.765   2.507  12.131  0.1883  1.2184 -0.2945
  607MPD2    H1 8998   1.690   2.170  11.889 -1.5129  1.1585  3.0216
  607MPD2    H2 8999   1.930   2.486  11.739 -0.0706  1.2818 -0.1338
  607MPD2    H3 9000   1.838   2.264  11.715 -1.8219 -4.2447  1.7197
  607MPD2     N 9001   1.641   2.294  12.125 -0.4945  0.5321  0.3937
  607MPD2    H5 9002   1.636   2.360  12.202  1.5031 -0.0524  1.0193
  607MPD2    N1 9003   1.918   2.639  11.953  0.2436  0.1654 -0.6530
  607MPD2    H7 9004   1.879   2.685  12.034  1.5054 -0.0117  0.0521
  608TMC3    C1 9005   2.066   2.828  11.948  0.3262 -0.4323  0.0879
  608TMC3    C2 9006   1.990   2.877  12.057 -0.1201 -0.3825 -0.3146
  608TMC3    C3 9007   2.047   2.975  12.135  0.4359 -0.1249  0.7596
  608TMC3    C4 9008   2.190   2.879  11.923  0.2543 -0.5221 -0.2007
  608TMC3    C5 9009   2.242   2.975  12.006 -0.1275  0.3650 -0.0763
  608TMC3    C6 9010   2.169   3.031  12.100 -0.1653 -0.0885  0.2335
  608TMC3     C 9011   2.016   2.702  11.884  0.0963 -0.6602 -0.6400
  608TMC3     O 9012   2.071   2.661  11.782  0.1719  0.6522 -0.0984
  608TMC3     H 9013   1.885   2.852  12.074  0.2058 -0.1985  1.9277
  608TMC3    H1 9014   2.248   2.822  11.852 -3.3506  0.3478 -3.8412
  608TMC3    H2 9015   2.209   3.111  12.161  0.3888 -0.6941  0.6743
  608TMC3    C7 9016   2.338   3.061  11.945 -0.3984 -0.7104 -0.6320
  608TMC3    C8 9017   2.042   2.960  12.276  0.7526  0.0973  0.8693
  608TMC3    O1 9018   2.355   3.044  11.825  0.1214 -0.2301  0.0355
  608TMC3    O2 9019   2.110   3.026  12.353  0.6377 -0.2722 -0.6234
  609TMC3    C1 9020   0.465   0.558   9.521  0.0863 -0.1395 -0.1943
  609TMC3    C2 9021   0.403   0.451   9.462  0.0828 -0.3597  0.3043
  609TMC3    C3 9022   0.490   0.359   9.401 -0.1119 -0.4701 -0.0724
  609TMC3    C4 9023   0.604   0.574   9.519 -0.8394  0.1430 -0.3956
  609TMC3    C5 9024   0.686   0.484   9.456  0.0523 -0.8796 -0.3716
  609TMC3    C6 9025   0.626   0.368   9.410  0.2474 -0.3161 -1.0884
  609TMC3     C 9026   0.373   0.668   9.548  0.3885 -0.9132 -0.4927
  609TMC3     O 9027   0.257   0.678   9.506  0.2423 -0.2460  0.3862
  609TMC3     H 9028   0.296   0.440   9.470 -0.0813  0.3471 -0.9165
  609TMC3    H1 9029   0.652   0.664   9.557  0.8614 -0.1418 -1.8635
  609TMC3    H2 9030   0.677   0.295   9.348 -0.0269 -0.2996 -1.3329
  609TMC3    C7 9031   0.827   0.506   9.438 -0.1154 -0.5308 -0.0618
  609TMC3    C8 9032   0.431   0.257   9.317  0.1042  0.3103 -0.2497
  609TMC3    O1 9033   0.868   0.610   9.483  0.1365 -0.9412  0.0981
  609TMC3    O2 9034   0.514   0.183   9.259 -0.4543 -0.1528 -0.1203
  610TMC3    C1 9035   2.754   2.937  11.992  0.0450  0.0420 -0.7170
  610TMC3    C2 9036   2.647   2.853  11.972 -0.3457  0.3640 -0.1686
  610TMC3    C3 9037   2.562   2.831  12.079  0.4359  1.0305  0.3456
  610TMC3    C4 9038   2.786   2.974  12.117  0.2255  0.5094  0.3677
  610TMC3    C5 9039   2.705   2.955  12.224  0.1074 -0.0109 -0.1366
  610TMC3    C6 9040   2.590   2.876  12.207 -0.7085  0.5118 -0.4100
  610TMC3     C 9041   2.836   2.994  11.887 -0.1811 -0.1192  0.0948
  610TMC3     O 9042   2.952   3.024  11.915 -0.0386 -0.0822  0.2202
  610TMC3     H 9043   2.644   2.803  11.877  4.4477  1.4115 -0.8919
  610TMC3    H1 9044   2.879   3.028  12.134 -0.5983  2.8267 -2.5394
  610TMC3    H2 9045   2.560   2.829  12.300  2.0454  1.5003  0.9825
  610TMC3    C7 9046   2.773   2.926  12.348 -0.2751 -0.1782 -0.0046
  610TMC3    C8 9047   2.459   2.730  12.062 -0.2440  1.4543 -0.7882
  610TMC3    O1 9048   2.860   2.839  12.345  0.5987 -0.0003  0.1438
  610TMC3    O2 9049   2.442   2.682  11.948 -0.3820 -0.4213 -0.5682
  611MPD2     C 9050   1.377   2.638  10.107 -0.4939 -0.6227 -0.6604
  611MPD2    C1 9051   1.485   2.551  10.095  0.1634  0.2436 -0.2360
  611MPD2    C2 9052   1.609   2.610  10.080  0.0535  0.3184  0.1622
  611MPD2    C3 9053   1.626   2.741  10.041 -0.3960 -0.1578  0.8971
  611MPD2    C4 9054   1.517   2.820  10.036  0.4344  0.2096  0.1564
  611MPD2    C5 9055   1.388   2.768  10.072  0.3566 -0.0032  0.0619
  611MPD2     H 9056   1.695   2.544  10.085 -0.6040 -0.4596  1.1100
  611MPD2    H1 9057   1.521   2.921   9.997 -0.2458  0.0750 -0.2683
  611MPD2    H2 9058   1.280   2.599  10.133  0.5348 -2.1400  0.9006
  611MPD2    H3 9059   1.299   2.830  10.072  0.6772  0.4562  0.5439
  611MPD2     N 9060   1.747   2.800   9.992 -0.0144 -0.1011  0.3177
  611MPD2    H5 9061   1.755   2.902   9.989 -1.7250  0.1581  4.4420
  611MPD2    N1 9062   1.463   2.411  10.114 -0.0863 -0.0975  0.5559
  611MPD2    H7 9063   1.366   2.380  10.113  0.1192 -0.6739 -0.8378
  612TMC3    C1 9064   1.974   2.822   9.941  0.3032  0.0422  0.2092
  612TMC3    C2 9065   2.102   2.789   9.987 -0.3817 -0.3337  0.4904
  612TMC3    C3 9066   2.213   2.855   9.945 -0.2063  0.4248 -0.7475
  612TMC3    C4 9067   1.954   2.923   9.860 -0.3772  0.1766 -0.2906
  612TMC3    C5 9068   2.065   2.995   9.821 -0.7265  0.1531 -0.0025
  612TMC3    C6 9069   2.189   2.965   9.866 -0.2907 -0.1941  0.4263
  612TMC3     C 9070   1.871   2.737   9.998  0.1608  0.6403  0.1836
  612TMC3     O 9071   1.897   2.632  10.054  0.1486 -0.4117  0.5804
  612TMC3     H 9072   2.116   2.704  10.052 -0.7496  0.9137  2.1920
  612TMC3    H1 9073   1.857   2.942   9.814  0.2076 -1.4407 -2.1934
  612TMC3    H2 9074   2.275   3.024   9.838 -0.3791 -0.6934 -0.9124
  612TMC3    C7 9075   2.044   3.114   9.740  0.1674  0.6756  0.0558
  612TMC3    C8 9076   2.333   2.880  10.031  0.1448  0.7546  0.3614
  612TMC3    O1 9077   2.134   3.166   9.676  0.3369 -0.1256  0.2544
  612TMC3    O2 9078   2.391   2.989  10.011  0.1586  0.0864 -0.2721
  613MPD2     C 9079   0.942   0.190  17.006 -0.5197  0.3920 -0.0024
  613MPD2    C1 9080   0.924   0.242  16.881 -1.0234 -0.7650 -0.4304
  613MPD2    C2 9081   0.794   0.226  16.825 -0.9320  0.4287 -1.3657
  613MPD2    C3 9082   0.696   0.141  16.876  0.0569 -0.5195 -0.5677
  613MPD2    C4 9083   0.720   0.091  17.008  0.3891 -0.4836  0.1805
  613MPD2    C5 9084   0.844   0.111  17.067  0.6436 -0.9046 -0.1449
  613MPD2     H 9085   0.772   0.273  16.730  0.7082  0.3948 -1.7556
  613MPD2    H1 9086   0.648   0.026  17.058 -1.8926  0.5853 -1.7021
  613MPD2    H2 9087   1.034   0.199  17.062 -0.3377 -0.4870 -0.1611
  613MPD2    H3 9088   0.866   0.061  17.160  0.0120 -0.4923  0.2262
  613MPD2     N 9089   0.580   0.100  16.811  0.1505  0.1602 -0.5223
  613MPD2    H5 9090   0.521   0.028  16.853  1.1937 -1.0076 -1.0421
  613MPD2    N1 9091   1.033   0.317  16.829 -0.0987 -0.5076 -0.2756
  613MPD2    H7 9092   1.099   0.342  16.902 -0.3296 -0.5694 -0.0475
  614TMC3    C1 9093   0.977   0.336  16.588 -0.1629 -0.0977  0.0374
  614TMC3    C2 9094   0.959   0.202  16.562 -0.5043  0.3467 -0.5509
  614TMC3    C3 9095   0.921   0.159  16.433 -0.1932 -0.3343 -0.2141
  614TMC3    C4 9096   0.967   0.423  16.485 -0.2057  0.5482 -0.2594
  614TMC3    C5 9097   0.927   0.381  16.358  0.1591  0.1433 -0.0900
  614TMC3    C6 9098   0.907   0.248  16.324 -0.2882 -0.0592  0.3951
  614TMC3     C 9099   1.054   0.380  16.707  0.1126 -0.1791  0.0500
  614TMC3     O 9100   1.140   0.463  16.690  0.3897  0.1530 -0.0213
  614TMC3     H 9101   0.979   0.135  16.645  0.7390  4.2475  2.2895
  614TMC3    H1 9102   0.974   0.531  16.499 -2.5564  0.3779  2.2601
  614TMC3    H2 9103   0.886   0.223  16.221  1.7214 -1.2184  0.2624
  614TMC3    C7 9104   0.949   0.481  16.259  0.7786  0.1692 -0.4825
  614TMC3    C8 9105   0.851   0.032  16.428  0.0646 -0.3351  0.4579
  614TMC3    O1 9106   1.038   0.566  16.284  0.2483  0.1749 -0.8106
  614TMC3    O2 9107   0.858   4.701  16.538 -0.4087  0.4392  0.6009
  615MPD2     C 9108   0.193   1.078  16.329  0.4476  0.3153  0.0174
  615MPD2    C1 9109   0.097   1.176  16.342  0.1825 -0.2678  0.5369
  615MPD2    C2 9110   0.005   1.193  16.243  0.8501  0.2466 -0.5534
  615MPD2    C3 9111   0.011   1.125  16.125  0.1604 -0.1328 -0.2934
  615MPD2    C4 9112   0.106   1.029  16.114  0.2386  0.2726 -0.3133
  615MPD2    C5 9113   0.204   1.010  16.211 -0.3761 -0.5726 -0.1132
  615MPD2     H 9114   4.658   1.272  16.263  0.3818  0.1603 -1.9217
  615MPD2    H1 9115   0.113   0.974  16.020 -2.1520 -0.4293 -0.0729
  615MPD2    H2 9116   0.272   1.044  16.394  2.2144 -2.8285 -3.7151
  615MPD2    H3 9117   0.291   0.947  16.201 -0.8772 -1.1166 -1.0028
  615MPD2     N 9118   4.642   1.155  16.017  0.3101  0.2353 -0.7352
  615MPD2    H5 9119   4.659   1.090  15.941 -2.6112 -3.4465  1.7716
  615MPD2    N1 9120   0.081   1.256  16.459 -0.1707  0.3210 -0.4062
  615MPD2    H7 9121   0.015   1.334  16.455  0.5753  1.1151  2.2688
  616TMC3    C1 9122   0.111   1.315  16.686  0.2771  0.6412 -0.1330
  616TMC3    C2 9123   0.175   1.292  16.808  0.0108 -0.4434  0.0885
  616TMC3    C3 9124   0.116   1.344  16.922 -0.1265 -0.0150 -0.0324
  616TMC3    C4 9125   4.717   1.391  16.674 -0.3149  1.1206 -0.5798
  616TMC3    C5 9126   4.679   1.447  16.794 -0.7568  0.3019  0.0444
  616TMC3    C6 9127   0.009   1.432  16.916  0.2287 -0.7669  0.1613
  616TMC3     C 9128   0.149   1.225  16.575 -0.1205  0.0059 -0.3659
  616TMC3     O 9129   0.234   1.137  16.589 -0.4472  0.0200  0.0396
  616TMC3     H 9130   0.257   1.222  16.818 -0.2656 -0.7365  0.3025
  616TMC3    H1 9131   4.645   1.375  16.595  0.5454 -1.0488 -0.9433
  616TMC3    H2 9132   4.692   1.474  17.007  0.2212  1.4759 -0.8842
  616TMC3    C7 9133   4.569   1.541  16.791  0.4395  0.9085 -0.1904
  616TMC3    C8 9134   0.195   1.358  17.041  0.2209 -0.2874 -0.1094
  616TMC3    O1 9135   4.516   1.572  16.894 -0.2985 -0.5664 -0.6868
  616TMC3    O2 9136   0.145   1.423  17.135 -0.1546 -0.2424  0.5096
  617MPD2     C 9137   3.359   0.268  14.335  0.8349 -0.0603  0.1356
  617MPD2    C1 9138   3.391   0.165  14.418 -0.0409 -0.4829 -0.2685
  617MPD2    C2 9139   3.285   0.075  14.437  0.1343 -0.5893 -0.1040
  617MPD2    C3 9140   3.161   0.082  14.391  0.1771 -0.3385  0.1323
  617MPD2    C4 9141   3.132   0.193  14.315  0.0331 -0.1152  0.0555
  617MPD2    C5 9142   3.227   0.286  14.288  1.0836 -0.1468  0.0627
  617MPD2     H 9143   3.304   4.718  14.506  2.5696  1.3598  1.4885
  617MPD2    H1 9144   3.038   0.203  14.262  0.1822  0.7409 -0.0564
  617MPD2    H2 9145   3.436   0.337  14.305 -0.1345  0.5304 -1.0207
  617MPD2    H3 9146   3.202   0.373  14.228  1.8884  1.0536  1.4626
  617MPD2     N 9147   3.070   4.702  14.409 -0.3034 -0.0366  0.2017
  617MPD2    H5 9148   2.988   4.703  14.348 -0.5928 -0.8468  0.5815
  617MPD2    N1 9149   3.518   0.135  14.482 -0.1372  0.1837  0.0157
  617MPD2    H7 9150   3.526   0.048  14.533 -0.3301  0.4086  0.4318
  618TMC3    C1 9151   3.742   0.184  14.502  0.4044 -0.2675 -0.1060
  618TMC3    C2 9152   3.766   0.056  14.538  0.0630 -0.1212 -0.0899
  618TMC3    C3 9153   3.867   4.710  14.485 -0.0357 -0.2777 -0.0604
  618TMC3    C4 9154   3.828   0.248  14.416 -0.7227 -0.8708 -0.0234
  618TMC3    C5 9155   3.926   0.170  14.352  0.1081 -0.0168  0.0662
  618TMC3    C6 9156   3.953   0.046  14.392 -0.3847  0.8534  0.5235
  618TMC3     C 9157   3.609   0.235  14.497  0.4907  0.0773 -0.4902
  618TMC3     O 9158   3.600   0.357  14.486 -0.5776  0.3623 -0.3490
  618TMC3     H 9159   3.701   0.004  14.608 -0.9163  0.3051 -0.6843
  618TMC3    H1 9160   3.794   0.342  14.375 -2.1727 -1.4341 -0.1108
  618TMC3    H2 9161   4.039   4.712  14.362 -0.1336  2.7374 -2.4620
  618TMC3    C7 9162   3.943   0.176  14.211  0.4876 -0.4273  0.3555
  618TMC3    C8 9163   3.847   4.572  14.487 -0.6775 -0.1325 -0.1958
  618TMC3    O1 9164   3.843   0.222  14.160 -0.2628 -0.5348 -0.2030
  618TMC3    O2 9165   3.798   4.516  14.590 -0.1114  0.0544 -0.1625
  619MPD2     C 9166   4.497   1.523  13.065 -0.1734 -0.4742  0.4373
  619MPD2    C1 9167   4.398   1.508  12.972  0.0996  0.4902  0.5422
  619MPD2    C2 9168   4.304   1.412  12.980  0.0388 -0.4528  0.2610
  619MPD2    C3 9169   4.299   1.331  13.087  0.7029 -0.0118 -0.1451
  619MPD2    C4 9170   4.403   1.333  13.176  0.5704 -0.7359 -0.0889
  619MPD2    C5 9171   4.498   1.429  13.164  0.4812 -0.3132  0.5754
  619MPD2     H 9172   4.224   1.407  12.908 -0.4798 -0.8543  0.8669
  619MPD2    H1 9173   4.401   1.257  13.254 -1.0057  0.2564  0.8434
  619MPD2    H2 9174   4.576   1.597  13.058  0.3664 -0.9674  1.3739
  619MPD2    H3 9175   4.570   1.432  13.245  1.2616 -3.3178  0.0022
  619MPD2     N 9176   4.191   1.240  13.109  0.4507 -0.8689 -0.3826
  619MPD2    H5 9177   4.187   1.185  13.195  1.0521  2.0821  1.5243
  619MPD2    N1 9178   4.386   1.600  12.866  0.0153  0.1880  0.5029
  619MPD2    H7 9179   4.303   1.592  12.809  1.8796  0.9983 -2.3461
  620TMC3    C1 9180   4.383   1.800  12.762 -0.1318  0.2849 -1.1052
  620TMC3    C2 9181   4.337   1.761  12.634 -0.4025  0.7147 -0.2724
  620TMC3    C3 9182   4.250   1.848  12.566 -0.1012 -0.0076 -0.4717
  620TMC3    C4 9183   4.347   1.923  12.814  0.8012 -0.0107 -0.5410
  620TMC3    C5 9184   4.274   2.012  12.738  0.2489 -0.7413  0.2825
  620TMC3    C6 9185   4.223   1.972  12.617  0.0547 -0.1855 -0.1337
  620TMC3     C 9186   4.452   1.717  12.857  0.3656  0.2929  0.5168
  620TMC3     O 9187   4.533   1.772  12.933  0.3947 -0.7397 -0.4349
  620TMC3     H 9188   4.359   1.665  12.587 -0.6954 -0.3888  1.8478
  620TMC3    H1 9189   4.384   1.939  12.914 -3.5818  2.2704  0.6814
  620TMC3    H2 9190   4.148   2.035  12.570  1.2527  1.2594 -0.0952
  620TMC3    C7 9191   4.204   2.112  12.810 -0.3148 -0.1349  0.3724
  620TMC3    C8 9192   4.200   1.827  12.435 -0.0487 -0.1155  0.2023
  620TMC3    O1 9193   4.096   2.149  12.774  0.1934 -0.5174  0.3142
  620TMC3    O2 9194   4.213   1.933  12.371  0.0536  0.1230  0.6366
  621MPD2     C 9195   4.670   1.265   9.864 -0.5783 -0.1275  0.3795
  621MPD2    C1 9196   0.038   1.281   9.973  0.2464  0.4702 -0.0343
  621MPD2    C2 9197   0.154   1.351   9.950  0.3016 -0.0692  0.7261
  621MPD2    C3 9198   0.175   1.418   9.833 -0.4250  0.1501  0.0265
  621MPD2    C4 9199   0.090   1.391   9.723  0.4255  0.7158 -0.4396
  621MPD2    C5 9200   4.703   1.320   9.739  0.6640 -0.5258  0.6430
  621MPD2     H 9201   0.216   1.356  10.039  0.3194  0.5460  0.6741
  621MPD2    H1 9202   0.106   1.428   9.623 -0.2604  1.3512 -0.3149
  621MPD2    H2 9203   4.587   1.196   9.862 -0.6247 -0.1561  3.0923
  621MPD2    H3 9204   4.645   1.299   9.650  1.3419  4.0370 -0.8584
  621MPD2     N 9205   0.283   1.508   9.816 -0.0901  0.7950 -0.2014
  621MPD2    H5 9206   0.347   1.517   9.894 -0.3900  2.5152 -0.1521
  621MPD2    N1 9207   0.024   1.222  10.101  0.0859 -0.5234  0.2771
  621MPD2    H7 9208   0.101   1.232  10.166  0.2378 -2.3926  0.3948
  622TMC3    C1 9209   4.633   1.091  10.275  0.4292  0.8361  0.0455
  622TMC3    C2 9210   4.507   1.068  10.325 -0.7121  0.4272 -0.1986
  622TMC3    C3 9211   4.493   0.987  10.429 -0.3882  0.4805 -0.0985
  622TMC3    C4 9212   0.020   1.032  10.326 -0.0174  0.0603  0.4105
  622TMC3    C5 9213   0.006   0.953  10.441 -0.3723 -0.0428  0.2741
  622TMC3    C6 9214   4.604   0.936  10.491 -0.4187  0.6089 -0.4276
  622TMC3     C 9215   4.628   1.167  10.148  0.7214  0.1307  0.5109
  622TMC3     O 9216   4.522   1.169  10.082 -0.1696 -0.0619  0.0988
  622TMC3     H 9217   4.425   1.130  10.290 -0.4009  1.0253  0.1405
  622TMC3    H1 9218   0.120   1.056  10.291 -0.8235  0.7892 -1.4226
  622TMC3    H2 9219   4.584   0.883  10.584 -1.3640 -1.7653 -1.9785
  622TMC3    C7 9220   0.103   0.848  10.446 -0.3990 -0.9494 -0.1613
  622TMC3    C8 9221   4.357   0.946  10.470  0.4477  0.5433  0.0314
  622TMC3    O1 9222   0.209   0.875  10.391 -0.0380  0.3346  0.3352
  622TMC3    O2 9223   4.324   0.938  10.588  0.5650 -0.2007  0.4210
  623MPD2     C 9224   3.594   2.166  16.093  0.0799  0.2279 -0.0288
  623MPD2    C1 9225   3.507   2.115  16.190 -0.5960 -0.1536  0.3541
  623MPD2    C2 9226   3.565   2.043  16.294 -0.7822  0.4261  0.1972
  623MPD2    C3 9227   3.701   2.032  16.304 -0.4232  0.7062  0.0152
  623MPD2    C4 9228   3.785   2.091  16.220 -0.4798 -0.4486 -0.3111
  623MPD2    C5 9229   3.731   2.159  16.113 -0.4003 -0.0559 -0.1480
  623MPD2     H 9230   3.505   1.997  16.372 -2.1491  1.3638 -0.2936
  623MPD2    H1 9231   3.894   2.091  16.227 -0.5710  0.4750  0.9689
  623MPD2    H2 9232   3.551   2.236  16.021 -0.8497  0.5802  0.8767
  623MPD2    H3 9233   3.794   2.217  16.047  1.3918 -1.2216  0.5412
  623MPD2     N 9234   3.749   1.962  16.413  0.1966 -0.3901 -0.5321
  623MPD2    H5 9235   3.688   1.918  16.483 -0.5612  0.3950 -0.6987
  623MPD2    N1 9236   3.378   2.154  16.194 -0.1544  0.2214  0.0309
  623MPD2    H7 9237   3.340   2.188  16.106 -1.7188 -0.4151  0.4612
  624TMC3    C1 9238   3.902   1.682  16.687  0.3986 -0.2429 -0.7657
  624TMC3    C2 9239   3.806   1.719  16.778  0.1644  0.0296 -0.0056
  624TMC3    C3 9240   3.759   1.849  16.783 -0.2390 -0.1592 -0.8501
  624TMC3    C4 9241   3.952   1.770  16.592  1.4411 -0.5587 -0.4971
  624TMC3    C5 9242   3.878   1.881  16.580 -0.2363 -0.0542 -0.5179
  624TMC3    C6 9243   3.788   1.927  16.675  0.2143 -0.6015  0.6674
  624TMC3     C 9244   3.976   1.565  16.715 -0.9324 -1.0565  0.5794
  624TMC3     O 9245   3.974   1.527  16.832  0.3070  1.0417  0.1111
  624TMC3     H 9246   3.783   1.661  16.867  0.4089 -0.5232 -0.2962
  624TMC3    H1 9247   4.020   1.738  16.514  0.5569 -0.4669 -1.3054
  624TMC3    H2 9248   3.726   2.016  16.664 -1.0687 -1.7616 -1.5755
  624TMC3    C7 9249   3.877   1.935  16.445  0.6751 -0.2620 -0.4472
  624TMC3    C8 9250   3.621   1.850  16.828 -0.0255  0.1629  0.3749
  624TMC3    O1 9251   3.981   1.932  16.381  0.0369  0.3346 -0.2018
  624TMC3    O2 9252   3.546   1.760  16.795  0.5761 -0.6120 -0.3574
  625MPD2     C 9253   3.636   2.439   0.429  0.0377 -0.3601  0.6698
  625MPD2    C1 9254   3.670   2.560   0.475 -0.3753  0.3470 -0.0598
  625MPD2    C2 9255   3.774   2.571   0.565  0.0619  0.7867 -0.1927
  625MPD2    C3 9256   3.831   2.452   0.610  1.1078  0.1124 -0.7674
  625MPD2    C4 9257   3.794   2.328   0.560  1.0889 -0.2330  0.8523
  625MPD2    C5 9258   3.690   2.324   0.471  0.1211  0.0632 -0.1291
  625MPD2     H 9259   3.802   2.669   0.600 -0.3073  0.5546  0.7561
  625MPD2    H1 9260   3.833   2.230   0.586 -0.7446 -0.7052  1.8201
  625MPD2    H2 9261   3.541   2.424   0.379  1.9381 -1.5994 -2.6114
  625MPD2    H3 9262   3.650   2.228   0.439  0.1215  0.4080 -1.1658
  625MPD2     N 9263   3.935   2.471   0.701  0.1970  0.2217 -0.6501
  625MPD2    H5 9264   3.944   2.561   0.748  0.2574  0.5426 -1.2756
  625MPD2    N1 9265   3.600   2.680   0.444  0.3679  0.4859 -0.6256
  625MPD2    H7 9266   3.626   2.763   0.495  0.0631  1.3149 -1.8260
  626TMC3    C1 9267   3.422   2.807   0.364  0.5580  0.4433  0.4746
  626TMC3    C2 9268   3.354   2.839   0.251  0.1735 -0.0533 -0.2159
  626TMC3    C3 9269   3.283   2.961   0.257 -0.9155 -0.5714  0.1032
  626TMC3    C4 9270   3.399   2.861   0.483  0.4085 -0.7468 -0.5602
  626TMC3    C5 9271   3.309   2.956   0.495 -0.0283  0.2840 -0.5936
  626TMC3    C6 9272   3.261   3.021   0.384 -0.5850  0.8442  0.3405
  626TMC3     C 9273   3.498   2.686   0.357  0.2968 -0.7571  0.2615
  626TMC3     O 9274   3.459   2.598   0.278 -0.2431  0.6816 -0.2088
  626TMC3     H 9275   3.372   2.781   0.161 -2.4626 -1.9898  0.5173
  626TMC3    H1 9276   3.441   2.808   0.568 -0.6431 -1.5088 -0.5169
  626TMC3    H2 9277   3.178   3.090   0.393 -1.4433  0.0069 -0.9884
  626TMC3    C7 9278   3.267   3.004   0.627  0.5875 -0.2869  0.3250
  626TMC3    C8 9279   3.209   2.991   0.139 -0.0702 -0.6721 -0.2039
  626TMC3    O1 9280   3.343   3.024   0.723 -0.2689 -0.1036  0.6050
  626TMC3    O2 9281   3.191   3.109   0.111  0.7681  0.1680 -0.4259
  627MPD2     C 9282   2.558   3.537  14.453 -0.5026  0.1835 -0.0877
  627MPD2    C1 9283   2.580   3.433  14.543  0.2921  0.2029 -0.0235
  627MPD2    C2 9284   2.495   3.321  14.532  0.2319 -0.3049 -0.1081
  627MPD2    C3 9285   2.407   3.312  14.426 -0.8304  0.5147 -0.1383
  627MPD2    C4 9286   2.397   3.408  14.333 -0.4851  1.0233 -0.1603
  627MPD2    C5 9287   2.470   3.527  14.348 -0.1902  0.4717 -0.2485
  627MPD2     H 9288   2.500   3.236  14.599 -0.5556 -1.4714 -1.5396
  627MPD2    H1 9289   2.325   3.403  14.253 -1.6709  2.2571  0.8185
  627MPD2    H2 9290   2.600   3.636  14.463 -1.7070  0.5028  1.7230
  627MPD2    H3 9291   2.454   3.615  14.287 -0.9822  1.2910  1.1210
  627MPD2     N 9292   2.315   3.207  14.414 -0.1239  0.6154 -0.3156
  627MPD2    H5 9293   2.251   3.209  14.336  1.8865 -1.2490 -2.0358
  627MPD2    N1 9294   2.667   3.435  14.654 -0.2582 -0.2440 -0.3876
  627MPD2    H7 9295   2.647   3.359  14.718  0.9680 -0.2991 -0.0710
  628TMC3    C1 9296   2.839   3.524  14.799  0.0986 -0.4914 -0.4248
  628TMC3    C2 9297   2.845   3.406  14.877 -0.5311  0.0949 -0.1788
  628TMC3    C3 9298   2.873   3.420  15.008 -0.7514  0.6009  0.3256
  628TMC3    C4 9299   2.860   3.643  14.860  0.4307  0.9118  0.0565
  628TMC3    C5 9300   2.881   3.648  14.994  0.0716 -0.0149  0.0793
  628TMC3    C6 9301   2.902   3.541  15.069  0.0502  0.2943  0.0998
  628TMC3     C 9302   2.772   3.525  14.670  0.0909 -0.1717 -0.5006
  628TMC3     O 9303   2.781   3.632  14.609 -0.4235  0.6693  0.6896
  628TMC3     H 9304   2.806   3.311  14.844  3.2589 -1.8933  1.0935
  628TMC3    H1 9305   2.845   3.732  14.801 -0.9150  0.9673  0.4715
  628TMC3    H2 9306   2.908   3.554  15.177 -0.6817 -2.8440  0.5300
  628TMC3    C7 9307   2.901   3.783  15.063 -0.0162  0.5316 -0.0179
  628TMC3    C8 9308   2.865   3.299  15.090  0.3955 -0.7700  0.8716
  628TMC3    O1 9309   2.949   3.780  15.173  0.0207 -0.0651 -0.4984
  628TMC3    O2 9310   2.787   3.214  15.049 -0.4330 -0.3479 -0.2024
  629MPD2     C 9311   0.618   1.472  17.291  0.6148 -0.1709 -0.4914
  629MPD2    C1 9312   0.639   1.492  17.154  0.4149  0.9469 -0.0215
  629MPD2    C2 9313   0.545   1.441  17.062  0.3547  0.3209 -0.5008
  629MPD2    C3 9314   0.431   1.378  17.107 -1.0735 -0.2778  0.5396
  629MPD2    C4 9315   0.413   1.361  17.242  0.0474  0.0729  0.5765
  629MPD2    C5 9316   0.512   1.398  17.332 -0.4881  0.2594 -1.1628
  629MPD2     H 9317   0.557   1.456  16.956 -0.3137 -0.6614 -0.7147
  629MPD2    H1 9318   0.326   1.315  17.286 -0.4539 -0.6980 -1.2396
  629MPD2    H2 9319   0.674   1.518  17.371  0.1102  0.4181 -0.4754
  629MPD2    H3 9320   0.499   1.388  17.439 -0.1173  1.9522 -0.9541
  629MPD2     N 9321   0.329   1.349  17.016 -0.3629 -0.2593 -0.3089
  629MPD2    H5 9322   0.349   1.362  16.917 -2.7141 -1.3632 -0.9129
  629MPD2    N1 9323   0.761   1.555  17.115  0.2424  0.1586  0.1870
  629MPD2    H7 9324   0.819   1.590  17.191  2.7894  1.2581 -2.2385
  630TMC3    C1 9325   0.900   1.691  16.985  0.5881  0.3443 -0.8495
  630TMC3    C2 9326   0.891   1.795  16.894 -0.5338  0.4232 -0.4219
  630TMC3    C3 9327   0.977   1.898  16.905 -0.3841  0.5067  0.0844
  630TMC3    C4 9328   0.986   1.694  17.093 -0.4369 -0.7385  0.0042
  630TMC3    C5 9329   1.094   1.777  17.077 -1.2507  0.0292 -0.0706
  630TMC3    C6 9330   1.084   1.887  16.988  0.5269 -0.5022 -0.2506
  630TMC3     C 9331   0.788   1.601  16.989  0.1971  0.1258 -0.1050
  630TMC3     O 9332   0.728   1.592  16.886  0.0714 -0.1043 -0.0462
  630TMC3     H 9333   0.833   1.782  16.804  0.4889  0.5095 -1.0830
  630TMC3    H1 9334   1.003   1.597  17.138  1.1259 -0.1023  0.7828
  630TMC3    H2 9335   1.149   1.974  16.994  2.0910 -1.8809  2.8204
  630TMC3    C7 9336   1.199   1.785  17.177 -0.2930 -0.0896  0.0454
  630TMC3    C8 9337   0.986   1.997  16.805  0.1066 -0.8422  0.4697
  630TMC3    O1 9338   1.167   1.730  17.284 -0.0264 -0.5242 -0.0380
  630TMC3    O2 9339   1.101   2.043  16.800  0.3176  0.7551  0.6155
  631MPD2     C 9340   3.707   1.555  15.685 -1.0836 -0.4206 -0.1917
  631MPD2    C1 9341   3.813   1.607  15.615 -0.2137 -0.1284 -0.6663
  631MPD2    C2 9342   3.931   1.532  15.612  0.4515 -0.7753  0.4883
  631MPD2    C3 9343   3.946   1.420  15.688 -0.2225  0.5411 -0.7607
  631MPD2    C4 9344   3.834   1.369  15.755  0.5619  0.0565 -0.3096
  631MPD2    C5 9345   3.708   1.435  15.756 -0.2778 -0.3971  0.1477
  631MPD2     H 9346   4.017   1.578  15.564  0.3247 -1.5395 -0.4589
  631MPD2    H1 9347   3.835   1.270  15.799  0.6087 -0.4309 -1.3908
  631MPD2    H2 9348   3.620   1.620  15.693 -1.1840 -0.8399  2.2782
  631MPD2    H3 9349   3.629   1.394  15.817 -0.2712  0.0490  0.4536
  631MPD2     N 9350   4.077   1.376  15.707  0.4282 -0.1560  0.1295
  631MPD2    H5 9351   4.150   1.413  15.646  1.1375  0.7223  1.5261
  631MPD2    N1 9352   3.805   1.737  15.563  0.4829  0.5995  0.4668
  631MPD2    H7 9353   3.726   1.794  15.592  0.3757  1.8318 -2.2674
  632TMC3    C1 9354   3.852   1.930  15.429 -0.0287  0.4636 -0.5063
  632TMC3    C2 9355   3.804   2.000  15.532  0.5478 -0.3286  0.6709
  632TMC3    C3 9356   3.847   2.128  15.542 -0.0245 -0.0106 -0.0726
  632TMC3    C4 9357   3.941   1.976  15.334  0.0699  0.6823 -0.0939
  632TMC3    C5 9358   3.981   2.106  15.345 -0.4487  0.0392  0.6125
  632TMC3    C6 9359   3.926   2.184  15.449 -0.5833  0.3516 -0.0530
  632TMC3     C 9360   3.880   1.787  15.459 -0.4959  0.3123 -0.8584
  632TMC3     O 9361   3.966   1.727  15.393 -0.0175  0.4075 -0.6315
  632TMC3     H 9362   3.730   1.967  15.604 -0.0111  1.2640  0.8337
  632TMC3    H1 9363   3.997   1.909  15.269 -0.5332 -1.3295  1.4454
  632TMC3    H2 9364   3.930   2.292  15.448  1.6847  0.2605 -0.0254
  632TMC3    C7 9365   4.024   2.167  15.225  0.4743 -0.1635  0.3134
  632TMC3    C8 9366   3.780   2.215  15.632  0.5421 -0.0255 -0.2021
  632TMC3    O1 9367   4.027   2.100  15.127  0.5730  0.0674 -0.1716
  632TMC3    O2 9368   3.656   2.200  15.635  0.3105 -0.1571 -0.0151
  633MPD2     C 9369   3.340   0.015  17.291 -0.3099 -0.0734 -0.2467
  633MPD2    C1 9370   3.375   4.670  17.175  0.5890 -0.7388  0.0175
  633MPD2    C2 9371   3.423   4.546  17.188  0.4006 -0.3193  0.0029
  633MPD2    C3 9372   3.446   4.492  17.316 -0.4450 -0.4283  0.1944
  633MPD2    C4 9373   3.414   4.557  17.425 -0.3664 -0.4602 -0.4385
  633MPD2    C5 9374   3.361   4.681  17.415  0.5815  0.6637  0.7687
  633MPD2     H 9375   3.457   4.494  17.099  0.3700 -1.7058  0.7904
  633MPD2    H1 9376   3.438   4.512  17.520  0.0337 -2.9038 -1.6873
  633MPD2    H2 9377   3.314   0.120  17.291  0.1460  0.0386 -0.2639
  633MPD2    H3 9378   3.319   4.724  17.505  1.5463  1.6919  0.7295
  633MPD2     N 9379   3.503   4.360  17.326 -0.0425  0.5158  0.5049
  633MPD2    H5 9380   3.539   4.319  17.411  2.2523 -0.1595 -0.7888
  633MPD2    N1 9381   3.359   4.720  17.044  0.4943  0.0787  0.6030
  633MPD2    H7 9382   3.399   4.665  16.969  0.0964  0.3228  0.2079
  634TMC3    C1 9383   3.340   0.156  16.875  0.2390 -0.7521  0.5236
  634TMC3    C2 9384   3.368   0.044  16.801 -0.3090  0.7098  0.6461
  634TMC3    C3 9385   3.425   0.059  16.680 -0.3998  0.1404  0.3876
  634TMC3    C4 9386   3.398   0.273  16.844 -0.5049 -0.4133 -0.8354
  634TMC3    C5 9387   3.462   0.284  16.728 -0.3722 -0.0506  0.5554
  634TMC3    C6 9388   3.474   0.179  16.642  0.1849 -0.6439 -0.8277
  634TMC3     C 9389   3.333   0.126  17.017  0.1310  0.7488 -0.9521
  634TMC3     O 9390   3.312   0.219  17.093 -0.0894 -0.2452  0.1827
  634TMC3     H 9391   3.311   4.678  16.821  0.5355  0.2795  1.1347
  634TMC3    H1 9392   3.374   0.358  16.908  1.0800 -2.4279  2.4190
  634TMC3    H2 9393   3.530   0.203  16.552  1.2810 -0.4257 -0.0868
  634TMC3    C7 9394   3.486   0.419  16.675 -0.2646 -0.6309  0.1247
  634TMC3    C8 9395   3.440   4.672  16.592 -0.3894  1.2140 -0.3836
  634TMC3    O1 9396   3.546   0.437  16.572  1.3531 -0.1117  0.1010
  634TMC3    O2 9397   3.480   4.569  16.647  0.5279  0.4700 -0.1797
  635TMC3    C1 9398   3.790   0.789  17.527 -0.3497  0.0252  0.8221
  635TMC3    C2 9399   3.856   0.707  17.440  0.1667 -0.5357  0.1084
  635TMC3    C3 9400   3.819   0.573  17.420 -0.0494  0.2623 -0.5477
  635TMC3    C4 9401   3.686   0.739  17.601 -0.1485  0.4158 -0.3977
  635TMC3    C5 9402   3.657   0.606  17.593  0.0138  0.0376  0.2872
  635TMC3    C6 9403   3.727   0.520  17.509  0.2160 -0.4355  0.4248
  635TMC3     C 9404   3.842   0.919  17.571  0.3473 -0.2093  0.1041
  635TMC3     O 9405   3.758   0.980  17.633  0.6339 -0.6831 -0.4650
  635TMC3     H 9406   3.926   0.747  17.367  1.3258 -1.1127  0.8957
  635TMC3    H1 9407   3.653   0.801  17.683 -0.1768  0.7186 -0.6388
  635TMC3    H2 9408   3.710   0.413  17.515  1.8670 -0.7508 -0.2710
  635TMC3    C7 9409   3.572   0.543  17.688  0.2151  0.0651  0.3302
  635TMC3    C8 9410   3.900   0.492  17.323 -0.2868 -0.3886 -0.2471
  635TMC3    O1 9411   3.580   0.421   0.001  0.1832  0.4831 -0.4424
  635TMC3    O2 9412   3.991   0.547  17.263  0.1313  0.4705  0.0422
  636MPD2     C 9413   0.432   0.269  15.890  0.1952 -0.2011 -0.3330
  636MPD2    C1 9414   0.350   0.345  15.967 -1.2589  0.3087 -0.7778
  636MPD2    C2 9415   0.308   0.291  16.090 -0.1354 -0.0025  0.1395
  636MPD2    C3 9416   0.350   0.170  16.131 -0.5850  0.0069 -0.6002
  636MPD2    C4 9417   0.441   0.098  16.055 -0.0868  0.0400 -0.1329
  636MPD2    C5 9418   0.481   0.155  15.933 -0.5619  0.2482  0.0720
  636MPD2     H 9419   0.249   0.351  16.159 -1.4550 -0.9530 -0.1591
  636MPD2    H1 9420   0.473   4.723  16.085  2.0274  0.5523 -0.6767
  636MPD2    H2 9421   0.475   0.294  15.793  2.8083 -1.3082  0.5470
  636MPD2    H3 9422   0.561   0.113  15.874 -0.5162 -0.2435  0.4842
  636MPD2     N 9423   0.311   0.130  16.260  0.4013 -0.3407  0.4957
  636MPD2    H5 9424   0.280   0.207  16.319  0.6128  0.5122 -0.5099
  636MPD2    N1 9425   0.299   0.468  15.930 -0.7169 -0.0247 -0.1600
  636MPD2    H7 9426   0.220   0.495  15.988  0.0077  2.5702 -0.3749
  637TMC3    C1 9427   0.316   4.694  16.446  0.7094 -0.6621  0.3670
  637TMC3    C2 9428   0.365   0.067  16.525  0.6050  0.2323 -0.2397
  637TMC3    C3 9429   0.449   0.034  16.631  1.2473  0.4086  0.2486
  637TMC3    C4 9430   0.344   4.565  16.466  1.7522 -0.1927  0.0114
  637TMC3    C5 9431   0.420   4.532  16.572 -0.4020 -0.0306  0.5436
  637TMC3    C6 9432   0.469   4.623  16.663 -0.1270  0.3550  0.7042
  637TMC3     C 9433   0.318   4.720  16.303 -0.6624  0.7398  0.6730
  637TMC3     O 9434   0.342   4.619  16.239 -0.9349  0.0931 -0.1189
  637TMC3     H 9435   0.346   0.172  16.509 -1.6448 -0.3481 -1.4191
  637TMC3    H1 9436   0.316   4.479  16.406  0.1477 -0.1918  0.7844
  637TMC3    H2 9437   0.526   4.584  16.746 -1.0373  1.7537  1.9658
  637TMC3    C7 9438   0.480   4.401  16.589  0.1070 -0.2633  0.5013
  637TMC3    C8 9439   0.533   0.141  16.686  0.7421 -0.0442 -0.2250
  637TMC3    O1 9440   0.469   4.344  16.695 -0.9258 -0.0711 -0.1549
  637TMC3    O2 9441   0.581   0.216  16.597  0.0093  0.3839  0.6256
  638MPD2     C 9442   4.694   4.024  14.749  0.3740 -0.2432  0.0385
  638MPD2    C1 9443   4.661   3.905  14.689 -0.4909  0.3101 -0.0252
  638MPD2    C2 9444   4.681   3.790  14.760 -1.1176  0.0026  0.4754
  638MPD2    C3 9445   0.016   3.794  14.884  0.0660  0.2023  0.2693
  638MPD2    C4 9446   0.048   3.915  14.945  0.1960  0.2238  0.1468
  638MPD2    C5 9447   0.012   4.032  14.879 -0.2202  0.0084  0.8197
  638MPD2     H 9448   4.651   3.693  14.722  3.3005 -1.5072  0.8700
  638MPD2    H1 9449   0.094   3.926  15.043  0.5875  2.1944 -0.2508
  638MPD2    H2 9450   4.676   4.116  14.693 -1.8165 -1.4232 -1.1772
  638MPD2    H3 9451   0.019   4.123  14.938 -1.4764  0.9459 -0.4766
  638MPD2     N 9452   0.020   3.667  14.955  0.2109  0.1574  0.1344
  638MPD2    H5 9453   4.701   3.586  14.913 -1.1690  0.9254  0.1133
  638MPD2    N1 9454   4.627   3.909  14.554  0.1100  0.0785  0.1911
  638MPD2    H7 9455   4.627   4.002  14.514  1.6315  0.1701  0.4153
  639TMC3    C1 9456   0.053   3.509  15.126 -0.4425 -0.4119  0.4325
  639TMC3    C2 9457   4.657   3.446  15.099 -0.2309 -0.0610 -0.8736
  639TMC3    C3 9458   4.635   3.318  15.145  0.4668 -0.2155 -0.1805
  639TMC3    C4 9459   0.152   3.443  15.199  0.3760 -0.4011  0.5975
  639TMC3    C5 9460   0.131   3.313  15.228 -0.5852 -0.3250 -0.3706
  639TMC3    C6 9461   0.011   3.252  15.214  0.1832  0.6995  0.3270
  639TMC3     C 9462   0.078   3.646  15.077 -0.1901  0.0517 -0.2897
  639TMC3     O 9463   0.142   3.733  15.139 -0.7150 -0.1325  0.1989
  639TMC3     H 9464   4.583   3.512  15.055  2.8053  3.2970 -0.9963
  639TMC3    H1 9465   0.239   3.504  15.219  1.3972 -1.8274  0.4394
  639TMC3    H2 9466   4.725   3.148  15.244 -1.7285  0.1514 -2.3328
  639TMC3    C7 9467   0.246   3.237  15.170 -0.3595 -0.1714 -0.1514
  639TMC3    C8 9468   4.535   3.244  15.071  0.1144 -0.0218 -0.1481
  639TMC3    O1 9469   0.225   3.115  15.146 -0.0776 -0.4619 -0.0674
  639TMC3    O2 9470   4.534   3.246  14.947 -0.3479 -0.1560  0.1706
  640MPD2     C 9471   0.375   1.795   9.200 -0.7644 -0.1397  0.2468
  640MPD2    C1 9472   0.454   1.786   9.307  0.5697  0.1492 -0.7501
  640MPD2    C2 9473   0.478   1.900   9.376  0.2841  0.1758 -0.7848
  640MPD2    C3 9474   0.405   2.022   9.354 -0.4306 -0.4562 -0.4135
  640MPD2    C4 9475   0.314   2.023   9.249 -0.4350  0.2190 -0.0471
  640MPD2    C5 9476   0.300   1.909   9.182  0.1807 -0.1188  0.1833
  640MPD2     H 9477   0.544   1.898   9.462  1.7654 -0.0993 -1.9467
  640MPD2    H1 9478   0.255   2.108   9.216  0.8779  1.5831  1.1427
  640MPD2    H2 9479   0.349   1.714   9.133 -0.5042  0.4930 -0.6210
  640MPD2    H3 9480   0.231   1.909   9.099 -0.3908  3.9198  0.6383
  640MPD2     N 9481   0.407   2.138   9.435  0.1721  0.1022  0.3562
  640MPD2    H5 9482   0.328   2.199   9.420  1.6707  1.3946 -2.2016
  640MPD2    N1 9483   0.510   1.661   9.339  0.2182  0.0114  0.4773
  640MPD2    H7 9484   0.487   1.587   9.275  1.2879  0.0622  0.0410
  641TMC3    C1 9485   0.635   1.486   9.433 -0.4947  0.2692  0.0511
  641TMC3    C2 9486   0.750   1.459   9.501 -0.0861 -0.2398 -0.5025
  641TMC3    C3 9487   0.784   1.329   9.498 -0.0897 -0.1684  0.0366
  641TMC3    C4 9488   0.561   1.393   9.362  0.2888 -0.1091  0.2772
  641TMC3    C5 9489   0.602   1.266   9.368  0.2301 -0.0558 -0.5654
  641TMC3    C6 9490   0.719   1.234   9.422  0.4835  0.9748 -0.3114
  641TMC3     C 9491   0.601   1.629   9.440  0.0859  0.2708 -0.5992
  641TMC3     O 9492   0.654   1.699   9.525 -0.0442 -0.4178  0.2708
  641TMC3     H 9493   0.815   1.531   9.548  0.9675 -1.6737  0.2382
  641TMC3    H1 9494   0.465   1.416   9.317  0.7182 -0.4359 -0.8100
  641TMC3    H2 9495   0.765   1.136   9.413  0.2193  0.8091  0.1901
  641TMC3    C7 9496   0.528   1.166   9.304  0.4384 -0.1724  0.4974
  641TMC3    C8 9497   0.918   1.293   9.542  0.6908  0.6308 -0.3998
  641TMC3    O1 9498   0.416   1.194   9.263 -0.0744 -0.1171  0.0137
  641TMC3    O2 9499   0.970   1.194   9.490  0.7334  0.0077  0.6997
  642TMC3    C1 9500   1.606   3.218  12.257 -0.1841 -0.4353 -0.2881
  642TMC3    C2 9501   1.601   3.236  12.393  0.1897 -0.7449  0.1639
  642TMC3    C3 9502   1.649   3.128  12.466 -0.0706 -0.3717 -0.3004
  642TMC3    C4 9503   1.637   3.100  12.192  0.1989 -0.3188  0.0429
  642TMC3    C5 9504   1.665   2.992  12.268 -0.8686  0.0468  0.5497
  642TMC3    C6 9505   1.677   3.009  12.400  0.0394 -0.0488  0.8842
  642TMC3     C 9506   1.582   3.322  12.161  0.1599 -0.3398 -0.2921
  642TMC3     O 9507   1.602   3.304  12.044  0.1370 -0.8571 -0.2508
  642TMC3     H 9508   1.583   3.333  12.436 -1.7652 -0.3925 -1.4725
  642TMC3    H1 9509   1.635   3.099  12.083  1.8440  1.2063  0.0016
  642TMC3    H2 9510   1.701   2.921  12.459 -0.0229  0.4146  1.6123
  642TMC3    C7 9511   1.633   2.861  12.218 -0.0157 -0.1452  0.4431
  642TMC3    C8 9512   1.660   3.153  12.611  0.6695  0.0643 -0.0516
  642TMC3    O1 9513   1.664   2.841  12.103  0.6986  0.4933 -0.3023
  642TMC3    O2 9514   1.648   3.270  12.648 -0.0105  0.7967  0.3981
  643TMC3    C1 9515   0.352   2.705   0.621  0.2822  0.0949  0.0075
  643TMC3    C2 9516   0.251   2.794   0.645 -0.2855 -0.4953 -0.3039
  643TMC3    C3 9517   0.254   2.924   0.599  0.4236  0.5474 -0.3455
  643TMC3    C4 9518   0.449   2.735   0.530 -0.5634  1.0238 -0.4102
  643TMC3    C5 9519   0.444   2.861   0.475 -0.0352 -0.8793 -0.3289
  643TMC3    C6 9520   0.350   2.955   0.508 -0.1388  0.1941 -0.5208
  643TMC3     C 9521   0.363   2.581   0.694  0.3748  0.5642  0.6147
  643TMC3     O 9522   0.264   2.556   0.764  0.6090  0.5385  0.0513
  643TMC3     H 9523   0.183   2.764   0.725 -1.7899  0.0454 -1.3737
  643TMC3    H1 9524   0.511   2.653   0.495 -1.0205 -0.2981  1.7931
  643TMC3    H2 9525   0.350   3.057   0.470  1.4880  0.0183 -1.0040
  643TMC3    C7 9526   0.556   2.914   0.397 -0.0108 -0.9910  0.0526
  643TMC3    C8 9527   0.130   2.999   0.600 -0.1612  0.2590  0.3013
  643TMC3    O1 9528   0.559   3.029   0.361  0.2787 -0.2716 -0.0593
  643TMC3    O2 9529   0.040   2.946   0.666 -0.2400 -1.0949 -0.3373
  644MPD2     C 9530   1.381   3.082   9.822 -0.1412  0.5143 -0.3107
  644MPD2    C1 9531   1.294   2.999   9.749 -0.0998  1.1457  1.3051
  644MPD2    C2 9532   1.163   3.044   9.738  0.0223 -0.0895  0.3338
  644MPD2    C3 9533   1.114   3.150   9.802 -0.0610  0.4509 -0.2536
  644MPD2    C4 9534   1.204   3.228   9.877  0.6103 -0.6583 -1.1679
  644MPD2    C5 9535   1.334   3.198   9.883 -0.0610 -0.4021  0.5038
  644MPD2     H 9536   1.093   2.986   9.679 -0.7581  1.6638 -0.4464
  644MPD2    H1 9537   1.186   3.319   9.933  0.1551 -1.2742 -0.3172
  644MPD2    H2 9538   1.488   3.065   9.822 -0.7264 -3.0925 -1.2223
  644MPD2    H3 9539   1.401   3.267   9.933  1.7322 -1.2444 -0.7457
  644MPD2     N 9540   0.973   3.184   9.784  0.5198  0.2611 -0.3166
  644MPD2    H5 9541   0.911   3.142   9.716  1.8773 -1.0027 -0.7817
  644MPD2    N1 9542   1.351   2.885   9.688 -0.6383  0.1122 -0.6391
  644MPD2    H7 9543   1.450   2.872   9.707 -0.4784  0.2176 -1.4086
  645TMC3    C1 9544   0.761   3.257   9.860  0.1470  0.5372 -1.1697
  645TMC3    C2 9545   0.689   3.362   9.920 -0.0779 -0.1844  0.3002
  645TMC3    C3 9546   0.560   3.336   9.947 -0.2227 -0.4308 -0.3217
  645TMC3    C4 9547   0.699   3.138   9.821  0.5617 -0.0018 -0.8160
  645TMC3    C5 9548   0.572   3.118   9.853  0.0953  0.1767 -0.1649
  645TMC3    C6 9549   0.502   3.220   9.924  0.5545  0.5032  0.3646
  645TMC3     C 9550   0.908   3.267   9.869 -0.6162  0.6471  0.2098
  645TMC3     O 9551   0.948   3.337   9.962 -0.2793  0.4229 -0.2553
  645TMC3     H 9552   0.737   3.457   9.936  1.0256 -0.6431 -0.2681
  645TMC3    H1 9553   0.760   3.054   9.790  0.4097 -0.9381  1.3953
  645TMC3    H2 9554   0.398   3.198   9.945  0.5127 -1.3874 -1.9280
  645TMC3    C7 9555   0.489   3.013   9.801 -0.2264 -0.0425  0.4721
  645TMC3    C8 9556   0.497   3.447  10.013  0.2516  0.2327 -0.2562
  645TMC3    O1 9557   0.382   2.990   9.855 -0.0676 -0.0887 -0.0825
  645TMC3    O2 9558   0.567   3.529  10.067 -0.3848 -0.2342  0.3162
  646MPD2     C 9559   0.273   2.534  14.621 -0.3468 -0.1804  0.2591
  646MPD2    C1 9560   0.185   2.438  14.663 -0.4129  0.1141 -0.7156
  646MPD2    C2 9561   0.050   2.475  14.666 -0.6859 -0.1661 -0.1168
  646MPD2    C3 9562   4.724   2.588  14.606 -0.3701 -0.1116 -0.5017
  646MPD2    C4 9563   0.094   2.673  14.550 -0.7239 -0.3726  0.4400
  646MPD2    C5 9564   0.230   2.647  14.559 -0.0566  0.0049 -0.3839
  646MPD2     H 9565   4.704   2.400  14.700  1.0549 -2.0636 -0.6840
  646MPD2    H1 9566   0.070   2.753  14.481 -0.5872 -1.6861 -1.1446
  646MPD2    H2 9567   0.379   2.517  14.634 -0.2322  0.4152  0.0740
  646MPD2    H3 9568   0.296   2.712  14.503 -1.5327  1.5320 -0.3279
  646MPD2     N 9569   4.580   2.594  14.579 -0.2504 -0.3075  0.0104
  646MPD2    H5 9570   4.517   2.532  14.627 -1.5225  1.0130  0.0439
  646MPD2    N1 9571   0.246   2.321  14.704  0.2479  0.1303 -0.4108
  646MPD2    H7 9572   0.343   2.311  14.676  0.4389 -0.7501  0.5700
  647TMC3    C1 9573   0.252   2.092  14.775  1.4842 -0.1997 -0.6612
  647TMC3    C2 9574   0.199   2.003  14.866 -0.2849 -0.3824  0.1747
  647TMC3    C3 9575   0.281   1.907  14.901  0.7968  0.4038  0.9246
  647TMC3    C4 9576   0.368   2.073  14.700 -0.5205  0.0343  0.4196
  647TMC3    C5 9577   0.433   1.958  14.729 -0.2931 -0.1542  0.3263
  647TMC3    C6 9578   0.403   1.877  14.836  0.8864  0.5331 -0.2709
  647TMC3     C 9579   0.183   2.214  14.759  0.4463  0.0523 -0.3164
  647TMC3     O 9580   0.062   2.206  14.785  0.1145 -0.5437 -0.4229
  647TMC3     H 9581   0.118   2.037  14.929  1.9193  0.0602  2.8142
  647TMC3    H1 9582   0.397   2.147  14.626 -2.2275  0.3491  0.0525
  647TMC3    H2 9583   0.462   1.798  14.880  1.1287  0.4991 -0.6653
  647TMC3    C7 9584   0.556   1.914  14.667  0.1661  0.2960  0.0743
  647TMC3    C8 9585   0.237   1.821  15.002  0.2887  0.8402  0.0620
  647TMC3    O1 9586   0.599   1.808  14.704 -1.2586 -0.2952  0.0131
  647TMC3    O2 9587   0.317   1.734  15.043  0.5761 -0.0758 -0.3984
  648TMC3    C1 9588   3.988   0.114  16.011 -0.1630 -0.0027 -0.7075
  648TMC3    C2 9589   4.077   0.029  15.967  0.6826 -0.3902 -0.3613
  648TMC3    C3 9590   4.117   0.032  15.839  0.3393 -0.0954  0.2073
  648TMC3    C4 9591   3.939   0.210  15.933  0.1676 -0.2242  0.2574
  648TMC3    C5 9592   3.969   0.211  15.798 -0.2232  0.1811  0.0025
  648TMC3    C6 9593   4.064   0.123  15.754  0.4674 -0.2129 -0.4856
  648TMC3     C 9594   3.946   0.113  16.149  0.2310 -0.2065  0.0574
  648TMC3     O 9595   3.895   0.218  16.185 -0.7292  0.3088  0.0535
  648TMC3     H 9596   4.138   4.693  16.034 -0.5656  0.1027  1.2213
  648TMC3    H1 9597   3.872   0.284  15.977 -0.0780 -0.2535 -0.0684
  648TMC3    H2 9598   4.096   0.131  15.651 -0.0985 -0.1924 -0.6591
  648TMC3    C7 9599   3.936   0.321  15.718 -0.9030  0.2197  0.6213
  648TMC3    C8 9600   4.143   4.626  15.800 -0.9691  0.8492 -0.2518
  648TMC3    O1 9601   4.017   0.339  15.628  0.0923 -0.2217 -0.1145
  648TMC3    O2 9602   4.086   4.531  15.843 -0.9787  0.1245  0.0849
  649TMC3    C1 9603   3.665   1.111  12.017  0.6224  0.4555  0.3997
  649TMC3    C2 9604   3.790   1.175  11.995 -0.3765 -0.6702  0.2443
  649TMC3    C3 9605   3.865   1.210  12.108 -0.1409  0.3834 -0.2164
  649TMC3    C4 9606   3.624   1.082  12.140  0.7858  0.4354  0.0709
  649TMC3    C5 9607   3.704   1.119  12.246  0.8630  0.1079  0.2522
  649TMC3    C6 9608   3.826   1.177  12.232  0.3190  0.1287  0.5055
  649TMC3     C 9609   3.561   1.140  11.922 -0.4285  0.6935 -0.2625
  649TMC3     O 9610   3.446   1.138  11.963 -0.3580 -0.1863 -0.3107
  649TMC3     H 9611   3.827   1.222  11.905  0.4177 -1.3430  0.2200
  649TMC3    H1 9612   3.523   1.049  12.160  0.5576  1.6069  0.9071
  649TMC3    H2 9613   3.895   1.187  12.314  1.6304  1.3993 -0.7719
  649TMC3    C7 9614   3.657   1.070  12.373  0.0484 -0.0913 -0.0052
  649TMC3    C8 9615   4.001   1.264  12.087 -0.3238 -0.0656 -0.7314
  649TMC3    O1 9616   3.538   1.069  12.392  0.4456 -0.1069  0.2121
  649TMC3    O2 9617   4.071   1.273  12.185  0.2814 -0.3658 -0.3941
  650TMC3    C1 9618   1.147   3.145  13.205  0.3885  0.5222  0.2045
  650TMC3    C2 9619   1.089   3.257  13.162  0.0571 -0.3863 -0.5587
  650TMC3    C3 9620   1.129   3.306  13.044 -0.3894 -0.3753  0.1438
  650TMC3    C4 9621   1.244   3.081  13.137  0.7721 -0.1435  0.3851
  650TMC3    C5 9622   1.288   3.136  13.011  0.0766  0.0394 -0.2426
  650TMC3    C6 9623   1.225   3.245  12.962  0.6013 -0.2663 -0.0699
  650TMC3     C 9624   1.060   3.073  13.291 -0.1911  1.1159  0.8269
  650TMC3     O 9625   1.114   3.039  13.395  0.2942  0.4163  0.5997
  650TMC3     H 9626   1.016   3.311  13.221  1.8011  1.0774  0.2598
  650TMC3    H1 9627   1.270   2.980  13.166  0.6330 -0.2753  0.0528
  650TMC3    H2 9628   1.243   3.295  12.867  0.7612 -0.9172 -0.3811
  650TMC3    C7 9629   1.314   3.036  12.912 -0.7800  0.3374  0.2180
  650TMC3    C8 9630   1.054   3.411  12.983  0.4034 -0.4172 -0.1917
  650TMC3    O1 9631   1.323   2.925  12.951 -0.1901  0.4073 -0.5014
  650TMC3    O2 9632   1.062   3.423  12.859  0.2893 -0.1258  0.9169
  651MPD2     C 9633   4.662   4.560  10.845  0.3994  0.0198  0.1439
  651MPD2    C1 9634   4.697   4.680  10.912  0.2313  0.0414 -0.2123
  651MPD2    C2 9635   0.110   4.711  10.910  0.2139  0.5577 -0.1071
  651MPD2    C3 9636   0.204   4.620  10.879 -0.3203 -0.0718  1.0228
  651MPD2    C4 9637   0.164   4.489  10.846 -0.5963  0.5352  0.1113
  651MPD2    C5 9638   0.029   4.470  10.815 -0.2644 -0.6540  0.5302
  651MPD2     H 9639   0.146   0.078  10.954  0.7589  0.8436 -1.1550
  651MPD2    H1 9640   0.234   4.414  10.812 -0.9962  1.2156 -2.2248
  651MPD2    H2 9641   4.563   4.529  10.815 -0.4339 -0.5468  3.4958
  651MPD2    H3 9642   4.719   4.374  10.780 -0.6744  0.0927 -1.1367
  651MPD2     N 9643   0.335   4.665  10.884  0.0498  0.2038  0.1392
  651MPD2    H5 9644   0.356   0.038  10.901 -0.9689  0.3075  0.7863
  651MPD2    N1 9645   4.601   0.042  10.971  0.4493 -0.0222  0.2327
  651MPD2    H7 9646   4.633   0.128  11.015 -2.2455  0.2862  1.5401
  652TMC3    C1 9647   0.792   4.720  10.822 -0.4761  0.9810 -0.2359
  652TMC3    C2 9648   0.689   4.666  10.894  0.0424 -0.5410  0.3928
  652TMC3    C3 9649   0.564   4.683  10.849  0.1225 -0.4676 -0.3535
  652TMC3    C4 9650   0.767   0.075  10.709  0.1055  0.2836 -0.2694
  652TMC3    C5 9651   0.636   0.088  10.672  1.0088 -0.3065  0.1054
  652TMC3    C6 9652   0.535   0.022  10.737 -0.2713 -0.0648 -0.5256
  652TMC3     C 9653   0.931   4.717  10.872 -0.1954 -0.2424  0.3551
  652TMC3     O 9654   0.945   4.672  10.984  0.1437 -0.8308 -0.0858
  652TMC3     H 9655   0.705   4.615  10.989  2.5385 -0.2530  0.1406
  652TMC3    H1 9656   0.839   0.126  10.646 -0.8404  0.4409 -1.2149
  652TMC3    H2 9657   0.436   0.016  10.694 -0.0339  0.6578 -1.1712
  652TMC3    C7 9658   0.606   0.140  10.541 -0.2092 -0.2294 -0.5230
  652TMC3    C8 9659   0.453   4.592  10.877 -0.7911  0.0139 -0.2411
  652TMC3    O1 9660   0.495   0.100  10.495 -0.3777 -0.3944  0.6327
  652TMC3    O2 9661   0.476   4.475  10.905 -0.8210  0.1515  0.4317
  653MPD2     C 9662   2.935   4.630  17.499 -0.5465  0.4934  0.3322
  653MPD2    C1 9663   3.005   0.003  17.429 -0.2859 -0.1220 -0.9439
  653MPD2    C2 9664   3.038   4.692  17.299 -0.1140  0.2628 -0.1014
  653MPD2    C3 9665   3.028   4.560  17.257 -0.1771 -0.2470 -0.1640
  653MPD2    C4 9666   2.970   4.460  17.336  0.6367  0.3570  0.0163
  653MPD2    C5 9667   2.929   4.498  17.461  0.5314  0.6176  0.2082
  653MPD2     H 9668   3.075   0.051  17.240  1.4101  0.3968  1.0339
  653MPD2    H1 9669   2.959   4.356  17.305  0.7431  0.6521 -0.9928
  653MPD2    H2 9670   2.894   4.651  17.597 -1.4613 -0.8735  0.2429
  653MPD2    H3 9671   2.876   4.430  17.527  0.5994 -1.2779 -1.6857
  653MPD2     N 9672   3.076   4.520  17.134 -0.5888  0.5335 -0.5349
  653MPD2    H5 9673   3.092   4.592  17.064 -1.3529  2.0041  0.8117
  653MPD2    N1 9674   3.016   0.138  17.472  0.7155 -0.3447 -0.8874
  653MPD2    H7 9675   3.034   0.210  17.403  0.0829  1.1698  0.5341
  654TMC3    C1 9676   3.140   4.399  16.959  0.4967  0.6863 -1.1600
  654TMC3    C2 9677   3.092   4.509  16.883  0.8141  0.3336 -0.0481
  654TMC3    C3 9678   3.058   4.473  16.756  0.5011 -1.1385 -0.1198
  654TMC3    C4 9679   3.172   4.274  16.902 -0.1782 -0.0460 -0.5221
  654TMC3    C5 9680   3.139   4.249  16.773 -0.0228 -0.4367 -0.4727
  654TMC3    C6 9681   3.081   4.350  16.705 -0.6015  0.5442  1.1617
  654TMC3     C 9682   3.097   4.396  17.094 -0.2934 -0.1226 -0.4913
  654TMC3     O 9683   3.122   4.291  17.151  0.2049  0.0206  0.0178
  654TMC3     H 9684   3.069   4.611  16.913 -2.1394  0.0379 -1.2063
  654TMC3    H1 9685   3.207   4.193  16.965  1.2920  1.1767  0.2161
  654TMC3    H2 9686   3.069   4.337  16.598 -1.8388  0.4903  1.2992
  654TMC3    C7 9687   3.042   4.144  16.772 -0.2431 -0.2251  0.3857
  654TMC3    C8 9688   2.946   4.545  16.699  0.5858  0.4357  0.7147
  654TMC3    O1 9689   2.927   4.172  16.748  1.0740 -0.7034 -0.0267
  654TMC3    O2 9690   2.950   4.670  16.696  0.7026  0.4369 -0.4240
  655MPD2     C 9691   0.041   0.292  15.730  0.0406  0.2323  0.3242
  655MPD2    C1 9692   4.712   0.378  15.631  0.2395 -0.4949 -0.0762
  655MPD2    C2 9693   0.048   0.378  15.509  0.6536  0.3512  0.3444
  655MPD2    C3 9694   0.155   0.300  15.476  0.6831 -0.0814 -0.3833
  655MPD2    C4 9695   0.210   0.223  15.573  0.3188 -0.2348  0.1059
  655MPD2    C5 9696   0.158   0.222  15.703 -0.3058 -0.5207 -0.0653
  655MPD2     H 9697   0.008   0.442  15.431  1.1686 -1.3516 -1.3119
  655MPD2    H1 9698   0.295   0.160  15.553 -1.2886 -2.1955 -0.6157
  655MPD2    H2 9699   0.003   0.284  15.831 -0.2572  1.1893  0.2886
  655MPD2    H3 9700   0.208   0.169  15.783 -1.5598 -2.3871 -0.5181
  655MPD2     N 9701   0.212   0.307  15.346  0.1964 -0.0788 -0.1306
  655MPD2    H5 9702   0.292   0.250  15.321 -0.9129 -1.0022 -1.6079
  655MPD2    N1 9703   4.594   0.454  15.643 -0.0201  0.4148 -0.1570
  655MPD2    H7 9704   4.562   0.505  15.561 -2.1515 -0.7803 -0.0817
  656TMC3    C1 9705   4.401   0.538  15.757 -0.0057 -0.5199  0.2929
  656TMC3    C2 9706   4.309   0.514  15.853  0.4085 -0.2035  0.5087
  656TMC3    C3 9707   4.203   0.601  15.854 -0.1700  0.4074  0.0344
  656TMC3    C4 9708   4.398   0.651  15.682 -0.6856 -0.8202 -0.4941
  656TMC3    C5 9709   4.306   0.744  15.698 -0.3167  0.0276 -0.3597
  656TMC3    C6 9710   4.201   0.720  15.783  0.5450  0.0458 -0.1688
  656TMC3     C 9711   4.521   0.460  15.758  1.2086 -0.1421  0.1047
  656TMC3     O 9712   4.546   0.412  15.872 -0.7825 -0.0035 -0.7622
  656TMC3     H 9713   4.316   0.427  15.917 -1.2014  1.0050  2.3195
  656TMC3    H1 9714   4.479   0.670  15.613  0.6185  0.2004  1.2901
  656TMC3    H2 9715   4.105   0.769  15.772  0.1197 -0.6986  0.2253
  656TMC3    C7 9716   4.291   0.842  15.590 -0.1242  0.6578 -0.3433
  656TMC3    C8 9717   4.094   0.570  15.944 -0.0275  0.6364  0.6673
  656TMC3    O1 9718   4.359   0.834  15.489 -0.0270  0.0232 -0.3394
  656TMC3    O2 9719   4.072   0.457  15.986  0.0595 -0.2240 -0.2071
  657TMC3    C1 9720   3.568   4.408  15.262  0.4373 -0.2304  0.0653
  657TMC3    C2 9721   3.611   4.317  15.355 -1.1578  0.0750  0.4054
  657TMC3    C3 9722   3.597   4.355  15.487 -0.2371  0.4210  0.9796
  657TMC3    C4 9723   3.512   4.529  15.297  0.0127  0.1831 -0.3507
  657TMC3    C5 9724   3.509   4.562  15.431 -0.0419  0.0665 -0.4391
  657TMC3    C6 9725   3.534   4.472  15.526  0.0942 -0.5265 -0.3333
  657TMC3     C 9726   3.603   4.384  15.123  0.4215  0.3776 -0.9240
  657TMC3     O 9727   3.622   4.483  15.051 -0.3854  0.2369  0.2321
  657TMC3     H 9728   3.675   4.235  15.327 -0.6322  0.9848 -1.0953
  657TMC3    H1 9729   3.510   4.608  15.222  0.8669 -0.9521 -1.5708
  657TMC3    H2 9730   3.545   4.507  15.628 -1.0790 -2.2774  0.3912
  657TMC3    C7 9731   3.410   4.666  15.468  0.1420  0.6029 -0.1815
  657TMC3    C8 9732   3.621   4.249  15.580  0.2417  0.0793 -0.7284
  657TMC3    O1 9733   3.385   4.671  15.591 -0.6590 -0.6286 -0.0318
  657TMC3    O2 9734   3.654   4.143  15.534  0.3514  0.0145  0.3743
  658MPD2     C 9735   0.550   0.779  14.734  0.4409  0.3157  0.7392
  658MPD2    C1 9736   0.426   0.716  14.728 -0.2434  1.1338 -0.3973
  658MPD2    C2 9737   0.325   0.768  14.643 -0.0359  0.0456 -0.5355
  658MPD2    C3 9738   0.347   0.876  14.568 -0.2816  0.0693 -0.1508
  658MPD2    C4 9739   0.475   0.941  14.574  0.5663  0.0477  0.0006
  658MPD2    C5 9740   0.574   0.887  14.654 -0.4921  0.3703 -0.7810
  658MPD2     H 9741   0.233   0.715  14.622 -0.4238  1.1050 -1.5463
  658MPD2    H1 9742   0.491   1.026  14.509  1.0323  1.3196  1.7904
  658MPD2    H2 9743   0.633   0.746  14.796  0.4007  1.4042  1.3718
  658MPD2    H3 9744   0.668   0.940  14.666  0.8225 -2.1163  0.0700
  658MPD2     N 9745   0.243   0.905  14.476 -0.1503  0.3499  0.2219
  658MPD2    H5 9746   0.151   0.868  14.498  0.4998 -0.1365  2.0960
  658MPD2    N1 9747   0.402   0.592  14.800 -0.4561 -0.6527  0.0354
  658MPD2    H7 9748   0.475   0.569  14.867  0.9548 -1.7556 -1.8744
  659TMC3    C1 9749   0.278   0.427  14.899  0.5221  0.2809  0.9482
  659TMC3    C2 9750   0.268   0.462  15.028  0.1911 -0.5082  0.2273
  659TMC3    C3 9751   0.241   0.361  15.121  0.2869  0.1542 -0.6629
  659TMC3    C4 9752   0.263   0.298  14.854  0.1319  0.1370 -0.5309
  659TMC3    C5 9753   0.229   0.210  14.954  0.0025  0.2119 -0.2785
  659TMC3    C6 9754   0.222   0.228  15.087  0.3076  0.8914 -0.7788
  659TMC3     C 9755   0.284   0.525  14.798  0.6819  0.1438 -0.3017
  659TMC3     O 9756   0.197   0.510  14.708  0.5017 -0.1468  0.3613
  659TMC3     H 9757   0.270   0.566  15.058 -1.9656 -0.5158  0.4566
  659TMC3    H1 9758   0.274   0.269  14.750 -3.3430  2.6076 -1.5853
  659TMC3    H2 9759   0.199   0.145  15.154  1.6150  0.2048 -1.1714
  659TMC3    C7 9760   0.202   0.068  14.922 -0.3105  0.1035 -0.5139
  659TMC3    C8 9761   0.187   0.398  15.245  0.0742 -0.1752 -0.2348
  659TMC3    O1 9762   0.248   0.037  14.811 -0.0389  0.0038 -0.7752
  659TMC3    O2 9763   0.126   0.503  15.253 -0.0930  0.4725 -0.9229
  660MPD2     C 9764   2.711   4.132  12.708 -0.2752  0.3638 -0.0408
  660MPD2    C1 9765   2.578   4.131  12.729  0.0090 -0.5761  0.2991
  660MPD2    C2 9766   2.534   4.082  12.852 -0.5987 -0.3928  0.4048
  660MPD2    C3 9767   2.621   4.048  12.953  1.1282  0.2774  0.5108
  660MPD2    C4 9768   2.758   4.048  12.931 -0.0643 -0.5198  0.7721
  660MPD2    C5 9769   2.803   4.100  12.805  0.1922  0.3681 -0.0439
  660MPD2     H 9770   2.429   4.075  12.877 -0.5707  1.9447  1.2088
  660MPD2    H1 9771   2.826   4.002  13.002  1.1309 -0.4340 -0.3296
  660MPD2    H2 9772   2.760   4.167  12.618  0.3661  1.3340  0.6864
  660MPD2    H3 9773   2.909   4.095  12.782  0.7179  0.0800  2.5092
  660MPD2     N 9774   2.575   3.993  13.076  0.1213  0.3116  0.6209
  660MPD2    H5 9775   2.646   3.986  13.149  1.9953  2.2836 -1.0225
  660MPD2    N1 9776   2.491   4.175  12.625 -0.1556 -0.2890  0.0140
  660MPD2    H7 9777   2.540   4.205  12.542 -0.2664  0.2796  0.1531
  661TMC3    C1 9778   2.290   4.221  12.510 -0.1730 -1.3018 -0.5656
  661TMC3    C2 9779   2.375   4.256  12.408  0.0114  0.9517  0.0861
  661TMC3    C3 9780   2.326   4.226  12.285 -0.2216 -0.4932 -0.7751
  661TMC3    C4 9781   2.172   4.152  12.494  0.5020  0.1784 -0.1255
  661TMC3    C5 9782   2.141   4.122  12.366 -0.8008 -0.3830 -0.1197
  661TMC3    C6 9783   2.222   4.145  12.257 -0.1369  0.1049  0.2346
  661TMC3     C 9784   2.352   4.188  12.634  0.1827 -0.2295  0.8708
  661TMC3     O 9785   2.275   4.181  12.730 -0.3184  0.3096 -0.2113
  661TMC3     H 9786   2.457   4.325  12.428  0.3928  0.5388 -0.0518
  661TMC3    H1 9787   2.110   4.118  12.576  1.5789 -1.2114  0.1028
  661TMC3    H2 9788   2.188   4.128  12.155  2.2500  1.4615 -0.7708
  661TMC3    C7 9789   2.030   4.037  12.351  0.6355 -0.1203  0.0771
  661TMC3    C8 9790   2.375   4.321  12.183 -0.3096  0.4619 -0.2718
  661TMC3    O1 9791   1.948   4.031  12.441 -0.4290  0.4147 -0.1671
  661TMC3    O2 9792   2.347   4.439  12.194  0.2406  0.4567 -0.1452
  662MPD2     C 9793   2.636   3.733  17.096 -0.4040 -0.2276 -0.1491
  662MPD2    C1 9794   2.613   3.649  17.203  1.1562 -0.2702 -0.4448
  662MPD2    C2 9795   2.590   3.706  17.319  0.0079 -0.4869  0.2780
  662MPD2    C3 9796   2.583   3.841  17.340 -0.8271  0.2436 -0.8136
  662MPD2    C4 9797   2.600   3.920  17.232  0.2019 -0.2305 -0.2098
  662MPD2    C5 9798   2.636   3.868  17.109 -0.0216  0.1672  0.4208
  662MPD2     H 9799   2.566   3.644  17.405  1.5806 -0.8211  0.4813
  662MPD2    H1 9800   2.598   4.028  17.245 -0.9282 -0.6391  2.8790
  662MPD2    H2 9801   2.656   3.687  16.999  0.1962 -0.3956  0.0566
  662MPD2    H3 9802   2.632   3.930  17.020  1.2098 -0.0336  0.2343
  662MPD2     N 9803   2.554   3.898  17.468 -0.3682  0.2960 -0.1961
  662MPD2    H5 9804   2.534   3.997  17.465  0.6829  0.5835  2.7933
  662MPD2    N1 9805   2.605   3.504  17.192 -0.3133 -0.0213 -0.0186
  662MPD2    H7 9806   2.594   3.454  17.279  0.1862 -0.4359 -0.1924
  663TMC3    C1 9807   2.587   3.291  17.095  0.0898 -1.0049 -0.3238
  663TMC3    C2 9808   2.630   3.240  17.213 -0.1121  0.1776  0.0639
  663TMC3    C3 9809   2.556   3.153  17.282  0.2918  0.2902 -0.6147
  663TMC3    C4 9810   2.473   3.251  17.041  0.3964  0.1605  0.1338
  663TMC3    C5 9811   2.416   3.142  17.094  0.0263  0.0322 -0.1918
  663TMC3    C6 9812   2.447   3.096  17.225 -0.6512 -0.1376 -0.3863
  663TMC3     C 9813   2.614   3.432  17.072  1.1752 -0.4014  0.6882
  663TMC3     O 9814   2.596   3.472  16.957  0.3781 -0.4465  0.2371
  663TMC3     H 9815   2.716   3.287  17.260  0.9074 -1.4156 -0.2376
  663TMC3    H1 9816   2.438   3.300  16.951 -2.6042  0.1608  1.2618
  663TMC3    H2 9817   2.410   3.005  17.270  1.4419 -1.3466 -1.0833
  663TMC3    C7 9818   2.364   3.055  16.990 -0.1969 -0.3820  0.0914
  663TMC3    C8 9819   2.639   3.083  17.379  0.3393  0.5653  0.8811
  663TMC3    O1 9820   2.326   3.117  16.888 -0.3227  0.5447 -0.2161
  663TMC3    O2 9821   2.757   3.110  17.395 -0.2640  0.3998 -0.2720
  664MPD2     C 9822   1.017   1.396   0.259  0.5359  0.2154  0.1656
  664MPD2    C1 9823   1.088   1.511   0.292 -0.7128  0.0092 -0.3698
  664MPD2    C2 9824   1.140   1.523   0.418  0.4594 -0.4649 -0.1592
  664MPD2    C3 9825   1.123   1.425   0.514  0.3521  0.0738 -0.3940
  664MPD2    C4 9826   1.045   1.314   0.484 -0.4051 -0.4244 -0.6466
  664MPD2    C5 9827   0.996   1.301   0.353  0.3679 -0.7462  0.1496
  664MPD2     H 9828   1.201   1.611   0.438  0.2884 -0.3303 -0.2254
  664MPD2    H1 9829   1.033   1.236   0.558 -0.5580 -0.8922 -1.1598
  664MPD2    H2 9830   0.971   1.382   0.162  1.9841 -0.1341 -0.4756
  664MPD2    H3 9831   0.939   1.212   0.328 -3.2948  1.2891  1.2140
  664MPD2     N 9832   1.188   1.450   0.633 -0.4011 -0.1049  0.1409
  664MPD2    H5 9833   1.270   1.510   0.629  0.9903 -1.8224  2.6539
  664MPD2    N1 9834   1.106   1.612   0.196  0.5520  0.3276  0.4645
  664MPD2    H7 9835   1.185   1.674   0.208  1.1374  0.5735 -4.7422
  665TMC3    C1 9836   1.272   1.419   0.852 -0.9400 -0.4655 -0.3259
  665TMC3    C2 9837   1.291   1.340   0.968 -0.8022 -0.0950 -0.1676
  665TMC3    C3 9838   1.358   1.397   1.073 -0.1536  0.0067 -0.4518
  665TMC3    C4 9839   1.310   1.552   0.856 -0.3897 -0.2107  0.8054
  665TMC3    C5 9840   1.373   1.602   0.969  0.8772  1.0887 -0.1924
  665TMC3    C6 9841   1.388   1.531   1.088 -0.4005  0.2380 -0.3665
  665TMC3     C 9842   1.188   1.370   0.743 -0.0461 -0.2841  0.1833
  665TMC3     O 9843   1.147   1.255   0.755 -0.3455  0.5067 -0.3012
  665TMC3     H 9844   1.264   1.235   0.971  0.1402 -0.3155  0.6026
  665TMC3    H1 9845   1.282   1.619   0.775 -2.5584 -2.5722 -0.3716
  665TMC3    H2 9846   1.441   1.567   1.176  0.9772 -0.8169 -0.7578
  665TMC3    C7 9847   1.326   1.742   0.982  0.1406 -0.2337  0.0158
  665TMC3    C8 9848   1.347   1.336   1.205  0.5350 -0.0409  0.0722
  665TMC3    O1 9849   1.265   1.801   0.893 -0.0992  0.1682 -0.9798
  665TMC3    O2 9850   1.420   1.366   1.303 -0.0687 -0.1044 -0.2191
  666TMC3    C1 9851   0.417   1.675   9.721 -0.2878  1.0279 -0.4340
  666TMC3    C2 9852   0.520   1.614   9.785 -0.0406 -0.0449 -0.3476
  666TMC3    C3 9853   0.608   1.674   9.860 -0.7535  0.0680 -0.0311
  666TMC3    C4 9854   0.393   1.809   9.731 -0.3601  0.3914  0.3383
  666TMC3    C5 9855   0.487   1.878   9.804  0.5470  0.0069  0.5144
  666TMC3    C6 9856   0.603   1.815   9.854 -0.6701 -0.4189 -0.8868
  666TMC3     C 9857   0.299   1.593   9.713  1.0298 -0.8410  0.7523
  666TMC3     O 9858   0.231   1.616   9.611  0.2483 -0.1914  0.3812
  666TMC3     H 9859   0.527   1.507   9.770  0.9135 -0.6068  4.0931
  666TMC3    H1 9860   0.303   1.864   9.704  0.2744  0.8205 -0.9125
  666TMC3    H2 9861   0.684   1.876   9.892 -0.9325 -0.0912 -0.8518
  666TMC3    C7 9862   0.450   2.014   9.859 -0.5433  0.0274 -0.6527
  666TMC3    C8 9863   0.729   1.595   9.885  0.9329  0.8624 -0.2986
  666TMC3    O1 9864   0.331   2.037   9.886 -0.0970  0.0912 -0.1822
  666TMC3    O2 9865   0.749   1.494   9.822 -0.0874  0.0879 -0.3856
  667MPD2     C 9866   2.092   1.602  14.402 -0.1513 -0.4311 -0.7904
  667MPD2    C1 9867   2.000   1.600  14.508 -0.1215  0.1924 -0.6562
  667MPD2    C2 9868   1.885   1.520  14.483  0.7288  0.3114  0.2942
  667MPD2    C3 9869   1.859   1.465  14.356 -0.2413 -0.6459  0.2369
  667MPD2    C4 9870   1.960   1.466  14.257 -0.0218 -0.2105 -0.2923
  667MPD2    C5 9871   2.070   1.540  14.279  0.5058 -0.1494  0.6193
  667MPD2     H 9872   1.817   1.492  14.563 -0.4599  3.3335  0.3405
  667MPD2    H1 9873   1.948   1.429  14.156  0.3288 -0.7965 -0.1188
  667MPD2    H2 9874   2.189   1.647  14.422 -0.2268 -0.5391 -0.1892
  667MPD2    H3 9875   2.147   1.556  14.205 -0.0249 -0.1991  0.0561
  667MPD2     N 9876   1.731   1.420  14.314 -0.2569 -0.4137  0.2794
  667MPD2    H5 9877   1.716   1.394  14.217  2.4415  1.3045 -0.6045
  667MPD2    N1 9878   2.025   1.656  14.637 -0.4595 -0.1293  0.6926
  667MPD2    H7 9879   1.959   1.627  14.708 -0.1626 -0.8917  0.6533
  668TMC3    C1 9880   2.116   1.797  14.803 -0.7434 -0.1634 -0.1995
  668TMC3    C2 9881   2.180   1.909  14.830 -0.1943 -0.3945  0.1363
  668TMC3    C3 9882   2.185   1.952  14.954 -0.7567  0.4627  0.9009
  668TMC3    C4 9883   2.053   1.725  14.904 -0.5305 -0.4331 -0.4347
  668TMC3    C5 9884   2.044   1.781  15.028  0.2430  0.0450  1.1789
  668TMC3    C6 9885   2.113   1.890  15.057 -0.5951  0.1214 -0.3424
  668TMC3     C 9886   2.129   1.742  14.666  0.0469  0.2264  0.3604
  668TMC3     O 9887   2.210   1.782  14.585 -0.2597  0.4065  0.3548
  668TMC3     H 9888   2.218   1.966  14.746  1.2327 -0.6585  0.6073
  668TMC3    H1 9889   2.028   1.622  14.879 -2.1264  0.0685 -0.8859
  668TMC3    H2 9890   2.097   1.931  15.156  0.7716 -0.2775  0.0467
  668TMC3    C7 9891   1.962   1.712  15.136 -0.0553 -0.1974 -0.3748
  668TMC3    C8 9892   2.233   2.088  14.987  0.0497 -0.6903 -0.8787
  668TMC3    O1 9893   1.994   1.734  15.252 -0.5480  0.5122  0.4113
  668TMC3    O2 9894   2.219   2.119  15.105 -0.2379  0.2150 -0.1229
  669TMC3    C1 9895   4.603   1.970  14.176  0.2374 -0.4499  0.5869
  669TMC3    C2 9896   4.510   1.937  14.084  0.4893  0.1890  0.3359
  669TMC3    C3 9897   4.537   1.973  13.954  0.8387  0.0106 -0.2836
  669TMC3    C4 9898   4.715   2.037  14.145  0.5971  0.3400 -0.0131
  669TMC3    C5 9899   0.017   2.058  14.011  0.0921 -0.4329  0.1076
  669TMC3    C6 9900   4.653   2.026  13.913  0.1093 -0.3691  0.5960
  669TMC3     C 9901   4.613   1.897  14.303 -0.7336  0.1660 -0.1014
  669TMC3     O 9902   4.511   1.848  14.346  0.0513 -0.8217  1.3981
  669TMC3     H 9903   4.416   1.896  14.119 -0.1020  0.6497 -0.6995
  669TMC3    H1 9904   0.052   2.085  14.220 -0.8464 -0.1531  1.4917
  669TMC3    H2 9905   4.671   2.036  13.806 -1.3111  0.4981  0.4395
  669TMC3    C7 9906   0.139   2.131  13.981 -0.3130 -0.0348 -0.0450
  669TMC3    C8 9907   4.424   1.970  13.852  0.3207 -0.3484  0.2093
  669TMC3    O1 9908   0.226   2.131  14.067 -0.2028  0.2825  0.0180
  669TMC3    O2 9909   4.351   1.874  13.853  0.2712  0.3648  0.3095
  670MPD2     C 9910   3.098   4.330  13.794 -0.4511 -0.2746 -0.2044
  670MPD2    C1 9911   3.215   4.317  13.866  0.1022  0.7938 -0.8430
  670MPD2    C2 9912   3.214   4.268  13.992 -0.6630 -0.1452  0.1251
  670MPD2    C3 9913   3.099   4.218  14.046  0.8556 -0.5857  0.2313
  670MPD2    C4 9914   2.983   4.236  13.976 -0.1829 -0.3049  0.2014
  670MPD2    C5 9915   2.985   4.281  13.850 -0.2346  0.6338 -0.0058
  670MPD2     H 9916   3.312   4.257  14.038 -0.1204 -0.0685 -0.9994
  670MPD2    H1 9917   2.885   4.213  14.017 -0.2948 -0.0230  0.0920
  670MPD2    H2 9918   3.088   4.371  13.695  0.5197  1.0259  0.2396
  670MPD2    H3 9919   2.888   4.282  13.800 -0.4718  1.7501  0.4542
  670MPD2     N 9920   3.090   4.166  14.179 -0.3114 -0.3333  0.4452
  670MPD2    H5 9921   3.179   4.166  14.227  0.9653 -2.5969 -1.9344
  670MPD2    N1 9922   3.341   4.359  13.809  0.1560  0.3898 -0.3632
  670MPD2    H7 9923   3.415   4.358  13.879  0.9617 -1.5388 -1.2385
  671TMC3    C1 9924   3.024   4.047  14.370  0.5931  0.6485  0.0714
  671TMC3    C2 9925   3.104   3.935  14.383 -0.0449 -0.1578  0.6984
  671TMC3    C3 9926   3.100   3.862  14.499  0.4526 -0.2018 -0.6946
  671TMC3    C4 9927   2.939   4.073  14.465  0.4729  0.3925  0.1208
  671TMC3    C5 9928   2.917   3.990  14.572 -0.1826  1.1920 -0.4225
  671TMC3    C6 9929   3.003   3.886  14.594  0.0796 -0.2644  0.3712
  671TMC3     C 9930   2.983   4.111  14.246 -0.0249  0.6162 -0.7840
  671TMC3     O 9931   2.863   4.117  14.223 -0.5992 -0.4820 -0.0189
  671TMC3     H 9932   3.127   3.887  14.289  0.7646  0.6434  0.5003
  671TMC3    H1 9933   2.878   4.162  14.456  1.1979  0.8989  0.1807
  671TMC3    H2 9934   2.968   3.804  14.656 -0.9610 -0.4400 -0.4585
  671TMC3    C7 9935   2.782   3.948  14.579  0.8499  0.1127  0.5360
  671TMC3    C8 9936   3.150   3.731  14.490  0.1898 -0.3118 -0.5239
  671TMC3    O1 9937   2.734   3.906  14.682  0.4002  0.3472  0.1916
  671TMC3    O2 9938   3.128   3.682  14.383 -0.3424 -0.9025 -0.0020
  672MPD2     C 9939   3.445   0.214   0.298 -0.5182  0.5767  0.3851
  672MPD2    C1 9940   3.451   0.089   0.345 -0.8800  0.5794 -0.3321
  672MPD2    C2 9941   3.459   0.052   0.478 -0.3816  0.0468 -0.5256
  672MPD2    C3 9942   3.470   0.163   0.567  0.5034 -0.0767 -0.0082
  672MPD2    C4 9943   3.474   0.296   0.514  0.7430 -0.0047  0.2304
  672MPD2    C5 9944   3.463   0.322   0.379 -0.0711 -0.4091 -0.0651
  672MPD2     H 9945   3.456   4.676   0.519  4.4881  0.3301  0.5521
  672MPD2    H1 9946   3.484   0.379   0.582 -0.9488  0.4290 -0.0533
  672MPD2    H2 9947   3.459   0.248   0.196 -0.2454 -3.2041 -0.8261
  672MPD2    H3 9948   3.489   0.414   0.327  0.7544  1.2083  3.2309
  672MPD2     N 9949   3.469   0.153   0.712 -0.4203 -0.5595  0.2053
  672MPD2    H5 9950   3.479   0.243   0.759 -0.0153 -1.5346  1.9776
  672MPD2    N1 9951   3.439   4.704   0.260 -0.2536 -0.1389 -0.6675
  672MPD2    H7 9952   3.463   4.611   0.291 -2.8744 -1.6900 -3.3467
  673TMC3    C1 9953   3.346   4.566   0.104  0.3613 -0.2609 -0.7269
  673TMC3    C2 9954   3.438   4.469   0.128 -0.8720 -0.0368  0.6210
  673TMC3    C3 9955   3.394   4.342   0.124  1.2049  0.1750  0.3386
  673TMC3    C4 9956   3.213   4.545   0.092  0.2567  0.2207  0.1671
  673TMC3    C5 9957   3.180   4.414   0.107  0.5743 -0.0107  0.3564
  673TMC3    C6 9958   3.267   4.312   0.126 -0.1758  0.2296  0.6946
  673TMC3     C 9959   3.376   4.704   0.138 -0.1070  0.2925 -0.8117
  673TMC3     O 9960   3.308   0.069   0.088  0.1148 -0.1561  0.0385
  673TMC3     H 9961   3.544   4.491   0.115 -0.9176  0.0065  0.3280
  673TMC3    H1 9962   3.144   4.628   0.101 -1.5707 -0.9939 -2.7779
  673TMC3    H2 9963   3.229   4.211   0.135 -0.3967  0.1662 -0.8902
  673TMC3    C7 9964   3.050   4.379   0.166 -0.1111  0.2061 -1.1261
  673TMC3    C8 9965   3.482   4.249   0.198  0.3454 -0.7272  0.1323
  673TMC3    O1 9966   3.036   4.276   0.230 -0.0246  0.2194  0.0661
  673TMC3    O2 9967   3.546   4.293   0.294 -0.0249 -0.1512  0.8730
  674MPD2     C 9968   3.226   3.373   0.332 -0.2014  0.5579 -0.4259
  674MPD2    C1 9969   3.085   3.352   0.324 -1.2377 -0.1575 -0.0535
  674MPD2    C2 9970   3.003   3.377   0.435 -0.0787  0.7091 -0.5209
  674MPD2    C3 9971   3.063   3.384   0.555 -0.1624  0.2546  0.3477
  674MPD2    C4 9972   3.199   3.388   0.563 -0.0254  0.0315  0.0928
  674MPD2    C5 9973   3.279   3.381   0.453  0.4686  0.2596 -0.5267
  674MPD2     H 9974   2.894   3.384   0.430 -0.0863  1.1402  0.2498
  674MPD2    H1 9975   3.247   3.387   0.661 -0.0714 -0.9782  0.1139
  674MPD2    H2 9976   3.290   3.375   0.245 -1.1779 -0.1243 -1.1661
  674MPD2    H3 9977   3.386   3.395   0.455  0.8970 -2.8608 -1.9084
  674MPD2     N 9978   2.975   3.395   0.664  0.2887 -0.9671  0.1347
  674MPD2    H5 9979   2.875   3.395   0.649  0.1127  3.5406  1.4748
  674MPD2    N1 9980   3.042   3.319   0.200  0.4711  0.0034  0.1463
  674MPD2    H7 9981   3.116   3.288   0.137  1.6641  1.9595  0.6042
  675TMC3    C1 9982   2.899   3.276   0.016 -0.1586 -0.4448  0.3658
  675TMC3    C2 9983   2.768   3.273  17.678 -0.2701 -0.2261  0.3165
  675TMC3    C3 9984   2.733   3.360  17.582  0.3193  0.4924  0.8286
  675TMC3    C4 9985   2.990   3.346  17.638 -0.4008  0.0240  0.1467
  675TMC3    C5 9986   2.941   3.424  17.534  0.5218  0.6495  0.4581
  675TMC3    C6 9987   2.807   3.437  17.502 -0.0316 -0.0290 -0.6870
  675TMC3     C 9988   2.914   3.313   0.156  0.6705 -0.1578 -0.1665
  675TMC3     O 9989   2.803   3.322   0.211  0.3907 -0.2409 -0.1885
  675TMC3     H 9990   2.700   3.206   0.031  0.1478 -2.6972 -2.2734
  675TMC3    H1 9991   3.095   3.345  17.666 -1.0575  2.4263  2.6737
  675TMC3    H2 9992   2.756   3.484  17.419 -1.1956  0.0923  0.0954
  675TMC3    C7 9993   3.043   3.476  17.445  0.1174 -0.2747 -1.4148
  675TMC3    C8 9994   2.598   3.393  17.594 -0.1588  0.1292  0.4473
  675TMC3    O1 9995   3.152   3.426  17.438  0.8519 -0.2729  0.4404
  675TMC3    O2 9996   2.531   3.414  17.497  0.2006 -0.1420 -0.0226
  676MPD2     C 9997   1.160   2.514  10.527  0.6227  0.2220  0.8494
  676MPD2    C1 9998   1.122   2.472  10.655 -0.3604 -0.0301  0.0922
  676MPD2    C2 9999   1.137   2.337  10.682  0.2838 -0.0159 -0.2846
  676MPD2    C310000   1.191   2.245  10.591  0.6913  0.4234 -0.3395
  676MPD2    C410001   1.243   2.294  10.475  0.5456 -0.9459  0.1478
  676MPD2    C510002   1.218   2.423  10.437  0.0539  0.3523 -0.1229
  676MPD2     H10003   1.098   2.302  10.777 -0.1874  0.1686 -0.4097
  676MPD2    H110004   1.300   2.227  10.410  1.7315  0.0432  0.1637
  676MPD2    H210005   1.142   2.614  10.488 -1.3899 -0.4542  0.0283
  676MPD2    H310006   1.224   2.445  10.331 -0.3854 -0.5163 -0.3267
  676MPD2     N10007   1.193   2.105  10.608 -0.1121  0.1102  0.3876
  676MPD2    H510008   1.251   2.044  10.551  0.0351  1.6537 -1.0920
  676MPD2    N110009   1.058   2.555  10.750 -0.0461  0.6128 -0.1410
  676MPD2    H710010   1.041   2.533  10.847 -0.8587 -0.8849 -0.6159
  677TMC3    C110011   0.902   2.717  10.817 -0.8001  0.5323  0.0152
  677TMC3    C210012   0.849   2.633  10.915 -0.6725  0.6019 -0.4075
  677TMC3    C310013   0.765   2.689  11.016  0.2862  0.6498  0.0245
  677TMC3    C410014   0.883   2.856  10.828 -0.8750  0.2236  0.3687
  677TMC3    C510015   0.813   2.905  10.936 -0.5590  0.4191  0.1288
  677TMC3    C610016   0.750   2.829  11.031 -0.3503  0.0877 -0.0174
  677TMC3     C10017   1.003   2.676  10.720  0.1235  0.3860  0.2478
  677TMC3     O10018   1.021   2.742  10.618 -0.0317  0.3817  0.3583
  677TMC3     H10019   0.856   2.526  10.902  1.3469  0.4854  1.5835
  677TMC3    H110020   0.919   2.923  10.750 -2.0563  1.8740  1.2442
  677TMC3    H210021   0.717   2.871  11.125  1.3486  0.3039  0.4873
  677TMC3    C710022   0.841   3.041  10.986  0.5460 -0.2344 -0.1662
  677TMC3    C810023   0.735   2.609  11.134  0.2645 -0.2153 -0.4123
  677TMC3    O110024   0.758   3.086  11.063  0.0298 -0.0686 -0.1376
  677TMC3    O210025   0.627   2.644  11.185  0.2824  0.0956 -0.2115
  678MPD2     C10026   2.199   2.717   1.865 -1.1096  0.4350  0.4391
  678MPD2    C110027   2.171   2.725   1.729 -0.3193 -0.0296  0.2411
  678MPD2    C210028   2.051   2.665   1.684  0.3113  0.3945  0.1714
  678MPD2    C310029   1.976   2.593   1.769  0.0842  0.3745 -0.1145
  678MPD2    C410030   1.999   2.596   1.904 -0.1810 -0.0108  0.1994
  678MPD2    C510031   2.119   2.645   1.945 -0.1213  0.3943  0.0699
  678MPD2     H10032   2.010   2.688   1.586 -1.7024 -1.5549  0.5804
  678MPD2    H110033   1.943   2.532   1.970  0.1517 -0.0319  0.4568
  678MPD2    H210034   2.296   2.746   1.906 -1.1063  1.5745 -0.4036
  678MPD2    H310035   2.153   2.619   2.044 -0.0614 -0.4514 -0.1693
  678MPD2     N10036   1.865   2.520   1.716 -0.4367  0.0910  0.5094
  678MPD2    H510037   1.861   2.509   1.615 -0.5903 -1.3758  0.6727
  678MPD2    N110038   2.257   2.792   1.635  0.2035 -0.4810  0.0766
  678MPD2    H710039   2.223   2.815   1.542 -1.3151 -0.4480  0.6431
  679TMC3    C110040   2.645   2.998   1.471 -0.0641 -0.0171  0.0491
  679TMC3    C210041   2.570   2.947   1.565  0.3115  0.1041  0.8167
  679TMC3    C310042   2.445   2.891   1.542  0.3682  1.2625  0.0589
  679TMC3    C410043   2.604   2.988   1.338 -0.0876  0.4225  0.7637
  679TMC3    C510044   2.486   2.929   1.312  0.2097  0.0425  0.1428
  679TMC3    C610045   2.399   2.887   1.411  0.6496 -0.8569  0.5076
  679TMC3     C10046   2.789   3.012   1.494  0.5769 -0.3666 -0.0045
  679TMC3     O10047   2.842   2.949   1.585 -0.3187 -0.1012  0.2104
  679TMC3     H10048   2.615   2.947   1.664  0.5377 -1.1749  0.7138
  679TMC3    H110049   2.674   3.012   1.259  1.3044 -2.0708  1.2469
  679TMC3    H210050   2.312   2.830   1.380  1.3409 -1.0349 -1.1306
  679TMC3    C710051   2.456   2.899   1.172 -0.5633 -0.1670  0.7568
  679TMC3    C810052   2.384   2.832   1.659  0.4895 -1.0013 -1.3903
  679TMC3    O110053   2.338   2.909   1.135  0.0763 -0.4978  0.4209
  679TMC3    O210054   2.459   2.794   1.744  0.4303 -0.1897  0.2027
  680MPD2     C10055   2.903   1.322  13.157  0.1996  0.0719  0.2843
  680MPD2    C110056   2.993   1.302  13.255  0.2952  0.1439  0.8298
  680MPD2    C210057   2.998   1.392  13.360  0.0683  0.0754 -0.2863
  680MPD2    C310058   2.918   1.499  13.368  0.2047  0.2895  0.4037
  680MPD2    C410059   2.830   1.520  13.267 -0.2969  0.2871  0.4947
  680MPD2    C510060   2.823   1.431  13.164  0.0294  0.0077 -0.4308
  680MPD2     H10061   3.070   1.355  13.432 -1.8449  0.0510  1.5938
  680MPD2    H110062   2.767   1.609  13.274 -1.1067 -0.1975 -0.6270
  680MPD2    H210063   2.887   1.253  13.075  1.2751  0.2118 -0.0362
  680MPD2    H310064   2.755   1.436  13.080 -1.7839 -1.3607  0.9571
  680MPD2     N10065   2.918   1.586  13.488  0.0533  0.6258 -0.3573
  680MPD2    H510066   2.864   1.671  13.483  2.9014  2.2971 -2.5092
  680MPD2    N110067   3.084   1.191  13.232 -0.1380 -0.0622 -0.7849
  680MPD2    H710068   3.141   1.156  13.308  0.8149 -0.7283 -1.7891
  681TMC3    C110069   3.194   1.024  13.125  0.8755  0.3114 -0.0218
  681TMC3    C210070   3.149   0.924  13.211  0.0148  0.5889  0.1310
  681TMC3    C310071   3.225   0.806  13.213 -0.6809  0.3616 -0.0668
  681TMC3    C410072   3.303   1.011  13.046  0.3632  0.4767 -0.0613
  681TMC3    C510073   3.374   0.895  13.055 -0.4832  0.1398  0.3019
  681TMC3    C610074   3.338   0.800  13.141  0.5516 -0.1351 -0.5460
  681TMC3     C10075   3.117   1.139  13.110 -0.0770 -0.0994  0.1118
  681TMC3     O10076   3.094   1.191  13.003  0.8545 -0.5431 -0.2176
  681TMC3     H10077   3.050   0.933  13.254  0.6264 -3.5937  2.4307
  681TMC3    H110078   3.347   1.097  12.995  1.1886  0.4687  0.6314
  681TMC3    H210079   3.397   0.709  13.148 -0.0316 -0.3885  1.1918
  681TMC3    C710080   3.509   0.894  13.001 -0.0516  0.0565 -0.1004
  681TMC3    C810081   3.200   0.697  13.312 -0.4176  0.4132 -0.1430
  681TMC3    O110082   3.589   0.837  13.075 -0.1667 -0.2093  0.0314
  681TMC3    O210083   3.249   0.584  13.280 -0.2702  0.2438 -0.2649
  682MPD2     C10084   0.191   3.060  10.762 -0.1870 -0.1266  0.0997
  682MPD2    C110085   0.149   2.937  10.804  0.9430  0.0828  0.1043
  682MPD2    C210086   0.079   2.927  10.921 -0.4550 -0.4483  0.1767
  682MPD2    C310087   0.041   3.035  10.988 -0.4114 -0.5593  0.2818
  682MPD2    C410088   0.090   3.153  10.953 -1.2446 -0.2301 -0.6916
  682MPD2    C510089   0.173   3.168  10.844 -0.3044 -0.3006  0.3378
  682MPD2     H10090   0.048   2.830  10.958  0.8608 -0.3673  1.4799
  682MPD2    H110091   0.065   3.237  11.017 -2.4902 -1.5945  0.6105
  682MPD2    H210092   0.249   3.071  10.671 -0.3221 -1.8129 -0.1983
  682MPD2    H310093   0.223   3.262  10.826 -1.9905  0.9378  2.2355
  682MPD2     N10094   4.683   3.029  11.098 -0.1229 -0.4039  0.2222
  682MPD2    H510095   4.668   3.108  11.160  0.0898  0.8175 -1.2913
  682MPD2    N110096   0.166   2.821  10.719 -0.0360 -0.8605 -0.8521
  682MPD2    H710097   0.117   2.736  10.744 -1.8698  0.4861  0.1074
  683TMC3    C110098   4.495   2.969  11.466 -0.0425 -0.5718  0.0838
  683TMC3    C210099   4.380   2.895  11.469 -0.0458 -0.0314  0.3311
  683TMC3    C310100   4.330   2.840  11.355 -0.3445 -0.6798 -0.2611
  683TMC3    C410101   4.562   3.002  11.356 -0.5298 -0.2909  0.2102
  683TMC3    C510102   4.515   2.939  11.240  0.3042  0.0131 -0.4222
  683TMC3    C610103   4.392   2.871  11.238  0.3305 -1.2481  0.9613
  683TMC3     C10104   4.535   3.022  11.592 -0.1734 -0.3353  0.5660
  683TMC3     O10105   4.511   2.961  11.696  0.6656 -0.4880  0.1855
  683TMC3     H10106   4.317   2.874  11.555 -1.5126 -0.6582 -0.8771
  683TMC3    H110107   4.663   3.040  11.370 -0.8110  0.4636  0.1866
  683TMC3    H210108   4.354   2.829  11.145 -0.5783 -1.1446  1.2881
  683TMC3    C710109   4.599   2.921  11.117  0.9152 -0.2840 -0.4270
  683TMC3    C810110   4.230   2.735  11.375  0.1853  0.3645  0.4728
  683TMC3    O110111   4.557   2.835  11.043 -0.0126 -0.5026 -0.0148
  683TMC3    O210112   4.141   2.757  11.457  0.3584 -0.0519  0.7388
  684MPD2     C10113   2.779   2.523  16.718 -0.1517 -0.3010 -0.0302
  684MPD2    C110114   2.743   2.512  16.584 -0.3353 -0.3158  0.3387
  684MPD2    C210115   2.659   2.607  16.532  0.2289 -0.4530  0.2996
  684MPD2    C310116   2.606   2.711  16.603 -0.1663 -0.1530  0.2892
  684MPD2    C410117   2.647   2.716  16.737  0.4085 -0.8564  0.1432
  684MPD2    C510118   2.732   2.627  16.793 -0.0850  0.5207 -0.2301
  684MPD2     H10119   2.643   2.598  16.425 -1.4328 -0.9471  0.5916
  684MPD2    H110120   2.602   2.792  16.799 -2.0217 -0.8825 -1.5819
  684MPD2    H210121   2.852   2.452  16.755 -0.2960  0.4628  1.7539
  684MPD2    H310122   2.759   2.645  16.896  0.5617  2.4830 -0.7504
  684MPD2     N10123   2.532   2.818  16.542  0.2043  0.3206 -0.0291
  684MPD2    H510124   2.525   2.908  16.588  4.1369  0.6340  0.0138
  684MPD2    N110125   2.800   2.423  16.488  0.2360  0.6121 -0.2348
  684MPD2    H710126   2.759   2.412  16.396  1.2670  0.2056 -0.6583
  685TMC3    C110127   2.969   2.292  16.384  0.2761 -0.1345 -0.4108
  685TMC3    C210128   2.893   2.277  16.271  0.1366 -0.5835  0.0626
  685TMC3    C310129   2.957   2.238  16.158  0.0442 -0.2039 -0.2877
  685TMC3    C410130   3.101   2.277  16.393  0.4238  0.4783 -0.4217
  685TMC3    C510131   3.163   2.220  16.288  0.0170  0.7614 -0.4455
  685TMC3    C610132   3.092   2.200  16.171 -0.7707  0.1398  0.3954
  685TMC3     C10133   2.909   2.341  16.506  0.1642  0.2361  1.1481
  685TMC3     O10134   2.977   2.320  16.606 -0.5686  0.4149  0.0861
  685TMC3     H10135   2.787   2.288  16.286  0.1778 -0.6739  0.4391
  685TMC3    H110136   3.160   2.286  16.483 -0.4498 -1.1650  0.3257
  685TMC3    H210137   3.134   2.136  16.094 -0.3577  0.3777  0.4239
  685TMC3    C710138   3.294   2.163  16.306 -0.5415 -0.2459 -0.0403
  685TMC3    C810139   2.885   2.203  16.039 -0.2290  0.2928 -0.1362
  685TMC3    O110140   3.329   2.148  16.424  0.2011 -0.4144 -0.2936
  685TMC3    O210141   2.959   2.155  15.951 -0.1937  0.2401 -0.8449
  686MPD2     C10142   4.229   1.571  15.338 -1.3965 -0.3580 -0.9126
  686MPD2    C110143   4.291   1.569  15.454 -0.7755 -0.2598 -0.4964
  686MPD2    C210144   4.370   1.463  15.489 -0.9093 -0.1778 -0.2030
  686MPD2    C310145   4.383   1.354  15.409 -0.1167 -0.4047  0.0356
  686MPD2    C410146   4.331   1.370  15.279 -0.0904  0.0291  0.1313
  686MPD2    C510147   4.251   1.473  15.248 -0.2219  0.8671 -0.0156
  686MPD2     H10148   4.418   1.464  15.586  2.1050  0.0442 -1.7054
  686MPD2    H110149   4.342   1.289  15.207  1.2340  0.5705 -0.2612
  686MPD2    H210150   4.170   1.655  15.301  1.1273  1.7934 -0.0741
  686MPD2    H310151   4.201   1.464  15.153  0.6155 -1.0135 -0.2920
  686MPD2     N10152   4.468   1.244  15.428 -0.7144 -0.3342 -0.2153
  686MPD2    H510153   4.499   1.192  15.347  2.1104 -0.5729  1.0360
  686MPD2    N110154   4.273   1.668  15.548 -0.2928 -0.1946 -1.1169
  686MPD2    H710155   4.237   1.753  15.508  0.3238 -0.5734 -2.4646
  687TMC3    C110156   4.446   1.235  15.679  0.8105  0.5477  0.2078
  687TMC3    C210157   4.307   1.244  15.680 -0.4909 -0.1748  0.0437
  687TMC3    C310158   4.243   1.235  15.799 -0.4932 -0.4274  0.2655
  687TMC3    C410159   4.526   1.218  15.788  0.3947  0.2999  0.2740
  687TMC3    C510160   4.458   1.234  15.902 -0.0775  0.2040 -0.4100
  687TMC3    C610161   4.319   1.245  15.914  0.0338  0.3870  0.7864
  687TMC3     C10162   4.520   1.201  15.549  0.4207 -0.2289 -0.4697
  687TMC3     O10163   4.615   1.121  15.565  0.2983  0.2369 -0.1276
  687TMC3     H10164   4.244   1.216  15.597  2.3501  3.7976 -3.4170
  687TMC3    H110165   4.633   1.205  15.776  0.1811 -0.2556 -0.9382
  687TMC3    H210166   4.266   1.253  16.009  0.8648 -0.9532  1.3562
  687TMC3    C710167   4.525   1.232  16.034 -0.0617 -0.3347  0.4819
  687TMC3    C810168   4.106   1.284  15.807 -0.1276 -0.5203  0.8058
  687TMC3    O110169   4.454   1.253  16.128 -0.0813 -0.2627 -0.6039
  687TMC3    O210170   4.045   1.248  15.905  0.1517 -0.0555  0.0264
  688MPD2     C10171   3.379   0.791  17.431  0.0524 -0.4719  0.9263
  688MPD2    C110172   3.357   0.660  17.400  0.8184 -0.1285  0.3283
  688MPD2    C210173   3.433   0.608  17.296 -1.0554 -0.4133 -0.3043
  688MPD2    C310174   3.540   0.676  17.238  0.6502 -0.2724  0.4253
  688MPD2    C410175   3.558   0.808  17.270  0.1148 -0.3213 -0.3746
  688MPD2    C510176   3.481   0.862  17.369 -0.1521  0.9830  0.5573
  688MPD2     H10177   3.424   0.500  17.285  0.0098 -0.3616 -1.6994
  688MPD2    H110178   3.642   0.865  17.234  2.8982 -3.3946  1.2032
  688MPD2    H210179   3.321   0.847  17.503  0.7040  0.7543  0.5062
  688MPD2    H310180   3.491   0.968  17.390  1.2827  0.7318  1.1895
  688MPD2     N10181   3.633   0.625  17.147  0.0952 -0.1497 -0.5978
  688MPD2    H510182   3.711   0.685  17.121 -0.4688 -0.0758 -2.1584
  688MPD2    N110183   3.255   0.583  17.446 -0.5330  0.0696 -0.3761
  688MPD2    H710184   3.240   0.489  17.411 -4.6665  0.5004  0.1487
  689TMC3    C110185   3.060   0.529  17.591  0.2440 -0.0494  0.7407
  689TMC3    C210186   2.964   0.583  17.676 -0.4614 -0.2103  0.2687
  689TMC3    C310187   2.876   0.498   0.040 -0.0930 -0.0367 -0.0727
  689TMC3    C410188   3.072   0.397  17.573  0.0484  0.1237 -0.5561
  689TMC3    C510189   2.980   0.319  17.630  0.7803  0.6317  0.0966
  689TMC3    C610190   2.888   0.362   0.020  0.4353 -0.4574  0.0052
  689TMC3     C10191   3.165   0.622  17.547 -0.1738  0.1979 -0.2089
  689TMC3     O10192   3.163   0.731  17.604  0.4884 -0.1809 -0.6601
  689TMC3     H10193   2.966   0.691  17.690  1.2054 -0.1268 -0.6980
  689TMC3    H110194   3.150   0.355  17.511  1.0102  0.5849  0.3406
  689TMC3    H210195   2.823   0.296   0.075  0.9625 -0.9352  0.0502
  689TMC3    C710196   2.989   0.178  17.605  0.2576 -0.6013  0.4449
  689TMC3    C810197   2.797   0.545   0.151 -0.4631 -0.3813 -0.5287
  689TMC3    O110198   2.975   0.107   0.005  0.5435  0.3737 -0.0504
  689TMC3    O210199   2.752   0.467   0.232  0.3708  0.4184 -0.8142
  690MPD2     C10200   1.104   2.731  15.976  0.1589 -0.2194 -1.0043
  690MPD2    C110201   1.099   2.753  15.842 -0.1092 -0.2385  0.2783
  690MPD2    C210202   1.199   2.822  15.781  0.2179 -0.1980 -0.5883
  690MPD2    C310203   1.298   2.883  15.855  0.1457 -0.1016  0.4080
  690MPD2    C410204   1.299   2.867  15.984 -0.8649 -0.0535 -0.2239
  690MPD2    C510205   1.205   2.787  16.046 -0.1710  0.4536  0.5782
  690MPD2     H10206   1.190   2.826  15.673 -0.6701 -1.2079 -0.5491
  690MPD2    H110207   1.383   2.904  16.041 -0.1505 -0.2742 -1.1284
  690MPD2    H210208   1.030   2.674  16.031 -1.1514  1.3924 -1.1117
  690MPD2    H310209   1.199   2.764  16.152  0.5618 -1.6790  0.1657
  690MPD2     N10210   1.409   2.936  15.780 -0.5230 -0.2952 -0.3129
  690MPD2    H510211   1.394   2.938  15.680 -2.3837  1.9257  0.0088
  690MPD2    N110212   1.001   2.703  15.760 -0.0781  0.1607  0.2921
  690MPD2    H710213   1.011   2.711  15.659 -2.2343  3.0745  0.3089
  691TMC3    C110214   0.786   2.613  15.718  0.0697  0.2556  0.0784
  691TMC3    C210215   0.662   2.637  15.752 -0.3912 -0.1000  0.2619
  691TMC3    C310216   0.575   2.537  15.727  0.4806 -0.5400  0.6717
  691TMC3    C410217   0.826   2.500  15.643 -0.2154 -0.0335 -0.0134
  691TMC3    C510218   0.728   2.404  15.617 -0.3232 -0.3846 -0.8200
  691TMC3    C610219   0.606   2.419  15.665 -0.2607 -0.4300  0.8349
  691TMC3     C10220   0.880   2.654  15.810 -0.1787 -0.0623 -0.5590
  691TMC3     O10221   0.840   2.646  15.926 -0.7674  0.1550 -0.0167
  691TMC3     H10222   0.629   2.718  15.815 -1.4424  0.9963 -1.6971
  691TMC3    H110223   0.931   2.481  15.625 -0.3342  0.9130 -1.7141
  691TMC3    H210224   0.531   2.340  15.666  1.0700 -1.6879  2.2488
  691TMC3    C710225   0.795   2.270  15.600  0.1653  0.0289  0.4625
  691TMC3    C810226   0.452   2.543  15.798 -0.6425  0.4397  0.5730
  691TMC3    O110227   0.912   2.264  15.571  0.5022  0.0914 -0.4815
  691TMC3    O210228   0.401   2.437  15.833 -0.2276  0.0766 -0.4041
  692TMC3    C110229   2.195   3.916  15.614 -0.1024 -0.1216 -0.5372
  692TMC3    C210230   2.324   3.954  15.642  0.2851 -0.3385 -0.3485
  692TMC3    C310231   2.425   3.865  15.637 -0.1417 -0.2928 -0.2953
  692TMC3    C410232   2.169   3.791  15.568 -0.0834 -0.2012  0.5271
  692TMC3    C510233   2.273   3.704  15.557  0.0753  0.2378  0.1820
  692TMC3    C610234   2.400   3.740  15.584  0.2092 -0.1614  0.2551
  692TMC3     C10235   2.101   3.947  15.721  0.1850 -0.4180  0.2377
  692TMC3     O10236   2.152   3.964  15.830 -0.0481  0.2664  0.0069
  692TMC3     H10237   2.343   4.030  15.716 -1.5670 -0.5997  0.4050
  692TMC3    H110238   2.067   3.762  15.548  0.2372 -0.6884 -0.3886
  692TMC3    H210239   2.487   3.677  15.598  0.7639  0.3924 -0.6916
  692TMC3    C710240   2.242   3.561  15.556 -0.3590 -0.5319 -0.7362
  692TMC3    C810241   2.477   3.847  15.764  0.1309  0.1060 -0.0163
  692TMC3    O110242   2.145   3.537  15.490  0.7304 -0.1378  0.9720
  692TMC3    O210243   2.461   3.736  15.813  0.1546 -0.3419  0.3090
  693MPD2     C10244   2.333   1.496  10.714  0.4085  0.5436  1.0686
  693MPD2    C110245   2.295   1.365  10.689 -0.0519 -0.0894 -0.8273
  693MPD2    C210246   2.389   1.285  10.625  0.3617  0.2721 -0.3498
  693MPD2    C310247   2.523   1.318  10.615  0.1264  0.1827  0.1163
  693MPD2    C410248   2.559   1.443  10.647 -0.2697 -0.3271 -0.7994
  693MPD2    C510249   2.464   1.529  10.703  0.1541 -0.0611 -0.4244
  693MPD2     H10250   2.359   1.188  10.586 -2.4438  1.6200 -1.5815
  693MPD2    H110251   2.663   1.469  10.635 -0.8053  1.5476 -1.4784
  693MPD2    H210252   2.271   1.568  10.766 -2.0729  1.0348 -2.5355
  693MPD2    H310253   2.504   1.628  10.724 -0.4415 -0.0177  0.5205
  693MPD2     N10254   2.629   1.233  10.573  0.0057 -0.5150  0.2411
  693MPD2    H510255   2.723   1.270  10.583  0.3003 -1.3918  0.6927
  693MPD2    N110256   2.161   1.330  10.708  0.2244  0.2119 -0.3338
  693MPD2    H710257   2.098   1.392  10.757  0.5148 -0.9926  1.5467
  694TMC3    C110258   1.990   1.170  10.718  0.1607 -0.0641  0.1955
  694TMC3    C210259   1.929   1.069  10.648  0.0120  0.0411  0.0519
  694TMC3    C310260   1.861   0.975  10.722 -0.1712  0.0217  0.1946
  694TMC3    C410261   1.967   1.188  10.852 -0.3402 -0.0079  0.3462
  694TMC3    C510262   1.882   1.104  10.921  0.1056  0.1118  1.1384
  694TMC3    C610263   1.827   0.992  10.853  0.1932 -0.2815 -0.2924
  694TMC3     C10264   2.108   1.218  10.654 -0.0379  0.7853  0.0311
  694TMC3     O10265   2.151   1.146  10.561 -0.6724 -0.0549 -0.0608
  694TMC3     H10266   1.936   1.059  10.540 -2.5530  1.9134 -0.2811
  694TMC3    H110267   2.020   1.261  10.912 -0.1084 -0.8426  1.1660
  694TMC3    H210268   1.765   0.926  10.912 -1.1313  1.9765  0.8619
  694TMC3    C710269   1.852   1.139  11.057 -0.1357 -0.0808 -0.3023
  694TMC3    C810270   1.829   0.841  10.676  0.3916  0.2669 -1.0003
  694TMC3    O110271   1.902   1.235  11.106 -0.0290 -0.3553 -0.1443
  694TMC3    O210272   1.744   0.777  10.741 -0.3670 -0.3102  0.4753
  695MPD2     C10273   3.154   3.438  13.758  0.5867  0.2755 -0.0607
  695MPD2    C110274   3.055   3.400  13.851 -0.2824 -0.9426  0.5617
  695MPD2    C210275   2.933   3.469  13.858 -0.2000  0.3232  0.6955
  695MPD2    C310276   2.912   3.578  13.768 -0.5606 -0.0927  0.6918
  695MPD2    C410277   3.011   3.604  13.675 -0.5236  0.1726 -0.7857
  695MPD2    C510278   3.129   3.542  13.677 -0.2172 -0.2850 -0.3928
  695MPD2     H10279   2.858   3.433  13.928 -1.6660  0.6888 -0.6887
  695MPD2    H110280   3.006   3.691  13.612 -0.4295  0.0447 -0.9692
  695MPD2    H210281   3.253   3.396  13.744 -0.0813 -1.1542 -0.4760
  695MPD2    H310282   3.205   3.548  13.600  0.1604 -3.1915 -0.2454
  695MPD2     N10283   2.792   3.657  13.779 -0.2567 -0.2807 -0.6412
  695MPD2    H510284   2.723   3.641  13.851  0.6956  0.7564  0.5101
  695MPD2    N110285   3.072   3.289  13.937 -0.2675 -0.1645 -0.5148
  695MPD2    H710286   3.013   3.279  14.018  0.5154 -0.3144  0.0390
  696TMC3    C110287   2.625   3.818  13.730  0.2279  0.6495 -0.7030
  696TMC3    C210288   2.547   3.764  13.828  0.6044 -0.0504 -0.2998
  696TMC3    C310289   2.428   3.831  13.847 -0.6484  0.1766  0.0790
  696TMC3    C410290   2.592   3.930  13.659  0.3646  0.4941  0.1273
  696TMC3    C510291   2.481   4.002  13.695 -0.1346 -0.0930  0.1736
  696TMC3    C610292   2.399   3.949  13.790  0.3370 -0.1449 -0.1324
  696TMC3     C10293   2.755   3.756  13.695 -0.0680 -0.0760  0.0791
  696TMC3     O10294   2.818   3.806  13.600  0.3072  0.6938  0.4084
  696TMC3     H10295   2.568   3.678  13.891 -1.4866  0.2591  0.7930
  696TMC3    H110296   2.654   3.977  13.583 -0.5167 -0.3784 -1.1080
  696TMC3    H210297   2.317   4.010  13.827  0.3531 -0.0463 -0.2584
  696TMC3    C710298   2.503   4.138  13.688  0.3905  0.2110  0.8185
  696TMC3    C810299   2.388   3.824  13.988 -0.2497  0.5787 -0.0984
  696TMC3    O110300   2.525   4.184  13.578  0.1154  0.1309 -0.1497
  696TMC3    O210301   2.268   3.810  14.008 -0.2373 -0.2417 -0.3270
  697MPD2     C10302   2.572   0.478  15.826  0.6993 -0.1655 -0.0859
  697MPD2    C110303   2.518   0.444  15.700 -0.4491 -0.0036 -0.1773
  697MPD2    C210304   2.505   0.534  15.592 -0.0464  0.2956  0.3476
  697MPD2    C310305   2.545   0.667  15.608  0.0653 -0.4291  0.5397
  697MPD2    C410306   2.586   0.701  15.738  0.0842  0.2571  0.2611
  697MPD2    C510307   2.597   0.614  15.843  0.0179 -0.1516 -0.9425
  697MPD2     H10308   2.472   0.489  15.499  0.7251  1.1153 -0.3267
  697MPD2    H110309   2.599   0.804  15.772 -0.0489  0.7746 -1.2600
  697MPD2    H210310   2.594   0.415  15.911  0.9374  0.6741  0.4790
  697MPD2    H310311   2.630   0.660  15.935 -0.0880 -0.6958 -0.6300
  697MPD2     N10312   2.544   0.765  15.514  0.6644  0.3345  0.2054
  697MPD2    H510313   2.564   0.860  15.545  0.9384 -0.3632  2.1373
  697MPD2    N110314   2.488   0.310  15.671  0.3620  0.4729  0.4782
  697MPD2    H710315   2.473   0.286  15.573 -2.5192 -0.6401  1.2036
  698TMC3    C110316   2.490   0.864  15.303  1.0751 -0.1498 -0.5888
  698TMC3    C210317   2.444   0.977  15.363  0.5778  0.0891  0.0370
  698TMC3    C310318   2.414   1.088  15.288 -0.4996 -0.1470  0.5858
  698TMC3    C410319   2.466   0.857  15.163 -0.2591 -0.0148  0.4900
  698TMC3    C510320   2.442   0.972  15.092 -0.6679 -0.2942  0.5749
  698TMC3    C610321   2.411   1.092  15.147 -0.0289 -0.2351 -0.0716
  698TMC3     C10322   2.512   0.743  15.383 -0.4455  0.0395  0.5301
  698TMC3     O10323   2.501   0.637  15.328 -0.4862  0.0349  0.6426
  698TMC3     H10324   2.454   0.983  15.471 -0.0374 -1.5679  0.1739
  698TMC3    H110325   2.485   0.765  15.109  1.9445 -0.0499  1.3308
  698TMC3    H210326   2.372   1.172  15.085  0.5375 -0.2969 -0.5023
  698TMC3    C710327   2.452   0.972  14.946  0.4114  1.1169  0.0606
  698TMC3    C810328   2.444   1.212  15.355 -0.1038  0.2285 -1.8127
  698TMC3    O110329   2.422   0.870  14.880 -0.3062 -1.1579  0.0774
  698TMC3    O210330   2.395   1.232  15.467  0.4914 -0.2563 -0.3775
  699TMC3    C110331   2.441   3.924  13.258 -0.8083  0.5910  0.3534
  699TMC3    C210332   2.520   3.826  13.305 -0.0654  0.4952  0.3704
  699TMC3    C310333   2.474   3.750  13.408 -0.3939 -0.1746 -0.6524
  699TMC3    C410334   2.328   3.962  13.322 -0.1648 -0.2281 -0.2119
  699TMC3    C510335   2.298   3.900  13.439 -0.5041  0.5413  0.2253
  699TMC3    C610336   2.367   3.789  13.480  0.4921  0.1645 -0.7950
  699TMC3     C10337   2.450   3.955  13.115  0.8468 -0.0033  0.3861
  699TMC3     O10338   2.347   3.961  13.046 -0.1881  0.0864  0.0442
  699TMC3     H10339   2.605   3.789  13.248  0.3351  1.1213  0.5537
  699TMC3    H110340   2.259   4.035  13.281  0.2270  0.2032 -0.0914
  699TMC3    H210341   2.332   3.735  13.567 -2.8399  1.1319 -1.5398
  699TMC3    C710342   2.164   3.906  13.486 -0.2523 -0.3534  0.4716
  699TMC3    C810343   2.500   3.611  13.412  0.2292 -0.5789 -0.2964
  699TMC3    O110344   2.156   3.893  13.606 -0.1267  0.0020 -0.5419
  699TMC3    O210345   2.477   3.561  13.521 -0.0639 -0.2409 -0.3149
  700TMC3    C110346   1.778   0.872  17.287 -1.1957  0.4387 -0.8215
  700TMC3    C210347   1.896   0.813  17.280  0.8710  0.0386 -0.5590
  700TMC3    C310348   1.990   0.850  17.374 -0.1120 -0.3738 -0.7696
  700TMC3    C410349   1.746   0.959  17.383 -0.0839  0.0959 -0.3617
  700TMC3    C510350   1.844   0.991  17.475 -0.2825 -0.5277  0.2825
  700TMC3    C610351   1.967   0.934  17.482  0.1326 -0.0301  0.3288
  700TMC3     C10352   1.701   0.865  17.163 -0.1134 -0.3277  0.0898
  700TMC3     O10353   1.652   0.754  17.144 -0.7515 -0.4181  0.6434
  700TMC3     H10354   1.916   0.733  17.210  2.5135  1.1872 -1.4132
  700TMC3    H110355   1.656   1.018  17.373 -1.6261 -2.0817  0.5777
  700TMC3    H210356   2.045   0.955  17.555 -0.2044  1.9650  0.1240
  700TMC3    C710357   1.824   1.100  17.566 -0.1506  0.3804  0.2922
  700TMC3    C810358   2.132   0.824  17.345 -1.0436  0.2055  0.1670
  700TMC3    O110359   1.929   1.146  17.614 -0.2442  0.5922 -0.1283
  700TMC3    O210360   2.207   0.842  17.438 -0.3899 -0.1149 -0.5332
  701TMC3    C110361   1.579   4.443  15.613 -0.1090 -0.1684 -0.6230
  701TMC3    C210362   1.615   4.445  15.478  0.2803  0.2603 -0.2706
  701TMC3    C310363   1.698   4.553  15.437  0.7485 -0.3140 -0.6529
  701TMC3    C410364   1.623   4.541  15.699  0.4330 -0.1311  0.6299
  701TMC3    C510365   1.716   4.629  15.653 -0.1054  0.1373 -0.2119
  701TMC3    C610366   1.756   4.639  15.526 -0.0659 -0.9080  0.2751
  701TMC3     C10367   1.477   4.355  15.669 -0.1257 -0.6254  0.2768
  701TMC3     O10368   1.427   4.394  15.774  0.2400 -0.6445 -0.5123
  701TMC3     H10369   1.568   4.376  15.409 -1.4454  1.1387  0.0295
  701TMC3    H110370   1.578   4.545  15.797 -0.5554 -3.5972  0.3022
  701TMC3    H210371   1.827   4.714  15.493 -1.0561  0.0407  0.2897
  701TMC3    C710372   1.681   0.029  15.710  0.3315 -1.0241 -0.2899
  701TMC3    C810373   1.655   4.626  15.319 -0.3169 -0.4993 -0.3084
  701TMC3    O110374   1.560   0.049  15.712  0.1450 -0.0905 -0.1113
  701TMC3    O210375   1.749   4.684  15.264  0.2400  0.5260  0.5038
  702MPD2     C10376   1.434   1.462  10.303  0.4040 -0.3325  0.3669
  702MPD2    C110377   1.435   1.595  10.331  0.5578 -0.4251  0.3885
  702MPD2    C210378   1.500   1.672  10.244  0.7743  0.4400 -0.0406
  702MPD2    C310379   1.545   1.632  10.121  0.1804 -0.3029  1.4843
  702MPD2    C410380   1.540   1.500  10.093 -0.4309 -0.2568  0.6924
  702MPD2    C510381   1.479   1.417  10.184  0.1798 -0.4312  0.7715
  702MPD2     H10382   1.511   1.777  10.269 -3.4765  0.8375  0.1890
  702MPD2    H110383   1.575   1.458   9.999 -3.8083  0.7916 -1.0382
  702MPD2    H210384   1.386   1.389  10.368 -0.8722 -1.1299 -1.4344
  702MPD2    H310385   1.472   1.311  10.164  2.9823  0.1146 -3.0670
  702MPD2     N10386   1.614   1.713  10.028 -0.3392 -1.0270 -0.0984
  702MPD2    H510387   1.662   1.652   9.964  1.0827 -1.8056  1.7142
  702MPD2    N110388   1.365   1.657  10.442  0.5694 -0.5379  0.5230
  702MPD2    H710389   1.367   1.757  10.460  1.7924 -0.9050  2.4830
  703TMC3    C110390   1.535   1.941  10.083  0.1397  1.3287 -0.1076
  703TMC3    C210391   1.400   1.921  10.098  0.3690  0.1809 -0.1235
  703TMC3    C310392   1.331   2.036  10.131 -0.3353  0.8615 -0.7815
  703TMC3    C410393   1.583   2.066  10.095 -0.3748  0.2974  0.5432
  703TMC3    C510394   1.503   2.173  10.119 -0.4273  0.3376  0.8565
  703TMC3    C610395   1.372   2.164  10.152  0.7146  0.1661  0.7494
  703TMC3     C10396   1.617   1.850  10.002  0.0697  0.7788  0.0951
  703TMC3     O10397   1.689   1.904   9.918  0.4454 -1.0067  0.1178
  703TMC3     H10398   1.352   1.823  10.095 -2.0223  1.3623 -0.3438
  703TMC3    H110399   1.685   2.090  10.065 -1.2760  1.9518 -1.2440
  703TMC3    H210400   1.316   2.242  10.203 -1.7075 -0.4114 -1.0122
  703TMC3    C710401   1.559   2.309  10.115 -0.6701  0.0923 -0.7205
  703TMC3    C810402   1.207   1.999  10.200  0.4794 -0.7222 -0.0960
  703TMC3    O110403   1.681   2.315  10.095  0.3859 -0.1620 -0.0870
  703TMC3    O210404   1.197   1.883  10.241  0.1650 -0.2003 -0.4016
  704TMC3    C110405   4.397   0.367  12.511 -0.9941  0.1172  0.3354
  704TMC3    C210406   4.425   0.322  12.385  0.0957  0.2100 -0.7500
  704TMC3    C310407   4.532   0.243  12.363  0.5410 -0.1747 -0.4873
  704TMC3    C410408   4.486   0.327  12.606  0.6945 -0.2624 -0.2788
  704TMC3    C510409   4.594   0.252  12.579  0.0835  0.0411  0.4983
  704TMC3    C610410   4.634   0.223  12.450  0.4564  0.1221 -0.3906
  704TMC3     C10411   4.260   0.334  12.550 -0.0056  0.3715 -0.0428
  704TMC3     O10412   4.215   0.360  12.661 -0.2529 -0.2710  0.6211
  704TMC3     H10413   4.370   0.355  12.298  0.0936  2.5479  0.1471
  704TMC3    H110414   4.459   0.345  12.710  0.6480 -1.7063 -0.0430
  704TMC3    H210415   4.710   0.148  12.430  1.2857  0.3791  1.7339
  704TMC3    C710416   4.595   0.122  12.653 -0.5870 -0.0008  0.6690
  704TMC3    C810417   4.570   0.213  12.224  0.5045  0.6462  0.6719
  704TMC3    O110418   4.628   0.015  12.601  0.5911  0.1195 -0.4125
  704TMC3    O210419   4.475   0.203  12.146 -0.2420  1.0638  0.0070
  705MPD2     C10420   2.535   3.399  16.481 -0.3948 -0.8640  0.1541
  705MPD2    C110421   2.557   3.529  16.511  0.1283 -0.4180  0.4545
  705MPD2    C210422   2.480   3.592  16.614  0.0314  0.1390  0.6615
  705MPD2    C310423   2.385   3.513  16.674  0.3682  0.5208 -0.3218
  705MPD2    C410424   2.358   3.389  16.625  0.5879  0.4787  0.0095
  705MPD2    C510425   2.433   3.329  16.530 -0.1119  0.3323  0.0961
  705MPD2     H10426   2.511   3.691  16.645 -1.1228  0.9162 -0.7051
  705MPD2    H110427   2.280   3.326  16.666  1.2452 -1.0016 -1.0283
  705MPD2    H210428   2.602   3.351  16.410 -0.0099 -2.1017  1.3639
  705MPD2    H310429   2.437   3.222  16.514 -0.1627 -0.1942  3.5100
  705MPD2     N10430   2.303   3.565  16.775  0.0915 -0.1874 -0.7067
  705MPD2    H510431   2.238   3.498  16.815 -0.2890  0.2807 -0.5344
  705MPD2    N110432   2.666   3.600  16.455 -0.1881 -0.3282  0.0458
  705MPD2    H710433   2.681   3.688  16.503  1.5079 -1.1313  0.9846
  706TMC3    C110434   3.077   3.657  16.437 -0.0918 -0.2326  0.2536
  706TMC3    C210435   3.067   3.799  16.453 -0.6610  0.2842  0.1933
  706TMC3    C310436   2.949   3.850  16.423  0.4440 -0.4807 -0.1641
  706TMC3    C410437   2.979   3.584  16.377 -0.3046  0.4027 -0.1242
  706TMC3    C510438   2.859   3.649  16.356  0.3283 -0.4208 -0.2794
  706TMC3    C610439   2.843   3.780  16.381  0.0430 -0.5334 -0.6138
  706TMC3     C10440   3.210   3.606  16.443  0.4961 -0.0790  0.1886
  706TMC3     O10441   3.284   3.645  16.534  0.0863  0.0303 -0.5437
  706TMC3     H10442   3.155   3.852  16.484  0.8395 -1.7749 -0.5311
  706TMC3    H110443   2.978   3.477  16.365 -2.0666  0.4087 -0.0939
  706TMC3    H210444   2.752   3.835  16.355  0.2582 -0.7809 -1.9042
  706TMC3    C710445   2.745   3.568  16.353 -0.7719  0.8076 -0.3338
  706TMC3    C810446   2.940   3.993  16.426  0.5941  0.2127 -0.2467
  706TMC3    O110447   2.749   3.465  16.282  0.3625 -0.2698  0.0603
  706TMC3    O210448   2.827   4.043  16.430  0.4418 -0.0262  0.8204
  707TMC3    C110449   0.292   2.293   2.139  0.0573 -0.8911 -0.9198
  707TMC3    C210450   0.353   2.208   2.224 -0.0978 -0.0781  0.2868
  707TMC3    C310451   0.272   2.133   2.305 -0.7083  0.1034 -0.3734
  707TMC3    C410452   0.158   2.306   2.128 -0.2677 -0.1809 -0.1838
  707TMC3    C510453   0.082   2.222   2.200  0.0480  0.5145  0.6409
  707TMC3    C610454   0.136   2.133   2.290  0.0290  0.1508 -0.4570
  707TMC3     C10455   0.378   2.313   2.019 -0.1301 -0.2367 -0.2193
  707TMC3     O10456   0.494   2.283   2.031  0.7784 -1.0127  0.2725
  707TMC3     H10457   0.462   2.210   2.223 -0.0745 -0.8506  2.4795
  707TMC3    H110458   0.103   2.386   2.081 -3.8000 -2.6598 -0.3018
  707TMC3    H210459   0.090   2.056   2.351 -0.0916  1.3777  1.0038
  707TMC3    C710460   4.663   2.232   2.183 -0.0562 -0.2847 -0.1778
  707TMC3    C810461   0.345   2.020   2.373 -0.2496  0.3830  0.3499
  707TMC3    O110462   4.619   2.295   2.088  0.6308 -0.2620  0.2936
  707TMC3    O210463   0.286   1.969   2.471  0.2336  0.1005  0.3093
  708MPD2     C10464   1.115   2.296  13.638 -0.3020  0.1821 -0.2862
  708MPD2    C110465   1.048   2.198  13.703  0.3904  0.0212 -0.8082
  708MPD2    C210466   1.124   2.093  13.739 -0.1128 -0.5601  0.2195
  708MPD2    C310467   1.260   2.072  13.704  0.1870  0.0295 -0.4938
  708MPD2    C410468   1.315   2.169  13.625  0.6426  0.0618  0.2913
  708MPD2    C510469   1.240   2.279  13.586  0.3246  0.2159 -0.2521
  708MPD2     H10470   1.078   2.018  13.802  1.3052 -0.4878  1.3440
  708MPD2    H110471   1.417   2.163  13.587  0.1298 -1.2016 -0.8882
  708MPD2    H210472   1.056   2.382  13.608 -2.0110 -2.0282 -3.3046
  708MPD2    H310473   1.291   2.357  13.530  0.4475 -0.5452 -1.2123
  708MPD2     N10474   1.343   1.965  13.740 -0.0521 -0.0631  0.6770
  708MPD2    H510475   1.440   1.958  13.712 -0.7150 -3.6914 -0.7222
  708MPD2    N110476   0.920   2.224  13.751 -1.0244 -0.2484  0.5674
  708MPD2    H710477   0.864   2.301  13.717 -2.0389 -0.9598  0.6299
  709TMC3    C110478   0.727   2.195  13.882 -0.4626 -0.2460  0.2476
  709TMC3    C210479   0.641   2.150  13.781  0.2891  0.1383  0.0992
  709TMC3    C310480   0.538   2.063  13.813  0.0571  0.0712 -0.0207
  709TMC3    C410481   0.703   2.153  14.010 -0.0712 -0.7829  0.7901
  709TMC3    C510482   0.597   2.068  14.032 -0.4682  0.2634  0.6750
  709TMC3    C610483   0.514   2.023  13.938 -0.3445 -0.0301  0.2658
  709TMC3     C10484   0.869   2.160  13.858 -0.5202  0.0175  0.6697
  709TMC3     O10485   0.915   2.083  13.942  1.0525  0.1651  0.0701
  709TMC3     H10486   0.658   2.190  13.681 -2.8292  0.0817 -0.4511
  709TMC3    H110487   0.761   2.179  14.098 -1.4372  0.4047  1.3223
  709TMC3    H210488   0.426   1.968  13.969 -0.4359 -0.0719 -0.0708
  709TMC3    C710489   0.638   1.965  14.132 -0.2225  0.2674  0.1768
  709TMC3    C810490   0.439   2.031  13.711 -0.0714  0.3480 -0.1020
  709TMC3    O110491   0.555   1.933  14.218 -0.7567 -0.0154 -0.1733
  709TMC3    O210492   0.354   1.953  13.754  0.6403 -0.4152 -0.0719
  710TMC3    C110493   2.050   3.072   0.463 -0.4305 -0.6134 -0.2469
  710TMC3    C210494   2.121   3.073   0.348 -0.0280  0.1801  0.2090
  710TMC3    C310495   2.232   2.990   0.335  0.6261  0.2704  0.0510
  710TMC3    C410496   2.087   2.991   0.568  0.0257  0.5704  0.2166
  710TMC3    C510497   2.204   2.916   0.559  0.5911 -0.3307 -0.3482
  710TMC3    C610498   2.277   2.913   0.443 -0.2668 -0.5114 -0.5224
  710TMC3     C10499   1.911   3.110   0.449  0.2954  0.0853  0.4606
  710TMC3     O10500   1.863   3.088   0.338 -0.9837 -0.6765 -0.1161
  710TMC3     H10501   2.091   3.120   0.255 -1.1912  1.3762  1.1912
  710TMC3    H110502   2.025   2.989   0.657 -1.0524  0.3816 -0.5389
  710TMC3    H210503   2.375   2.868   0.453  0.0861  0.4661  0.3369
  710TMC3    C710504   2.256   2.871   0.679 -0.5543 -0.2017 -0.3634
  710TMC3    C810505   2.286   2.970   0.205  0.3073  0.1853  0.7069
  710TMC3    O110506   2.207   2.907   0.785 -0.5834  0.7673 -0.2117
  710TMC3    O210507   2.232   3.034   0.112  0.1076  0.2525  0.3677
  711TMC3    C110508   2.421   4.169  15.134  0.9095 -0.0299 -0.2835
  711TMC3    C210509   2.379   4.249  15.237 -0.2493  0.2449  0.5730
  711TMC3    C310510   2.429   4.214  15.361  0.4389  0.0697 -0.8173
  711TMC3    C410511   2.483   4.049  15.141  0.4623  0.3589  0.0530
  711TMC3    C510512   2.540   4.024  15.261  0.0203 -0.6680  0.1109
  711TMC3    C610513   2.514   4.109  15.368  0.5579 -0.1111 -0.0082
  711TMC3     C10514   2.330   4.176  15.026  0.2183 -0.1009  0.5668
  711TMC3     O10515   2.312   4.064  14.977  0.2686  0.3418 -0.3001
  711TMC3     H10516   2.311   4.333  15.226  0.4634  0.7108 -0.3611
  711TMC3    H110517   2.509   3.992  15.052  0.0847  1.1331 -0.5546
  711TMC3    H210518   2.552   4.077  15.465 -2.6763  1.6732  1.8455
  711TMC3    C710519   2.571   3.880  15.290 -0.0217 -0.3377  0.0997
  711TMC3    C810520   2.360   4.245  15.486 -0.1253  0.1756 -0.0625
  711TMC3    O110521   2.617   3.857  15.402 -1.1093  0.6026  0.2735
  711TMC3    O210522   2.241   4.278  15.473  0.0871  0.1439  0.1151
  712MPD2     C10523   4.156   0.693  13.757 -0.6919 -0.2070  0.3651
  712MPD2    C110524   4.048   0.664  13.675 -0.3742  0.0815 -0.1530
  712MPD2    C210525   3.997   0.755  13.587  0.0238 -0.3292  0.1659
  712MPD2    C310526   4.065   0.871  13.558  0.4888 -0.1938 -0.6616
  712MPD2    C410527   4.184   0.896  13.624 -0.0545 -0.1361  0.3033
  712MPD2    C510528   4.226   0.804  13.722  0.3236 -0.4751  0.4929
  712MPD2     H10529   3.905   0.730  13.536 -1.1684 -0.2609  2.2811
  712MPD2    H110530   4.244   0.985  13.605 -0.2312 -0.4835 -1.8755
  712MPD2    H210531   4.188   0.614  13.824  0.2898 -1.4018 -1.4951
  712MPD2    H310532   4.312   0.821  13.787 -1.0522  2.3681  1.6089
  712MPD2     N10533   4.015   0.965  13.465  0.2936  0.5071 -0.4436
  712MPD2    H510534   4.075   1.046  13.449  2.4533 -0.9885  0.1229
  712MPD2    N110535   3.989   0.540  13.667 -0.1755 -0.0072  0.6684
  712MPD2    H710536   3.915   0.533  13.598  1.5203  0.2487 -1.1709
  713TMC3    C110537   3.881   1.072  13.307  0.1321  0.3845 -0.3031
  713TMC3    C210538   3.988   1.092  13.225  0.0297  0.2463  0.0684
  713TMC3    C310539   3.967   1.153  13.101  0.2855  0.3415 -0.0386
  713TMC3    C410540   3.753   1.123  13.282  0.4743  0.1929 -0.2855
  713TMC3    C510541   3.743   1.183  13.161 -0.4922  0.1099  0.2627
  713TMC3    C610542   3.841   1.191  13.061 -0.1775 -0.1700 -0.2109
  713TMC3     C10543   3.884   0.964  13.410 -1.0214 -0.7946  0.5215
  713TMC3     O10544   3.778   0.907  13.451 -0.1295  0.1401  0.1738
  713TMC3     H10545   4.082   1.042  13.244  0.7157  3.0199  3.9960
  713TMC3    H110546   3.682   1.123  13.364  0.7465  0.2833 -0.0466
  713TMC3    H210547   3.826   1.247  12.970 -0.1869 -2.3893 -1.5866
  713TMC3    C710548   3.617   1.245  13.132 -0.7467 -0.1592  0.0715
  713TMC3    C810549   4.071   1.236  13.043 -0.3646  0.1653  0.1367
  713TMC3    O110550   3.578   1.244  13.020  0.1806  0.1036  0.3903
  713TMC3    O210551   4.028   1.317  12.960 -0.8185 -0.3274 -0.1905
  714MPD2     C10552   0.750   3.661   1.748  0.3628  0.0547  0.2414
  714MPD2    C110553   0.783   3.555   1.667  0.3782  0.4237 -0.9051
  714MPD2    C210554   0.758   3.567   1.532 -0.1823  0.1397  0.0739
  714MPD2    C310555   0.717   3.683   1.473 -0.4445 -0.3674  0.5284
  714MPD2    C410556   0.676   3.787   1.558 -1.1091  0.3339  0.6988
  714MPD2    C510557   0.697   3.776   1.694 -0.3584  0.1280 -0.3683
  714MPD2     H10558   0.782   3.487   1.462  1.5704  0.3511  0.4356
  714MPD2    H110559   0.623   3.873   1.520  0.5551  1.1517  0.2290
  714MPD2    H210560   0.764   3.662   1.855  0.1655  2.1876  0.2430
  714MPD2    H310561   0.677   3.855   1.765  1.8751 -0.5174  0.9996
  714MPD2     N10562   0.706   3.685   1.331  0.2775  0.9434 -0.8103
  714MPD2    H510563   0.710   3.594   1.285 -0.9177  1.3244 -1.6665
  714MPD2    N110564   0.848   3.438   1.706  0.0976  0.8509  0.0526
  714MPD2    H710565   0.880   3.431   1.802  0.0563  0.7247  0.0562
  715TMC3    C110566   0.967   3.241   1.668 -0.7343  0.2029 -0.1498
  715TMC3    C210567   0.986   3.122   1.605 -0.2740 -0.0513 -0.2795
  715TMC3    C310568   1.097   3.050   1.634 -0.4036  0.1246  0.0467
  715TMC3    C410569   1.053   3.290   1.763 -0.0547  0.2644 -0.4637
  715TMC3    C510570   1.160   3.218   1.785  0.3006 -0.6100 -0.2914
  715TMC3    C610571   1.186   3.098   1.727 -0.1398 -0.2179  0.0517
  715TMC3     C10572   0.853   3.324   1.629  0.4281  0.3873 -0.0776
  715TMC3     O10573   0.777   3.278   1.544 -0.3961  0.2971 -0.6257
  715TMC3     H10574   0.933   3.083   1.519 -0.0270  0.7538 -0.7971
  715TMC3    H110575   1.069   3.396   1.778  1.0168  0.0485 -0.0499
  715TMC3    H210576   1.280   3.053   1.758 -0.1183  0.3719  0.8252
  715TMC3    C710577   1.248   3.255   1.888 -0.3348 -0.3366  0.5297
  715TMC3    C810578   1.136   2.947   1.544  0.5349 -1.0754  0.1855
  715TMC3    O110579   1.363   3.218   1.890 -0.3184 -0.2645 -0.7730
  715TMC3    O210580   1.056   2.902   1.466  0.2777  0.2342  0.0456
  716MPD2     C10581   1.125   1.418   9.820  0.0327  0.0983  0.0152
  716MPD2    C110582   1.081   1.329   9.722  0.7965  0.1412 -0.2547
  716MPD2    C210583   1.143   1.208   9.718  0.4585 -0.9213 -0.4539
  716MPD2    C310584   1.266   1.191   9.785 -0.2764  0.0892  0.2341
  716MPD2    C410585   1.312   1.289   9.871 -0.8189 -0.0711 -0.4742
  716MPD2    C510586   1.239   1.397   9.889 -0.0559 -0.1236 -0.0159
  716MPD2     H10587   1.111   1.127   9.654  1.0910 -2.7028  1.4637
  716MPD2    H110588   1.406   1.282   9.925 -0.8142 -0.5754 -0.5487
  716MPD2    H210589   1.074   1.514   9.823 -0.5717 -0.2922  1.9902
  716MPD2    H310590   1.276   1.469   9.962 -3.4846  0.7577  0.8423
  716MPD2     N10591   1.338   1.073   9.755  0.5244  0.6487  0.6551
  716MPD2    H510592   1.296   1.012   9.685 -1.8075  0.5929  2.1223
  716MPD2    N110593   0.961   1.366   9.649  0.0151 -0.0596  0.4242
  716MPD2    H710594   0.896   1.431   9.692  1.0847  0.7087  0.8784
  717TMC3    C110595   1.492   0.905   9.737 -0.2897  0.2367 -0.1549
  717TMC3    C210596   1.406   0.853   9.652  0.0008  0.4258 -0.0089
  717TMC3    C310597   1.430   0.728   9.610  0.0531 -1.2699 -0.1381
  717TMC3    C410598   1.606   0.834   9.782 -0.1639  0.2072  0.0194
  717TMC3    C510599   1.618   0.702   9.742  0.0472 -0.5156  0.0542
  717TMC3    C610600   1.533   0.643   9.654 -0.0005 -0.3160 -0.1667
  717TMC3     C10601   1.452   1.028   9.806  0.0644 -0.1764 -0.3411
  717TMC3     O10602   1.530   1.072   9.887 -0.3798  0.0946 -0.3200
  717TMC3     H10603   1.338   0.910   9.589 -0.4346 -0.3107 -0.2117
  717TMC3    H110604   1.677   0.881   9.849  1.6731 -2.5337 -0.0107
  717TMC3    H210605   1.538   0.540   9.620 -2.0084 -0.3784 -0.2744
  717TMC3    C710606   1.730   0.632   9.800 -0.0682 -0.7928  0.2034
  717TMC3    C810607   1.321   0.674   9.550  0.0245  0.2934  0.6620
  717TMC3    O110608   1.813   0.702   9.859  0.8936  0.2455 -0.8164
  717TMC3    O210609   1.213   0.720   9.591  0.0590  0.8869 -0.2832
  718MPD2     C10610   0.262   1.193  12.616 -0.7290 -0.6591 -0.1659
  718MPD2    C110611   0.253   1.054  12.622  0.2291  0.0356  0.0549
  718MPD2    C210612   0.323   0.989  12.730  0.5725 -0.4555 -0.6022
  718MPD2    C310613   0.383   1.059  12.831 -0.3622 -0.0631  0.4819
  718MPD2    C410614   0.382   1.196  12.823  0.5995  0.2110 -0.1221
  718MPD2    C510615   0.321   1.264  12.718 -0.3013  0.5383  0.0431
  718MPD2     H10616   0.335   0.881  12.732  0.5396 -0.4749 -1.2579
  718MPD2    H110617   0.446   1.252  12.890  1.1994 -0.2513 -0.3127
  718MPD2    H210618   0.221   1.240  12.527 -0.2717 -0.9095 -0.5104
  718MPD2    H310619   0.315   1.372  12.713  0.4934  0.4696 -2.1298
  718MPD2     N10620   0.447   0.976  12.928 -0.3242  0.3920  0.1063
  718MPD2    H510621   0.439   0.875  12.918 -0.3461  0.5754 -1.7344
  718MPD2    N110622   0.202   0.982  12.506  0.8876  0.7607 -0.4689
  718MPD2    H710623   0.175   1.033  12.422 -0.0118  0.8669 -0.1187
  719TMC3    C110624   0.171   0.779  12.387  0.2986 -0.1015 -0.2337
  719TMC3    C210625   0.123   0.652  12.401  0.4168  0.1922  0.0912
  719TMC3    C310626   0.190   0.550  12.343  0.3190  0.2779 -0.3934
  719TMC3    C410627   0.287   0.798  12.326 -0.0185  0.0558 -0.0919
  719TMC3    C510628   0.339   0.696  12.250 -0.4114 -0.4329 -0.2809
  719TMC3    C610629   0.294   0.565  12.260 -0.3805 -0.5922  0.1172
  719TMC3     C10630   0.177   0.844  12.513  0.0067 -0.0805 -0.0939
  719TMC3     O10631   0.163   0.776  12.613 -0.0957  0.2025 -0.1910
  719TMC3     H10632   0.036   0.636  12.465  0.6956 -1.1501  0.1312
  719TMC3    H110633   0.334   0.895  12.324  0.4039 -0.0944  2.0874
  719TMC3    H210634   0.352   0.481  12.223 -1.2429 -1.3831  0.5789
  719TMC3    C710635   0.476   0.708  12.199  0.6183 -0.1396  0.8289
  719TMC3    C810636   0.186   0.432  12.422 -0.4594  0.3715  0.5108
  719TMC3    O110637   0.489   0.756  12.083  0.1774  0.0817  0.0710
  719TMC3    O210638   0.205   0.320  12.372 -0.1703  0.2389 -0.8462
  720MPD2     C10639   3.519   2.357  13.768 -0.2909  0.0121  0.7373
  720MPD2    C110640   3.596   2.472  13.764 -0.2448  0.0794 -0.9140
  720MPD2    C210641   3.692   2.490  13.864  0.0564 -1.1197 -0.3003
  720MPD2    C310642   3.712   2.395  13.963  0.7375  0.9565  0.0869
  720MPD2    C410643   3.616   2.294  13.968  0.4174  0.2163  0.1528
  720MPD2    C510644   3.528   2.265  13.866  0.0980 -0.5301 -0.8707
  720MPD2     H10645   3.751   2.580  13.875 -2.3592  0.3174  1.0882
  720MPD2    H110646   3.624   2.218  14.045 -1.3727  2.5237  2.5943
  720MPD2    H210647   3.442   2.331  13.696 -0.6167  0.3614  0.9597
  720MPD2    H310648   3.472   2.173  13.871 -0.6464 -0.1008 -1.4547
  720MPD2     N10649   3.811   2.412  14.063 -0.4299 -0.1701 -0.4599
  720MPD2    H510650   3.858   2.502  14.053  0.2041 -0.4674 -0.1045
  720MPD2    N110651   3.560   2.573  13.665 -0.1791  0.4104 -0.1255
  720MPD2    H710652   3.484   2.547  13.603  2.2653 -1.0029 -2.5351
  721TMC3    C110653   3.926   2.375  14.269  0.0020 -0.4506  0.2803
  721TMC3    C210654   3.896   2.372  14.405  0.2079  0.2892 -0.3366
  721TMC3    C310655   3.997   2.388  14.492  0.7742  0.1675 -0.3765
  721TMC3    C410656   4.054   2.399  14.222 -0.0342 -0.0043  0.7493
  721TMC3    C510657   4.150   2.429  14.313  0.1112  0.6115 -0.2150
  721TMC3    C610658   4.122   2.431  14.453 -0.2470  0.1293  0.4990
  721TMC3     C10659   3.819   2.339  14.180  0.0165 -0.3907 -0.4737
  721TMC3     O10660   3.739   2.262  14.233  0.2636 -0.3671 -0.0938
  721TMC3     H10661   3.793   2.349  14.432  0.8690  1.2194  2.9804
  721TMC3    H110662   4.063   2.419  14.116 -0.2981  0.3913  0.8024
  721TMC3    H210663   4.207   2.457  14.516  0.6979  0.3154 -0.8408
  721TMC3    C710664   4.288   2.427  14.268 -0.0942 -0.5155 -0.0331
  721TMC3    C810665   3.956   2.422  14.628  0.2915 -0.7709  0.0642
  721TMC3    O110666   4.317   2.459  14.154  0.1207 -0.0221  0.5259
  721TMC3    O210667   3.877   2.516  14.626 -0.1128  0.4534  0.7235
  722MPD2     C10668   2.680   1.177  12.622  0.2022 -0.6186  1.2095
  722MPD2    C110669   2.624   1.298  12.658 -0.4800  0.3038 -0.7740
  722MPD2    C210670   2.488   1.312  12.650 -0.6352  0.0905  0.6370
  722MPD2    C310671   2.412   1.196  12.626  0.5818 -0.0350  0.4744
  722MPD2    C410672   2.470   1.068  12.606 -0.0960  0.1400  1.0673
  722MPD2    C510673   2.605   1.059  12.596  0.0385 -0.1159  0.0545
  722MPD2     H10674   2.437   1.405  12.670  1.0729  1.5222 -1.7051
  722MPD2    H110675   2.408   0.981  12.591  2.5561 -1.4995 -0.2363
  722MPD2    H210676   2.786   1.161  12.606 -0.1405 -2.0146  0.3922
  722MPD2    H310677   2.654   0.973  12.554 -1.0265  0.0495 -1.5396
  722MPD2     N10678   2.274   1.216  12.624 -0.5886 -0.2336  0.2012
  722MPD2    H510679   2.245   1.300  12.675  2.0563  0.7034  0.1863
  722MPD2    N110680   2.698   1.412  12.687 -0.8959  0.0620  0.4200
  722MPD2    H710681   2.647   1.500  12.688  0.5458  0.8961 -1.3040
  723TMC3    C110682   2.042   1.168  12.643 -0.7159 -1.1054  0.6864
  723TMC3    C210683   1.961   1.068  12.688  0.3090  0.5277  0.5194
  723TMC3    C310684   1.837   1.099  12.729  0.1794 -0.5839  0.3965
  723TMC3    C410685   1.997   1.294  12.625 -0.2692  0.5932  0.2861
  723TMC3    C510686   1.867   1.320  12.646 -0.6286  1.0369  0.1698
  723TMC3    C610687   1.785   1.227  12.701 -0.4615  0.1479 -0.3541
  723TMC3     C10688   2.179   1.125  12.606  0.0391 -0.3408  0.0649
  723TMC3     O10689   2.183   1.009  12.562 -0.1674 -0.1767 -0.4046
  723TMC3     H10690   2.003   0.969  12.681  0.4322  0.7873 -2.4874
  723TMC3    H110691   2.059   1.372  12.582 -0.6889  0.1609 -1.1004
  723TMC3    H210692   1.695   1.264  12.748 -2.3414 -3.3069 -1.2268
  723TMC3    C710693   1.823   1.459  12.630 -0.2961 -0.2762 -0.5975
  723TMC3    C810694   1.751   1.000  12.787 -0.2649 -0.5697 -0.0249
  723TMC3    O110695   1.914   1.539  12.648  0.1115  0.2750  0.3278
  723TMC3    O210696   1.641   1.040  12.829  0.3733  0.5165 -0.2539
  724TMC3    C110697   2.632   0.115   9.239  0.5154  0.0218  0.1213
  724TMC3    C210698   2.540   0.016   9.269 -0.7446 -0.4541 -1.2120
  724TMC3    C310699   2.581   4.629   9.343 -0.6281 -0.3166  0.4996
  724TMC3    C410700   2.768   0.099   9.261  0.1657 -0.0403 -0.2190
  724TMC3    C510701   2.803   4.713   9.336  0.1984  0.0512 -0.3208
  724TMC3    C610702   2.712   4.622   9.379  0.1614 -0.6422 -0.0901
  724TMC3     C10703   2.592   0.254   9.219  0.5524  0.3565  0.6271
  724TMC3     O10704   2.679   0.333   9.255 -0.1076 -0.1243  0.4786
  724TMC3     H10705   2.434   0.036   9.267 -0.7112 -0.3108 -1.6101
  724TMC3    H110706   2.842   0.174   9.236  1.3452 -1.1472 -0.0668
  724TMC3    H210707   2.752   4.544   9.443  1.0542 -1.1016 -1.2081
  724TMC3    C710708   2.939   4.685   9.373 -0.8245  0.3319 -0.1514
  724TMC3    C810709   2.481   4.536   9.396 -0.1317 -0.5751  0.1571
  724TMC3    O110710   2.958   4.594   9.455  0.0270 -0.1480  0.7428
  724TMC3    O210711   2.364   4.550   9.364  0.5395  0.4083  0.1395
  725TMC3    C110712   4.281   2.439  12.706  0.0304 -0.1913  0.3890
  725TMC3    C210713   4.202   2.425  12.594 -0.0965 -0.3490  0.6983
  725TMC3    C310714   4.252   2.341  12.497 -0.3235 -0.0780 -0.1932
  725TMC3    C410715   4.405   2.381  12.724  0.1372 -0.3707 -0.0380
  725TMC3    C510716   4.450   2.302  12.620  0.1481 -0.3624  0.0677
  725TMC3    C610717   4.366   2.269  12.519 -0.6949  0.4426  0.3841
  725TMC3     C10718   4.250   2.552  12.797 -0.1854 -0.1810  0.6417
  725TMC3     O10719   4.338   2.616  12.855 -0.2775 -0.1802  0.1761
  725TMC3     H10720   4.104   2.469  12.583  1.5325  2.8487 -1.3826
  725TMC3    H110721   4.465   2.401  12.812  1.3396 -0.8915 -0.7383
  725TMC3    H210722   4.391   2.188  12.452 -0.5133 -0.0855  1.0937
  725TMC3    C710723   4.563   2.212  12.642  0.6086 -0.3061  0.3581
  725TMC3    C810724   4.221   2.367  12.357 -0.1608 -0.5155 -0.2750
  725TMC3    O110725   4.588   2.189  12.757 -0.5637 -0.2710  0.5655
  725TMC3    O210726   4.249   2.274  12.283 -0.4156 -0.1834  0.7443
  726MPD2     C10727   2.531   4.566  10.419  0.5351  0.2011 -0.1984
  726MPD2    C110728   2.478   4.534  10.294 -0.4587 -0.3592  0.7312
  726MPD2    C210729   2.390   4.431  10.271  0.3592 -0.4872 -0.5406
  726MPD2    C310730   2.361   4.348  10.374 -0.0313  0.3190 -0.2027
  726MPD2    C410731   2.411   4.379  10.501 -0.7900  0.0806  0.3834
  726MPD2    C510732   2.493   4.488  10.525  0.2388  0.3306 -0.2515
  726MPD2     H10733   2.354   4.419  10.170  0.2328 -0.2886 -0.5194
  726MPD2    H110734   2.381   4.332  10.594 -0.9837  0.2286  0.3968
  726MPD2    H210735   2.600   4.649  10.430 -1.6103  2.2973 -2.6741
  726MPD2    H310736   2.532   4.502  10.625 -0.2825 -2.3567  0.3440
  726MPD2     N10737   2.265   4.248  10.364  0.6796 -0.2648 -0.1904
  726MPD2    H510738   2.262   4.175  10.435  0.1178 -0.7015 -0.6637
  726MPD2    N110739   2.487   4.626  10.186  0.3748 -0.5146  0.4780
  726MPD2    H710740   2.436   4.602  10.101  1.9439 -1.4718 -0.1775
  727TMC3    C110741   2.561   0.078  10.057 -0.2519  0.4832 -0.2289
  727TMC3    C210742   2.662   0.158  10.020  0.4479 -0.1134 -0.8391
  727TMC3    C310743   2.635   0.263   9.938  0.3367  0.1022  0.7052
  727TMC3    C410744   2.434   0.087  10.002 -0.1489 -0.0924 -0.0239
  727TMC3    C510745   2.418   0.186   9.913  0.2701 -0.2869 -0.0583
  727TMC3    C610746   2.512   0.279   9.885  0.2116 -0.0906 -0.1635
  727TMC3     C10747   2.581   0.001  10.174 -0.2924 -0.3638  0.1748
  727TMC3     O10748   2.675   0.031  10.247 -0.2633 -0.5000 -0.5323
  727TMC3     H10749   2.758   0.152  10.070  1.1318 -0.5283 -2.2067
  727TMC3    H110750   2.359   0.016  10.035  1.4711 -1.9586 -0.3492
  727TMC3    H210751   2.492   0.346   9.803  0.0058  2.8393  2.2754
  727TMC3    C710752   2.306   0.167   9.833 -0.3367  0.1997 -0.0746
  727TMC3    C810753   2.734   0.372   9.939 -0.5250 -0.0214  0.2885
  727TMC3    O110754   2.217   0.106   9.887  0.2293  0.7172  0.1187
  727TMC3    O210755   2.852   0.338   9.956  0.5921  0.2760 -0.3405
  728TMC3    C110756   1.583   3.086  15.734  0.2886 -0.0982  0.5211
  728TMC3    C210757   1.645   3.199  15.783 -0.3801 -0.1560  0.0833
  728TMC3    C310758   1.681   3.299  15.691 -0.1643  0.2091  0.4930
  728TMC3    C410759   1.541   3.073  15.603 -0.7333 -0.3306  0.7844
  728TMC3    C510760   1.585   3.171  15.515 -0.0002 -0.2170  0.6339
  728TMC3    C610761   1.664   3.281  15.558 -0.1655  0.2028 -0.6060
  728TMC3     C10762   1.516   3.006  15.830 -0.1038 -0.3937  0.4870
  728TMC3     O10763   1.566   3.004  15.940 -0.6027 -0.0822 -0.7669
  728TMC3     H10764   1.671   3.211  15.888 -1.3638  1.9067  0.0938
  728TMC3    H110765   1.489   2.988  15.559 -0.2162 -0.5330  0.5625
  728TMC3    H210766   1.718   3.335  15.481  0.6965  0.5699  0.2551
  728TMC3    C710767   1.540   3.160  15.382  0.0609  0.3167 -0.5852
  728TMC3    C810768   1.766   3.411  15.724 -0.2332 -0.4386  0.2096
  728TMC3    O110769   1.475   3.064  15.344  0.0156 -0.4624  0.2577
  728TMC3    O210770   1.839   3.448  15.632 -0.6143  0.6188 -0.2070
  729MPD2     C10771   3.780   3.563  16.646  0.1108 -0.2412  0.3192
  729MPD2    C110772   3.754   3.696  16.642 -0.6188 -0.0669  0.0363
  729MPD2    C210773   3.736   3.768  16.762  0.1021  0.2321 -0.2885
  729MPD2    C310774   3.735   3.697  16.883  0.1034  0.3272 -0.3143
  729MPD2    C410775   3.741   3.557  16.882  0.1194  0.7745  0.1292
  729MPD2    C510776   3.763   3.497  16.767 -0.2947 -0.1630 -0.2656
  729MPD2     H10777   3.705   3.872  16.759 -0.7791 -0.0849 -2.9508
  729MPD2    H110778   3.719   3.502  16.973  0.4376  0.3738 -0.0353
  729MPD2    H210779   3.822   3.515  16.559 -3.5931 -1.7501 -0.6596
  729MPD2    H310780   3.772   3.389  16.770 -0.0427 -0.1697 -1.6719
  729MPD2     N10781   3.720   3.773  17.001  0.6250  0.1554 -0.1518
  729MPD2    H510782   3.757   3.725  17.083  1.5030  1.1091  0.0155
  729MPD2    N110783   3.759   3.760  16.514 -0.4506 -0.2967  0.4259
  729MPD2    H710784   3.792   3.700  16.439 -0.4329 -0.4021  0.5170
  730TMC3    C110785   3.687   3.959  17.138  0.1915  0.2457 -0.3582
  730TMC3    C210786   3.819   3.997  17.158  0.2209 -0.0084 -0.2549
  730TMC3    C310787   3.845   4.119  17.224  0.2086 -0.3489  0.6187
  730TMC3    C410788   3.578   4.044  17.164  0.0772  0.2488 -0.6473
  730TMC3    C510789   3.608   4.165  17.237 -0.7498 -0.3010 -0.2219
  730TMC3    C610790   3.736   4.196  17.275  0.7748 -0.1409  0.1501
  730TMC3     C10791   3.662   3.897  17.012  0.1177 -0.2631 -0.0625
  730TMC3     O10792   3.570   3.937  16.941 -0.5181 -0.0061 -0.1270
  730TMC3     H10793   3.904   3.935  17.133 -0.6881 -0.4422 -2.3097
  730TMC3    H110794   3.472   4.032  17.143 -0.1087 -1.1995  1.0634
  730TMC3    H210795   3.749   4.295  17.318 -0.8167  0.0252  0.2409
  730TMC3    C710796   3.512   4.275  17.212  0.6071  0.2702  0.4572
  730TMC3    C810797   3.937   4.197  17.143  0.9475  0.1206 -0.6815
  730TMC3    O110798   3.442   4.268  17.108 -0.2001  0.3797  0.2218
  730TMC3    O210799   3.933   4.168  17.022 -0.1653  0.7374 -0.0998
  731MPD2     C10800   3.663   1.484  12.049  0.0031  0.8813 -0.8040
  731MPD2    C110801   3.781   1.548  12.092  0.6544  0.4269 -0.0473
  731MPD2    C210802   3.801   1.566  12.231  0.2106  0.1401 -0.0043
  731MPD2    C310803   3.710   1.517  12.325 -0.6036  0.0750  0.1042
  731MPD2    C410804   3.609   1.433  12.277 -0.1211 -0.1050 -0.8573
  731MPD2    C510805   3.579   1.432  12.145 -0.4205 -0.2590 -0.2456
  731MPD2     H10806   3.886   1.625  12.266  1.0951 -1.9310  1.3492
  731MPD2    H110807   3.529   1.398  12.341  2.4384  0.8957  2.8866
  731MPD2    H210808   3.630   1.486  11.946 -2.5708 -1.1309 -0.0354
  731MPD2    H310809   3.481   1.402  12.112  0.4810 -0.9861 -2.2965
  731MPD2     N10810   3.724   1.551  12.458  0.1381 -0.7155  0.1349
  731MPD2    H510811   3.784   1.632  12.472 -0.9205 -0.2078  1.6283
  731MPD2    N110812   3.865   1.595  11.990 -0.1078  0.8710  0.6774
  731MPD2    H710813   3.833   1.566  11.898  2.5017  1.5750 -0.4294
  732TMC3    C110814   4.021   1.721  11.874 -0.0712  0.5359 -0.9352
  732TMC3    C210815   3.943   1.719  11.764 -0.2993  0.7239  0.2607
  732TMC3    C310816   3.992   1.749  11.643  0.5196 -0.3140 -0.5111
  732TMC3    C410817   4.154   1.745  11.862  0.4846 -0.0194 -0.8435
  732TMC3    C510818   4.202   1.786  11.742  0.3978  0.1397  1.2532
  732TMC3    C610819   4.124   1.782  11.635 -0.2968  0.2898 -0.3609
  732TMC3     C10820   3.972   1.674  12.004  0.3514 -0.1136  0.0129
  732TMC3     O10821   4.034   1.702  12.104  0.0029 -0.7595  0.0534
  732TMC3     H10822   3.837   1.696  11.773 -0.3319  0.6821 -0.2405
  732TMC3    H110823   4.213   1.750  11.953 -0.0358  1.0580 -0.5643
  732TMC3    H210824   4.160   1.807  11.535  1.1261 -0.0391  0.0687
  732TMC3    C710825   4.337   1.841  11.728  0.2873 -0.8272  0.4175
  732TMC3    C810826   3.896   1.759  11.534  0.0947 -0.4569 -0.3009
  732TMC3    O110827   4.415   1.799  11.815  0.9416  0.1001 -0.4416
  732TMC3    O210828   3.932   1.729  11.421 -0.1854 -0.4210 -0.1825
  733TMC3    C110829   0.414   0.771  13.277  0.2424  0.7043  0.1297
  733TMC3    C210830   0.459   0.893  13.233 -0.5506  0.0767  0.3426
  733TMC3    C310831   0.548   0.895  13.125  1.0398 -0.4090 -0.2966
  733TMC3    C410832   0.456   0.654  13.212  0.1000 -0.7980 -1.1670
  733TMC3    C510833   0.526   0.666  13.086  0.0797  0.0325 -0.1147
  733TMC3    C610834   0.578   0.784  13.055  0.1348  0.4751 -0.0937
  733TMC3     C10835   0.279   0.773  13.336  0.4353 -0.3621  0.7163
  733TMC3     O10836   0.196   0.848  13.285 -0.3727  0.3616 -0.2392
  733TMC3     H10837   0.429   0.984  13.284 -1.2797 -0.5018  0.9486
  733TMC3    H110838   0.407   0.560  13.233  1.2037 -1.2437 -0.5977
  733TMC3    H210839   0.650   0.786  12.974 -1.2698 -0.7918 -1.3600
  733TMC3    C710840   0.459   0.614  12.965  0.2349 -0.1052 -0.6634
  733TMC3    C810841   0.506   1.011  13.045  0.2125  0.4985  0.0149
  733TMC3    O110842   0.442   0.698  12.875 -0.9809  1.0023  0.4160
  733TMC3    O210843   0.533   1.120  13.090 -0.1073  0.3209  0.6640
  734MPD2     C10844   1.938   2.627  12.657  0.1938  0.1301  0.1699
  734MPD2    C110845   1.865   2.590  12.548 -0.0900  0.1620 -0.5403
  734MPD2    C210846   1.874   2.667  12.435 -0.3106 -0.3751  0.3008
  734MPD2    C310847   1.949   2.783  12.428 -0.5085  0.1554  0.0449
  734MPD2    C410848   2.021   2.815  12.537 -0.1352  0.1463 -0.3294
  734MPD2    C510849   2.004   2.751  12.654  0.2105  0.2708 -0.4639
  734MPD2     H10850   1.828   2.630  12.344  0.5289 -0.6999  0.0172
  734MPD2    H110851   2.084   2.904  12.545 -1.0934  0.8837 -1.0877
  734MPD2    H210852   1.935   2.567  12.747  1.4036 -0.5826 -0.2639
  734MPD2    H310853   2.054   2.783  12.744 -2.6199  0.7803  0.9477
  734MPD2     N10854   1.965   2.848  12.301 -0.4267 -0.8599  0.3839
  734MPD2    H510855   1.920   2.805  12.221  0.6400 -1.1932 -0.0282
  734MPD2    N110856   1.784   2.474  12.555 -0.0589 -0.5331 -0.4329
  734MPD2    H710857   1.780   2.429  12.646  1.7727 -0.4502 -0.3160
  735TMC3    C110858   1.659   2.289  12.472  0.0596  0.3973 -0.1298
  735TMC3    C210859   1.574   2.261  12.363 -0.2459  0.1421  0.0063
  735TMC3    C310860   1.583   2.142  12.294 -0.4514 -0.1376  0.1688
  735TMC3    C410861   1.761   2.204  12.492 -0.5198 -0.3135  0.4922
  735TMC3    C510862   1.766   2.090  12.420 -0.1296 -0.0702  0.4812
  735TMC3    C610863   1.668   2.043  12.337 -0.2705  0.0819 -0.1325
  735TMC3     C10864   1.697   2.426  12.460 -0.4812 -0.5044 -0.3097
  735TMC3     O10865   1.683   2.467  12.347 -0.4128  0.3700 -0.4245
  735TMC3     H10866   1.498   2.332  12.334 -1.5816 -1.0510  0.5707
  735TMC3    H110867   1.827   2.219  12.576 -1.5686  0.5135  1.1764
  735TMC3    H210868   1.687   1.949  12.286  0.7801  1.8564 -2.9811
  735TMC3    C710869   1.892   2.033  12.398 -0.7741 -0.5135 -0.1842
  735TMC3    C810870   1.606   2.166  12.150 -0.7606  0.7366  0.4287
  735TMC3    O110871   1.985   2.107  12.412  0.0198 -0.6208  0.3697
  735TMC3    O210872   1.645   2.070  12.085 -0.4802 -0.4127 -0.0674
  736MPD2     C10873   1.991   1.679  12.359  0.1413 -0.2436 -0.1482
  736MPD2    C110874   1.991   1.821  12.339  0.4266 -0.6000 -0.1564
  736MPD2    C210875   2.095   1.876  12.266  0.3848 -0.1075  0.8287
  736MPD2    C310876   2.191   1.789  12.207 -0.9943 -0.2943  1.2712
  736MPD2    C410877   2.193   1.655  12.230 -0.5335  0.6605  0.3795
  736MPD2    C510878   2.093   1.597  12.306 -0.4265  0.2301  0.4000
  736MPD2     H10879   2.108   1.984  12.257 -0.7937  0.1912  2.7236
  736MPD2    H110880   2.263   1.585  12.186 -0.3439  1.7568 -1.0597
  736MPD2    H210881   1.914   1.626  12.415 -1.0361  2.1180  0.5008
  736MPD2    H310882   2.088   1.491  12.329 -0.2759  0.0564 -0.3666
  736MPD2     N10883   2.296   1.842  12.124  0.1902  0.1222 -0.8443
  736MPD2    H510884   2.365   1.779  12.085  1.3614  1.8035 -1.5359
  736MPD2    N110885   1.886   1.900  12.394 -0.2343 -0.2691 -0.8352
  736MPD2    H710886   1.806   1.856  12.438  0.6563  0.4671  1.5431
  737TMC3    C110887   2.383   1.985  11.953  0.7455 -0.5830 -0.1459
  737TMC3    C210888   2.395   2.112  11.908 -0.2224 -0.0056 -0.0668
  737TMC3    C310889   2.463   2.137  11.790 -0.3080  0.1990  0.3310
  737TMC3    C410890   2.436   1.881  11.880  0.6110  0.6385 -0.5401
  737TMC3    C510891   2.510   1.914  11.770  0.4017 -0.0400 -0.2305
  737TMC3    C610892   2.524   2.038  11.717  0.2908 -0.1975  0.7388
  737TMC3     C10893   2.318   1.973  12.086 -0.0968  0.1307 -0.1467
  737TMC3     O10894   2.256   2.072  12.121 -0.5929  0.1522  0.4967
  737TMC3     H10895   2.367   2.199  11.966  0.6531 -0.2533  0.7180
  737TMC3    H110896   2.418   1.775  11.899 -0.9702  1.1280  0.7261
  737TMC3    H210897   2.592   2.059  11.635  0.6831  0.5743  1.2538
  737TMC3    C710898   2.557   1.809  11.681 -0.2283  0.6338 -0.0158
  737TMC3    C810899   2.458   2.271  11.733  0.5060  0.5681 -0.9632
  737TMC3    O110900   2.476   1.731  11.633 -0.1681 -0.1261 -0.2241
  737TMC3    O210901   2.442   2.366  11.808  0.0487 -0.3065  0.0538
  738MPD2     C10902   2.539   1.488  15.419  0.1379  0.1882 -0.2007
  738MPD2    C110903   2.582   1.420  15.314  0.2773 -0.4694  0.3383
  738MPD2    C210904   2.660   1.478  15.217  0.1249 -0.6417 -0.6331
  738MPD2    C310905   2.707   1.608  15.241 -0.5324  0.4540  1.1992
  738MPD2    C410906   2.667   1.679  15.353  0.3961  0.0225  0.2420
  738MPD2    C510907   2.587   1.613  15.440 -0.3078  0.4702 -0.5612
  738MPD2     H10908   2.692   1.431  15.125 -0.9865 -0.8784 -0.8960
  738MPD2    H110909   2.688   1.784  15.370  0.9597  0.2252 -1.7265
  738MPD2    H210910   2.478   1.440  15.495  0.0350  1.5380  0.5868
  738MPD2    H310911   2.553   1.668  15.527 -1.7777  0.2253 -0.9945
  738MPD2     N10912   2.796   1.672  15.153  0.2530  0.3239 -0.2354
  738MPD2    H510913   2.834   1.756  15.196 -0.8709 -0.0670  1.5489
  738MPD2    N110914   2.540   1.288  15.291  0.3804 -0.0131  0.0086
  738MPD2    H710915   2.565   1.258  15.198  1.6411 -2.9987  1.3325
  739TMC3    C110916   2.896   1.728  14.938  0.2686  0.2737  0.1504
  739TMC3    C210917   2.909   1.703  14.802 -0.5121  0.0893 -0.4721
  739TMC3    C310918   2.944   1.805  14.722 -0.0254  0.3693  0.1152
  739TMC3    C410919   2.926   1.852  14.989  0.1206  0.0690 -0.3438
  739TMC3    C510920   2.963   1.952  14.909 -0.8839 -0.1603  0.0141
  739TMC3    C610921   2.957   1.934  14.769 -0.3551 -0.1541  0.1733
  739TMC3     C10922   2.834   1.628  15.028 -0.8750  0.2205  1.1406
  739TMC3     O10923   2.808   1.519  14.971  0.1258 -0.3117  0.0308
  739TMC3     H10924   2.889   1.607  14.755  0.6374 -0.2876 -0.1954
  739TMC3    H110925   2.922   1.863  15.097  2.3825 -0.8931 -0.1615
  739TMC3    H210926   2.998   2.003  14.696 -1.0177  1.1803  1.0645
  739TMC3    C710927   2.999   2.084  14.968  0.1880 -1.0354  0.3890
  739TMC3    C810928   2.967   1.783  14.579  0.6152 -0.5491  0.5411
  739TMC3    O110929   2.972   2.112  15.083  0.3708  0.1517 -0.4788
  739TMC3    O210930   2.941   1.876  14.502 -0.3423  0.5920  0.3077
  740TMC3    C110931   3.106   2.774  14.380 -0.8590 -0.0112  1.5639
  740TMC3    C210932   3.231   2.765  14.331 -0.4340 -0.1803  0.3355
  740TMC3    C310933   3.244   2.761  14.197  0.1611  0.4026 -0.2929
  740TMC3    C410934   2.998   2.810  14.299 -0.1306 -1.0238  0.4000
  740TMC3    C510935   3.023   2.818  14.162 -0.3975 -0.8449  0.2900
  740TMC3    C610936   3.141   2.782  14.110  0.0004 -0.2512 -0.0255
  740TMC3     C10937   3.096   2.818  14.516  0.6523  0.7737 -0.7995
  740TMC3     O10938   3.156   2.917  14.549  0.3004  0.0596 -0.2231
  740TMC3     H10939   3.308   2.758  14.408 -1.5491 -0.6353  1.4131
  740TMC3    H110940   2.902   2.845  14.333  0.6074  2.9548 -1.6778
  740TMC3    H210941   3.155   2.768  14.004 -0.6810 -0.9669 -0.0153
  740TMC3    C710942   2.918   2.864  14.075  0.3108 -0.3877  0.1797
  740TMC3    C810943   3.376   2.760  14.139  0.3804 -0.0156  0.5781
  740TMC3    O110944   2.812   2.901  14.122  0.3777  0.0674  0.2993
  740TMC3    O210945   3.381   2.800  14.023  0.0122  0.0936 -0.1107
  741TMC3    C110946   3.152   2.033  14.125  0.2867 -0.8067 -0.3237
  741TMC3    C210947   3.016   2.079  14.116  0.2724  0.5722 -0.0903
  741TMC3    C310948   2.961   2.106  14.237  0.1077  0.3711  0.3162
  741TMC3    C410949   3.227   2.037  14.237 -0.0783  0.9283 -0.2019
  741TMC3    C510950   3.158   2.058  14.356 -0.1584 -0.1335 -0.2130
  741TMC3    C610951   3.027   2.102  14.355 -0.6630 -0.7064 -0.4097
  741TMC3     C10952   3.227   1.995  14.008 -0.3078 -0.9844  0.6715
  741TMC3     O10953   3.309   1.901  14.010  0.3809 -0.0127  0.0559
  741TMC3     H10954   2.956   2.075  14.025  0.6072  1.4037 -0.3427
  741TMC3    H110955   3.327   1.995  14.228 -0.7705 -0.9277  0.8219
  741TMC3    H210956   2.980   2.117  14.452 -2.1113 -0.3400 -1.1731
  741TMC3    C710957   3.228   2.088  14.484 -0.0700  0.1505  0.2675
  741TMC3    C810958   2.817   2.097  14.231 -0.2121 -0.1124 -0.2576
  741TMC3    O110959   3.158   2.114  14.585 -0.8990 -0.0985 -0.4930
  741TMC3    O210960   2.768   2.146  14.129 -0.4272  0.1365  0.3231
  742TMC3    C110961   3.332   0.515  15.648 -0.0876 -0.7101 -0.0406
  742TMC3    C210962   3.260   0.563  15.542 -0.0476  0.0232 -0.3618
  742TMC3    C310963   3.326   0.551  15.423  0.7084  0.7730 -0.0162
  742TMC3    C410964   3.436   0.427  15.642  0.1985  0.1902 -0.9419
  742TMC3    C510965   3.478   0.398  15.512  0.5687  0.1691 -0.0235
  742TMC3    C610966   3.429   0.459  15.399  0.5061 -0.2646 -0.3578
  742TMC3     C10967   3.296   0.567  15.778 -0.0258  0.1633  0.6741
  742TMC3     O10968   3.383   0.569  15.866  0.4360 -0.8988  0.2922
  742TMC3     H10969   3.174   0.627  15.555 -1.2226 -1.6353  0.1133
  742TMC3    H110970   3.476   0.390  15.736  0.1439 -1.6570 -1.6631
  742TMC3    H210971   3.483   0.441  15.307  1.2221  0.8676 -0.1485
  742TMC3    C710972   3.580   0.298  15.484  0.6393 -0.2621 -0.5373
  742TMC3    C810973   3.247   0.574  15.307  0.4279 -0.9180 -0.2075
  742TMC3    O110974   3.642   0.303  15.381  0.3468  0.1526 -0.0025
  742TMC3    O210975   3.283   0.504  15.211  0.5063  0.4167 -0.0009
  743MPD2     C10976   1.433   1.607   2.473 -1.0280  0.8321 -0.8200
  743MPD2    C110977   1.435   1.549   2.349 -0.0472  0.5683  0.3085
  743MPD2    C210978   1.555   1.487   2.310 -0.7581  0.1007 -0.9186
  743MPD2    C310979   1.673   1.504   2.383 -0.0519  0.6425 -0.2364
  743MPD2    C410980   1.657   1.552   2.506  0.5910 -0.3103 -0.0160
  743MPD2    C510981   1.543   1.607   2.548 -0.6215 -0.0810  0.3242
  743MPD2     H10982   1.567   1.437   2.214 -0.0168 -1.4113 -0.0383
  743MPD2    H110983   1.741   1.543   2.575 -0.4557 -2.7291  0.9454
  743MPD2    H210984   1.340   1.649   2.510 -1.9862 -1.3114 -0.8197
  743MPD2    H310985   1.532   1.651   2.647 -0.3269  0.2832  0.1942
  743MPD2     N10986   1.792   1.450   2.325  0.2775 -0.2960  0.2389
  743MPD2    H510987   1.779   1.410   2.233  0.5542  0.7251 -0.2425
  743MPD2    N110988   1.326   1.559   2.266  0.7772 -0.6063  0.1144
  743MPD2    H710989   1.250   1.611   2.308  0.4856 -1.6290  0.8521
  744TMC3    C110990   1.178   1.526   2.074 -0.0916  0.0393 -0.7673
  744TMC3    C210991   1.074   1.587   2.142  0.0799 -0.3439 -0.2579
  744TMC3    C310992   0.962   1.605   2.069  0.7814  0.4741  0.1166
  744TMC3    C410993   1.167   1.475   1.945 -0.3574  0.2899 -0.1165
  744TMC3    C510994   1.050   1.501   1.880 -0.3509 -0.4185 -0.2489
  744TMC3    C610995   0.950   1.563   1.938  0.3369 -0.3754  0.0849
  744TMC3     C10996   1.304   1.499   2.140 -0.9376 -0.0942 -0.7676
  744TMC3     O10997   1.380   1.441   2.063  0.2931 -0.1304 -0.4474
  744TMC3     H10998   1.095   1.634   2.237  0.8963 -0.9378 -0.1411
  744TMC3    H110999   1.235   1.405   1.899 -0.1121  0.5899 -0.2174
  744TMC3    H211000   0.860   1.579   1.881  0.4878 -0.6751 -0.2373
  744TMC3    C711001   1.012   1.417   1.773  0.3538 -0.2967  0.4526
  744TMC3    C811002   0.871   1.706   2.112  0.2330  0.0605 -0.8431
  744TMC3    O111003   0.894   1.390   1.770 -0.8916 -0.0963  0.0742
  744TMC3    O211004   0.816   1.774   2.029  0.0137  0.4553  0.2982
  745TMC3    C111005   3.918   0.324  13.712 -0.2205  0.5231  0.6735
  745TMC3    C211006   3.838   0.286  13.813 -0.2948  0.3036  0.1864
  745TMC3    C311007   3.728   0.204  13.779  0.5604  0.3057  0.6707
  745TMC3    C411008   3.899   0.291  13.582  0.4547  0.2869  0.0882
  745TMC3    C511009   3.792   0.207  13.550 -0.3586 -0.4860 -0.6619
  745TMC3    C611010   3.712   0.157  13.652 -0.1644  0.4005 -0.3749
  745TMC3     C11011   4.017   0.427  13.741 -0.7690 -0.3712 -0.4285
  745TMC3     O11012   4.086   0.415  13.842 -0.2492 -0.1911 -0.4063
  745TMC3     H11013   3.857   0.325  13.912 -2.7717 -1.9662  1.5708
  745TMC3    H111014   3.962   0.339  13.508  0.6722 -0.3990 -0.1762
  745TMC3    H211015   3.629   0.093  13.625  0.9063 -1.1263 -0.0875
  745TMC3    C711016   3.753   0.171  13.416  0.0317  0.2921  0.0280
  745TMC3    C811017   3.610   0.207  13.856  0.1737 -0.3260  0.5661
  745TMC3    O111018   3.656   0.097  13.393  0.1977  0.3675 -0.0014
  745TMC3    O211019   3.508   0.181  13.791  0.1944 -0.2342 -0.4948
  746TMC3    C111020   1.109   1.897  10.687  1.0616 -0.2988  0.5538
  746TMC3    C211021   1.194   1.823  10.607  0.7280  0.4984 -0.0503
  746TMC3    C311022   1.191   1.681  10.617 -0.0894 -0.3349 -0.5749
  746TMC3    C411023   1.042   1.831  10.788 -0.1505  0.1506  1.0156
  746TMC3    C511024   1.037   1.700  10.791 -1.6034  0.0558  0.4697
  746TMC3    C611025   1.111   1.621  10.710 -0.6957 -0.1919  0.1346
  746TMC3     C11026   1.118   2.046  10.705 -0.1268 -0.1412 -0.1288
  746TMC3     O11027   1.048   2.099  10.790 -0.4196  0.5671 -0.3034
  746TMC3     H11028   1.247   1.863  10.522  0.6875  3.1802  1.1975
  746TMC3    H111029   0.983   1.894  10.853  1.1330  1.7792  0.6371
  746TMC3    H211030   1.097   1.514  10.706  2.2207 -0.5772  0.0997
  746TMC3    C711031   0.908   1.654  10.825 -0.2144  0.5951 -0.5080
  746TMC3    C811032   1.282   1.594  10.535 -0.0078 -0.1963  0.0878
  746TMC3    O111033   0.812   1.732  10.820  0.3634  0.3890  0.5058
  746TMC3    O211034   1.262   1.475  10.541 -0.1832  0.1370  0.2625
  747TMC3    C111035   3.219   2.216  10.977 -0.1474  0.8422 -0.1324
  747TMC3    C211036   3.110   2.136  11.007  0.1519  0.2771  0.4927
  747TMC3    C311037   3.100   2.084  11.135  0.1808 -0.0646  0.7734
  747TMC3    C411038   3.314   2.246  11.072 -0.4635  0.5625 -0.0369
  747TMC3    C511039   3.301   2.187  11.194 -0.6643 -0.0034  0.4843
  747TMC3    C611040   3.199   2.104  11.229 -0.3206  0.1261  0.2517
  747TMC3     C11041   3.215   2.288  10.851 -0.5280 -0.5542  0.4261
  747TMC3     O11042   3.272   2.393  10.856  0.2999  0.0236  0.4312
  747TMC3     H11043   3.030   2.114  10.937 -0.7451  1.6758  1.0787
  747TMC3    H111044   3.400   2.309  11.052  0.3433 -0.2985  0.7594
  747TMC3    H211045   3.200   2.040  11.317 -0.5389 -2.0209 -1.3127
  747TMC3    C711046   3.427   2.162  11.269  0.9246 -0.3124  0.1845
  747TMC3    C811047   3.016   1.970  11.139 -0.4462 -0.2248  0.1694
  747TMC3    O111048   3.424   2.187  11.389  0.3920 -0.5555  0.7010
  747TMC3    O211049   2.970   1.915  11.038 -0.3363  0.5025 -0.2821
  748MPD2     C11050   0.080   2.305   2.673 -1.0800 -0.1275 -0.2729
  748MPD2    C111051   0.016   2.398   2.589  0.3285 -0.8523 -0.7954
  748MPD2    C211052   0.093   2.477   2.501 -0.3443 -0.3889 -0.7121
  748MPD2    C311053   0.230   2.452   2.484  0.1199 -0.2337 -0.1961
  748MPD2    C411054   0.287   2.350   2.563  0.3185 -1.0773 -0.4774
  748MPD2    C511055   0.216   2.290   2.666 -0.2764  0.2255 -0.0117
  748MPD2     H11056   0.041   2.549   2.439  0.6881 -0.3657 -1.5465
  748MPD2    H111057   0.394   2.331   2.573  0.3940 -0.5323 -0.2555
  748MPD2    H211058   0.023   2.245   2.743  0.2843 -1.5289 -0.3536
  748MPD2    H311059   0.260   2.226   2.742 -1.8403  0.2196  0.8878
  748MPD2     N11060   0.321   2.521   2.401 -0.2284 -0.9981 -0.6911
  748MPD2    H511061   0.415   2.483   2.394 -0.2478 -0.8504 -1.7393
  748MPD2    N111062   4.603   2.409   2.601  0.4307  0.4137 -0.4465
  748MPD2    H711063   4.562   2.347   2.671 -1.3488 -0.2179 -2.0479
  749TMC3    C111064   0.388   2.660   2.234 -0.6936 -0.0035 -0.4856
  749TMC3    C211065   0.518   2.648   2.287 -0.0284  0.0096  0.5159
  749TMC3    C311066   0.624   2.642   2.197  0.2083 -0.2002  0.1027
  749TMC3    C411067   0.368   2.671   2.099 -0.6583 -0.5022 -0.3159
  749TMC3    C511068   0.474   2.674   2.013 -0.1517 -0.8285  1.1161
  749TMC3    C611069   0.603   2.650   2.060  0.1688  0.1167  0.6470
  749TMC3     C11070   0.278   2.624   2.319 -0.4686 -0.0060  0.3727
  749TMC3     O11071   0.169   2.675   2.310  0.2472 -0.0891 -0.1484
  749TMC3     H11072   0.534   2.627   2.392  0.5447  0.7297  0.5735
  749TMC3    H111073   0.267   2.681   2.062  0.7264 -1.9064 -4.4092
  749TMC3    H211074   0.687   2.677   1.998  1.1757  0.9606  2.3900
  749TMC3    C711075   0.449   2.687   1.874 -0.8119  0.6427  0.1058
  749TMC3    C811076   0.759   2.649   2.249 -0.5377  0.5899  0.0165
  749TMC3    O111077   0.347   2.751   1.843  0.4498 -0.5889 -0.1643
  749TMC3    O211078   0.770   2.686   2.364 -0.9455 -0.0541  0.3070
  750MPD2     C11079   1.521   4.070  10.976  0.0915 -0.0787  0.5079
  750MPD2    C111080   1.405   4.004  11.005 -1.3053  0.8574  0.2449
  750MPD2    C211081   1.371   3.883  10.939 -0.1677  0.4733  0.4337
  750MPD2    C311082   1.452   3.825  10.843 -0.4064  0.1756  0.3130
  750MPD2    C411083   1.568   3.899  10.811 -0.4619 -0.1086 -0.1655
  750MPD2    C511084   1.599   4.015  10.876  0.4880  0.7378 -0.3311
  750MPD2     H11085   1.281   3.828  10.965 -0.3374  0.0765 -1.0207
  750MPD2    H111086   1.644   3.865  10.742 -0.9426 -1.6425  0.0518
  750MPD2    H211087   1.563   4.156  11.027  0.6107 -0.2427  0.3505
  750MPD2    H311088   1.687   4.072  10.849  1.5831 -0.4991  0.6609
  750MPD2     N11089   1.417   3.714  10.761 -0.3188  0.2375  0.3032
  750MPD2    H511090   1.492   3.680  10.700 -0.2349 -0.9406  1.0660
  750MPD2    N111091   1.326   4.056  11.109  0.2158 -0.4783  0.2542
  750MPD2    H711092   1.364   4.143  11.145 -2.2687  0.2606  1.1249
  751TMC3    C111093   1.297   3.534  10.681 -0.0244 -0.7183  0.0923
  751TMC3    C211094   1.178   3.471  10.673 -1.0330 -0.5265 -0.4893
  751TMC3    C311095   1.174   3.346  10.623  0.0707  0.2161 -0.2732
  751TMC3    C411096   1.416   3.468  10.641 -0.2983  0.4705 -0.0829
  751TMC3    C511097   1.408   3.342  10.582 -0.0090 -0.6434 -0.8092
  751TMC3    C611098   1.284   3.282  10.565 -0.1729  0.1889 -0.2132
  751TMC3     C11099   1.292   3.657  10.758 -0.6873 -0.0488 -0.0859
  751TMC3     O11100   1.183   3.697  10.805  0.6867  0.1841 -0.5172
  751TMC3     H11101   1.090   3.518  10.716 -0.9679 -1.0581  0.2228
  751TMC3    H111102   1.513   3.516  10.644 -1.0183  1.6722  4.0999
  751TMC3    H211103   1.282   3.182  10.524  0.0277 -1.0694  2.8046
  751TMC3    C711104   1.530   3.268  10.553  0.3749 -0.5656  0.8393
  751TMC3    C811105   1.051   3.271  10.609  0.0437  0.4623  0.1608
  751TMC3    O111106   1.635   3.324  10.567 -0.3416 -0.0376 -0.3176
  751TMC3    O211107   1.051   3.168  10.542 -0.0502  0.2857 -0.1921
  752TMC3    C111108   4.425   4.115  16.988 -0.2924  0.1833  0.3122
  752TMC3    C211109   4.326   4.041  17.047 -0.2051 -0.1906 -0.2071
  752TMC3    C311110   4.289   4.055  17.178 -0.0334 -0.9056  0.0383
  752TMC3    C411111   4.505   4.197  17.066 -0.0957 -0.6148 -0.1397
  752TMC3    C511112   4.487   4.198  17.198  0.7425 -0.5772  0.6297
  752TMC3    C611113   4.372   4.137  17.257 -0.3880 -0.2710  0.1016
  752TMC3     C11114   4.469   4.093  16.850 -0.3552 -0.3403  0.4242
  752TMC3     O11115   4.589   4.085  16.830  0.4294  0.3377 -0.2779
  752TMC3     H11116   4.264   3.971  16.992 -1.8408  1.8240 -0.8984
  752TMC3    H111117   4.584   4.254  17.019  1.4777 -0.3813  2.7875
  752TMC3    H211118   4.351   4.159  17.361 -1.1606  0.4383 -0.2127
  752TMC3    C711119   4.585   4.277  17.271 -0.6791 -0.2546 -0.5555
  752TMC3    C811120   4.191   3.965  17.242  0.2748 -0.3695  0.3713
  752TMC3    O111121   4.646   4.367  17.214 -0.5778 -0.2703 -0.0867
  752TMC3    O211122   4.132   3.881  17.171  0.2103 -0.0139  0.1961
  753TMC3    C111123   1.962   0.084  13.716  0.3276  0.0387  0.4740
  753TMC3    C211124   2.060   0.119  13.799  0.1014 -0.1126  0.2705
  753TMC3    C311125   2.081   0.040  13.905  0.5764  0.3533  0.1107
  753TMC3    C411126   1.875   4.710  13.744  0.0814  0.7018 -0.1250
  753TMC3    C511127   1.891   4.640  13.860 -0.0806 -0.0726  0.4403
  753TMC3    C611128   1.997   4.665  13.945 -0.8065  0.0022  0.0607
  753TMC3     C11129   1.951   0.167  13.603  0.4150  0.1042  0.4280
  753TMC3     O11130   1.840   0.201  13.572 -0.2150 -0.1692  0.2618
  753TMC3     H11131   2.120   0.207  13.778 -0.1840 -0.3038 -1.3440
  753TMC3    H111132   1.802   4.687  13.667  1.2519  1.0330 -1.3297
  753TMC3    H211133   2.022   4.602  14.030 -0.1835 -0.1467 -0.2293
  753TMC3    C711134   1.804   4.532  13.889  0.5565  0.4138  0.1912
  753TMC3    C811135   2.168   0.084  14.006  0.4493 -0.4743 -0.4614
  753TMC3    O111136   1.838   4.437  13.958  0.4927 -0.4019  0.1979
  753TMC3    O211137   2.214   4.724  14.082  0.3732  0.4857  0.0837
  754MPD2     C11138   0.098   3.649  12.753  0.1548  0.0569 -0.5752
  754MPD2    C111139   0.085   3.534  12.829  0.2068 -0.9289 -0.2287
  754MPD2    C211140   4.679   3.490  12.847  0.2968 -0.1983  0.3622
  754MPD2    C311141   4.562   3.553  12.796 -0.5561 -0.0602  0.2248
  754MPD2    C411142   4.582   3.670  12.725 -0.2901 -0.9011  0.2014
  754MPD2    C511143   4.714   3.706  12.700 -0.0343  0.2455 -0.1415
  754MPD2     H11144   4.664   3.402  12.909  1.4246 -0.4368  0.3063
  754MPD2    H111145   4.495   3.728  12.693  1.7214  2.2990  0.5495
  754MPD2    H211146   0.195   3.681  12.718  0.9496 -2.5428 -0.7826
  754MPD2    H311147   0.008   3.790  12.635 -1.7656  2.4188  2.1633
  754MPD2     N11148   4.429   3.518  12.819 -0.0393 -0.3624  0.4425
  754MPD2    H511149   4.363   3.593  12.798  0.5141  0.1269  0.4410
  754MPD2    N111150   0.184   3.465  12.893 -0.1597 -0.3126  0.6430
  754MPD2    H711151   0.163   3.393  12.961  1.0677 -0.8815  0.4243
  755MPD2     C11152   3.685   3.889  13.366  0.0996 -0.1748 -0.2187
  755MPD2    C111153   3.826   3.891  13.366  0.1429  1.1478 -0.6805
  755MPD2    C211154   3.899   3.801  13.288  0.1269  0.4272 -0.4706
  755MPD2    C311155   3.836   3.717  13.199 -0.3284  0.8276 -0.3455
  755MPD2    C411156   3.700   3.728  13.187 -0.0283  0.0102  0.1341
  755MPD2    C511157   3.629   3.808  13.274 -0.1717  0.0887 -0.0528
  755MPD2     H11158   4.006   3.804  13.301  0.1134  0.3946 -0.3540
  755MPD2    H111159   3.644   3.658  13.125  1.2579 -0.7315 -0.1901
  755MPD2    H211160   3.615   3.953  13.418 -1.1380 -0.3698 -1.6183
  755MPD2    H311161   3.520   3.810  13.269 -0.1689  1.6351  0.6139
  755MPD2     N11162   3.901   3.626  13.107  0.5360 -0.0772 -0.3383
  755MPD2    H511163   3.851   3.565  13.044 -2.6316 -0.0361  2.1256
  755MPD2    N111164   3.892   3.983  13.444  0.1719 -0.1850 -0.0843
  755MPD2    H711165   3.987   4.008  13.417  0.2411  0.3951  0.6940
  756MPD2     C11166   1.034   3.682   9.714 -0.3241 -0.0792 -0.2185
  756MPD2    C111167   0.912   3.731   9.752 -0.4798 -0.2907  0.4048
  756MPD2    C211168   0.802   3.656   9.724  0.6906 -0.1216  0.0378
  756MPD2    C311169   0.803   3.552   9.627  0.4549  0.8927 -0.2654
  756MPD2    C411170   0.926   3.516   9.574 -0.0125  0.1334 -0.0390
  756MPD2    C511171   1.036   3.582   9.617 -0.0185 -0.2634 -0.4487
  756MPD2     H11172   0.707   3.675   9.772  0.1799 -1.0327 -0.6053
  756MPD2    H111173   0.947   3.442   9.497 -0.7608 -0.7474  0.6120
  756MPD2    H211174   1.131   3.727   9.726 -0.1495 -0.2659 -0.9908
  756MPD2    H311175   1.135   3.552   9.584  0.8497  0.8702  1.1250
  756MPD2     N11176   0.679   3.484   9.596  0.6516  0.0338 -0.0935
  756MPD2    H511177   0.594   3.510   9.645 -0.2675 -0.8009 -1.2538
  756MPD2    N111178   0.892   3.849   9.827  0.3201  0.4477  0.7179
  756MPD2    H711179   0.796   3.880   9.841  0.2305  0.7527 -0.5773
  757MPD2     C11180   4.580   3.028   9.928  0.3422 -0.0102 -0.1907
  757MPD2    C111181   4.629   2.935   9.840  0.2661  0.3557 -0.4497
  757MPD2    C211182   0.010   2.978   9.754  0.5881  0.9204  0.1817
  757MPD2    C311183   0.055   3.106   9.759  0.0464 -0.1579 -0.4112
  757MPD2    C411184   4.713   3.201   9.829  0.2223  0.5883  1.1413
  757MPD2    C511185   4.614   3.160   9.912 -0.8034 -0.2824  0.2005
  757MPD2     H11186   0.060   2.900   9.698 -1.1004 -1.2768  1.7395
  757MPD2    H111187   0.007   3.307   9.817  0.2499  0.5861  1.1648
  757MPD2    H211188   4.514   2.993  10.006 -1.0004  1.9567 -0.4644
  757MPD2    H311189   4.553   3.239   9.956  0.3455  0.8351 -0.2034
  757MPD2     N11190   0.164   3.138   9.668  0.4411  0.3277  0.0710
  757MPD2    H511191   0.178   3.065   9.599  1.2171 -0.8453  1.4752
  757MPD2    N111192   4.571   2.804   9.840 -0.1079  0.3504  0.8766
  757MPD2    H711193   4.493   2.796   9.905 -0.5421 -4.6907 -0.3174
  758MPD2     C11194   0.356   3.440  15.906 -0.1589  0.0550 -0.2667
  758MPD2    C111195   0.385   3.338  15.992  0.7614 -0.3122  1.0492
  758MPD2    C211196   0.365   3.358  16.131 -0.5508 -0.3087  0.6926
  758MPD2    C311197   0.326   3.473  16.179  0.2076 -0.2026 -0.0611
  758MPD2    C411198   0.281   3.566  16.093  0.2293 -0.4090  0.7274
  758MPD2    C511199   0.301   3.555  15.961 -0.0853 -0.1912 -1.1524
  758MPD2     H11200   0.386   3.274  16.196 -0.0438 -1.8458 -1.4548
  758MPD2    H111201   0.220   3.649  16.126 -1.1690 -0.6455 -1.2135
  758MPD2    H211202   0.368   3.427  15.799 -0.5378 -1.9271 -0.0604
  758MPD2    H311203   0.266   3.625  15.885 -0.0532  1.1642  0.0970
  758MPD2     N11204   0.304   3.502  16.314  0.3411 -0.0532 -0.0204
  758MPD2    H511205   0.245   3.582  16.336  1.2167  0.2115  1.3723
  758MPD2    N111206   0.438   3.223  15.939 -0.3333  0.2132  0.0505
  758MPD2    H711207   0.471   3.236  15.844 -1.3866 -0.4945 -0.4093
  759MPD2     C11208   3.943   0.931   9.165  0.1660 -0.1430  0.1332
  759MPD2    C111209   4.003   0.960   9.287 -0.1818  0.0898  0.2304
  759MPD2    C211210   4.133   1.002   9.286  1.3382  0.3882 -0.1827
  759MPD2    C311211   4.204   1.020   9.169  0.1108 -0.3230 -0.2676
  759MPD2    C411212   4.147   0.980   9.052 -1.0730 -0.6530 -0.4127
  759MPD2    C511213   4.012   0.940   9.042  0.0048  0.0456  0.3159
  759MPD2     H11214   4.174   1.026   9.383  0.4653 -0.4972  0.4115
  759MPD2    H111215   4.209   0.987   8.964 -1.7220 -1.7463 -0.9523
  759MPD2    H211216   3.837   0.910   9.159  0.3574 -0.8931 -0.5994
  759MPD2    H311217   3.963   0.911   8.950  1.1352  0.6554 -0.4732
  759MPD2     N11218   4.336   1.062   9.186 -0.5037  0.3191  0.7333
  759MPD2    H511219   4.363   1.094   9.279  1.3797 -1.0310  0.6495
  759MPD2    N111220   3.925   0.927   9.400  0.1784 -0.2273  0.2371
  759MPD2    H711221   3.841   0.872   9.387 -0.0432  0.2257 -0.2249
  760MPD2     C11222   3.794   3.559  11.784 -0.3140 -0.9733 -1.0022
  760MPD2    C111223   3.890   3.623  11.849  0.2482 -0.5751 -0.1308
  760MPD2    C211224   3.940   3.580  11.972 -0.3552 -0.3175  0.4460
  760MPD2    C311225   3.875   3.473  12.036 -0.0754 -0.0030  0.2219
  760MPD2    C411226   3.780   3.402  11.968 -0.0174  0.7429 -0.0341
  760MPD2    C511227   3.742   3.446  11.846  0.1540  0.6015  0.1487
  760MPD2     H11228   4.013   3.649  12.012  0.3415  0.0645 -1.4653
  760MPD2    H111229   3.729   3.317  12.013 -0.8080  0.8456 -0.7415
  760MPD2    H211230   3.757   3.574  11.683 -2.4078 -1.5828 -0.3368
  760MPD2    H311231   3.673   3.398  11.778 -1.3111 -0.5374  2.4594
  760MPD2     N11232   3.925   3.416  12.163 -0.7651  0.4038 -0.2110
  760MPD2    H511233   3.878   3.333  12.194  0.5992 -0.5576 -0.7096
  760MPD2    N111234   3.947   3.740  11.799  0.9993 -0.0519 -0.6029
  760MPD2    H711235   4.010   3.790  11.861  1.0368 -0.7297 -0.0862
  761MPD2     C11236   0.558   3.199  10.723  0.1517  0.0350  0.5471
  761MPD2    C111237   0.641   3.116  10.655  0.4904  0.4157  0.5572
  761MPD2    C211238   0.780   3.159  10.642 -0.3945 -0.6770 -0.6310
  761MPD2    C311239   0.816   3.284  10.689 -0.4968 -0.0309  0.3563
  761MPD2    C411240   0.725   3.363  10.751  1.2873 -0.1937  0.4495
  761MPD2    C511241   0.602   3.317  10.770 -0.4419  0.6367  0.1402
  761MPD2     H11242   0.853   3.093  10.598  1.6316  0.0246  1.6836
  761MPD2    H111243   0.749   3.454  10.804  2.6857 -0.5134  0.3784
  761MPD2    H211244   0.455   3.173  10.742  0.2156 -0.6193  0.0142
  761MPD2    H311245   0.541   3.385  10.829  2.1345  3.2307 -0.1701
  761MPD2     N11246   0.948   3.329  10.682  0.2204 -0.0151 -0.6210
  761MPD2    H511247   0.968   3.411  10.739 -0.7332  0.7443 -1.3958
  761MPD2    N111248   0.595   2.987  10.616 -0.3429  0.5213 -0.3045
  761MPD2    H711249   0.501   2.963  10.646 -0.1643 -0.0822 -0.2287
  762MPD2     C11250   0.785   2.093  10.459  0.7656  0.5619  0.4472
  762MPD2    C111251   0.817   2.209  10.395 -0.5259  0.2074  0.0593
  762MPD2    C211252   0.925   2.209  10.318 -0.2380 -0.2411 -0.0053
  762MPD2    C311253   1.003   2.096  10.299 -0.3444 -0.0636 -1.1515
  762MPD2    C411254   0.955   1.977  10.353  0.2131 -0.3935  0.4556
  762MPD2    C511255   0.846   1.977  10.434 -0.2959  0.1959  0.1072
  762MPD2     H11256   0.960   2.304  10.280  1.5951 -1.3624 -1.1232
  762MPD2    H111257   1.011   1.885  10.339  0.1571 -0.8051  2.8850
  762MPD2    H211258   0.700   2.084  10.526  0.7641 -1.1340  0.2234
  762MPD2    H311259   0.803   1.887  10.476 -3.1586  1.7638  0.5771
  762MPD2     N11260   1.115   2.105  10.218 -0.1641 -0.5244  0.1877
  762MPD2    H511261   1.119   2.193  10.167  1.6786  0.3558  1.8604
  762MPD2    N111262   0.753   2.325  10.442 -1.1191  0.2001  0.5055
  762MPD2    H711263   0.674   2.311  10.504 -1.4973 -1.5574 -0.3893
  763MPD2     C11264   2.028   2.971  16.443 -0.4210 -0.5467 -0.1410
  763MPD2    C111265   2.065   3.024  16.320  0.5342 -0.2827 -0.5385
  763MPD2    C211266   2.102   3.156  16.310  0.6833  0.4240  0.2294
  763MPD2    C311267   2.099   3.239  16.421 -0.3767 -0.1016  0.5210
  763MPD2    C411268   2.066   3.192  16.548 -0.1405 -0.0594  0.4789
  763MPD2    C511269   2.034   3.057  16.550  0.1766  0.5265 -0.0824
  763MPD2     H11270   2.120   3.211  16.218  1.1825  0.3502  0.2812
  763MPD2    H111271   2.068   3.253  16.637 -0.4419  2.4928 -1.2500
  763MPD2    H211272   2.000   2.867  16.451  2.0584 -1.1700  0.4244
  763MPD2    H311273   2.002   3.015  16.645 -0.5731 -0.4011 -0.7413
  763MPD2     N11274   2.118   3.378  16.395  0.1071  0.0576 -0.3959
  763MPD2    H511275   2.157   3.411  16.307  1.9383  0.6183  0.6179
  763MPD2    N111276   2.058   2.951  16.198  0.2460 -0.0768 -0.2418
  763MPD2    H711277   2.083   3.007  16.117 -0.5190 -0.1380 -0.5229
  764MPD2     C11278   1.043   0.394  17.582  0.1314 -0.7030  0.1377
  764MPD2    C111279   0.917   0.350  17.553  1.6982 -0.0961  1.0216
  764MPD2    C211280   0.850   0.262  17.638 -0.6942  0.8367 -0.0931
  764MPD2    C311281   0.907   0.228   0.056 -0.5042 -0.2872 -0.1021
  764MPD2    C411282   1.035   0.270   0.086 -0.0853 -0.7388  0.0483
  764MPD2    C511283   1.096   0.346  17.696  0.1358 -1.0908  0.5152
  764MPD2     H11284   0.750   0.232  17.609 -1.4951  2.2881  1.1879
  764MPD2    H111285   1.093   0.230   0.168  1.7525 -0.8852 -1.3302
  764MPD2    H211286   1.096   0.463  17.517  0.4441 -1.1432 -0.0806
  764MPD2    H311287   1.199   0.372   0.017 -0.4085  0.9382  0.6643
  764MPD2     N11288   0.827   0.143   0.140  0.1946  0.0030 -0.5129
  764MPD2    H511289   0.735   0.120   0.104  0.1696 -2.0700  0.8790
  764MPD2    N111290   0.850   0.387  17.436  0.6328  0.1628  0.5180
  764MPD2    H711291   0.750   0.376  17.432  0.5404  0.3698  2.5511
  765MPD2     C11292   0.078   2.834  16.012 -0.0738 -0.4043  0.0526
  765MPD2    C111293   0.126   2.906  15.902  0.4761 -0.2453 -0.0750
  765MPD2    C211294   0.241   2.854  15.842 -0.9843  0.1801  0.2268
  765MPD2    C311295   0.285   2.727  15.864 -0.4428  0.0432 -0.5416
  765MPD2    C411296   0.234   2.655  15.971 -0.5373  0.1545  0.0533
  765MPD2    C511297   0.130   2.710  16.042  0.2278 -0.6363  0.4716
  765MPD2     H11298   0.288   2.900  15.756 -0.5185 -0.3142  0.2232
  765MPD2    H111299   0.267   2.553  15.989  2.1510  1.0644  0.3496
  765MPD2    H211300   4.708   2.872  16.051  0.9440  1.2017  0.9813
  765MPD2    H311301   0.092   2.662  16.132 -2.1135  0.2027 -0.0652
  765MPD2     N11302   0.395   2.670  15.792  0.2567  0.0903  0.3513
  765MPD2    H511303   0.441   2.725  15.720 -2.1383  1.2994 -0.2478
  765MPD2    N111304   0.055   3.019  15.852  0.1440  0.1071  0.0390
  765MPD2    H711305   4.700   3.058  15.902 -0.1783 -1.1151  0.4981
  766MPD2     C11306   4.252   2.905  15.518 -0.3501 -0.7967 -0.1576
  766MPD2    C111307   4.372   2.973  15.509  0.0953  0.2694 -0.7272
  766MPD2    C211308   4.464   2.928  15.415 -0.2464  0.2920  0.0474
  766MPD2    C311309   4.448   2.811  15.344 -0.4028 -0.4946 -0.3946
  766MPD2    C411310   4.328   2.750  15.351 -0.2376 -0.3686 -0.2101
  766MPD2    C511311   4.224   2.795  15.433  0.4432  0.1646 -0.4682
  766MPD2     H11312   4.558   2.981  15.415 -0.6491  1.0232 -0.7953
  766MPD2    H111313   4.306   2.670  15.281  1.3599 -1.5466  0.6501
  766MPD2    H211314   4.183   2.947  15.590 -0.4948 -2.8559  0.8983
  766MPD2    H311315   4.124   2.756  15.429  0.5906 -0.4083  1.2934
  766MPD2     N11316   4.542   2.773  15.250  0.9101 -0.5276 -0.1491
  766MPD2    H511317   4.515   2.694  15.191 -0.4073  1.8342 -2.7257
  766MPD2    N111318   4.394   3.095  15.571 -0.1746 -0.7218  0.8740
  766MPD2    H711319   4.338   3.121  15.652 -1.5259 -0.7624 -0.0366
  767MPD2     C11320   4.252   3.059  15.192 -0.3056 -0.7892 -0.0757
  767MPD2    C111321   4.351   3.087  15.101  0.5191  0.8589 -0.4759
  767MPD2    C211322   4.349   3.023  14.978  0.0878 -0.1265  0.1551
  767MPD2    C311323   4.249   2.936  14.939 -0.3466  0.4722 -0.4659
  767MPD2    C411324   4.141   2.915  15.028  0.1089  0.2309  0.1454
  767MPD2    C511325   4.145   2.979  15.152  0.0890  0.3075 -0.2463
  767MPD2     H11326   4.425   3.055  14.907  2.8209 -3.3078  1.6190
  767MPD2    H111327   4.056   2.854  15.002 -2.0368  3.2467  0.1515
  767MPD2    H211328   4.262   3.099  15.293 -0.3112  1.5329 -1.0105
  767MPD2    H311329   4.069   2.958  15.227 -0.4617 -0.8999 -1.1533
  767MPD2     N11330   4.260   2.876  14.809 -0.4777  0.3959 -0.1912
  767MPD2    H511331   4.354   2.882  14.770 -0.4311 -1.8803 -0.4408
  767MPD2    N111332   4.447   3.174  15.149 -0.5455  0.4768 -0.2600
  767MPD2    H711333   4.454   3.184  15.250 -2.6631 -1.3017  0.0631
  768MPD2     C11334   0.603   1.481  10.465 -0.3234 -0.2824 -0.4146
  768MPD2    C111335   0.561   1.376  10.551 -0.4172  0.3962  0.7679
  768MPD2    C211336   0.652   1.292  10.607 -0.2551 -0.6569 -0.5009
  768MPD2    C311337   0.789   1.290  10.567  0.0240  0.8828  0.2444
  768MPD2    C411338   0.826   1.393  10.476 -0.0885  0.2272 -0.4461
  768MPD2    C511339   0.741   1.485  10.430 -1.4423 -0.1487  0.1298
  768MPD2     H11340   0.620   1.229  10.689  0.2208  0.2825  0.4144
  768MPD2    H111341   0.928   1.412  10.448  0.9748 -2.0059  1.9054
  768MPD2    H211342   0.541   1.564  10.435  1.7195  1.4480  0.1317
  768MPD2    H311343   0.770   1.573  10.375 -1.1980 -1.0864 -1.2402
  768MPD2     N11344   0.888   1.218  10.629  0.3559 -0.0742 -0.2404
  768MPD2    H511345   0.985   1.231  10.603  0.5826 -1.8576 -0.2637
  768MPD2    N111346   0.431   1.368  10.611  0.2713  0.6110  1.2103
  768MPD2    H711347   0.415   1.294  10.679  0.7737  0.3913  1.0906
  769MPD2     C11348   1.316   0.062  14.963  0.5687  0.2500 -0.2067
  769MPD2    C111349   1.252   4.701  15.057 -0.3724  0.0426  0.0584
  769MPD2    C211350   1.329   4.643  15.153 -0.2320 -0.2188  0.1473
  769MPD2    C311351   1.467   4.672  15.172 -0.2390 -0.5938 -0.2961
  769MPD2    C411352   1.528   0.030  15.082  0.1195 -0.6189 -0.7209
  769MPD2    C511353   1.453   0.080  14.972 -0.4934  0.1649 -0.9717
  769MPD2     H11354   1.281   4.580  15.227  0.5062 -0.7893  0.1333
  769MPD2    H111355   1.633   0.055  15.084 -0.4394  1.4808  2.6195
  769MPD2    H211356   1.271   0.103  14.874  0.2836 -0.0161 -0.1824
  769MPD2    H311357   1.505   0.134  14.894  0.7211  0.5192  0.0786
  769MPD2     N11358   1.521   4.617  15.291  0.1661 -0.6307  0.4516
  769MPD2    H511359   1.467   4.551  15.347 -1.2635 -0.0244 -0.2164
  769MPD2    N111360   1.114   4.690  15.046 -0.0055 -0.3650  0.1437
  769MPD2    H711361   1.077   0.003  14.960  1.7026  2.7101  0.7684
  770MPD2     C11362   0.820   3.904  15.452 -0.2532  0.0769 -0.0746
  770MPD2    C111363   0.887   3.917  15.331  0.2387  0.1157  0.3293
  770MPD2    C211364   0.848   4.020  15.245  0.7601 -0.1908 -0.1088
  770MPD2    C311365   0.763   4.114  15.291  0.3281  0.1081 -0.2487
  770MPD2    C411366   0.716   4.113  15.417  0.6225  0.6368 -0.0596
  770MPD2    C511367   0.751   4.011  15.497  1.0748 -0.3863  0.0617
  770MPD2     H11368   0.885   4.031  15.144 -1.1679  0.5561 -0.7557
  770MPD2    H111369   0.643   4.174  15.468  0.3437  1.5682 -1.6040
  770MPD2    H211370   0.827   3.815  15.514 -0.8951 -0.8038 -1.2806
  770MPD2    H311371   0.718   4.007  15.600 -2.1741  0.3865 -0.9377
  770MPD2     N11372   0.730   4.220  15.203  0.4556 -0.1581 -0.2320
  770MPD2    H511373   0.763   4.203  15.108 -0.6851 -0.1348 -0.6221
  770MPD2    N111374   0.959   3.809  15.285 -0.4209  0.1943 -0.3582
  770MPD2    H711375   0.980   3.738  15.354  3.7465  1.9564  0.1857
  771MPD2     C11376   2.128   2.282  13.453  0.2490 -0.0587  0.1524
  771MPD2    C111377   2.046   2.390  13.431 -0.1278 -0.1183 -0.6161
  771MPD2    C211378   1.934   2.369  13.352 -0.4854  0.3721 -0.6769
  771MPD2    C311379   1.903   2.247  13.293  0.1742 -0.4435  0.1406
  771MPD2    C411380   1.978   2.138  13.328  1.0403  0.3830 -0.2534
  771MPD2    C511381   2.092   2.156  13.402  0.0189  0.4670  0.5127
  771MPD2     H11382   1.857   2.444  13.341 -0.2103  0.7246 -0.1961
  771MPD2    H111383   1.955   2.036  13.298  1.8456 -0.6346  2.6038
  771MPD2    H211384   2.208   2.285  13.526  1.3893  0.2932 -1.1091
  771MPD2    H311385   2.146   2.069  13.439 -1.4400 -0.9530 -0.6689
  771MPD2     N11386   1.792   2.247  13.207 -0.5112 -0.2047 -0.6171
  771MPD2    H511387   1.738   2.332  13.194  0.3951  0.5826  0.7174
  771MPD2    N111388   2.063   2.520  13.488  0.2774 -0.2001 -0.3256
  771MPD2    H711389   1.983   2.582  13.481 -0.2386 -1.1320 -2.6937
  772MPD2     C11390   1.650   2.990  13.450  0.3209 -0.0783 -0.4517
  772MPD2    C111391   1.716   3.009  13.570 -0.9548 -0.3115  0.5565
  772MPD2    C211392   1.645   3.051  13.682  0.1899 -0.4133 -0.3483
  772MPD2    C311393   1.506   3.060  13.673  0.0815 -0.1089 -0.7336
  772MPD2    C411394   1.440   3.038  13.558  0.3134  0.1645  0.0522
  772MPD2    C511395   1.511   2.998  13.448 -0.0988  0.1765  0.3614
  772MPD2     H11396   1.687   3.072  13.779  2.3319  0.7386 -1.5218
  772MPD2    H111397   1.334   3.058  13.545  0.6824  1.0753 -1.6885
  772MPD2    H211398   1.712   2.962  13.366 -0.3949 -0.3658 -0.8856
  772MPD2    H311399   1.459   2.985  13.353  0.5620  1.5118 -0.1817
  772MPD2     N11400   1.428   3.101  13.783  0.3145  0.2519  0.1505
  772MPD2    H511401   1.328   3.111  13.770  0.4960  2.1837  0.2700
  772MPD2    N111402   1.857   2.984  13.581  0.4506  0.3161  0.3988
  772MPD2    H711403   1.895   2.999  13.674  0.8123 -1.1062  0.4771
  773MPD2     C11404   0.592   3.914   0.319 -0.8576  0.2183  0.1830
  773MPD2    C111405   0.528   3.793   0.328  0.2793 -0.1113  0.3168
  773MPD2    C211406   0.580   3.687   0.401  0.6173 -0.6987  0.4563
  773MPD2    C311407   0.707   3.698   0.459  0.6941  0.5566  0.1498
  773MPD2    C411408   0.769   3.819   0.446 -0.6396  0.2293  0.2107
  773MPD2    C511409   0.712   3.927   0.389  0.2587  0.3822 -0.2638
  773MPD2     H11410   0.522   3.595   0.406  0.7930 -0.6442  3.6562
  773MPD2    H111411   0.873   3.829   0.473 -0.4834  0.0841 -0.3284
  773MPD2    H211412   0.551   4.004   0.275 -0.7200  0.0708 -0.2480
  773MPD2    H311413   0.776   4.015   0.391  1.7807 -0.7518  0.5036
  773MPD2     N11414   0.780   3.582   0.500 -0.0041  0.0722  0.0696
  773MPD2    H511415   0.877   3.598   0.525 -0.2270  1.6056 -0.0298
  773MPD2    N111416   0.407   3.769   0.258  0.0396  0.2735  0.4336
  773MPD2    H711417   0.366   3.677   0.271  1.0449 -0.0759  1.0950
  774MPD2     C11418   0.172   2.725  13.429 -0.1220  0.3010 -0.7404
  774MPD2    C111419   0.249   2.814  13.504 -0.1240  0.7324 -0.3142
  774MPD2    C211420   0.323   2.905  13.434  0.0567  0.2558 -0.4659
  774MPD2    C311421   0.316   2.915  13.296 -0.6268  0.1692  0.8458
  774MPD2    C411422   0.235   2.832  13.227 -0.3135  0.4832  0.9954
  774MPD2    C511423   0.163   2.741  13.293 -0.2034 -0.7437  0.2231
  774MPD2     H11424   0.389   2.973  13.487  0.0804 -1.1400  1.2937
  774MPD2    H111425   0.239   2.819  13.119  1.7061  2.2059  0.8618
  774MPD2    H211426   0.116   2.645  13.477  2.2931  0.2592  1.9878
  774MPD2    H311427   0.097   2.676  13.238 -0.7303 -0.3576  0.4070
  774MPD2     N11428   0.372   3.030  13.229 -0.0519  0.2803  0.4090
  774MPD2    H511429   0.412   3.094  13.298  1.8203 -1.5419  1.0076
  774MPD2    N111430   0.259   2.809  13.646  0.2755  0.3218  0.0929
  774MPD2    H711431   0.345   2.848  13.683  1.0457 -1.7957  0.4908
  775MPD2     C11432   1.742   4.257  15.837 -0.1031 -0.5421 -0.4899
  775MPD2    C111433   1.794   4.353  15.919  0.0443  0.2380 -0.0427
  775MPD2    C211434   1.894   4.432  15.869  0.3901 -0.1814  0.3201
  775MPD2    C311435   1.945   4.413  15.741 -0.1285  0.0916 -0.4164
  775MPD2    C411436   1.901   4.301  15.669  0.0605 -0.5410  0.7357
  775MPD2    C511437   1.798   4.228  15.713 -1.0527 -0.2214  0.7349
  775MPD2     H11438   1.939   4.511  15.927  2.3540 -0.4054 -0.8933
  775MPD2    H111439   1.939   4.276  15.571 -1.6455  0.5145 -0.2109
  775MPD2    H211440   1.671   4.188  15.881 -0.0426 -0.7543 -0.7292
  775MPD2    H311441   1.769   4.142  15.653 -3.0128  0.5496  0.5692
  775MPD2     N11442   2.043   4.488  15.680  0.6216  0.7229 -0.0573
  775MPD2    H511443   2.097   4.446  15.604  0.3050  0.3646 -0.0820
  775MPD2    N111444   1.743   4.370  16.048 -0.6970  0.3758  0.1880
  775MPD2    H711445   1.659   4.316  16.063  0.7951 -1.8234  0.5622
  776MPD2     C11446   1.479   4.427  11.830  0.5409  0.1224  0.5669
  776MPD2    C111447   1.436   4.457  11.702  0.4579 -0.5556  0.5541
  776MPD2    C211448   1.425   4.588  11.663  0.2080  0.5385  0.2080
  776MPD2    C311449   1.479   4.682  11.751  1.1238  0.7403 -0.3592
  776MPD2    C411450   1.538   4.649  11.869 -0.0183  0.1389  0.3792
  776MPD2    C511451   1.530   4.521  11.915  0.3733 -0.0775 -0.8004
  776MPD2     H11452   1.389   4.616  11.565 -3.0472 -1.8692  0.6924
  776MPD2    H111453   1.587   4.717  11.937 -0.7340  0.1812  0.8644
  776MPD2    H211454   1.481   4.323  11.861  1.7662  0.2592  0.9212
  776MPD2    H311455   1.584   4.491  12.004 -0.3195 -0.3059 -0.4579
  776MPD2     N11456   1.483   0.099  11.730  0.1988  0.0560  0.0048
  776MPD2    H511457   1.527   0.152  11.805  1.2351 -0.1501 -0.4524
  776MPD2    N111458   1.388   4.349  11.632 -0.0842 -0.1327 -0.0834
  776MPD2    H711459   1.409   4.260  11.677  0.8329 -0.1982 -0.6432
  777MPD2     C11460   1.180   2.120   1.298  0.2880 -0.3748  0.2679
  777MPD2    C111461   1.281   2.048   1.362  0.4120 -0.2057 -1.1275
  777MPD2    C211462   1.342   1.945   1.298 -0.7945  0.8543 -0.0287
  777MPD2    C311463   1.301   1.908   1.170 -0.0099  0.0186  0.4157
  777MPD2    C411464   1.200   1.978   1.111  0.3084 -0.4664 -0.3725
  777MPD2    C511465   1.146   2.085   1.168  0.4288 -0.3965  0.3582
  777MPD2     H11466   1.412   1.877   1.344  1.4473  1.0007 -3.2188
  777MPD2    H111467   1.166   1.952   1.011 -1.6754  0.6530  0.0184
  777MPD2    H211468   1.133   2.198   1.357 -1.2289  0.2871 -1.8192
  777MPD2    H311469   1.075   2.138   1.106  0.5391 -0.8931 -0.2010
  777MPD2     N11470   1.356   1.794   1.106  0.1448 -0.0361  0.1539
  777MPD2    H511471   1.422   1.734   1.155  0.5973 -0.3227 -0.7910
  777MPD2    N111472   1.316   2.090   1.497  0.3644 -0.6638  0.1498
  777MPD2    H711473   1.291   2.187   1.517  1.3977 -0.3358 -0.1264
  778MPD2     C11474   2.286   2.383  14.989  0.2669  0.3202 -0.0447
  778MPD2    C111475   2.322   2.292  14.888  0.3645 -0.2438 -0.2514
  778MPD2    C211476   2.374   2.337  14.769 -0.4172 -0.6314  0.5255
  778MPD2    C311477   2.385   2.471  14.750 -0.0543 -0.1623 -0.5132
  778MPD2    C411478   2.351   2.562  14.846 -0.3901 -0.1254  0.0214
  778MPD2    C511479   2.297   2.517  14.961 -0.3347 -0.0526  0.0737
  778MPD2     H11480   2.386   2.270  14.685 -3.0175 -0.4146 -0.0018
  778MPD2    H111481   2.362   2.668  14.825 -0.1584  0.1828  1.6541
  778MPD2    H211482   2.236   2.359  15.082  0.2012  1.2221  0.1563
  778MPD2    H311483   2.273   2.586  15.041  1.2339  0.6456 -0.0693
  778MPD2     N11484   2.451   2.501  14.624  0.3478  0.0639  0.0661
  778MPD2    H511485   2.493   2.425  14.572 -0.2199 -0.7789  0.8395
  778MPD2    N111486   2.291   2.153  14.883  0.6171 -0.4571  0.1491
  778MPD2    H711487   2.318   2.110  14.795 -0.4399  0.7801 -0.7944
  779MPD2     C11488   1.885   1.349  13.770 -0.0235 -0.1747 -0.0977
  779MPD2    C111489   1.994   1.373  13.854 -0.3934  0.0803  0.2959
  779MPD2    C211490   2.039   1.507  13.870 -0.4890 -0.3763  0.5620
  779MPD2    C311491   1.956   1.613  13.835 -0.5024  0.1545 -0.4641
  779MPD2    C411492   1.840   1.588  13.757  0.4775  0.0178  0.2289
  779MPD2    C511493   1.808   1.456  13.730  0.0463  0.0788  0.0015
  779MPD2     H11494   2.129   1.532  13.925  0.3673 -0.0494 -0.9918
  779MPD2    H111495   1.768   1.664  13.727  2.4070  1.1283 -1.6405
  779MPD2    H211496   1.854   1.248  13.747  0.9035 -0.0305 -2.0518
  779MPD2    H311497   1.725   1.429  13.665  0.4687 -1.1233 -0.0284
  779MPD2     N11498   1.997   1.748  13.861  0.6155  0.0996  0.1130
  779MPD2    H511499   2.085   1.759  13.909  1.1466  2.7030 -1.4830
  779MPD2    N111500   2.076   1.276  13.911 -0.0057 -0.1283  0.2172
  779MPD2    H711501   2.159   1.303  13.963  0.7824 -0.5515 -0.8249
  780MPD2     C11502   1.963   0.931   1.094  0.6327 -0.7690  0.0359
  780MPD2    C111503   1.900   0.889   0.985  0.1382  0.0978 -0.4660
  780MPD2    C211504   1.889   0.976   0.880  0.1193  0.0223  0.8108
  780MPD2    C311505   1.953   1.094   0.873 -0.1377 -0.2466 -0.1183
  780MPD2    C411506   2.032   1.131   0.984  0.7747 -0.3363 -0.4302
  780MPD2    C511507   2.039   1.044   1.092 -0.0529  0.2536 -0.4932
  780MPD2     H11508   1.815   0.951   0.805 -0.4279  2.7404  0.4259
  780MPD2    H111509   2.094   1.218   1.001 -0.8476  0.4681  1.3622
  780MPD2    H211510   1.967   0.865   1.180  1.7756  1.2039  1.4953
  780MPD2    H311511   2.113   1.069   1.168 -1.3291 -1.0987  1.1989
  780MPD2     N11512   1.939   1.172   0.758 -0.4545 -0.1235 -0.1320
  780MPD2    H511513   1.876   1.137   0.687  0.9642 -1.0277 -0.9406
  780MPD2    N111514   1.845   0.756   0.984  0.0307  0.4963  0.1625
  780MPD2    H711515   1.852   0.702   1.070 -0.9391  0.1124  0.0042
  781MPD2     C11516   3.867   3.065  11.920  0.2257  0.2800  0.0600
  781MPD2    C111517   3.843   2.942  11.974  0.4571 -0.1467 -0.6213
  781MPD2    C211518   3.873   2.824  11.899 -0.6192 -0.1288 -0.2309
  781MPD2    C311519   3.944   2.840  11.780  0.2502  0.0205 -0.4210
  781MPD2    C411520   3.966   2.964  11.730  0.6004 -0.0366  0.1170
  781MPD2    C511521   3.920   3.078  11.793  0.0589  0.4244  0.0668
  781MPD2     H11522   3.860   2.725  11.942  1.4043 -1.3462 -2.4710
  781MPD2    H111523   4.014   2.974  11.633  0.1760  0.2030 -0.0702
  781MPD2    H211524   3.850   3.154  11.979  0.4417  0.8008 -0.6495
  781MPD2    H311525   3.929   3.172  11.740  0.5175  1.3648  1.8103
  781MPD2     N11526   3.989   2.735  11.700 -0.4319  0.2105  0.4057
  781MPD2    H511527   4.054   2.758  11.625 -0.7436 -0.2037  0.0030
  781MPD2    N111528   3.777   2.933  12.097 -0.6047  0.6717  0.0317
  781MPD2    H711529   3.760   2.836  12.118 -1.4607  0.9187  0.4941
  782MPD2     C11530   2.205   3.393   9.922 -0.4373 -0.1915  0.0197
  782MPD2    C111531   2.220   3.398  10.061 -0.0150 -0.0978  0.9081
  782MPD2    C211532   2.167   3.511  10.131  0.1239  0.3427 -0.1392
  782MPD2    C311533   2.108   3.620  10.066 -0.4395  0.0388  0.1550
  782MPD2    C411534   2.093   3.605   9.930  0.4846  0.3505 -0.5141
  782MPD2    C511535   2.147   3.499   9.856 -0.0250  0.0973  0.1628
  782MPD2     H11536   2.180   3.509  10.239  1.5960  0.8147 -0.3162
  782MPD2    H111537   2.034   3.675   9.873 -1.4160 -1.3496 -0.6286
  782MPD2    H211538   2.228   3.305   9.863 -1.0455 -0.5819  0.3627
  782MPD2    H311539   2.137   3.492   9.748  2.8891  1.5067 -0.2011
  782MPD2     N11540   2.046   3.722  10.143  0.1093 -0.0271 -0.1203
  782MPD2    H511541   2.049   3.712  10.244  1.7614  0.9017 -0.0739
  782MPD2    N111542   2.278   3.287  10.134  0.1857  0.1819 -0.4117
  782MPD2    H711543   2.298   3.205  10.077  0.4723 -0.3456  0.4447
  783MPD2     C11544   1.553   2.926  10.425 -0.1992  0.6776  0.1938
  783MPD2    C111545   1.609   3.043  10.460 -0.1669 -0.9057  0.2060
  783MPD2    C211546   1.741   3.062  10.458  0.0968 -0.2859 -0.5419
  783MPD2    C311547   1.824   2.965  10.404 -0.0851 -0.3821 -0.0971
  783MPD2    C411548   1.764   2.849  10.361  0.8992 -0.6187 -0.2611
  783MPD2    C511549   1.630   2.831  10.374 -0.4161  0.1409  0.5393
  783MPD2     H11550   1.776   3.160  10.488 -2.0113  0.2959  0.0067
  783MPD2    H111551   1.823   2.776  10.306  3.1786  1.0497 -0.0581
  783MPD2    H211552   1.446   2.906  10.424 -0.1524  0.2061  3.2854
  783MPD2    H311553   1.582   2.739  10.344  1.7230 -1.5619  2.3982
  783MPD2     N11554   1.963   2.986  10.396 -0.3119 -0.1680  0.1639
  783MPD2    H511555   2.016   2.921  10.339 -1.0382  0.2077 -0.9426
  783MPD2    N111556   1.511   3.137  10.504  0.1448 -0.5139 -0.1725
  783MPD2    H711557   1.417   3.101  10.489 -0.4676  0.7531  0.6534
  784MPD2     C11558   3.565   3.749   0.329  0.1134 -0.1511  0.0483
  784MPD2    C111559   3.600   3.862   0.396  0.3287 -0.5865  0.4757
  784MPD2    C211560   3.575   3.988   0.336 -0.0611  0.0477  0.5956
  784MPD2    C311561   3.507   4.002   0.213 -0.5537  0.7216 -0.0879
  784MPD2    C411562   3.477   3.883   0.150  0.4374  0.8369 -0.7444
  784MPD2    C511563   3.509   3.764   0.207 -0.1331  0.7102  0.5237
  784MPD2     H11564   3.612   4.078   0.383 -1.8658 -0.0364  2.1621
  784MPD2    H111565   3.419   3.886   0.058 -0.6807  1.7801 -0.0172
  784MPD2    H211566   3.561   3.648   0.368  0.2108  0.5352  1.8059
  784MPD2    H311567   3.476   3.673   0.156  1.7557 -0.1827  0.9033
  784MPD2     N11568   3.460   4.122   0.155  0.0610  0.8552  0.3404
  784MPD2    H511569   3.412   4.111   0.066 -0.4406  0.4714  0.6615
  784MPD2    N111570   3.659   3.867   0.525  0.0270  0.1279 -0.2799
  784MPD2    H711571   3.693   3.956   0.562  1.5268 -1.0234  1.1492
  785MPD2     C11572   3.423   0.922   9.770 -0.3956 -0.2431 -0.0241
  785MPD2    C111573   3.420   1.051   9.785 -0.1790 -0.2699 -0.0431
  785MPD2    C211574   3.370   1.123   9.681  0.1911 -0.2942 -0.3772
  785MPD2    C311575   3.340   1.066   9.557 -0.0662 -0.4984 -0.5034
  785MPD2    C411576   3.361   0.933   9.532  0.1489 -0.3039  0.0718
  785MPD2    C511577   3.397   0.860   9.649  0.0308 -0.3436  0.1011
  785MPD2     H11578   3.359   1.230   9.681 -0.2884 -0.3427 -0.6601
  785MPD2    H111579   3.343   0.880   9.439  1.8591  0.2946 -0.6137
  785MPD2    H211580   3.449   0.859   9.854 -2.4176 -2.6508 -1.1912
  785MPD2    H311581   3.394   0.752   9.644 -2.2662 -0.2295 -1.0525
  785MPD2     N11582   3.282   1.144   9.457 -0.0403  0.2917 -0.1224
  785MPD2    H511583   3.263   1.241   9.480  1.3720  0.3272  0.9032
  785MPD2    N111584   3.430   1.113   9.910  0.1599 -0.2274 -0.1126
  785MPD2    H711585   3.403   1.210   9.903 -0.3177 -0.1924  2.1843
  786MPD2     C11586   2.800   0.724  15.075  0.7424 -0.3186 -0.1547
  786MPD2    C111587   2.872   0.607  15.068  0.3297  0.5908 -0.7932
  786MPD2    C211588   2.985   0.600  15.146  0.0770 -0.3384  0.0695
  786MPD2    C311589   3.039   0.691  15.237  0.0584 -0.0529 -0.2026
  786MPD2    C411590   2.969   0.811  15.241  0.0482  0.0647 -0.1763
  786MPD2    C511591   2.852   0.822  15.161  1.0702 -0.1576 -0.1390
  786MPD2     H11592   3.036   0.505  15.152  2.3841  0.8613 -0.5020
  786MPD2    H111593   3.008   0.892  15.302  0.7060 -0.5510  0.2146
  786MPD2    H211594   2.708   0.742  15.019  0.6450 -2.1168 -0.5940
  786MPD2    H311595   2.790   0.908  15.180  0.1667 -0.7903 -0.2071
  786MPD2     N11596   3.155   0.674  15.320 -0.0376  0.5452  0.0508
  786MPD2    H511597   3.175   0.737  15.398 -0.0891  0.1244  0.4013
  786MPD2    N111598   2.833   0.496  14.988 -0.4933  0.5558 -0.3620
  786MPD2    H711599   2.906   0.427  14.983  0.0125  1.1087 -0.6113
  787MPD2     C11600   2.918   4.691  15.278  0.8419  0.2606  0.0308
  787MPD2    C111601   2.926   4.669  15.144 -0.3498 -0.7283 -0.2383
  787MPD2    C211602   3.013   4.569  15.096 -0.6471  0.3414 -0.0433
  787MPD2    C311603   3.088   4.501  15.183  0.1213  0.0077 -0.4395
  787MPD2    C411604   3.080   4.521  15.319 -0.5174 -0.5896  0.5280
  787MPD2    C511605   2.999   4.623  15.366 -0.5108 -0.6147  0.4498
  787MPD2     H11606   3.033   4.539  14.993  2.5073  0.9061  0.4089
  787MPD2    H111607   3.141   4.470  15.393 -0.8212 -0.3482  0.9456
  787MPD2    H211608   2.860   0.047  15.322 -3.7498 -3.3897  0.6531
  787MPD2    H311609   3.013   4.665  15.465  0.0206  0.0265  0.0987
  787MPD2     N11610   3.164   4.391  15.126  0.0847 -0.0289 -0.0220
  787MPD2    H511611   3.169   4.378  15.025  0.9389  0.4277 -0.0383
  787MPD2    N111612   2.845   0.022  15.061  0.3262  0.2551  0.3792
  787MPD2    H711613   2.801   0.097  15.113 -2.4708 -1.2171  0.0874
  788MPD2     C11614   4.082   2.984   1.113  0.3691 -0.1497 -0.0397
  788MPD2    C111615   4.056   2.931   0.988  1.0483  0.5514  1.1806
  788MPD2    C211616   3.997   3.012   0.888  0.0352  0.2415 -0.3437
  788MPD2    C311617   3.955   3.141   0.915 -0.1065 -0.2896  0.5069
  788MPD2    C411618   3.986   3.198   1.035 -0.1832 -0.2972  0.1612
  788MPD2    C511619   4.056   3.121   1.127 -0.5923 -0.0703 -0.6124
  788MPD2     H11620   3.981   2.973   0.788 -0.5325  0.4548 -0.3365
  788MPD2    H111621   3.968   3.300   1.067 -1.8269 -0.4386 -0.3060
  788MPD2    H211622   4.118   2.922   1.194  1.3139  1.1708  0.5522
  788MPD2    H311623   4.098   3.165   1.217 -1.4533  0.6799 -0.5792
  788MPD2     N11624   3.899   3.238   0.819 -0.0446  0.0680 -0.0621
  788MPD2    H511625   3.895   3.334   0.850 -1.3355 -0.5861  1.7677
  788MPD2    N111626   4.093   2.802   0.952  0.4003 -0.2665 -0.4305
  788MPD2    H711627   4.069   2.774   0.857 -0.4411 -1.0964  0.0229
  789MPD2     C11628   0.254   3.067  16.679 -1.0781 -0.1063  0.4447
  789MPD2    C111629   0.191   3.049  16.799  0.0053 -0.5709  0.4555
  789MPD2    C211630   0.065   3.100  16.832  0.6446  0.2780  0.1074
  789MPD2    C311631   4.715   3.158  16.728 -0.3108  0.6407  0.0105
  789MPD2    C411632   0.057   3.184  16.615  0.0813  0.1007 -0.5272
  789MPD2    C511633   0.187   3.138  16.589 -0.1744 -0.3661  0.9508
  789MPD2     H11634   0.027   3.074  16.930 -1.8585 -0.5949 -1.0969
  789MPD2    H111635   0.004   3.233  16.534 -0.7271 -0.9207 -0.6141
  789MPD2    H211636   0.346   3.029  16.635 -0.0555 -0.4316  2.8911
  789MPD2    H311637   0.243   3.151  16.497  1.6264 -1.2521  1.9438
  789MPD2     N11638   4.583   3.204  16.733 -1.0054 -0.0265 -0.3039
  789MPD2    H511639   4.553   3.265  16.658 -0.4205 -1.8039 -1.9973
  789MPD2    N111640   0.244   2.960  16.897 -0.6846 -0.0262  0.1429
  789MPD2    H711641   0.188   2.945  16.980 -1.4367  1.4174 -0.0879
  790MPD2     C11642   0.767   4.705  13.828 -0.1102 -0.5053 -0.2818
  790MPD2    C111643   0.900   4.690  13.797  0.1991  0.7013  0.4695
  790MPD2    C211644   0.945   4.695  13.663 -0.0758 -0.7567  0.4288
  790MPD2    C311645   0.855   4.718  13.562  0.3533  0.9361  0.5355
  790MPD2    C411646   0.723   0.006  13.594  0.9769  0.0351  0.8966
  790MPD2    C511647   0.685   0.011  13.721  0.5040 -0.2560 -0.1662
  790MPD2     H11648   1.041   4.658  13.630  0.2570  2.1602 -1.7554
  790MPD2    H111649   0.648   0.015  13.516  0.0311 -0.2793  1.7719
  790MPD2    H211650   0.730   4.716  13.929 -3.4382  1.2373 -1.6766
  790MPD2    H311651   0.581   0.030  13.746  1.4053  0.7316  2.7919
  790MPD2     N11652   0.912   4.724  13.434 -0.6038 -0.2037  0.1533
  790MPD2    H511653   1.013   4.722  13.425 -0.5899 -1.5040  0.5256
  790MPD2    N111654   0.993   4.670  13.904  0.0932 -0.6797 -0.2553
  790MPD2    H711655   0.968   4.671  14.002  0.0505  0.7070 -0.2820
  791MPD2     C11656   0.722   4.387  12.658  0.3902 -0.7719  0.3027
  791MPD2    C111657   0.694   4.394  12.795  0.6975  0.2391  0.1632
  791MPD2    C211658   0.577   4.340  12.839  0.4562  0.0313  0.0033
  791MPD2    C311659   0.481   4.281  12.750 -0.1193 -0.6917 -0.1782
  791MPD2    C411660   0.516   4.269  12.614 -0.4221 -0.2854 -0.0295
  791MPD2    C511661   0.633   4.323  12.572 -0.4455 -0.0172  0.6076
  791MPD2     H11662   0.559   4.343  12.946  2.9099 -1.7970  0.4568
  791MPD2    H111663   0.459   4.222  12.535  1.2625 -0.7660 -0.9562
  791MPD2    H211664   0.804   4.443  12.614 -0.0507 -0.5749 -0.2736
  791MPD2    H311665   0.650   4.318  12.465  0.0189  1.3994  0.6146
  791MPD2     N11666   0.364   4.234  12.809 -0.2930 -0.3254  0.2488
  791MPD2    H511667   0.353   4.232  12.910  0.3988 -0.8767  0.3142
  791MPD2    N111668   0.776   4.462  12.888 -0.1636  0.5711  0.1938
  791MPD2    H711669   0.744   4.453  12.984  0.2903 -0.9405  0.2140
  792MPD2     C11670   1.858   4.492  11.065 -0.0011  0.2585 -0.0602
  792MPD2    C111671   1.745   4.461  11.141 -0.0079 -0.3781 -0.4990
  792MPD2    C211672   1.631   4.427  11.063 -0.9966 -0.8490 -0.1731
  792MPD2    C311673   1.623   4.413  10.925  0.3196 -0.3443  1.2565
  792MPD2    C411674   1.741   4.429  10.861 -0.0520 -0.1371  0.1718
  792MPD2    C511675   1.858   4.462  10.931 -0.7251  0.5131  0.1424
  792MPD2     H11676   1.542   4.408  11.122 -2.3207 -0.4505 -2.0558
  792MPD2    H111677   1.742   4.424  10.752 -1.1550  1.7929  0.0664
  792MPD2    H211678   1.948   4.529  11.112 -0.3372  0.1472  0.6667
  792MPD2    H311679   1.950   4.470  10.874  0.8658 -0.8550  2.5403
  792MPD2     N11680   1.505   4.391  10.858  0.4993  0.6585 -0.5517
  792MPD2    H511681   1.508   4.380  10.757  2.1854 -0.8090 -0.3414
  792MPD2    N111682   1.746   4.466  11.280 -0.5554  0.4715  0.6038
  792MPD2    H711683   1.831   4.511  11.313 -0.7390  0.2958  1.3117
  793MPD2     C11684   0.626   4.361  10.375  0.3769 -0.2495 -0.2927
  793MPD2    C111685   0.728   4.270  10.354  0.4838  0.3828 -0.5042
  793MPD2    C211686   0.800   4.227  10.459  0.1119 -0.0903 -0.2213
  793MPD2    C311687   0.793   4.285  10.585  0.4306  0.0779 -0.3011
  793MPD2    C411688   0.699   4.386  10.613 -0.3560  0.5939  0.0585
  793MPD2    C511689   0.618   4.421  10.507  0.1350  0.2881  0.7809
  793MPD2     H11690   0.881   4.157  10.446  0.4318  0.4409 -1.0901
  793MPD2    H111691   0.687   4.438  10.707 -3.5234  0.0011 -0.0414
  793MPD2    H211692   0.549   4.398  10.308 -0.6421  0.7138  1.3989
  793MPD2    H311693   0.547   4.500  10.531 -1.1546 -1.0825  1.5141
  793MPD2     N11694   0.889   4.236  10.675  0.3078 -0.9745  0.0600
  793MPD2    H511695   0.944   4.155  10.646  1.3335 -0.4840  0.6122
  793MPD2    N111696   0.754   4.199  10.237 -0.7646 -0.3367  0.5977
  793MPD2    H711697   0.839   4.142  10.234  1.4064  2.9524 -0.6871
  794MPD2     C11698   4.583   3.833  17.336  0.1660  0.3026 -0.5418
  794MPD2    C111699   4.694   3.907  17.386  0.3205  0.1020  0.1068
  794MPD2    C211700   0.050   3.978  17.299 -0.3716 -0.2778 -0.1516
  794MPD2    C311701   0.031   3.975  17.156 -0.1417 -0.0574 -0.2034
  794MPD2    C411702   4.657   3.890  17.109  0.8591 -0.3370  0.1528
  794MPD2    C511703   4.571   3.822  17.195  0.3065 -0.0767 -0.4605
  794MPD2     H11704   0.137   4.030  17.339 -1.0933  1.7434 -1.2599
  794MPD2    H111705   4.626   3.889  17.005 -0.5189  1.6863  0.5449
  794MPD2    H211706   4.513   3.778  17.398  3.5023 -0.9448  2.1614
  794MPD2    H311707   4.480   3.774  17.160 -0.0762 -0.7719  1.5097
  794MPD2     N11708   0.091   4.061  17.064  0.3393  0.4560  0.2249
  794MPD2    H511709   0.055   4.065  16.970  2.9427 -0.0879 -0.7718
  794MPD2    N111710   0.001   3.911  17.524 -0.4283  0.3556 -0.2365
  794MPD2    H711711   0.081   3.970  17.544 -1.1843  1.5149 -0.6049
  795MPD2     C11712   3.252   1.575  13.283  0.3267  0.1135 -1.1607
  795MPD2    C111713   3.271   1.514  13.163 -0.3321 -0.4007  0.2506
  795MPD2    C211714   3.366   1.417  13.150  0.3079  0.0774 -0.0259
  795MPD2    C311715   3.449   1.386  13.256  0.2712  0.0303  0.4038
  795MPD2    C411716   3.431   1.450  13.374 -0.5250  0.6858  0.7397
  795MPD2    C511717   3.329   1.546  13.392 -0.2474 -0.3851 -0.4218
  795MPD2     H11718   3.385   1.366  13.057 -0.8227 -1.2752  0.4910
  795MPD2    H111719   3.496   1.432  13.459  0.0390 -1.4523 -0.1523
  795MPD2    H211720   3.170   1.642  13.306  0.8613  0.2227  0.4705
  795MPD2    H311721   3.301   1.595  13.485  1.5007  1.5500 -0.9275
  795MPD2     N11722   3.566   1.299  13.246 -0.0558 -0.1271  0.0203
  795MPD2    H511723   3.632   1.303  13.323  0.5259  0.8501 -0.5162
  795MPD2    N111724   3.190   1.544  13.047 -0.4311  0.4531 -0.4952
  795MPD2    H711725   3.196   1.487  12.963 -2.7378 -1.5238  0.6850
  796MPD2     C11726   2.294   3.085  15.732 -0.6573 -0.2247  0.5248
  796MPD2    C111727   2.353   3.174  15.821 -0.4242  0.0300 -0.0646
  796MPD2    C211728   2.361   3.307  15.789 -0.1432  0.0615  0.2584
  796MPD2    C311729   2.304   3.352  15.674 -0.3977  0.7546  0.3350
  796MPD2    C411730   2.252   3.261  15.583  0.2759  0.4655 -0.2201
  796MPD2    C511731   2.254   3.129  15.607  0.3542 -0.5808 -1.0424
  796MPD2     H11732   2.427   3.367  15.851 -0.2702  0.5543 -0.0814
  796MPD2    H111733   2.211   3.292  15.488 -1.0492  0.7134  0.4302
  796MPD2    H211734   2.297   2.978  15.748 -0.6236 -0.5809 -1.9047
  796MPD2    H311735   2.221   3.063  15.528 -0.1577 -1.5842 -0.0054
  796MPD2     N11736   2.309   3.493  15.658  0.0104  0.0239 -0.0813
  796MPD2    H511737   2.350   3.558  15.725 -0.6480  0.1967  0.1527
  796MPD2    N111738   2.409   3.134  15.943 -0.1765  0.5135  0.3479
  796MPD2    H711739   2.467   3.200  15.994  1.3441 -1.3023  0.9608
  797MPD2     C11740   4.203   2.910  16.806 -0.6572  0.8776 -0.2210
  797MPD2    C111741   4.094   2.930  16.889 -0.5701 -0.3276  0.2971
  797MPD2    C211742   3.977   2.974  16.828 -0.4914 -0.1701 -0.0529
  797MPD2    C311743   3.966   3.021  16.702  0.3239 -0.2681 -0.0437
  797MPD2    C411744   4.079   3.006  16.624 -0.0039  0.5437 -0.8454
  797MPD2    C511745   4.190   2.952  16.671 -0.3992 -0.2359  0.3776
  797MPD2     H11746   3.892   2.983  16.895 -1.2435 -0.8428 -0.9261
  797MPD2    H111747   4.079   3.041  16.521 -2.2387  1.6202 -0.4784
  797MPD2    H211748   4.296   2.863  16.838 -0.2781  1.5903 -0.2788
  797MPD2    H311749   4.276   2.933  16.609 -1.3158  1.7481 -1.4819
  797MPD2     N11750   3.848   3.079  16.648  0.5100  0.1617 -0.2590
  797MPD2    H511751   3.846   3.084  16.547 -0.3050  0.3887 -0.2299
  797MPD2    N111752   4.090   2.901  17.028  0.3031 -0.3136  0.5939
  797MPD2    H711753   4.007   2.927  17.080  1.6689  0.6524  2.2701
  798MPD2     C11754   3.354   2.886  17.102  0.2358  0.0585  0.1770
  798MPD2    C111755   3.464   2.952  17.046 -0.2814  0.5753 -0.3807
  798MPD2    C211756   3.584   2.922  17.104 -0.1625  0.1648  0.3500
  798MPD2    C311757   3.595   2.839  17.204  0.4718 -0.7129 -0.5475
  798MPD2    C411758   3.487   2.788  17.272  0.4329 -0.4081 -0.0158
  798MPD2    C511759   3.364   2.812  17.218 -0.0996 -0.6141 -0.1631
  798MPD2     H11760   3.680   2.962  17.073  0.5105 -1.6544  0.0908
  798MPD2    H111761   3.501   2.736  17.366  1.2855 -0.4709 -0.1707
  798MPD2    H211762   3.250   2.909  17.078  0.0689 -0.4701  0.3955
  798MPD2    H311763   3.278   2.765  17.265 -0.9730 -1.1887 -2.3211
  798MPD2     N11764   3.729   2.819  17.241  0.0702 -0.2054  0.2061
  798MPD2    H511765   3.804   2.852  17.181 -1.4622 -0.3348 -1.7843
  798MPD2    N111766   3.459   3.033  16.931  0.7633 -0.1790  0.5388
  798MPD2    H711767   3.545   3.078  16.900  0.4275  0.3236  0.3279
  799MPD2     C11768   2.848   4.070  15.163 -0.0535 -0.0241  0.0474
  799MPD2    C111769   2.826   4.027  15.033 -0.0317 -0.2005 -0.1080
  799MPD2    C211770   2.803   4.115  14.923  0.2992  0.2798  0.6822
  799MPD2    C311771   2.806   4.256  14.941  1.0200  0.0318 -0.2335
  799MPD2    C411772   2.829   4.298  15.070  0.2461 -0.1992 -0.3632
  799MPD2    C511773   2.840   4.209  15.176  0.7200  0.1606  0.1045
  799MPD2     H11774   2.780   4.085  14.821  0.5536  2.4699 -0.0247
  799MPD2    H111775   2.834   4.404  15.091 -1.3488 -0.1278 -0.3753
  799MPD2    H211776   2.848   4.004  15.249 -2.0318  1.4507  1.1750
  799MPD2    H311777   2.847   4.248  15.277 -0.0601 -0.6389  0.4644
  799MPD2     N11778   2.786   4.352  14.834 -0.4455 -0.3567  0.1799
  799MPD2    H511779   2.827   4.444  14.848  3.0071 -1.8978  0.2337
  799MPD2    N111780   2.843   3.890  14.995 -0.1799 -0.3642  0.2817
  799MPD2    H711781   2.813   3.883  14.898 -0.3626  0.5669  0.2716
  800MPD2     C11782   3.396   0.573  14.138 -0.5486  0.6358 -0.0533
  800MPD2    C111783   3.525   0.562  14.176 -0.6176 -0.7930  0.9071
  800MPD2    C211784   3.592   0.448  14.135 -0.2567  0.3232  0.2974
  800MPD2    C311785   3.546   0.371  14.035  0.5215 -0.0199 -0.4767
  800MPD2    C411786   3.423   0.396  13.979  0.5723  0.8570  0.4420
  800MPD2    C511787   3.347   0.494  14.040 -0.5138 -0.4405 -0.4631
  800MPD2     H11788   3.691   0.423  14.171  0.1047  0.8685 -0.3379
  800MPD2    H111789   3.373   0.349  13.895  2.0009 -1.3842  0.8644
  800MPD2    H211790   3.334   0.651  14.182  0.0687  0.1532  1.6807
  800MPD2    H311791   3.255   0.524  13.991  0.6219  2.3647 -0.8853
  800MPD2     N11792   3.635   0.271  13.979 -0.4494 -0.1402  0.0060
  800MPD2    H511793   3.731   0.266  14.010  0.0263  0.9484 -1.2634
  800MPD2    N111794   3.581   0.645  14.276 -0.2577  0.1085 -0.8487
  800MPD2    H711795   3.524   0.726  14.296  1.2038  0.5579  1.4375
  801MPD2     C11796   3.265   1.172  14.597  0.3564  0.0041 -0.6548
  801MPD2    C111797   3.291   1.062  14.524  0.2578 -0.4396  0.2421
  801MPD2    C211798   3.190   0.986  14.466 -0.9578  0.0522  0.1330
  801MPD2    C311799   3.053   1.021  14.479 -0.4766 -0.0542 -0.0174
  801MPD2    C411800   3.028   1.132  14.559  0.0594  0.1732 -0.3116
  801MPD2    C511801   3.129   1.211  14.608  0.1086 -0.1823 -0.0639
  801MPD2     H11802   3.226   0.890  14.431 -1.2912 -0.4191  1.0829
  801MPD2    H111803   2.925   1.162  14.574 -0.3872 -0.7939 -1.4447
  801MPD2    H211804   3.345   1.233  14.637  0.6290 -0.2013 -0.8810
  801MPD2    H311805   3.098   1.302  14.659 -0.6868  0.6338 -1.9959
  801MPD2     N11806   2.950   0.944  14.420  0.2120  0.0541 -0.0394
  801MPD2    H511807   2.852   0.969  14.434  0.0837  0.0747 -0.9476
  801MPD2    N111808   3.423   1.016  14.497  0.7356  0.3358 -0.2666
  801MPD2    H711809   3.432   0.933  14.440  0.5055 -0.6980  1.1820
  802MPD2     C11810   2.937   2.043   0.114  0.0584 -0.3035 -0.3626
  802MPD2    C111811   2.833   2.015   0.032  0.4581  0.2012  0.3751
  802MPD2    C211812   2.852   1.945  17.614 -0.3310  0.0783 -0.1856
  802MPD2    C311813   2.976   1.888  17.589  1.2126  0.7051  0.2387
  802MPD2    C411814   3.082   1.909  17.676 -0.0735 -0.2424  0.3591
  802MPD2    C511815   3.060   1.993   0.081  0.3431 -0.3788  0.4143
  802MPD2     H11816   2.773   1.934  17.541 -1.8422  0.2258  1.4414
  802MPD2    H111817   3.181   1.872  17.652 -0.3961 -1.6706  1.2443
  802MPD2    H211818   2.927   2.092   0.210 -0.4859  0.2176 -0.6860
  802MPD2    H311819   3.149   2.022   0.137 -1.1158  3.1993  0.8605
  802MPD2     N11820   2.992   1.818  17.470 -0.0434 -0.4169  0.3192
  802MPD2    H511821   2.913   1.816  17.407 -0.8825 -0.5984  1.3836
  802MPD2    N111822   2.698   2.049   0.052 -0.6711  0.1195  0.5083
  802MPD2    H711823   2.631   2.049  17.676  1.1940  3.1536 -1.1384
  803MPD2     C11824   4.145   4.285  11.719 -0.7914 -0.1447  0.4767
  803MPD2    C111825   4.230   4.360  11.794 -0.4424 -0.1568 -0.2962
  803MPD2    C211826   4.198   4.403  11.930 -0.1285  0.7678  0.2421
  803MPD2    C311827   4.076   4.356  11.977 -0.3727 -0.1956  0.1034
  803MPD2    C411828   3.998   4.283  11.896 -0.2017  0.0993 -0.0216
  803MPD2    C511829   4.027   4.245  11.771  0.0563  0.6424  0.4035
  803MPD2     H11830   4.264   4.464  11.990 -0.4527  0.3173  1.0564
  803MPD2    H111831   3.906   4.243  11.939 -0.2162 -0.3956 -0.5116
  803MPD2    H211832   4.163   4.259  11.616  2.3182 -1.3691  1.3161
  803MPD2    H311833   3.973   4.177  11.706 -1.6044  1.2694  1.1429
  803MPD2     N11834   4.039   4.365  12.113  0.3747 -0.3895  0.6047
  803MPD2    H511835   3.956   4.319  12.149 -1.5103  0.5716 -2.6005
  803MPD2    N111836   4.361   4.393  11.752 -0.8842 -0.3452  0.4032
  803MPD2    H711837   4.421   4.427  11.827 -2.1994 -2.3455  2.3581
  804MPD2     C11838   3.234   1.317  16.889  0.1505 -0.4586 -0.6590
  804MPD2    C111839   3.281   1.285  17.018  0.1504  0.4967  0.0221
  804MPD2    C211840   3.340   1.386  17.088  0.7566 -0.5534  0.2973
  804MPD2    C311841   3.354   1.514  17.045 -0.5543  0.5932  0.1979
  804MPD2    C411842   3.311   1.545  16.919  0.0726 -0.3950  0.3538
  804MPD2    C511843   3.242   1.450  16.849  0.2109 -0.4676  0.5864
  804MPD2     H11844   3.375   1.351  17.184 -0.3404 -1.3755  0.3984
  804MPD2    H111845   3.329   1.638  16.866 -2.9229 -0.6564 -1.1144
  804MPD2    H211846   3.178   1.249  16.826  0.4553  1.2319 -2.7325
  804MPD2    H311847   3.203   1.466  16.749 -0.7491 -0.2901  0.9923
  804MPD2     N11848   3.425   1.605  17.123  0.1961 -0.7555  0.4571
  804MPD2    H511849   3.478   1.573  17.204  0.2742 -0.5273  0.4956
  804MPD2    N111850   3.268   1.154  17.071  0.1766  0.0328  0.3144
  804MPD2    H711851   3.295   1.139  17.168 -0.9525  0.0586  0.6309
  805MPD2     C11852   2.279   4.294  15.762  0.6862  0.5295 -0.5243
  805MPD2    C111853   2.409   4.303  15.718 -0.5259  0.3682  0.2593
  805MPD2    C211854   2.501   4.360  15.804 -0.3100  0.2054 -0.0758
  805MPD2    C311855   2.463   4.429  15.922 -0.1231 -0.0481 -0.1151
  805MPD2    C411856   2.331   4.419  15.961 -0.1599 -0.0433  0.0052
  805MPD2    C511857   2.246   4.337  15.891  0.3874  0.4991 -0.0017
  805MPD2     H11858   2.604   4.377  15.779 -0.6486 -0.0496 -1.6240
  805MPD2    H111859   2.298   4.454  16.058  0.2316  2.2448 -0.6839
  805MPD2    H211860   2.203   4.246  15.702  1.4459 -0.8989 -0.3494
  805MPD2    H311861   2.143   4.328  15.923  1.0776  0.7367  2.2734
  805MPD2     N11862   2.560   4.505  15.993 -0.0137 -0.1382  0.9938
  805MPD2    H511863   2.656   4.477  15.975 -0.2007  0.5067 -1.0782
  805MPD2    N111864   2.446   4.259  15.594 -0.5171  0.0391  0.1937
  805MPD2    H711865   2.545   4.249  15.572 -0.5938  1.0321 -0.6080
  806MPD2     C11866   2.198   3.423   0.217 -0.3256 -0.2510  0.2828
  806MPD2    C111867   2.314   3.384   0.290 -0.1043 -0.7778 -0.1897
  806MPD2    C211868   2.432   3.375   0.217  0.1463 -0.3620 -0.0670
  806MPD2    C311869   2.433   3.404   0.080 -0.2695 -0.3287  0.3437
  806MPD2    C411870   2.317   3.434   0.009 -0.4148  0.0695 -0.4341
  806MPD2    C511871   2.202   3.424   0.078 -0.3351  0.2152  0.0970
  806MPD2     H11872   2.523   3.331   0.254 -0.6007 -0.3413  1.8014
  806MPD2    H111873   2.313   3.458  17.604 -0.9479  2.6549  0.1814
  806MPD2    H211874   2.106   3.459   0.260  0.4674  0.7775  1.1162
  806MPD2    H311875   2.114   3.452   0.021  1.7834 -0.4664 -3.5098
  806MPD2     N11876   2.558   3.389   0.026  0.5119  0.4789 -0.0045
  806MPD2    H511877   2.638   3.372   0.086 -1.4594 -0.3826  2.3618
  806MPD2    N111878   2.309   3.369   0.431  0.0651  0.5240  0.1669
  806MPD2    H711879   2.219   3.375   0.478  0.6658  0.6169  1.2893
  807MPD2     C11880   1.885   3.137   1.087 -0.1563  0.4476  0.0794
  807MPD2    C111881   2.019   3.132   1.116 -0.2088  1.0412 -0.1266
  807MPD2    C211882   2.051   3.115   1.253  0.0380 -0.1358 -0.6019
  807MPD2    C311883   1.959   3.111   1.348  0.0214  0.2334  0.5080
  807MPD2    C411884   1.823   3.117   1.312 -0.6597  0.3257 -0.1023
  807MPD2    C511885   1.790   3.124   1.179  0.0289  0.6147 -0.1581
  807MPD2     H11886   2.157   3.109   1.276 -0.1832 -0.6822  0.2523
  807MPD2    H111887   1.745   3.120   1.386 -0.3405 -0.0954  0.2462
  807MPD2    H211888   1.840   3.160   0.991 -0.0827  1.4437  0.2803
  807MPD2    H311889   1.685   3.135   1.153  0.4243  2.7570 -0.8945
  807MPD2     N11890   1.994   3.119   1.485 -0.1671  0.0558  0.6422
  807MPD2    H511891   1.920   3.083   1.545  1.5197 -1.6045  1.7402
  807MPD2    N111892   2.132   3.162   1.028 -0.1232  0.0320  0.6902
  807MPD2    H711893   2.222   3.169   1.074  0.1045 -0.3806  0.3152
  808MPD2     C11894   3.118   4.153  10.357 -0.2874  0.7114  0.6000
  808MPD2    C111895   3.100   4.183  10.229  0.0717 -0.1119 -0.4132
  808MPD2    C211896   3.172   4.288  10.173  0.1135  0.0416 -0.4502
  808MPD2    C311897   3.265   4.359  10.244  0.1570 -0.3966 -0.2297
  808MPD2    C411898   3.288   4.322  10.376 -0.1826 -0.1385 -0.0713
  808MPD2    C511899   3.213   4.222  10.433  0.7505  0.5002  0.0677
  808MPD2     H11900   3.160   4.311  10.068  0.2665 -1.1373 -0.7242
  808MPD2    H111901   3.367   4.374  10.429 -2.2662  2.2539  0.6779
  808MPD2    H211902   3.057   4.087  10.418  0.3740 -0.3162  0.1442
  808MPD2    H311903   3.224   4.210  10.540  3.0502 -1.8311 -0.4013
  808MPD2     N11904   3.348   4.463  10.192  0.1241 -0.6076 -0.6463
  808MPD2    H511905   3.419   4.498  10.255 -0.0916 -3.3264  1.1134
  808MPD2    N111906   3.012   4.117  10.149  0.0798 -0.1690 -0.0832
  808MPD2    H711907   2.999   4.164  10.060 -2.0451 -0.9082 -0.1856
  809MPD2     C11908   3.991   4.690  10.662 -0.0981  0.9891 -0.6176
  809MPD2    C111909   4.058   4.666  10.543 -0.2468 -0.5446 -0.2992
  809MPD2    C211910   3.982   4.641  10.424  0.4571 -0.3776  0.4128
  809MPD2    C311911   3.840   4.649  10.430  0.0217 -1.1356  0.5419
  809MPD2    C411912   3.778   4.676  10.552  0.0598 -0.0532 -0.0431
  809MPD2    C511913   3.853   4.694  10.661 -0.2973  0.0089  0.4064
  809MPD2     H11914   4.040   4.619  10.336  2.6142 -1.5076  2.0970
  809MPD2    H111915   3.671   4.667  10.567  0.2649  0.6393  1.7659
  809MPD2    H211916   4.052   4.701  10.750 -1.1628 -2.8183  0.5792
  809MPD2    H311917   3.792   4.718  10.748 -1.4071  1.6347 -0.8155
  809MPD2     N11918   3.762   4.619  10.310  0.3239 -0.9731 -0.4182
  809MPD2    H511919   3.662   4.632  10.321  1.1116  2.6027  2.2458
  809MPD2    N111920   4.200   4.658  10.536  0.0168  0.1924 -0.7223
  809MPD2    H711921   4.231   4.658  10.439  0.1936 -1.2395 -0.6691
  810MPD2     C11922   3.031   0.055  11.035  0.1917  0.4272  0.1148
  810MPD2    C111923   3.012   0.025  10.900  0.1572  0.4459  0.3636
  810MPD2    C211924   3.040   0.122  10.800  0.2877 -0.3686 -0.2124
  810MPD2    C311925   3.096   0.240  10.857 -0.5568  0.4102  0.1693
  810MPD2    C411926   3.113   0.259  10.993 -0.5252  0.1258 -0.3399
  810MPD2    C511927   3.078   0.170  11.086  0.4344  0.0948 -0.2169
  810MPD2     H11928   3.029   0.103  10.694  0.1793  1.9648 -0.6187
  810MPD2    H111929   3.151   0.354  11.028  0.0195 -0.0649 -0.4093
  810MPD2    H211930   3.013   4.701  11.108  1.2524 -0.7237 -0.8578
  810MPD2    H311931   3.088   0.194  11.191  0.8027 -0.1048 -0.2071
  810MPD2     N11932   3.152   0.347  10.782  0.3748  0.0170  0.0673
  810MPD2    H511933   3.209   0.411  10.836 -3.6306  2.0562  1.8967
  810MPD2    N111934   2.957   4.624  10.876  0.2709  0.4137  0.0042
  810MPD2    H711935   2.950   4.556  10.951 -0.2975  1.8007  1.2225
  811MPD2     C11936   2.658   4.203  10.197  0.1169  0.2520 -0.2955
  811MPD2    C111937   2.743   4.299  10.234  0.6226  0.2235 -0.0716
  811MPD2    C211938   2.783   4.397  10.145  0.5680  0.4838  0.2807
  811MPD2    C311939   2.734   4.402  10.018 -0.4305 -0.0996 -0.9498
  811MPD2    C411940   2.643   4.306   9.983 -0.1024 -0.3454  0.5186
  811MPD2    C511941   2.616   4.204  10.069 -0.1261  0.2026  0.3079
  811MPD2     H11942   2.842   4.483  10.173 -0.9725  1.4362  0.5961
  811MPD2    H111943   2.601   4.308   9.883  1.7264 -1.5766 -0.2755
  811MPD2    H211944   2.622   4.130  10.269  1.0269  1.8592  1.7901
  811MPD2    H311945   2.547   4.125  10.046 -0.1325  0.0684  0.7764
  811MPD2     N11946   2.780   4.506   9.934 -0.8958  0.5690 -0.0992
  811MPD2    H511947   2.860   4.549   9.980 -0.0209 -1.0621 -0.0789
  811MPD2    N111948   2.785   4.311  10.374 -0.9734 -1.1241 -0.7895
  811MPD2    H711949   2.842   4.392  10.395 -0.1727 -1.1083 -3.0699
  812MPD2     C11950   2.069   0.144  12.644  0.0606 -0.4857  0.1158
  812MPD2    C111951   1.943   0.155  12.699 -0.1449 -0.0809 -0.0882
  812MPD2    C211952   1.896   0.044  12.769 -0.1886 -0.7211  0.0725
  812MPD2    C311953   1.972   4.661  12.798 -0.8465  0.5119 -0.7261
  812MPD2    C411954   2.098   4.661  12.756  0.5648  0.2069  0.3088
  812MPD2    C511955   2.143   0.037  12.674  0.2606  0.1906  0.3505
  812MPD2     H11956   1.789   0.039  12.787 -0.1135 -0.0765  0.6809
  812MPD2    H111957   2.170   4.583  12.778 -0.2381 -0.9556 -1.1927
  812MPD2    H211958   2.106   0.229  12.587  0.8890 -1.6910 -1.1231
  812MPD2    H311959   2.241   0.043  12.628 -0.3867 -1.0239 -1.1777
  812MPD2     N11960   1.917   4.568  12.890 -0.4288 -0.3062  0.0053
  812MPD2    H511961   1.816   4.560  12.894 -0.4815 -0.5773 -1.8603
  812MPD2    N111962   1.868   0.277  12.670  0.2007  0.1955  0.0349
  812MPD2    H711963   1.912   0.341  12.605  0.0468 -0.9889 -1.2398
  813MPD2     C11964   0.942   2.432  13.147  0.1635  0.1309  0.4892
  813MPD2    C111965   0.868   2.351  13.064 -0.5792 -0.0584 -0.0287
  813MPD2    C211966   0.888   2.216  13.079 -0.4484  0.1427 -0.6033
  813MPD2    C311967   0.970   2.158  13.178  0.2165 -0.2338  0.0963
  813MPD2    C411968   1.042   2.244  13.258 -0.0575  0.2512  0.6314
  813MPD2    C511969   1.026   2.379  13.240  0.6401 -0.9169  0.7418
  813MPD2     H11970   0.838   2.144  13.016  2.3884 -1.1922 -1.3374
  813MPD2    H111971   1.115   2.210  13.331  1.4392  2.3404  0.1006
  813MPD2    H211972   0.926   2.539  13.148 -0.3382  0.0460  1.5279
  813MPD2    H311973   1.083   2.447  13.304  0.5381  1.1815 -1.4081
  813MPD2     N11974   0.960   2.019  13.196 -0.0302  0.4415 -0.2013
  813MPD2    H511975   0.892   1.971  13.138  0.4840  0.5448 -0.8917
  813MPD2    N111976   0.765   2.407  12.987  0.1947 -0.5899 -0.1349
  813MPD2    H711977   0.754   2.507  12.977  1.6042 -0.5170 -0.9852
  814MPD2     C11978   1.321   2.459  12.168  0.2404  0.2963 -0.1631
  814MPD2    C111979   1.399   2.536  12.079 -0.4747  0.3907  0.3101
  814MPD2    C211980   1.478   2.637  12.125  0.2854 -0.3639  0.5717
  814MPD2    C311981   1.484   2.673  12.259 -0.0197 -0.4310 -0.5275
  814MPD2    C411982   1.400   2.604  12.347 -0.2178  0.3190  0.2630
  814MPD2    C511983   1.316   2.504  12.298  0.1146  0.9945  0.0038
  814MPD2     H11984   1.539   2.688  12.050 -0.0558 -2.1601 -0.9244
  814MPD2    H111985   1.400   2.625  12.453 -0.4942  0.3087  0.2652
  814MPD2    H211986   1.260   2.372  12.149  0.7719 -0.1267  0.0895
  814MPD2    H311987   1.248   2.457  12.368 -1.4532  2.0554 -0.7823
  814MPD2     N11988   1.559   2.786  12.306 -0.0289 -0.4861 -0.4286
  814MPD2    H511989   1.547   2.807  12.405 -1.4041  0.1518 -0.7410
  814MPD2    N111990   1.403   2.511  11.946  0.2520  0.1414  0.1558
  814MPD2    H711991   1.463   2.568  11.888  0.0227  1.3175  1.0947
  815MPD2     C11992   1.738   1.493  11.719  0.4298 -0.2511 -0.5149
  815MPD2    C111993   1.769   1.362  11.744  0.6088 -0.2235  1.0020
  815MPD2    C211994   1.664   1.280  11.797  0.6378 -0.3384 -0.4983
  815MPD2    C311995   1.536   1.333  11.820  0.3069 -0.1782  0.7249
  815MPD2    C411996   1.508   1.462  11.795  0.2374 -0.0392 -0.0088
  815MPD2    C511997   1.614   1.544  11.752 -0.2642 -0.2898 -0.3545
  815MPD2     H11998   1.685   1.175  11.815  1.2881 -0.2844 -0.9180
  815MPD2    H111999   1.416   1.519  11.790  0.5233  0.2439 -2.1646
  815MPD2    H212000   1.808   1.555  11.664  0.5914 -0.4381 -0.5233
  815MPD2    H312001   1.598   1.645  11.715  0.3821  0.0730  0.3705
  815MPD2     N12002   1.430   1.242  11.854 -0.2339 -0.2037 -0.1367
  815MPD2    H512003   1.450   1.148  11.888  1.8077  1.2632  2.7063
  815MPD2    N112004   1.900   1.316  11.708 -0.8761 -0.2848  0.7291
  815MPD2    H712005   1.957   1.382  11.657 -0.7923  0.6336  2.0028
  816MPD2     C12006   2.390   0.734  17.238 -0.3933  0.3055 -0.6086
  816MPD2    C112007   2.265   0.722  17.171  0.7962  0.1517  0.1361
  816MPD2    C212008   2.264   0.665  17.044 -0.9999  0.1781 -0.6336
  816MPD2    C312009   2.372   0.592  16.998  0.6494  0.4608 -0.3990
  816MPD2    C412010   2.495   0.610  17.064  0.2750 -0.4053 -0.2362
  816MPD2    C512011   2.500   0.676  17.182 -0.9153 -0.1375  0.0246
  816MPD2     H12012   2.169   0.662  16.992 -1.4864 -1.2847  0.3217
  816MPD2    H112013   2.584   0.555  17.037  1.3545  1.7782 -1.0509
  816MPD2    H212014   2.407   0.778  17.336  1.5578  1.1557 -1.3301
  816MPD2    H312015   2.588   0.679  17.246  0.0266 -0.2050 -1.2709
  816MPD2     N12016   2.347   0.513  16.885 -0.0156  0.2692 -0.1346
  816MPD2    H512017   2.252   0.512  16.848  1.1851  0.4546 -3.1881
  816MPD2    N112018   2.145   0.772  17.222  0.1731  0.1361  0.1065
  816MPD2    H712019   2.077   0.791  17.149  1.8788  0.1821 -1.4736
  817MPD2     C12020   2.077   2.191   9.829  0.5814 -0.4939 -0.3794
  817MPD2    C112021   1.960   2.116   9.812  0.2410 -0.6251  0.5876
  817MPD2    C212022   1.845   2.193   9.798 -0.1430 -0.3508 -0.8043
  817MPD2    C312023   1.840   2.326   9.789 -0.1492  0.4211  0.1142
  817MPD2    C412024   1.952   2.396   9.816 -0.4051  0.1500 -0.6718
  817MPD2    C512025   2.068   2.327   9.843 -0.3641  0.5557 -0.1614
  817MPD2     H12026   1.756   2.140   9.766 -0.5097  1.0490 -2.0604
  817MPD2    H112027   1.954   2.504   9.816 -1.9300  0.1794  0.9968
  817MPD2    H212028   2.170   2.138   9.846 -0.0536 -1.2214  0.7912
  817MPD2    H312029   2.157   2.382   9.874  0.1982  0.5627 -1.8132
  817MPD2     N12030   1.709   2.384   9.765  0.1020 -0.2367  0.0840
  817MPD2    H512031   1.634   2.323   9.734  0.7074 -1.2483  0.6058
  817MPD2    N112032   1.957   1.979   9.802 -1.0114  0.0706  0.0744
  817MPD2    H712033   1.873   1.925   9.824  0.2481 -1.6667  0.6518
  818MPD2     C12034   0.624   2.444  10.103 -0.4079  0.0608  0.0442
  818MPD2    C112035   0.501   2.376  10.099 -0.2130  0.0610 -0.7929
  818MPD2    C212036   0.479   2.267  10.021 -0.1651 -0.6747 -0.6343
  818MPD2    C312037   0.581   2.211   9.948 -1.0470 -0.3403 -0.5353
  818MPD2    C412038   0.704   2.270   9.953  0.6315 -0.1070 -0.3434
  818MPD2    C512039   0.725   2.380  10.031  0.9679 -0.0443 -0.5452
  818MPD2     H12040   0.384   2.215  10.028 -0.5032 -0.2857 -2.5017
  818MPD2    H112041   0.790   2.236   9.896  1.0293 -1.1037  0.8387
  818MPD2    H212042   0.660   2.531  10.156 -0.5941 -1.0439  1.9790
  818MPD2    H312043   0.828   2.415  10.032  0.0475  2.6138 -0.6692
  818MPD2     N12044   0.564   2.090   9.871  0.4343 -0.3588  0.1919
  818MPD2    H512045   0.646   2.050   9.827  0.0273 -0.7205 -0.2310
  818MPD2    N112046   0.397   2.423  10.187 -0.4117 -0.1117  0.3379
  818MPD2    H712047   0.323   2.355  10.205  0.3890 -0.8709  0.7716
  819MPD2     C12048   2.906   3.700  16.046  0.0114 -0.3632  0.2780
  819MPD2    C112049   2.950   3.579  16.011  0.1961 -0.5297  0.0316
  819MPD2    C212050   3.085   3.552  15.999 -0.3158 -0.0986  0.3910
  819MPD2    C312051   3.176   3.647  16.029  0.3272  0.2540  0.0214
  819MPD2    C412052   3.130   3.773  16.070  0.5293 -0.1407  0.1532
  819MPD2    C512053   2.993   3.798  16.072  0.3821 -0.1098 -0.1056
  819MPD2     H12054   3.125   3.458  15.964 -0.2589 -0.9608  2.8003
  819MPD2    H112055   3.189   3.856  16.106  0.7022 -0.3212  0.2886
  819MPD2    H212056   2.799   3.714  16.057  0.1997  1.3473 -0.1105
  819MPD2    H312057   2.973   3.897  16.112  0.6645 -0.2049  0.2684
  819MPD2     N12058   3.311   3.619  16.005  0.2945  0.2810 -0.0241
  819MPD2    H512059   3.331   3.534  15.952 -0.2646  0.4077 -0.4373
  819MPD2    N112060   2.855   3.481  15.970  0.1668 -0.9042  0.1056
  819MPD2    H712061   2.756   3.504  15.958  0.5874  0.2545 -1.1594
  820MPD2     C12062   2.482   3.577  15.097 -0.1635  0.1640  0.1065
  820MPD2    C112063   2.524   3.644  15.207  0.9434 -0.2975  0.8515
  820MPD2    C212064   2.557   3.573  15.319 -0.2656 -0.8700 -0.0854
  820MPD2    C312065   2.562   3.433  15.325 -0.6317  0.0835  0.3898
  820MPD2    C412066   2.530   3.373  15.207  0.1409  0.2271 -0.0600
  820MPD2    C512067   2.492   3.442  15.098  0.1813 -0.0095 -0.1083
  820MPD2     H12068   2.592   3.632  15.403 -0.9785 -0.2410 -0.2275
  820MPD2    H112069   2.538   3.265  15.199  1.7814  0.2254  1.6635
  820MPD2    H212070   2.448   3.626  15.006  1.5683 -0.5692 -0.9436
  820MPD2    H312071   2.486   3.380  15.009 -0.9532 -1.4882  0.9946
  820MPD2     N12072   2.606   3.359  15.433  0.0447  0.2011 -0.2303
  820MPD2    H512073   2.593   3.258  15.429 -0.2050  0.1810  1.3509
  820MPD2    N112074   2.523   3.786  15.200  0.5393 -0.2612  0.6339
  820MPD2    H712075   2.508   3.826  15.108 -0.4178 -1.6161  0.2100
  821MPD2     C12076   3.760   0.127  13.113  0.5247 -0.8879  0.7867
  821MPD2    C112077   3.853   0.188  13.191  0.4792  0.1051  0.4142
  821MPD2    C212078   3.966   0.244  13.133  0.0084  0.6269  0.1708
  821MPD2    C312079   3.986   0.250  12.995  0.6167 -0.1733 -0.0267
  821MPD2    C412080   3.891   0.193  12.917 -0.2488 -0.8678 -0.4063
  821MPD2    C512081   3.782   0.129  12.978 -0.5113  0.1105 -0.3202
  821MPD2     H12082   4.036   0.284  13.205  1.2811 -0.1182 -0.6573
  821MPD2    H112083   3.902   0.180  12.810 -0.7260 -1.3655 -0.3991
  821MPD2    H212084   3.676   0.075  13.159 -0.8653  0.9809  0.3716
  821MPD2    H312085   3.711   0.071  12.920 -0.0185 -0.8907  0.0825
  821MPD2     N12086   4.109   0.297  12.941  0.0920  0.2282  0.6042
  821MPD2    H512087   4.121   0.307  12.840 -3.0482  1.8416  0.3786
  821MPD2    N112088   3.850   0.203  13.334 -0.3123 -0.0468 -0.8294
  821MPD2    H712089   3.925   0.258  13.373  0.2655  0.1290 -2.2025
  822MPD2     C12090   3.875   0.598  15.607  0.7631  0.3557  0.3612
  822MPD2    C112091   3.805   0.536  15.710 -0.2482 -0.1267 -0.6157
  822MPD2    C212092   3.725   0.608  15.790 -0.8054 -0.3886 -1.0911
  822MPD2    C312093   3.714   0.744  15.777 -0.0173  0.0661 -0.3113
  822MPD2    C412094   3.777   0.810  15.677 -0.9546  0.4818 -0.2452
  822MPD2    C512095   3.858   0.733  15.589 -0.3606 -0.1013 -0.1572
  822MPD2     H12096   3.673   0.563  15.874 -2.1836 -1.4942 -2.5312
  822MPD2    H112097   3.770   0.917  15.664  1.8673  0.2288 -3.7327
  822MPD2    H212098   3.945   0.551  15.538  0.1410 -0.2706  0.1579
  822MPD2    H312099   3.910   0.782  15.507  1.1533  1.4192  1.7166
  822MPD2     N12100   3.633   0.811  15.879  0.2322 -0.1560  0.6693
  822MPD2    H512101   3.585   0.745  15.940 -0.1464 -0.5913 -0.1016
  822MPD2    N112102   3.837   0.407  15.767  0.2542  0.8290  0.3462
  822MPD2    H712103   3.785   0.393  15.852 -0.5466 -1.6812 -0.5679
  823MPD2     C12104   3.415   0.924  16.699  0.1848 -0.0458 -0.3488
  823MPD2    C112105   3.411   0.839  16.591  0.1005  0.4168  0.1531
  823MPD2    C212106   3.419   0.698  16.611  0.0464  0.3895  0.0495
  823MPD2    C312107   3.457   0.654  16.737 -0.3990 -0.2956 -0.4961
  823MPD2    C412108   3.467   0.742  16.841  0.1586  0.2995 -0.4897
  823MPD2    C512109   3.438   0.874  16.824 -0.3417  0.0098 -0.9888
  823MPD2     H12110   3.416   0.630  16.527 -0.3830 -1.0006  1.1796
  823MPD2    H112111   3.490   0.713  16.943  0.4075 -3.4568 -1.6023
  823MPD2    H212112   3.423   1.031  16.686  1.1057  0.0218  0.7511
  823MPD2    H312113   3.445   0.942  16.908  1.0626 -0.7265 -0.5115
  823MPD2     N12114   3.456   0.514  16.766 -0.0596 -0.1656 -0.1847
  823MPD2    H512115   3.459   0.487  16.863  2.0799  0.8734  0.0563
  823MPD2    N112116   3.403   0.902  16.464 -0.3546  0.5605  0.3774
  823MPD2    H712117   3.398   1.003  16.463 -3.6245  0.3549 -1.9629
  824MPD2     C12118   4.194   4.417  15.605  0.0482  0.0210  0.0050
  824MPD2    C112119   4.279   4.524  15.618  0.2535  0.2474  0.3924
  824MPD2    C212120   4.400   4.522  15.544 -0.4520 -0.5498 -0.0021
  824MPD2    C312121   4.438   4.410  15.472 -0.2457 -0.5862 -0.4105
  824MPD2    C412122   4.352   4.310  15.462 -0.5356 -0.0515  0.5860
  824MPD2    C512123   4.233   4.316  15.528  0.3135 -0.5468 -0.4802
  824MPD2     H12124   4.470   4.605  15.551  0.6281 -1.6118  1.7339
  824MPD2    H112125   4.375   4.223  15.402  4.9057  0.6975  1.6027
  824MPD2    H212126   4.093   4.415  15.642  0.0668 -0.2154  0.0434
  824MPD2    H312127   4.183   4.219  15.526 -0.3278 -0.1909 -1.4607
  824MPD2     N12128   4.571   4.399  15.416  0.2497  0.3604  0.0641
  824MPD2    H512129   4.642   4.460  15.453  1.2785  1.4064 -3.6155
  824MPD2    N112130   4.241   4.633  15.703  0.0844 -0.3773  0.2155
  824MPD2    H712131   4.299   4.716  15.696  1.6426 -1.5231 -0.5366
  825MPD2     C12132   0.511   4.657  14.982 -0.0558  0.0008  0.4979
  825MPD2    C112133   0.454   4.666  15.112  0.3055 -0.2782 -0.4045
  825MPD2    C212134   0.488   0.050  15.193  0.2830  0.2436  0.5818
  825MPD2    C312135   0.576   0.147  15.146  0.1097 -0.5167 -0.2891
  825MPD2    C412136   0.593   0.153  15.013 -0.4715 -0.0626 -0.2248
  825MPD2    C512137   0.566   0.052  14.933  0.3759 -0.1641  0.1201
  825MPD2     H12138   0.448   0.044  15.293 -2.0467  1.3082 -0.2764
  825MPD2    H112139   0.645   0.236  14.965 -2.6153  1.7274  0.5541
  825MPD2    H212140   0.502   4.572  14.915 -1.4974  0.3615  0.2395
  825MPD2    H312141   0.595   0.066  14.829  0.1451 -0.4690  0.0136
  825MPD2     N12142   0.625   0.256  15.219  0.1126 -0.4830  0.1984
  825MPD2    H512143   0.695   0.313  15.171  0.0150 -1.1150 -0.6912
  825MPD2    N112144   0.378   4.550  15.153  0.0925 -0.0558  0.1469
  825MPD2    H712145   0.368   4.465  15.098 -2.3774  0.5482 -0.3212
  826MPD2     C12146   0.197   4.405  13.981  0.5104  0.0711  0.5832
  826MPD2    C112147   0.208   4.472  13.862  0.4979  0.5949 -0.2910
  826MPD2    C212148   0.122   4.578  13.841 -0.0411 -0.3991 -0.5043
  826MPD2    C312149   0.029   4.614  13.938 -0.4126  0.8745  0.1086
  826MPD2    C412150   0.019   4.537  14.054 -0.2885 -0.6072  0.2559
  826MPD2    C512151   0.101   4.437  14.077 -0.5672 -0.0730  0.4817
  826MPD2     H12152   0.135   4.639  13.752  1.4220  1.6423  1.1283
  826MPD2    H112153   4.675   4.563  14.134  0.1927  0.5562  0.3034
  826MPD2    H212154   0.265   4.327  14.014  0.2345 -1.6743 -2.9063
  826MPD2    H312155   0.098   4.399  14.178 -0.1800  1.3222  1.0253
  826MPD2     N12156   4.662   4.720  13.928  0.0805  0.3525  0.1476
  826MPD2    H512157   4.612   0.025  14.011 -2.8777  1.0771 -1.8961
  826MPD2    N112158   0.313   4.432  13.775  0.5017 -0.7431  0.0564
  826MPD2    H712159   0.358   4.345  13.803 -1.5574 -1.1148  2.2043
  827MPD2     C12160   1.323   0.077  10.017 -0.0194  0.4359 -0.3883
  827MPD2    C112161   1.210   0.130  10.076 -0.5900  0.9952  0.1930
  827MPD2    C212162   1.088   0.088  10.037  0.2822  0.3889 -0.8587
  827MPD2    C312163   1.077   4.718   9.937  0.2817 -0.7896 -0.3259
  827MPD2    C412164   1.186   4.661   9.887 -0.1274  0.1067 -0.8376
  827MPD2    C512165   1.312   4.709   9.919  0.6012  0.0724  0.2401
  827MPD2     H12166   0.995   0.131  10.072  0.1967  1.2361 -2.1312
  827MPD2    H112167   1.182   4.582   9.812 -0.4925  0.1604 -0.8739
  827MPD2    H212168   1.421   0.113  10.046  0.0406 -0.6819  0.8035
  827MPD2    H312169   1.398   4.675   9.863 -0.1287 -0.9565 -0.2608
  827MPD2     N12170   0.946   4.667   9.912  0.1162  0.9606  0.0092
  827MPD2    H512171   0.869   4.710   9.962  0.3842 -1.0139  2.0850
  827MPD2    N112172   1.227   0.217  10.183 -0.4780 -0.6886  0.2462
  827MPD2    H712173   1.320   0.236  10.217 -0.2960 -1.0749 -0.0401
  828MPD2     C12174   4.481   0.715  12.204 -0.5940  0.5473  0.0183
  828MPD2    C112175   4.402   0.620  12.142  0.0518 -0.0209  0.2980
  828MPD2    C212176   4.453   0.555  12.036  0.7103  0.0913 -0.3966
  828MPD2    C312177   4.577   0.581  11.981 -0.3520 -0.3945 -0.2706
  828MPD2    C412178   4.657   0.676  12.042  0.2604  0.0476 -0.3785
  828MPD2    C512179   4.609   0.736  12.158  0.6712  0.3196  0.3737
  828MPD2     H12180   4.386   0.485  11.988  1.1298  0.2643 -1.2419
  828MPD2    H112181   0.033   0.701  12.010  0.8689 -0.5190  1.0645
  828MPD2    H212182   4.446   0.777  12.286 -1.2460 -0.0024  0.1605
  828MPD2    H312183   4.670   0.813  12.204  2.1751 -0.6651  0.0565
  828MPD2     N12184   4.613   0.524  11.860 -0.3272 -0.4372  0.4883
  828MPD2    H512185   4.707   0.534  11.824  0.1026 -0.8953  1.4845
  828MPD2    N112186   4.273   0.575  12.181 -0.7675  0.0788  0.3492
  828MPD2    H712187   4.240   0.499  12.123 -1.1729 -0.3115  1.0946
  829MPD2     C12188   3.407   0.432  11.729 -0.4307 -0.2742 -0.5474
  829MPD2    C112189   3.424   0.558  11.778 -0.6196  0.1667 -0.4071
  829MPD2    C212190   3.529   0.579  11.863  0.0251  0.1028 -0.1926
  829MPD2    C312191   3.618   0.486  11.904 -0.4425 -0.7155  0.2426
  829MPD2    C412192   3.610   0.363  11.846 -0.3695  0.2418 -0.3748
  829MPD2    C512193   3.512   0.339  11.749 -0.7152  0.9293 -0.0706
  829MPD2     H12194   3.546   0.677  11.907 -2.5861  0.4603 -0.0097
  829MPD2    H112195   3.681   0.287  11.877  0.8742  1.1414 -1.0272
  829MPD2    H212196   3.323   0.414  11.663 -0.2334 -2.1661 -0.2903
  829MPD2    H312197   3.512   0.238  11.710 -2.1112  0.8217  0.2092
  829MPD2     N12198   3.714   0.519  12.002 -0.5938 -0.1425 -0.0239
  829MPD2    H512199   3.711   0.604  12.057  0.6795 -0.4912  0.5963
  829MPD2    N112200   3.336   0.661  11.734 -0.0762  0.2661 -0.3987
  829MPD2    H712201   3.275   0.642  11.655 -0.1450 -2.3557  0.2748
  830MPD2     C12202   3.854   3.184  15.619  0.1159 -0.0373  0.0163
  830MPD2    C112203   3.792   3.306  15.605 -0.2857  0.0805 -0.6626
  830MPD2    C212204   3.782   3.356  15.471  0.7958 -0.3235 -0.6893
  830MPD2    C312205   3.815   3.286  15.356  0.3400 -0.4174 -0.1051
  830MPD2    C412206   3.869   3.162  15.373 -0.4280 -0.2726 -0.5932
  830MPD2    C512207   3.894   3.116  15.504 -0.3543  0.0211  0.4036
  830MPD2     H12208   3.755   3.461  15.459  0.4846  0.1282  4.0484
  830MPD2    H112209   3.899   3.095  15.293  4.9936  0.8718  0.4877
  830MPD2    H212210   3.877   3.139  15.715  0.7834 -0.0210 -0.1350
  830MPD2    H312211   3.949   3.023  15.510 -0.3681  0.0261  0.5965
  830MPD2     N12212   3.803   3.334  15.221 -0.1618  0.0357  0.3032
  830MPD2    H512213   3.841   3.278  15.146  0.5493  1.8373 -0.6675
  830MPD2    N112214   3.768   3.380  15.727 -0.1945 -0.3128  0.0204
  830MPD2    H712215   3.804   3.337  15.812 -0.3173  2.5497  1.4999
  831MPD2     C12216   3.911   0.803  16.170  0.4252 -0.2111 -0.1071
  831MPD2    C112217   3.933   0.686  16.089 -0.5076 -0.5547 -0.9382
  831MPD2    C212218   3.841   0.585  16.104 -0.6622 -0.7682 -0.2430
  831MPD2    C312219   3.736   0.598  16.189  0.5690  0.3929 -0.6149
  831MPD2    C412220   3.723   0.705  16.271 -0.2446  0.6129 -0.0125
  831MPD2    C512221   3.804   0.809  16.258  0.2694  1.0350  0.2286
  831MPD2     H12222   3.841   0.496  16.042  0.3441 -0.4291 -0.7273
  831MPD2    H112223   3.641   0.708  16.342 -0.3059 -0.8185 -0.0182
  831MPD2    H212224   3.985   0.882  16.177 -1.2917  1.4845 -0.9578
  831MPD2    H312225   3.787   0.889  16.329 -0.9522 -0.2712  1.4075
  831MPD2     N12226   3.629   0.504  16.205  0.7588  0.6016  0.0448
  831MPD2    H512227   3.562   0.534  16.276  0.9555 -1.5420  1.1251
  831MPD2    N112228   4.032   0.685  15.992  0.0092  0.7714  0.3450
  831MPD2    H712229   4.080   0.774  15.979  0.7424  0.5536  1.5375
  832MPD2     C12230   2.206   1.687  17.172  0.0604 -1.0746  0.4690
  832MPD2    C112231   2.179   1.800  17.101  0.4570 -1.0939 -0.1122
  832MPD2    C212232   2.055   1.809  17.041 -0.0863 -0.2684  0.1174
  832MPD2    C312233   1.963   1.706  17.056 -0.4590  0.0021  0.6419
  832MPD2    C412234   2.000   1.590  17.117 -0.9309  0.0008 -0.4720
  832MPD2    C512235   2.120   1.588  17.179  0.4703 -0.4513  0.1802
  832MPD2     H12236   2.033   1.895  16.978  0.6363  1.5183  2.3304
  832MPD2    H112237   1.932   1.506  17.129 -0.8237  0.2702  2.1269
  832MPD2    H212238   2.298   1.672  17.227 -1.1882 -1.0370  2.5800
  832MPD2    H312239   2.136   1.497  17.236 -0.4890 -0.6100  0.1944
  832MPD2     N12240   1.840   1.696  16.991 -0.1128  0.2890  0.1271
  832MPD2    H512241   1.802   1.603  16.981  2.3199 -0.6982  0.0592
  832MPD2    N112242   2.280   1.905  17.103  0.1086 -0.6501 -0.5926
  832MPD2    H712243   2.362   1.871  17.152 -0.1390  0.2318  0.4423
  833MPD2     C12244   3.951   3.198  12.632 -0.1638 -0.0773  0.5046
  833MPD2    C112245   4.032   3.305  12.634  0.5463  0.4406 -0.1650
  833MPD2    C212246   4.172   3.297  12.602  0.2593 -0.0913 -0.6089
  833MPD2    C312247   4.227   3.180  12.567 -0.2161  0.4394  0.4959
  833MPD2    C412248   4.147   3.065  12.568 -0.5006 -0.2172 -1.0590
  833MPD2    C512249   4.015   3.076  12.605 -0.7612 -0.2600  0.0416
  833MPD2     H12250   4.232   3.385  12.620  0.8819 -0.7028  0.3310
  833MPD2    H112251   4.186   2.969  12.536  0.8816  0.2849 -0.8892
  833MPD2    H212252   3.845   3.198  12.653  0.1829  0.7256  2.2823
  833MPD2    H312253   3.945   2.994  12.592  2.4292 -2.7626 -1.4325
  833MPD2     N12254   4.364   3.171  12.529 -0.6211 -0.1066  0.3144
  833MPD2    H512255   4.398   3.079  12.501  0.8779  1.5258 -3.1747
  833MPD2    N112256   3.968   3.427  12.653  0.0571  0.3014 -0.1136
  833MPD2    H712257   3.871   3.424  12.681  0.1406 -0.5824  0.0626
  834MPD2     C12258   4.673   3.362  11.626  0.7462 -0.2854  0.0754
  834MPD2    C112259   4.639   3.241  11.672  0.7612  0.0498  0.0889
  834MPD2    C212260   4.658   3.206  11.803 -0.1007 -0.3674  0.2230
  834MPD2    C312261   4.712   3.296  11.898 -0.1744  0.0645  0.0358
  834MPD2    C412262   0.025   3.420  11.845 -0.3257 -0.3452  0.2962
  834MPD2    C512263   0.004   3.449  11.716  0.2944 -0.1008  0.0587
  834MPD2     H12264   4.628   3.109  11.840 -1.3371 -0.5425 -1.2667
  834MPD2    H112265   0.071   3.492  11.912  0.7714 -2.7274  2.0907
  834MPD2    H212266   4.655   3.396  11.525 -0.3646 -0.2645  0.2847
  834MPD2    H312267   0.030   3.548  11.681  0.8612  0.5407  2.3188
  834MPD2     N12268   4.717   3.290  12.036  0.2610  0.0058 -1.0523
  834MPD2    H512269   0.032   3.379  12.064 -1.9545  1.0673 -1.3277
  834MPD2    N112270   4.587   3.147  11.573 -0.1222 -0.7808 -0.2457
  834MPD2    H712271   4.596   3.170  11.475  0.6325 -0.5089 -0.1121
  835MPD2     C12272   0.492   1.023  10.965  0.1781 -0.1375 -1.1442
  835MPD2    C112273   0.372   0.958  10.988  0.7854  0.6367  0.4364
  835MPD2    C212274   0.353   0.876  11.096  0.0245  0.0051 -0.2793
  835MPD2    C312275   0.454   0.869  11.188  0.1556 -0.4132  0.3865
  835MPD2    C412276   0.574   0.934  11.165 -1.4495  0.4481  0.6909
  835MPD2    C512277   0.588   1.014  11.063  0.0114 -0.2785 -0.3169
  835MPD2     H12278   0.257   0.831  11.115  0.5054 -0.4391  1.1369
  835MPD2    H112279   0.657   0.917  11.233 -0.7094 -1.8181 -0.7847
  835MPD2    H212280   0.507   1.097  10.888  0.7184 -0.9158 -1.7854
  835MPD2    H312281   0.683   1.067  11.062 -0.1010 -0.0223  1.5438
  835MPD2     N12282   0.449   0.778  11.297 -0.5440 -0.3209  0.1195
  835MPD2    H512283   0.533   0.789  11.354 -1.6275  4.0330  0.8675
  835MPD2    N112284   0.258   0.986  10.912 -0.3360  0.8619 -1.0496
  835MPD2    H712285   0.169   0.942  10.934  0.5142  0.3240  1.3520
  836MPD2     C12286   0.121   1.121  11.891  0.2156  0.1978 -0.0674
  836MPD2    C112287   0.065   1.003  11.855  0.6255  0.3598  0.1411
  836MPD2    C212288   4.650   0.985  11.868 -0.1564  0.0271 -0.0392
  836MPD2    C312289   4.571   1.079  11.934 -0.7896 -0.1406  0.3336
  836MPD2    C412290   4.637   1.186  11.990  0.1151  0.4707  0.1775
  836MPD2    C512291   0.044   1.207  11.964  0.3108  0.2602  0.1977
  836MPD2     H12292   4.601   0.894  11.837  2.9418 -0.2825 -3.9139
  836MPD2    H112293   4.586   1.261  12.049 -1.0635 -1.3149  1.4228
  836MPD2    H212294   0.223   1.148  11.866  0.0293  1.4933  0.5631
  836MPD2    H312295   0.089   1.299  12.002  0.7765  0.0098  0.2571
  836MPD2     N12296   4.438   1.049  11.963  0.1576  0.0637 -0.0923
  836MPD2    H512297   4.396   1.107  12.035  0.1168  0.0414 -0.0985
  836MPD2    N112298   0.149   0.914  11.789 -0.1401 -0.3502 -0.1411
  836MPD2    H712299   0.248   0.935  11.779 -0.1621  0.0508  0.4821
  837MPD2     C12300   3.300   0.359   9.906  0.5375  0.1101  0.0026
  837MPD2    C112301   3.171   0.382   9.880  0.3203  0.4511  0.0678
  837MPD2    C212302   3.119   0.511   9.890 -0.7903  1.0185  0.6908
  837MPD2    C312303   3.203   0.611   9.930  0.5275  0.2441  0.4667
  837MPD2    C412304   3.330   0.585   9.975  0.8584  0.2105 -0.5394
  837MPD2    C512305   3.382   0.463   9.951  0.7205  0.1920  0.1111
  837MPD2     H12306   3.022   0.534   9.847 -1.9683  0.4075  3.0126
  837MPD2    H112307   3.404   0.664   9.977  0.6546  0.4727 -3.4678
  837MPD2    H212308   3.336   0.262   9.874 -0.8088 -0.2355 -0.4674
  837MPD2    H312309   3.489   0.446   9.962  0.7985  0.6552  0.0775
  837MPD2     N12310   3.141   0.745   9.924 -0.2084  0.0677  0.4200
  837MPD2    H512311   3.045   0.751   9.893  0.2265  0.0107 -0.9483
  837MPD2    N112312   3.090   0.278   9.822  0.0529 -0.2966 -0.3591
  837MPD2    H712313   2.992   0.306   9.816 -0.9125 -3.5667 -0.0995
  838MPD2     C12314   1.577   2.933  11.368  0.9157  0.7292 -0.4683
  838MPD2    C112315   1.617   3.058  11.400  0.6224 -0.3608 -0.5935
  838MPD2    C212316   1.577   3.113  11.522 -0.0737 -0.0954 -0.5484
  838MPD2    C312317   1.501   3.043  11.609 -0.1648 -0.4743  0.3951
  838MPD2    C412318   1.457   2.908  11.574  0.3751  0.0402 -0.1133
  838MPD2    C512319   1.488   2.861  11.451 -1.0031  0.2471  0.2934
  838MPD2     H12320   1.608   3.212  11.552  1.5605 -0.0344 -2.3981
  838MPD2    H112321   1.379   2.853  11.625 -0.4192  0.8213 -0.4968
  838MPD2    H212322   1.602   2.895  11.270 -3.2181 -0.1346 -1.1723
  838MPD2    H312323   1.454   2.760  11.433 -0.7014  0.0210  0.9865
  838MPD2     N12324   1.450   3.109  11.725 -0.1213 -0.1340 -0.2340
  838MPD2    H512325   1.473   3.207  11.723 -2.2058  0.3644 -0.3076
  838MPD2    N112326   1.700   3.121  11.299 -0.5940  0.3731 -0.1343
  838MPD2    H712327   1.723   3.071  11.214 -0.0026  1.9073 -0.8801
  839MPD2     C12328   0.929   3.314  11.039 -0.2097 -0.1133 -0.1328
  839MPD2    C112329   1.009   3.222  10.975  0.0857 -0.3091 -0.4675
  839MPD2    C212330   1.144   3.242  10.954  0.0219 -0.6073 -0.1464
  839MPD2    C312331   1.200   3.369  10.991 -0.2429  0.8786  0.3546
  839MPD2    C412332   1.118   3.461  11.046 -0.6126  0.0972 -0.2990
  839MPD2    C512333   0.986   3.430  11.069 -0.4222  0.3778 -0.1866
  839MPD2     H12334   1.202   3.162  10.911  0.6735 -0.6095  0.7317
  839MPD2    H112335   1.163   3.555  11.076 -0.7327  0.4044 -1.0612
  839MPD2    H212336   0.822   3.307  11.055 -0.2963  1.5237  0.0304
  839MPD2    H312337   0.929   3.510  11.114 -0.1127 -0.2892  1.3676
  839MPD2     N12338   1.339   3.400  10.982 -0.1359 -0.1719  0.1620
  839MPD2    H512339   1.371   3.487  11.022 -1.0291  0.3215 -0.2084
  839MPD2    N112340   0.962   3.087  10.944  0.3117  0.2344  0.5584
  839MPD2    H712341   1.017   3.024  10.887 -1.5067  0.3346 -1.2701
  840MPD2     C12342   1.783   0.462  10.345  0.3390 -0.3819 -0.2369
  840MPD2    C112343   1.690   0.524  10.422 -0.9075 -0.0898  0.0665
  840MPD2    C212344   1.733   0.631  10.499  0.3387  0.4039 -0.0172
  840MPD2    C312345   1.859   0.691  10.489 -0.1354  0.2524  0.4581
  840MPD2    C412346   1.932   0.638  10.389 -0.6830 -0.7849  0.1680
  840MPD2    C512347   1.901   0.524  10.322 -0.5436 -0.6013 -0.7467
  840MPD2     H12348   1.655   0.672  10.563 -0.3770  1.2009 -1.3854
  840MPD2    H112349   2.016   0.693  10.348 -2.8726  1.3982 -1.4353
  840MPD2    H212350   1.763   0.377  10.281 -0.1825  0.1843 -0.8273
  840MPD2    H312351   1.967   0.487  10.244 -0.0197 -1.0247 -0.1114
  840MPD2     N12352   1.891   0.809  10.554  0.0449 -0.6364  0.2486
  840MPD2    H512353   1.983   0.851  10.541 -0.0626 -0.4947 -0.0661
  840MPD2    N112354   1.558   0.462  10.419 -0.1950 -0.0570 -0.2481
  840MPD2    H712355   1.545   0.379  10.362 -1.8812 -0.1925  0.3294
  841MPD2     C12356   0.951   0.875  14.777 -0.2245 -0.1170  0.3357
  841MPD2    C112357   0.998   0.822  14.659  0.4464  0.4461  0.0711
  841MPD2    C212358   1.067   0.897  14.565  0.6728  0.1161 -0.9920
  841MPD2    C312359   1.079   1.033  14.583 -0.3584  0.5364  0.5317
  841MPD2    C412360   1.035   1.095  14.697 -0.7860 -0.6662 -0.3686
  841MPD2    C512361   0.964   1.013  14.782  0.6947  0.0687  0.0078
  841MPD2     H12362   1.107   0.850  14.476  1.6770 -0.2266 -0.3554
  841MPD2    H112363   1.047   1.199  14.723 -0.7904 -0.3231 -1.6993
  841MPD2    H212364   0.886   0.827  14.849  0.7342 -0.8371  0.7092
  841MPD2    H312365   0.920   1.064  14.867 -0.9834 -0.4412 -0.5602
  841MPD2     N12366   1.155   1.098  14.479  0.1529  0.1549  0.0676
  841MPD2    H512367   1.200   1.033  14.415  0.7354  0.0940  0.5447
  841MPD2    N112368   0.991   0.686  14.641 -0.1461 -0.0820 -0.8106
  841MPD2    H712369   1.017   0.652  14.549  1.1395 -1.0046 -0.1059
  842MPD2     C12370   1.500   1.966  17.167  0.1728 -0.6229  0.5761
  842MPD2    C112371   1.407   1.895  17.226  0.3042  0.0519  0.1395
  842MPD2    C212372   1.417   1.866  17.365  0.3283 -1.1513  1.0973
  842MPD2    C312373   1.519   1.913  17.440 -0.6613  0.6830  0.1473
  842MPD2    C412374   1.616   1.986  17.370 -0.4764 -0.0925  0.7612
  842MPD2    C512375   1.611   2.009  17.236 -1.1122 -0.1239 -0.7947
  842MPD2     H12376   1.329   1.819  17.409 -1.3537  1.4219  0.5026
  842MPD2    H112377   1.703   2.026  17.422 -0.2951  0.3842  0.0888
  842MPD2    H212378   1.504   1.978  17.059 -1.2752 -2.4294  0.3330
  842MPD2    H312379   1.691   2.063  17.184 -0.5006 -0.7419 -0.4953
  842MPD2     N12380   1.535   1.900  17.580 -0.2431  0.1209  0.0153
  842MPD2    H512381   1.627   1.925  17.616 -0.6297  1.0801  0.3381
  842MPD2    N112382   1.301   1.861  17.141  0.3932 -0.3357 -0.1200
  842MPD2    H712383   1.310   1.899  17.048 -0.9833 -0.4029 -0.2848
  843MPD2     C12384   3.266   2.153   0.486  0.1513 -0.2569  0.4891
  843MPD2    C112385   3.391   2.092   0.474 -0.2129 -0.4746 -0.0412
  843MPD2    C212386   3.458   2.100   0.353 -0.5580 -0.6972  0.1674
  843MPD2    C312387   3.409   2.186   0.250  0.6439 -0.0103 -0.6992
  843MPD2    C412388   3.279   2.244   0.261 -0.1442  0.6895 -0.3139
  843MPD2    C512389   3.207   2.220   0.378 -0.3006 -0.1381 -0.0538
  843MPD2     H12390   3.559   2.062   0.348 -0.2655  0.2680 -1.2901
  843MPD2    H112391   3.247   2.312   0.184 -1.6429 -0.7273 -0.9362
  843MPD2    H212392   3.225   2.155   0.586  1.2523 -1.5816  0.9706
  843MPD2    H312393   3.113   2.269   0.398  1.0521  2.1978  0.5285
  843MPD2     N12394   3.486   2.223   0.138 -0.2573 -0.2456  0.4104
  843MPD2    H512395   3.454   2.297   0.076  0.3968 -0.4337 -0.1461
  843MPD2    N112396   3.455   2.046   0.590  0.5809  0.2046  0.5569
  843MPD2    H712397   3.403   2.055   0.677 -1.0786  2.0293 -0.6225
  844MPD2     C12398   1.789   1.121  16.570 -0.9341 -0.0989 -0.1426
  844MPD2    C112399   1.781   1.211  16.464  0.7136 -0.4431 -0.2053
  844MPD2    C212400   1.836   1.335  16.492  0.7146  0.2041  0.5171
  844MPD2    C312401   1.909   1.357  16.608  0.3235  0.7884  0.1554
  844MPD2    C412402   1.918   1.262  16.709  0.7496 -0.4248 -0.0383
  844MPD2    C512403   1.854   1.148  16.689 -0.1211 -0.8740 -0.0112
  844MPD2     H12404   1.817   1.416  16.423 -0.0188 -1.5585 -1.3366
  844MPD2    H112405   1.949   1.291  16.809  1.6843 -1.0980 -0.1385
  844MPD2    H212406   1.755   1.020  16.553  0.0104  0.0090 -2.6969
  844MPD2    H312407   1.854   1.070  16.764 -1.2647 -1.8835 -1.0721
  844MPD2     N12408   1.969   1.489  16.621  0.5293  0.3547  0.3772
  844MPD2    H512409   1.954   1.558  16.549  0.4217 -0.5120 -0.4310
  844MPD2    N112410   1.734   1.182  16.336  0.0871  0.8569  0.2171
  844MPD2    H712411   1.747   1.261  16.274 -0.6250  0.5941 -0.2685
  845MPD2     C12412   1.899   2.485  16.638 -0.0270 -0.2150 -0.3440
  845MPD2    C112413   1.981   2.455  16.738 -0.1675 -0.7969  0.9951
  845MPD2    C212414   2.042   2.332  16.751 -0.0594 -0.2179 -0.0073
  845MPD2    C312415   1.990   2.230  16.665  0.4069  0.1467  0.8100
  845MPD2    C412416   1.911   2.260  16.554  0.0444 -0.3375 -0.1128
  845MPD2    C512417   1.880   2.390  16.539  0.4119  0.3912 -0.1814
  845MPD2     H12418   2.094   2.308  16.843 -0.3594  1.1541  0.5117
  845MPD2    H112419   1.884   2.181  16.485  1.5385 -0.5157 -0.4843
  845MPD2    H212420   1.846   2.580  16.629 -0.7995 -0.6000  0.1122
  845MPD2    H312421   1.815   2.417  16.456 -1.5412  0.4284  1.3578
  845MPD2     N12422   2.031   2.099  16.701 -0.3363 -0.0208 -0.0235
  845MPD2    H512423   2.098   2.091  16.778  0.5312  0.2081 -0.7521
  845MPD2    N112424   1.991   2.554  16.832  0.2756  0.0863 -0.5632
  845MPD2    H712425   1.937   2.635  16.804 -1.0511  0.4246  2.9766
  846MPD2     C12426   2.773   3.102  13.638  1.3581  0.1710  0.5657
  846MPD2    C112427   2.908   3.082  13.643 -0.3216  0.0287 -0.1249
  846MPD2    C212428   2.965   3.011  13.740 -0.0613 -0.7219 -0.4193
  846MPD2    C312429   2.895   2.959  13.845  0.0478  0.5413 -0.2686
  846MPD2    C412430   2.756   2.966  13.842 -0.2316  0.6132 -0.9440
  846MPD2    C512431   2.700   3.031  13.736  0.0015  0.3833 -0.6139
  846MPD2     H12432   3.071   3.024  13.759  0.2098 -4.0617  0.3881
  846MPD2    H112433   2.694   2.929  13.923 -1.4136  1.3276 -1.5154
  846MPD2    H212434   2.713   3.153  13.564  1.9866 -0.2984 -0.2741
  846MPD2    H312435   2.592   3.030  13.746  0.0025 -1.1921 -0.8492
  846MPD2     N12436   2.965   2.905  13.954  0.2199  0.9433 -0.2685
  846MPD2    H512437   3.066   2.904  13.948  0.2128  1.7220 -0.4169
  846MPD2    N112438   2.994   3.147  13.552 -0.0108 -0.4623  0.5782
  846MPD2    H712439   3.093   3.129  13.566 -0.1220  1.0947  3.3032
  847MPD2     C12440   3.573   3.355  14.532  0.7585  0.1892 -0.3470
  847MPD2    C112441   3.658   3.371  14.432  0.2348 -0.3988  0.5034
  847MPD2    C212442   3.794   3.331  14.447  0.6971 -0.4322  0.2453
  847MPD2    C312443   3.835   3.284  14.564 -0.7778  0.1834 -0.3933
  847MPD2    C412444   3.747   3.266  14.671  0.1487 -0.7463 -0.0100
  847MPD2    C512445   3.611   3.302  14.650 -0.1079 -0.4980  1.3372
  847MPD2     H12446   3.870   3.340  14.370 -0.5634 -0.0341 -0.9624
  847MPD2    H112447   3.775   3.231  14.769  0.4709 -1.2997 -0.3020
  847MPD2    H212448   3.470   3.384  14.515  0.1573 -0.1805  2.7709
  847MPD2    H312449   3.535   3.296  14.727 -0.5773  0.1388  0.9284
  847MPD2     N12450   3.973   3.260  14.570 -0.4969 -0.6212 -0.1412
  847MPD2    H512451   4.039   3.311  14.512  1.0464  0.1639  2.2928
  847MPD2    N112452   3.614   3.455  14.322 -0.6466  0.0023  0.2043
  847MPD2    H712453   3.514   3.470  14.312 -0.3249 -0.8692 -4.0955
  848MPD2     C12454   1.613   1.901  16.235  0.7532 -0.0356  0.0306
  848MPD2    C112455   1.603   1.959  16.360  0.0683  0.9661  0.2298
  848MPD2    C212456   1.578   2.095  16.363 -0.2714  0.9876 -0.6135
  848MPD2    C312457   1.583   2.182  16.255  0.7108 -0.5948 -0.2671
  848MPD2    C412458   1.597   2.121  16.135 -0.1412 -0.3424  0.0176
  848MPD2    C512459   1.616   1.986  16.129 -0.0775 -0.0696 -0.4927
  848MPD2     H12460   1.572   2.137  16.463  0.0389  1.5559 -0.8310
  848MPD2    H112461   1.593   2.171  16.039 -0.3183  0.3192  0.3685
  848MPD2    H212462   1.627   1.794  16.232 -0.6974 -0.2567  0.9527
  848MPD2    H312463   1.638   1.942  16.032 -2.4835  0.1969 -1.1584
  848MPD2     N12464   1.559   2.321  16.261  0.1434 -0.0701 -0.2626
  848MPD2    H512465   1.546   2.363  16.170 -1.2504  0.6795  0.2948
  848MPD2    N112466   1.594   1.895  16.486  0.1001  0.1177  0.7147
  848MPD2    H712467   1.573   1.956  16.565 -3.8931  0.0935 -0.3556
  849MPD2     C12468   0.809   1.755  14.280  0.5815  0.1335 -0.3725
  849MPD2    C112469   0.851   1.831  14.168 -0.2031 -0.3238 -0.5005
  849MPD2    C212470   0.964   1.791  14.110  0.1961 -0.2718 -0.2937
  849MPD2    C312471   1.050   1.696  14.168  0.4748  0.0672  0.8993
  849MPD2    C412472   1.016   1.629  14.283 -0.7980  0.1553  0.0362
  849MPD2    C512473   0.888   1.653  14.331 -0.1691 -0.2513 -0.3978
  849MPD2     H12474   0.997   1.835  14.017 -2.2053  2.0241 -0.0753
  849MPD2    H112475   1.078   1.565  14.345 -1.2549  0.6089  0.9637
  849MPD2    H212476   0.714   1.781  14.326  0.6988 -0.1623  0.0448
  849MPD2    H312477   0.864   1.601  14.423  1.8633 -0.6853 -0.0990
  849MPD2     N12478   1.169   1.671  14.101 -0.6165  0.1921 -0.2506
  849MPD2    H512479   1.177   1.708  14.006 -0.9428  0.3662 -0.2089
  849MPD2    N112480   0.765   1.922  14.097 -0.8000  0.4744  0.3274
  849MPD2    H712481   0.815   1.967  14.020 -2.1305  1.2590 -0.0721
  850MPD2     C12482   4.636   4.374  14.936  0.0857 -0.2684  0.8383
  850MPD2    C112483   4.563   4.470  15.004  0.2436 -0.5113  0.1654
  850MPD2    C212484   4.629   4.594  15.020  1.0594  0.5265 -0.3583
  850MPD2    C312485   0.030   4.619  14.969 -0.5545 -0.0133 -0.5625
  850MPD2    C412486   0.088   4.523  14.896  0.2719  0.3806 -0.5115
  850MPD2    C512487   0.033   4.400  14.884 -0.4683 -0.4508 -0.0646
  850MPD2     H12488   4.580   4.681  15.061 -1.2817 -1.1682  0.4682
  850MPD2    H112489   0.182   4.541  14.845  0.0916  0.7174 -0.7335
  850MPD2    H212490   4.580   4.283  14.918 -0.2707  0.3536 -1.2886
  850MPD2    H312491   0.085   4.317  14.838  0.5810 -0.0047  0.3176
  850MPD2     N12492   0.083   0.025  14.982 -0.4415  0.4972  0.1180
  850MPD2    H512493   0.041   0.094  15.043  0.0155  1.7091 -0.9510
  850MPD2    N112494   4.428   4.447  15.041 -0.0303 -0.3041 -0.5492
  850MPD2    H712495   4.399   4.350  15.035 -1.4530 -0.0213  1.7757
  851MPD2     C12496   4.156   4.039  14.741 -0.3308  0.1301  0.0599
  851MPD2    C112497   4.082   4.038  14.854  0.3072  0.3544  0.6234
  851MPD2    C212498   4.035   3.920  14.906 -0.5066 -0.1796 -0.3711
  851MPD2    C312499   4.051   3.800  14.835  0.1173 -0.0558  0.1619
  851MPD2    C412500   4.136   3.798  14.725 -1.2479  0.0429 -0.4069
  851MPD2    C512501   4.187   3.913  14.674  0.1844 -0.0461  0.4292
  851MPD2     H12502   3.974   3.921  14.996 -0.3473 -1.0431 -0.2491
  851MPD2    H112503   4.156   3.715  14.659 -1.5740  0.6490 -1.2631
  851MPD2    H212504   4.188   4.134  14.700  1.5227 -0.6091 -0.2169
  851MPD2    H312505   4.244   3.913  14.581  0.6922  2.3166  0.7294
  851MPD2     N12506   3.980   3.686  14.885 -0.6980 -0.0308  0.5443
  851MPD2    H512507   3.945   3.700  14.980 -0.9636 -4.0588  1.0316
  851MPD2    N112508   4.068   4.163  14.924 -0.2700 -0.0934 -0.6754
  851MPD2    H712509   4.108   4.246  14.882 -0.2499  0.9356  1.4027
  852MPD2     C12510   3.706   1.337   8.938  0.1293 -0.2622  0.1154
  852MPD2    C112511   3.687   1.379   9.065  0.1718 -0.1156  0.4020
  852MPD2    C212512   3.798   1.393   9.144 -0.1117  0.7229  0.0493
  852MPD2    C312513   3.923   1.383   9.090 -0.3864  0.5473  0.6696
  852MPD2    C412514   3.941   1.344   8.958 -0.3117 -0.3397  0.3412
  852MPD2    C512515   3.832   1.327   8.885 -0.3016  0.0070 -0.2684
  852MPD2     H12516   3.784   1.425   9.247  1.2547 -0.4633  0.6048
  852MPD2    H112517   4.036   1.326   8.909 -0.3994  1.8292 -0.5894
  852MPD2    H212518   3.625   1.321   8.867  1.4533  0.2410 -1.5139
  852MPD2    H312519   3.847   1.299   8.781  3.8318  2.3296 -0.2711
  852MPD2     N12520   4.030   1.390   9.180 -0.4746 -0.2592  0.2136
  852MPD2    H512521   3.992   1.386   9.274 -2.1097 -1.1845 -0.5007
  852MPD2    N112522   3.559   1.407   9.112 -0.4779  0.4272 -0.1208
  852MPD2    H712523   3.555   1.449   9.205 -0.6677  2.8321 -1.2006
  853MPD2     C12524   0.651   1.690  12.077  0.0308  0.2910  0.0467
  853MPD2    C112525   0.650   1.822  12.035  0.5558 -0.4112 -0.3567
  853MPD2    C212526   0.698   1.853  11.914  0.2738  0.2384 -0.3176
  853MPD2    C312527   0.735   1.744  11.835 -0.2158 -0.1624 -0.3176
  853MPD2    C412528   0.738   1.616  11.879 -0.0788 -0.8279 -0.2903
  853MPD2    C512529   0.704   1.585  12.006 -0.2096  0.3093  0.1845
  853MPD2     H12530   0.696   1.953  11.873 -0.2057  1.0099  1.5462
  853MPD2    H112531   0.780   1.536  11.818  0.9413 -2.6052  2.7661
  853MPD2    H212532   0.628   1.674  12.182  1.4305  0.1603  0.3263
  853MPD2    H312533   0.713   1.484  12.045  0.0871 -0.2157 -1.2213
  853MPD2     N12534   0.782   1.758  11.702  0.0754  0.2439 -0.6277
  853MPD2    H512535   0.816   1.680  11.646 -0.0169 -0.6572  0.5842
  853MPD2    N112536   0.601   1.915  12.123 -0.0181  0.1301  0.3950
  853MPD2    H712537   0.571   1.879  12.213 -0.1045 -0.8275 -0.0200
  854MPD2     C12538   2.674   3.021  12.687  0.2842 -0.6724  0.3933
  854MPD2    C112539   2.708   2.934  12.581  0.4117 -0.2512  0.2157
  854MPD2    C212540   2.726   2.803  12.602 -0.0320 -0.2046  0.2442
  854MPD2    C312541   2.706   2.754  12.732  0.4006  0.2007  0.1548
  854MPD2    C412542   2.699   2.842  12.838  0.0976 -0.0816 -0.2582
  854MPD2    C512543   2.683   2.976  12.815  0.5880  0.2207 -0.3164
  854MPD2     H12544   2.761   2.738  12.523  3.4346  1.7224  0.2153
  854MPD2    H112545   2.709   2.807  12.940 -0.6564 -0.9178 -0.4709
  854MPD2    H212546   2.672   3.129  12.678  0.2677 -0.6234  0.9903
  854MPD2    H312547   2.680   3.047  12.897  1.7416 -1.0523  0.8136
  854MPD2     N12548   2.702   2.618  12.757 -0.1708  0.5490  0.3061
  854MPD2    H512549   2.706   2.584  12.852  1.4946  0.6066  0.2462
  854MPD2    N112550   2.712   2.987  12.456  0.0326  0.4308  0.4532
  854MPD2    H712551   2.654   3.070  12.442  2.4217  1.9536 -0.4353
  855MPD2     C12552   2.859   2.298  13.521  0.0970  0.3715 -0.3072
  855MPD2    C112553   2.835   2.174  13.460  0.3315 -0.5273 -0.2497
  855MPD2    C212554   2.820   2.175  13.325  0.0969 -0.6305  0.7771
  855MPD2    C312555   2.810   2.291  13.256  0.0435 -0.1340  0.5668
  855MPD2    C412556   2.821   2.408  13.318  0.2605 -0.0655  0.1511
  855MPD2    C512557   2.839   2.416  13.451 -0.0247 -0.4098 -0.1128
  855MPD2     H12558   2.797   2.081  13.275  0.4733 -0.0059 -0.5668
  855MPD2    H112559   2.818   2.501  13.263  0.5027 -0.2678 -0.1997
  855MPD2    H212560   2.917   2.306  13.613 -1.8400  0.0280  0.9346
  855MPD2    H312561   2.862   2.506  13.507 -2.0431 -0.0284  0.0951
  855MPD2     N12562   2.783   2.295  13.119  0.0488  0.3281  0.1495
  855MPD2    H512563   2.768   2.385  13.074 -0.4484 -0.6351 -1.6061
  855MPD2    N112564   2.853   2.049  13.526 -0.2183  0.2964 -0.2737
  855MPD2    H712565   2.845   1.967  13.466 -0.0938  0.3849 -0.4150
  856MPD2     C12566   4.647   2.849  14.140 -0.7899  0.7650  0.1389
  856MPD2    C112567   4.678   2.985  14.142  0.2754 -0.4853 -0.6043
  856MPD2    C212568   4.620   3.069  14.045  0.1825 -1.1004  0.2055
  856MPD2    C312569   4.538   3.012  13.949 -0.0442 -0.0435  0.0645
  856MPD2    C412570   4.512   2.876  13.948 -0.1054 -0.3839 -0.1701
  856MPD2    C512571   4.570   2.794  14.044  0.1253  0.6749  0.3388
  856MPD2     H12572   4.621   3.176  14.062  0.8968 -0.9585 -0.7535
  856MPD2    H112573   4.446   2.837  13.871  1.4709 -2.8285 -0.2849
  856MPD2    H212574   4.680   2.787  14.222 -1.6118  2.1643  1.5217
  856MPD2    H312575   4.558   2.686  14.041 -0.5295  0.7147  1.4031
  856MPD2     N12576   4.478   3.092  13.851 -0.0327  0.7039  0.3088
  856MPD2    H512577   4.425   3.042  13.779 -0.2637  0.6490  0.5152
  856MPD2    N112578   0.052   3.028  14.238  0.3731  0.7283 -0.3722
  856MPD2    H712579   0.057   2.975  14.324 -1.4462  2.6856  0.9555
  857MPD2     C12580   1.645   0.531  12.983 -0.0789 -0.6578  0.1594
  857MPD2    C112581   1.783   0.538  12.970  0.3818  0.2475  0.0919
  857MPD2    C212582   1.838   0.652  12.911  0.3765 -0.4951 -0.0579
  857MPD2    C312583   1.756   0.760  12.874 -0.1610 -0.6146 -0.1331
  857MPD2    C412584   1.620   0.753  12.898  0.1502  0.4540 -0.7566
  857MPD2    C512585   1.568   0.634  12.945 -0.2629 -0.2789  0.0832
  857MPD2     H12586   1.945   0.652  12.893  0.8310 -1.3411  2.5644
  857MPD2    H112587   1.542   0.822  12.868 -2.7129 -0.9407  3.4533
  857MPD2    H212588   1.601   0.447  13.035 -1.5098 -0.8709 -1.3967
  857MPD2    H312589   1.463   0.619  12.968 -0.2456  1.1942  1.1091
  857MPD2     N12590   1.814   0.882  12.823  0.7224 -0.4561 -0.3178
  857MPD2    H512591   1.915   0.877  12.816  0.8789  1.0969  1.0508
  857MPD2    N112592   1.862   0.428  13.019  0.3265  0.0558 -0.2658
  857MPD2    H712593   1.811   0.350  13.058  1.1711 -0.2508  0.2349
  858MPD2     C12594   1.870   3.967  16.860 -0.5479  0.9954  0.3081
  858MPD2    C112595   1.989   4.002  16.797 -0.0063  0.5373 -0.4051
  858MPD2    C212596   2.078   4.088  16.846 -0.3112 -0.8450  0.3839
  858MPD2    C312597   2.050   4.146  16.972  0.5288  0.3836  0.7371
  858MPD2    C412598   1.928   4.111  17.033  0.0143  0.5708  0.7809
  858MPD2    C512599   1.837   4.033  16.975 -0.1585 -0.7596  0.0138
  858MPD2     H12600   2.174   4.107  16.800  0.0897  0.9559  2.0230
  858MPD2    H112601   1.903   4.154  17.129  0.2046  1.1744  0.5585
  858MPD2    H212602   1.799   3.902  16.811 -1.8548  2.2816  0.5235
  858MPD2    H312603   1.744   4.004  17.022  0.7564 -1.0074  1.6543
  858MPD2     N12604   2.139   4.236  17.036  0.7361 -1.2680  0.7114
  858MPD2    H512605   2.103   4.285  17.118  2.1175  2.0520 -0.6608
  858MPD2    N112606   2.015   3.917  16.688  0.0896  0.2747  0.3191
  858MPD2    H712607   1.950   3.842  16.665  0.4032  0.2173 -0.3964
  859MPD2     C12608   1.025   1.359  15.052 -0.0963  0.3086  0.4839
  859MPD2    C112609   1.127   1.342  14.964  0.6975 -0.8349  0.0261
  859MPD2    C212610   1.186   1.216  14.967  0.0920  0.3774  0.2618
  859MPD2    C312611   1.136   1.117  15.047  0.5483  0.3548 -0.1383
  859MPD2    C412612   1.020   1.130  15.115 -0.3981 -0.4485 -0.6312
  859MPD2    C512613   0.972   1.260  15.127  0.8077 -0.2449  0.1252
  859MPD2     H12614   1.285   1.198  14.928  0.0343  2.6823 -0.9707
  859MPD2    H112615   0.975   1.049  15.170  0.2829  0.4291  1.2273
  859MPD2    H212616   0.970   1.450  15.072 -1.0461  0.1819 -1.5858
  859MPD2    H312617   0.883   1.274  15.186  1.3370 -0.2245  0.9129
  859MPD2     N12618   1.185   0.987  15.045  0.0067  0.3986 -0.2487
  859MPD2    H512619   1.140   0.914  15.099  2.0577 -0.0145  0.8972
  859MPD2    N112620   1.184   1.449  14.885 -0.2231 -0.2074 -0.2643
  859MPD2    H712621   1.132   1.536  14.895 -0.1297 -0.0163 -1.5059
  860MPD2     C12622   3.620   1.770  11.415 -0.6212 -0.0515  0.2120
  860MPD2    C112623   3.663   1.842  11.528  0.3474 -0.0792 -0.1256
  860MPD2    C212624   3.566   1.910  11.601 -0.3151 -0.5460  0.1891
  860MPD2    C312625   3.436   1.919  11.563  1.1546  0.5462  0.4584
  860MPD2    C412626   3.403   1.852  11.448 -0.2167 -1.0515 -0.2555
  860MPD2    C512627   3.493   1.774  11.382  0.0371  0.1172 -0.0574
  860MPD2     H12628   3.595   1.962  11.691  1.9795 -1.4887  0.0175
  860MPD2    H112629   3.301   1.860  11.411 -0.1829 -2.5581 -0.6860
  860MPD2    H212630   3.689   1.710  11.357 -1.5571  0.0855 -1.0484
  860MPD2    H312631   3.466   1.725  11.289 -0.4437  2.6298 -1.2375
  860MPD2     N12632   3.356   2.009  11.641  0.2907 -0.0442  0.3684
  860MPD2    H512633   3.393   2.045  11.728  0.6894  0.7068 -0.1066
  860MPD2    N112634   3.794   1.831  11.584  0.2032 -0.5518 -0.1617
  860MPD2    H712635   3.812   1.873  11.674  1.7558 -0.6088 -0.4546
  861MPD2     C12636   2.699   0.178  11.136  1.0078 -0.0899 -0.6950
  861MPD2    C112637   2.597   0.219  11.225  0.2570 -0.1361  0.5751
  861MPD2    C212638   2.472   0.259  11.176 -0.7019  0.0621 -1.1032
  861MPD2    C312639   2.441   0.261  11.038  0.4161  0.2994  0.3766
  861MPD2    C412640   2.549   0.222  10.955 -0.0280  0.1268 -0.4757
  861MPD2    C512641   2.665   0.167  11.004 -0.4956  0.0782  0.0184
  861MPD2     H12642   2.401   0.296  11.249 -1.0672 -1.2715 -0.7831
  861MPD2    H112643   2.549   0.247  10.849 -1.9556 -2.2145 -1.0191
  861MPD2    H212644   2.802   0.151  11.158  1.8914  0.7224 -3.9127
  861MPD2    H312645   2.745   0.141  10.935 -1.2613  0.1950 -0.9067
  861MPD2     N12646   2.327   0.329  10.990  0.6844  0.7866 -0.6786
  861MPD2    H512647   2.317   0.337  10.890 -1.2147  1.6912 -0.4016
  861MPD2    N112648   2.606   0.222  11.362 -0.9033  0.4043  0.4473
  861MPD2    H712649   2.516   0.222  11.410 -2.2371  1.7932 -2.0070
  862MPD2     C12650   2.257   0.383  10.363  0.4285  0.3723  0.5460
  862MPD2    C112651   2.155   0.348  10.453 -0.1187  0.6450 -0.3456
  862MPD2    C212652   2.078   0.241  10.426  0.8745  0.4377 -0.4390
  862MPD2    C312653   2.105   0.157  10.322 -0.4973  0.7615 -0.5257
  862MPD2    C412654   2.219   0.179  10.244  0.4259  0.3500 -0.6801
  862MPD2    C512655   2.285   0.299  10.261 -0.5218  0.6777 -0.0602
  862MPD2     H12656   1.997   0.215  10.492  0.1140  0.8033 -1.2351
  862MPD2    H112657   2.238   0.107  10.166  1.5979  0.9142 -0.9113
  862MPD2    H212658   2.334   0.458  10.381 -0.0287  1.1093 -0.6187
  862MPD2    H312659   2.375   0.307  10.201  0.6336 -3.7499  1.1183
  862MPD2     N12660   2.026   0.043  10.304 -0.0604 -0.5354  0.7171
  862MPD2    H512661   2.066   4.692  10.250  0.2386  0.8333 -0.9784
  862MPD2    N112662   2.139   0.422  10.573  0.1764  0.4163  0.4847
  862MPD2    H712663   2.078   0.370  10.635  1.2668 -1.7902 -0.3182
  863MPD2     C12664   0.211   3.245  17.158  0.1940 -0.0248  0.1586
  863MPD2    C112665   0.308   3.326  17.103  1.0927  0.2263 -0.1104
  863MPD2    C212666   0.427   3.350  17.168 -0.4001 -0.2626  0.2103
  863MPD2    C312667   0.450   3.280  17.281 -0.5928 -0.3005 -0.6241
  863MPD2    C412668   0.351   3.213  17.344 -0.1352  0.4379 -0.7933
  863MPD2    C512669   0.234   3.188  17.276  0.3943  0.5916  0.0808
  863MPD2     H12670   0.498   3.416  17.121 -0.7436 -1.2848 -1.7637
  863MPD2    H112671   0.357   3.176  17.446  0.9923 -0.2099 -1.0932
  863MPD2    H212672   0.125   3.224  17.096 -0.1131  3.9011 -0.7561
  863MPD2    H312673   0.165   3.119  17.324 -0.5382  0.3266 -1.6399
  863MPD2     N12674   0.569   3.300  17.357  0.1313 -0.8284  0.0930
  863MPD2    H512675   0.560   3.277  17.455  1.3107  1.5543  0.7481
  863MPD2    N112676   0.274   3.387  16.976 -1.1640  0.4967  0.6776
  863MPD2    H712677   0.173   3.386  16.960 -1.0520  1.0316 -0.1021
  864MPD2     C12678   1.390   0.142  17.473  0.3104 -0.0538  0.3805
  864MPD2    C112679   1.446   0.024  17.434 -0.1673  0.2276 -0.9242
  864MPD2    C212680   1.577   0.026  17.386  0.2436  0.8250 -0.1623
  864MPD2    C312681   1.643   0.139  17.349 -0.5876  0.1771  0.4158
  864MPD2    C412682   1.576   0.257  17.381 -0.6411 -0.5988 -0.1153
  864MPD2    C512683   1.460   0.256  17.451 -0.4696 -0.5889  0.4805
  864MPD2     H12684   1.630   4.657  17.370 -0.2026  0.5294  0.1099
  864MPD2    H112685   1.631   0.348  17.360  1.1398 -1.3747  1.2423
  864MPD2    H212686   1.285   0.152  17.499  0.3689  0.4214  0.4343
  864MPD2    H312687   1.419   0.350  17.485 -1.9572 -1.3933  0.8642
  864MPD2     N12688   1.764   0.146  17.274  0.2501 -0.5936 -0.3474
  864MPD2    H512689   1.802   0.235  17.244  0.3720 -0.6910 -0.4835
  864MPD2    N112690   1.372   4.631  17.434 -0.1229 -1.0653  0.2256
  864MPD2    H712691   1.278   4.642  17.472  0.9702 -0.0507  2.6173
  865MPD2     C12692   1.808   0.335  16.445 -0.3964 -0.2278  0.0260
  865MPD2    C112693   1.751   0.229  16.513 -0.2129 -0.1390 -0.1395
  865MPD2    C212694   1.777   0.221  16.646 -0.1094 -0.3179  0.5170
  865MPD2    C312695   1.862   0.305  16.704  0.1274 -0.3340 -0.6602
  865MPD2    C412696   1.914   0.415  16.642  0.3983  0.1646 -0.5328
  865MPD2    C512697   1.879   0.429  16.508 -0.4024  0.2111 -0.0077
  865MPD2     H12698   1.725   0.143  16.702  1.9162 -1.6589  0.5110
  865MPD2    H112699   1.982   0.490  16.681  1.4215 -0.7961 -0.4766
  865MPD2    H212700   1.809   0.355  16.338 -0.0527  1.2285  0.2989
  865MPD2    H312701   1.918   0.513  16.452  0.6965  0.7548  1.5769
  865MPD2     N12702   1.908   0.275  16.840  0.2139  0.2142  0.3475
  865MPD2    H512703   1.854   0.205  16.889 -0.1962  0.9938  1.0067
  865MPD2    N112704   1.674   0.129  16.445 -0.2336  0.6477  0.1980
  865MPD2    H712705   1.678   0.141  16.345  0.1334 -2.0267 -0.1278
  866MPD2     C12706   2.994   0.596  11.902  0.1628  0.0528  0.7145
  866MPD2    C112707   3.014   0.529  11.782 -0.0851  0.8677  0.8995
  866MPD2    C212708   2.938   0.577  11.673  0.1204 -0.1395  0.1666
  866MPD2    C312709   2.852   0.680  11.677  0.3721 -0.2143  0.3474
  866MPD2    C412710   2.832   0.737  11.802  0.1199  0.5227  0.0095
  866MPD2    C512711   2.914   0.705  11.905 -0.8282  0.2843 -0.2380
  866MPD2     H12712   2.944   0.525  11.578  0.0385  2.4301 -1.2347
  866MPD2    H112713   2.757   0.814  11.818 -0.9885 -1.0178  2.0939
  866MPD2    H212714   3.065   0.582  11.982  1.4534  0.4777 -0.3629
  866MPD2    H312715   2.910   0.762  11.997 -0.8978  0.5826 -0.4231
  866MPD2     N12716   2.752   0.718  11.582 -0.1530  0.2203 -0.0180
  866MPD2    H512717   2.684   0.783  11.619  0.4312 -0.1095  1.6453
  866MPD2    N112718   3.079   0.409  11.787  0.0050 -0.6977 -0.3637
  866MPD2    H712719   3.114   0.380  11.878 -1.5792 -0.7520  0.2257
  867MPD2     C12720   0.091   0.205  16.827 -0.5240  0.1157 -0.4839
  867MPD2    C112721   0.181   0.125  16.900 -0.0322  0.0575  0.1246
  867MPD2    C212722   0.277   0.186  16.970 -0.4375 -0.7748  0.2568
  867MPD2    C312723   0.291   0.322  16.972  0.2767 -0.4110 -0.4184
  867MPD2    C412724   0.200   0.399  16.896  0.3057 -0.2478 -0.2730
  867MPD2    C512725   0.107   0.339  16.825  0.9028 -0.5834 -0.8730
  867MPD2     H12726   0.338   0.117  17.028  1.1707  1.1904  0.8904
  867MPD2    H112727   0.211   0.506  16.885 -1.1281  0.0744  1.3628
  867MPD2    H212728   0.011   0.153  16.776  0.6696 -1.4843 -0.7209
  867MPD2    H312729   0.033   0.386  16.761  0.6296 -1.8499 -1.4961
  867MPD2     N12730   0.399   0.386  17.041 -0.1724  0.0557  0.5666
  867MPD2    H512731   0.405   0.486  17.027 -2.6894  0.1679  0.2900
  867MPD2    N112732   0.172   4.705  16.892 -0.1490  0.3368  0.8158
  867MPD2    H712733   0.080   4.672  16.864 -0.1431  1.1670 -0.1976
  868MPD2     C12734   1.872   3.749  13.331  0.7633 -0.3530  0.1690
  868MPD2    C112735   1.945   3.823  13.425  0.3193 -0.4763 -0.0061
  868MPD2    C212736   1.881   3.841  13.551  0.2892  0.2057 -0.1617
  868MPD2    C312737   1.752   3.787  13.576 -0.2798  0.2022 -0.2407
  868MPD2    C412738   1.691   3.708  13.484 -0.5552  0.3184  0.5285
  868MPD2    C512739   1.747   3.699  13.363  0.0907 -0.6042  0.9446
  868MPD2     H12740   1.939   3.899  13.623  2.3729 -1.4018 -0.5228
  868MPD2    H112741   1.594   3.666  13.504 -1.7005  2.4633 -0.4894
  868MPD2    H212742   1.920   3.718  13.239 -0.3259 -1.7014  0.0418
  868MPD2    H312743   1.692   3.647  13.286  0.2593 -1.7091  1.5774
  868MPD2     N12744   1.697   3.804  13.704 -0.4015 -0.1807  0.5467
  868MPD2    H512745   1.744   3.871  13.764 -0.0491  0.1564 -0.1005
  868MPD2    N112746   2.072   3.873  13.391  0.3167  0.0481  0.3880
  868MPD2    H712747   2.110   3.860  13.298 -0.5013  1.5585 -0.1576
  869MPD2     C12748   3.249   2.337   2.269 -0.6419  0.3558  0.5078
  869MPD2    C112749   3.258   2.272   2.146  0.7702  0.1040  0.5753
  869MPD2    C212750   3.292   2.337   2.034 -0.1311  0.5601 -0.0920
  869MPD2    C312751   3.346   2.466   2.037 -0.3377  0.3866  0.8425
  869MPD2    C412752   3.343   2.534   2.162 -0.2799 -0.5839  0.1321
  869MPD2    C512753   3.294   2.465   2.271  0.4883  0.0770  0.0202
  869MPD2     H12754   3.306   2.281   1.943  0.5354 -0.8162  0.8529
  869MPD2    H112755   3.377   2.637   2.172 -2.3567  0.0255  0.7509
  869MPD2    H212756   3.206   2.310   2.365 -0.9975  0.6847  0.4445
  869MPD2    H312757   3.282   2.516   2.366 -0.6249 -0.2036  0.0271
  869MPD2     N12758   3.410   2.535   1.927  0.0730  0.3136 -0.4041
  869MPD2    H512759   3.423   2.634   1.944 -2.5208  0.3020  1.7417
  869MPD2    N112760   3.203   2.140   2.149  0.7631  0.5742  0.1194
  869MPD2    H712761   3.182   2.103   2.241 -0.1485 -0.4371 -0.4846
  870MPD2     C12762   1.984   0.441   1.805 -0.3527 -0.0273 -0.1880
  870MPD2    C112763   2.106   0.381   1.794 -0.3749 -1.0636 -0.6815
  870MPD2    C212764   2.153   0.337   1.669  1.3775  0.0707 -0.3914
  870MPD2    C312765   2.070   0.356   1.556  0.5983  0.1023  0.4459
  870MPD2    C412766   1.947   0.404   1.578  0.3400 -0.4950  0.2184
  870MPD2    C512767   1.898   0.452   1.699  0.1174  0.5000  1.1351
  870MPD2     H12768   2.255   0.303   1.659  1.9165  1.4908  0.3621
  870MPD2    H112769   1.885   0.416   1.490 -0.8812 -1.1708  0.9822
  870MPD2    H212770   1.943   0.472   1.900  1.9075 -0.4883  0.9486
  870MPD2    H312771   1.799   0.496   1.708  0.3808  1.2829  0.2172
  870MPD2     N12772   2.129   0.312   1.428 -0.6608 -0.4908 -0.3005
  870MPD2    H512773   2.222   0.271   1.439 -0.7833 -1.1110 -1.6536
  870MPD2    N112774   2.178   0.378   1.913 -0.0545 -0.2339  0.0038
  870MPD2    H712775   2.132   0.413   1.996 -0.3151  0.2519 -0.3422
  871MPD2     C12776   3.517   4.708  16.236  0.2270 -0.6741  0.4573
  871MPD2    C112777   3.515   4.642  16.354  0.0121  0.7491 -0.3091
  871MPD2    C212778   3.585   4.520  16.366  0.0760 -0.6742  0.3342
  871MPD2    C312779   3.643   4.459  16.254  0.3165 -0.3852 -0.1842
  871MPD2    C412780   3.641   4.528  16.136 -0.0519  0.1804 -0.2976
  871MPD2    C512781   3.563   4.642  16.127 -0.1030 -0.6435 -0.4328
  871MPD2     H12782   3.590   4.471  16.463 -0.6070 -1.7549 -0.1663
  871MPD2    H112783   3.678   4.485  16.044  0.6804  1.7696 -0.7367
  871MPD2    H212784   3.475   0.082  16.220  0.6662 -0.6940 -0.8157
  871MPD2    H312785   3.553   4.682  16.027 -0.7255  0.3239  0.0137
  871MPD2     N12786   3.697   4.332  16.283  0.3401 -0.7948 -1.0381
  871MPD2    H512787   3.674   4.291  16.373  1.9693  0.5297 -0.0177
  871MPD2    N112788   3.454   4.710  16.462 -0.1884 -0.6491 -0.3271
  871MPD2    H712789   3.390   0.058  16.431  0.0644  0.6110  2.0737
  872MPD2     C12790   0.068   2.353  14.338 -0.6974 -0.4424  0.2570
  872MPD2    C112791   4.724   2.434  14.249 -0.8213  0.5250 -0.6286
  872MPD2    C212792   4.588   2.435  14.252 -0.2223  0.2843 -0.4941
  872MPD2    C312793   4.514   2.361  14.345 -0.2051 -0.9391 -0.5362
  872MPD2    C412794   4.590   2.281  14.430  0.6287 -0.7322  0.2265
  872MPD2    C512795   4.724   2.285  14.432  0.2361 -0.1190  0.5778
  872MPD2     H12796   4.533   2.494  14.179 -3.2011 -2.0017 -0.0749
  872MPD2    H112797   4.532   2.227  14.504 -0.0008  0.3888  0.5613
  872MPD2    H212798   0.177   2.352  14.340 -0.7232 -3.2223  0.1797
  872MPD2    H312799   0.058   2.238  14.510 -0.7953 -0.6969  0.9959
  872MPD2     N12800   4.371   2.376  14.363 -0.4903  0.0761 -0.1476
  872MPD2    H512801   4.332   2.328  14.443 -0.0466 -0.5530 -0.3075
  872MPD2    N112802   0.065   2.517  14.156 -0.1161 -0.1047  0.3695
  872MPD2    H712803   0.005   2.574  14.098  0.0112 -2.0913 -1.7430
  873MPD2     C12804   1.543   2.139   1.067  0.2456  0.1712  0.0058
  873MPD2    C112805   1.603   2.109   1.188  0.1017  0.3019  0.3598
  873MPD2    C212806   1.672   1.986   1.195 -0.1659 -0.2046  0.3704
  873MPD2    C312807   1.669   1.898   1.087 -0.7770 -0.6409  0.5373
  873MPD2    C412808   1.613   1.931   0.966 -0.4102 -0.8373  0.0209
  873MPD2    C512809   1.539   2.051   0.958 -0.5599  0.5318  0.0802
  873MPD2     H12810   1.691   1.952   1.296  0.4706 -0.2131  0.2444
  873MPD2    H112811   1.599   1.850   0.896 -1.8507  0.6855 -1.4691
  873MPD2    H212812   1.478   2.226   1.059  1.7420  1.2646 -0.2208
  873MPD2    H312813   1.479   2.078   0.872 -0.7547 -0.2496 -0.0303
  873MPD2     N12814   1.721   1.769   1.096  0.3243  0.1678 -0.0110
  873MPD2    H512815   1.718   1.707   1.015  0.7445  1.4979 -1.0423
  873MPD2    N112816   1.587   2.199   1.297  0.7818  0.7760 -0.2347
  873MPD2    H712817   1.513   2.265   1.274  1.5958  1.1915 -1.6448
  874MPD2     C12818   0.725   2.115  16.566  0.2676 -0.1010 -0.4372
  874MPD2    C112819   0.846   2.096  16.627  0.6083  0.5753 -0.1506
  874MPD2    C212820   0.946   2.176  16.581 -0.4464 -0.2123  0.3450
  874MPD2    C312821   0.938   2.264  16.475  0.6138  0.4360  0.5086
  874MPD2    C412822   0.819   2.264  16.403 -0.3239  0.0002  0.3733
  874MPD2    C512823   0.709   2.186  16.453 -0.0816  0.2422 -0.8000
  874MPD2     H12824   1.039   2.183  16.636 -1.3394 -0.0150  1.8305
  874MPD2    H112825   0.807   2.314  16.308  2.5160 -2.1438 -1.1066
  874MPD2    H212826   0.639   2.056  16.596  1.3857 -1.1307  0.7436
  874MPD2    H312827   0.612   2.199  16.406 -0.9246 -3.7215 -0.1105
  874MPD2     N12828   1.047   2.349  16.445 -0.1015  0.0634 -0.1884
  874MPD2    H512829   1.117   2.356  16.518  0.1629 -1.6268 -0.2895
  874MPD2    N112830   0.867   2.012  16.738 -0.0376  0.2432  0.2160
  874MPD2    H712831   0.788   1.953  16.764  1.4014 -0.3577  3.1588
  875MPD2     C12832   2.462   1.294  14.526 -0.5900  0.4956 -0.5420
  875MPD2    C112833   2.404   1.166  14.540  0.2374  0.5972 -0.6069
  875MPD2    C212834   2.417   1.091  14.658  0.1911 -0.3459  0.0396
  875MPD2    C312835   2.485   1.151  14.763 -0.7836  0.1424 -0.7238
  875MPD2    C412836   2.540   1.276  14.748 -0.1045 -0.0172  0.1015
  875MPD2    C512837   2.522   1.350  14.636  0.7255  0.6984  0.0441
  875MPD2     H12838   2.363   1.000  14.676  0.3516 -0.2726  0.8903
  875MPD2    H112839   2.586   1.325  14.833  2.4182  0.9036 -1.8052
  875MPD2    H212840   2.444   1.353  14.437  0.7976  0.8413 -0.5985
  875MPD2    H312841   2.580   1.441  14.627 -0.5360  1.1696 -3.1551
  875MPD2     N12842   2.498   1.090  14.891  0.1388 -0.9518 -0.1861
  875MPD2    H512843   2.566   1.146  14.940 -0.5815  1.1491 -1.6005
  875MPD2    N112844   2.346   1.102  14.428 -0.0438  0.5329  0.2348
  875MPD2    H712845   2.330   1.002  14.429 -1.0344  0.7207  1.9433
  876MPD2     C12846   1.327   2.405  15.819 -0.5919 -0.4788 -0.3029
  876MPD2    C112847   1.391   2.301  15.763 -0.4070 -0.5137 -0.0513
  876MPD2    C212848   1.377   2.172  15.820  0.5087  0.1024 -0.3536
  876MPD2    C312849   1.311   2.159  15.939  0.0306  0.0066  0.3685
  876MPD2    C412850   1.250   2.271  15.994  0.1004  0.4730 -0.0643
  876MPD2    C512851   1.267   2.392  15.939  0.8977  0.4547  0.2932
  876MPD2     H12852   1.437   2.097  15.771 -2.6444 -2.1964 -0.6619
  876MPD2    H112853   1.182   2.265  16.078 -0.1273  0.5854 -0.2396
  876MPD2    H212854   1.333   2.500  15.766  2.1387  0.9084  2.4693
  876MPD2    H312855   1.221   2.473  15.993  0.5469 -0.0609  0.7670
  876MPD2     N12856   1.308   2.034  16.006  0.0625 -0.1117  0.2601
  876MPD2    H512857   1.361   1.959  15.961  0.1721  0.2402 -0.1943
  876MPD2    N112858   1.459   2.328  15.637 -0.3730  0.9616  0.4290
  876MPD2    H712859   1.464   2.423  15.602  4.9176 -0.2984 -2.3174
  877MPD2     C12860   1.641   2.822  15.097 -0.6709  0.6371 -0.0651
  877MPD2    C112861   1.666   2.694  15.050 -0.4784 -0.3984  0.0579
  877MPD2    C212862   1.681   2.660  14.918  0.5607 -0.2116 -0.2692
  877MPD2    C312863   1.686   2.761  14.825 -0.1510 -0.6928 -0.1553
  877MPD2    C412864   1.650   2.889  14.871  0.3328 -0.2790 -0.6687
  877MPD2    C512865   1.616   2.922  15.002  0.1005  0.3530 -0.1616
  877MPD2     H12866   1.709   2.562  14.882  2.4342 -0.1665  1.1070
  877MPD2    H112867   1.635   2.959  14.790  1.0232 -0.6471 -1.1066
  877MPD2    H212868   1.637   2.862  15.198  1.6808  0.5643  0.0415
  877MPD2    H312869   1.586   3.021  15.034 -1.3111 -0.1121 -0.0314
  877MPD2     N12870   1.713   2.732  14.692  0.4661  0.0160  0.2269
  877MPD2    H512871   1.704   2.805  14.622 -0.7275  1.1709  1.6104
  877MPD2    N112872   1.676   2.583  15.130 -0.2119  0.8986 -0.1407
  877MPD2    H712873   1.684   2.492  15.085 -0.7537  1.1505 -0.7439
  878MPD2     C12874   0.133   2.162  13.318 -0.2923  0.0996  0.7695
  878MPD2    C112875   0.246   2.243  13.309  0.4337 -0.3376  0.5593
  878MPD2    C212876   0.345   2.221  13.404 -0.4143 -0.2085 -0.1084
  878MPD2    C312877   0.330   2.124  13.504  0.2419  0.5913  0.3154
  878MPD2    C412878   0.213   2.053  13.516 -0.8678  0.1722 -0.5585
  878MPD2    C512879   0.110   2.079  13.427 -0.1418  0.1274 -0.0368
  878MPD2     H12880   0.443   2.268  13.402  0.0957 -1.2963 -0.5701
  878MPD2    H112881   0.201   1.995  13.607 -1.6709  0.8214 -0.2468
  878MPD2    H212882   0.043   2.180  13.260 -0.8180 -1.2052  1.2012
  878MPD2    H312883   0.013   2.042  13.457 -0.6387  1.2895 -0.1818
  878MPD2     N12884   0.440   2.110  13.596  0.1689 -0.2368 -0.0142
  878MPD2    H512885   0.516   2.175  13.579  0.2841 -0.5490 -0.7262
  878MPD2    N112886   0.260   2.320  13.193  0.4805  0.6346  0.1537
  878MPD2    H712887   0.195   2.318  13.115  1.2404 -1.4130 -0.4327
  879MPD2     C12888   1.165   3.136  17.330 -0.0452 -0.2520 -0.5150
  879MPD2    C112889   1.260   3.040  17.306 -0.7128 -0.1755 -0.1702
  879MPD2    C212890   1.228   2.935  17.219 -0.5377 -0.2823 -0.1241
  879MPD2    C312891   1.114   2.932  17.144  0.5656 -0.4079  0.1227
  879MPD2    C412892   1.028   3.038  17.158  0.0392  0.9403 -0.2013
  879MPD2    C512893   1.053   3.143  17.247 -0.8101  0.1340 -0.5016
  879MPD2     H12894   1.303   2.857  17.209 -1.0869 -0.8458  0.1261
  879MPD2    H112895   0.931   3.026  17.113 -1.1305  1.7689  2.0859
  879MPD2    H212896   1.179   3.221  17.396 -0.9943 -0.1414 -0.4607
  879MPD2    H312897   0.976   3.218  17.259 -0.1957  0.7204 -0.2858
  879MPD2     N12898   1.086   2.836  17.048  0.1558 -0.1160 -0.1044
  879MPD2    H512899   0.999   2.855  16.998  0.1416  1.1740  0.4337
  879MPD2    N112900   1.388   3.046  17.367 -0.0231  0.2382  0.1787
  879MPD2    H712901   1.404   3.125  17.429  1.2080 -0.1647  0.3720
  880MPD2     C12902   2.561   4.499   0.292  0.2712  0.3849  0.4378
  880MPD2    C112903   2.600   4.590   0.195 -0.0501 -0.3412  0.1134
  880MPD2    C212904   2.729   4.575   0.139  0.3184  0.1151  0.3336
  880MPD2    C312905   2.820   4.482   0.190 -0.1008 -0.5380  0.3072
  880MPD2    C412906   2.783   4.402   0.297 -0.9956 -0.1622  0.5053
  880MPD2    C512907   2.651   4.415   0.348  0.1644 -0.2379  0.1443
  880MPD2     H12908   2.757   4.655   0.071 -2.1465  0.9366  0.2811
  880MPD2    H112909   2.852   4.336   0.348 -0.8156 -1.2645 -1.1996
  880MPD2    H212910   2.461   4.500   0.333  0.7566 -0.3433  1.6603
  880MPD2    H312911   2.621   4.355   0.434 -0.2735 -1.3729 -0.8104
  880MPD2     N12912   2.952   4.472   0.132  0.2164  0.4311 -0.1867
  880MPD2    H512913   2.982   4.557   0.085  3.4830 -1.0267 -0.7025
  880MPD2    N112914   2.510   4.696   0.163  0.3371 -0.8685  0.3097
  880MPD2    H712915   2.423   4.702   0.214 -0.7428  0.2107 -1.6612
  881MPD2     C12916   2.727   0.952  17.530  0.1334  0.2658  0.1624
  881MPD2    C112917   2.767   0.824  17.498  0.3670  0.3983 -0.6787
  881MPD2    C212918   2.685   0.719  17.531  0.6892  0.3132  0.6445
  881MPD2    C312919   2.575   0.740  17.613 -0.7238 -0.3747  0.1379
  881MPD2    C412920   2.545   0.870  17.655 -0.1768  0.2101  0.0171
  881MPD2    C512921   2.620   0.974  17.618 -0.5190 -0.2454 -0.3729
  881MPD2     H12922   2.717   0.619  17.502  0.8490  0.1757  1.2902
  881MPD2    H112923   2.459   0.895   0.017 -0.1394 -2.0072  0.9624
  881MPD2    H212924   2.769   1.042  17.486  0.3572  0.1990  0.2370
  881MPD2    H312925   2.596   1.074  17.652  2.0135  0.4929 -0.7125
  881MPD2     N12926   2.502   0.633  17.671  0.4901 -0.3920 -0.7404
  881MPD2    H512927   2.441   0.668   0.045 -0.0728  0.7253 -1.7265
  881MPD2    N112928   2.875   0.800  17.410 -0.3204  0.2314  0.2451
  881MPD2    H712929   2.886   0.713  17.360 -0.3405  0.6237 -0.4314
  882MPD2     C12930   1.411   2.761  13.891 -0.0491 -0.2474  0.2406
  882MPD2    C112931   1.392   2.786  14.028  0.5573  0.5121  0.1286
  882MPD2    C212932   1.268   2.824  14.072  0.3798 -0.4244  0.8382
  882MPD2    C312933   1.161   2.836  13.979  0.1326 -0.0463 -0.8837
  882MPD2    C412934   1.190   2.828  13.844  0.6354  1.1990 -0.3869
  882MPD2    C512935   1.315   2.791  13.799  0.6001 -0.3106  0.4526
  882MPD2     H12936   1.252   2.852  14.175  0.1135  1.1267  0.3808
  882MPD2    H112937   1.110   2.833  13.771  1.5727 -1.4227 -1.5735
  882MPD2    H212938   1.509   2.728  13.856 -0.1800  0.1056 -0.4775
  882MPD2    H312939   1.315   2.792  13.691 -0.3053 -2.8189  0.4171
  882MPD2     N12940   1.026   2.857  14.022 -0.0589  0.1955 -0.0994
  882MPD2    H512941   0.958   2.890  13.954  0.8262  0.7821 -0.6942
  882MPD2    N112942   1.501   2.758  14.110  0.0568 -0.0930 -0.4341
  882MPD2    H712943   1.584   2.724  14.062 -0.5064  0.0685 -1.5132
  883MPD2     C12944   3.303   2.629  16.667 -0.5196 -0.3602  0.3880
  883MPD2    C112945   3.381   2.637  16.557 -0.1783 -0.0557 -0.2020
  883MPD2    C212946   3.519   2.651  16.580  0.2042 -0.3601  0.4198
  883MPD2    C312947   3.570   2.661  16.712 -0.4505  0.0622  1.1267
  883MPD2    C412948   3.484   2.651  16.818  0.2089 -0.7422  0.7863
  883MPD2    C512949   3.353   2.643  16.796 -1.5295 -0.1119 -0.3045
  883MPD2     H12950   3.579   2.640  16.491 -1.7277 -3.8913 -0.4350
  883MPD2    H112951   3.525   2.651  16.918  1.9010  2.2771  0.1240
  883MPD2    H212952   3.196   2.634  16.653 -0.0586 -1.0555 -3.3791
  883MPD2    H312953   3.292   2.633  16.884 -0.9583  1.3517  0.2684
  883MPD2     N12954   3.712   2.661  16.730 -0.3030 -0.9111  0.0442
  883MPD2    H512955   3.769   2.656  16.645  0.6085 -0.4762  0.6237
  883MPD2    N112956   3.334   2.633  16.419 -0.0544  0.0893  0.2151
  883MPD2    H712957   3.410   2.637  16.351  0.5039 -1.5439  0.7245
  884MPD2     C12958   0.717   3.154  14.992  0.3224 -0.7779  0.0318
  884MPD2    C112959   0.712   3.287  15.029  0.1787 -0.5767  0.0796
  884MPD2    C212960   0.587   3.337  15.073 -0.0582  0.1102  0.5974
  884MPD2    C312961   0.478   3.250  15.084 -0.2948  0.7254  0.3368
  884MPD2    C412962   0.493   3.114  15.060  0.1288  0.1954  0.1695
  884MPD2    C512963   0.612   3.069  15.005 -0.0378  0.4043  0.7125
  884MPD2     H12964   0.569   3.442  15.093  1.6187 -0.4323  4.8793
  884MPD2    H112965   0.428   3.029  15.077 -0.0341  0.3915  0.5185
  884MPD2    H212966   0.809   3.114  14.951 -1.5713 -4.0831 -1.0624
  884MPD2    H312967   0.620   2.961  14.993 -1.0929  0.3282  0.6713
  884MPD2     N12968   0.355   3.306  15.138 -0.4650 -0.6643 -0.3037
  884MPD2    H512969   0.356   3.406  15.158 -1.3893 -0.7916  0.4058
  884MPD2    N112970   0.820   3.379  15.027  0.2151 -0.4708  0.0162
  884MPD2    H712971   0.796   3.478  15.028 -1.6054 -0.8852 -0.6873
  885MPD2     C12972   3.060   2.748  17.611  0.2362 -0.5159  0.1474
  885MPD2    C112973   3.123   2.863  17.646 -0.0794 -0.5187 -0.4404
  885MPD2    C212974   3.143   2.961  17.552 -0.4149 -0.1422  0.0598
  885MPD2    C312975   3.081   2.951  17.433  0.1606  0.9550 -0.2645
  885MPD2    C412976   3.020   2.838  17.393 -0.1875 -0.1432 -0.3274
  885MPD2    C512977   3.003   2.739  17.483 -0.1242  0.6981 -0.1294
  885MPD2     H12978   3.197   3.051  17.578 -2.4971  0.3756  2.6405
  885MPD2    H112979   2.967   2.822  17.300 -2.8098 -1.0092  1.3020
  885MPD2    H212980   3.051   2.663  17.678  2.5087 -1.3871 -0.6634
  885MPD2    H312981   2.948   2.653  17.445  2.1126 -0.9868  0.3816
  885MPD2     N12982   3.111   3.054  17.337  0.3333 -1.1554  0.6548
  885MPD2    H512983   3.177   3.125  17.366  1.2066 -0.7873 -2.3061
  885MPD2    N112984   3.166   2.877   0.079 -0.3923  0.1479 -0.4271
  885MPD2    H712985   3.167   2.799   0.144  0.2867  0.9967  0.5959
  886MPD2     C12986   4.654   1.601  15.349  0.7342 -0.4222 -0.0030
  886MPD2    C112987   0.065   1.606  15.351 -0.3923 -0.3487 -0.1051
  886MPD2    C212988   0.122   1.668  15.240  0.2905  0.2219 -0.2574
  886MPD2    C312989   0.049   1.741  15.146  0.3435  0.0538  0.6212
  886MPD2    C412990   4.642   1.741  15.157 -0.8375  0.4164  0.0051
  886MPD2    C512991   4.585   1.677  15.266  0.2757  0.4663  0.2156
  886MPD2     H12992   0.230   1.658  15.229  0.4715  2.1990 -0.2113
  886MPD2    H112993   4.579   1.799  15.090  0.5663  1.8499 -0.0648
  886MPD2    H212994   4.603   1.566  15.438  1.2734  1.5147  1.0693
  886MPD2    H312995   4.477   1.671  15.263  0.2980 -0.8514  1.2949
  886MPD2     N12996   0.108   1.827  15.041  0.7531 -0.1633 -0.3564
  886MPD2    H512997   0.044   1.880  14.983  0.5267 -1.3486 -1.1940
  886MPD2    N112998   0.148   1.552  15.455  0.1540  0.3011  0.7108
  886MPD2    H712999   0.248   1.570  15.454  0.0691  0.7449 -0.5464
  887MPD2     C13000   0.763   1.762  15.544  0.1644  0.6447  0.5049
  887MPD2    C113001   0.657   1.810  15.626  0.0191 -0.6638 -1.0077
  887MPD2    C213002   0.647   1.945  15.642 -0.0432  0.6831  0.1962
  887MPD2    C313003   0.735   2.034  15.596 -0.6790  0.7003 -0.3497
  887MPD2    C413004   0.849   1.991  15.524  0.0694  0.2709 -0.1248
  887MPD2    C513005   0.860   1.852  15.497 -0.2468  0.4512  0.6754
  887MPD2     H13006   0.561   1.981  15.697 -0.7788 -0.6709 -0.0589
  887MPD2    H113007   0.929   2.051  15.481  0.1383  0.3462  0.1071
  887MPD2    H213008   0.784   1.656  15.530 -2.4504  0.4372 -1.7699
  887MPD2    H313009   0.949   1.816  15.448 -0.3500  0.0596  0.7787
  887MPD2     N13010   0.702   2.167  15.623 -0.5154 -0.0637  0.2951
  887MPD2    H513011   0.609   2.186  15.658  0.1736  0.3505  1.8569
  887MPD2    N113012   0.559   1.716  15.676  0.3508  0.0407 -0.0649
  887MPD2    H713013   0.482   1.753  15.730  0.1342  1.1831 -1.1528
  888MPD2     C13014   2.382   1.583  14.934  0.2456  0.1356  0.5743
  888MPD2    C113015   2.369   1.618  15.064  0.4430  0.1940 -0.7837
  888MPD2    C213016   2.437   1.727  15.110  0.1113 -0.3840  0.2455
  888MPD2    C313017   2.503   1.811  15.022 -0.2776 -0.8497  0.2141
  888MPD2    C413018   2.525   1.765  14.894  0.1904 -0.0439  0.2954
  888MPD2    C513019   2.458   1.658  14.848  0.0784 -0.4503 -0.8461
  888MPD2     H13020   2.441   1.751  15.216  0.4186 -0.6168  0.2881
  888MPD2    H113021   2.570   1.818  14.810  1.5739 -2.4031 -0.4527
  888MPD2    H213022   2.346   1.491  14.888  0.4884  0.2525  0.1536
  888MPD2    H313023   2.455   1.634  14.743 -1.3007  0.7178 -1.0767
  888MPD2     N13024   2.560   1.937  15.067  0.0352 -0.1809 -0.5006
  888MPD2    H513025   2.537   1.972  15.160 -1.2818 -1.1644 -0.4572
  888MPD2    N113026   2.299   1.545  15.157 -0.2129 -0.0222 -0.2198
  888MPD2    H713027   2.314   1.580  15.251 -0.5121  1.3887 -0.6873
  889MPD2     C13028   1.528   1.609  12.480 -0.2092  0.4428 -0.3779
  889MPD2    C113029   1.641   1.603  12.562 -0.0548  0.4510  0.1340
  889MPD2    C213030   1.664   1.715  12.640 -0.6764  0.5581 -0.2697
  889MPD2    C313031   1.597   1.832  12.620 -0.0073  0.6994  0.1818
  889MPD2    C413032   1.510   1.846  12.507  0.2827  0.2722 -0.3581
  889MPD2    C513033   1.480   1.731  12.440  0.6161  0.0196  1.0837
  889MPD2     H13034   1.727   1.702  12.727  0.3538  1.7348 -0.8429
  889MPD2    H113035   1.470   1.940  12.472  0.3727  0.1961 -0.6643
  889MPD2    H213036   1.498   1.524  12.419  1.3533  1.1073 -2.0471
  889MPD2    H313037   1.416   1.734  12.353  1.2048  0.6604  0.6799
  889MPD2     N13038   1.606   1.942  12.707 -0.6883 -0.4619  0.1053
  889MPD2    H513039   1.678   1.925  12.776 -1.4969 -1.3541  0.7294
  889MPD2    N113040   1.694   1.475  12.590  0.0102 -0.1030 -0.4338
  889MPD2    H713041   1.636   1.392  12.580  0.5412 -0.2696 -2.2068
  890MPD2     C13042   1.361   3.403  14.961 -0.0361 -0.3181  0.1490
  890MPD2    C113043   1.453   3.486  15.018 -0.3430  0.3218 -0.8575
  890MPD2    C213044   1.509   3.449  15.137  0.6972  0.1645 -0.4323
  890MPD2    C313045   1.486   3.317  15.189 -0.1775  0.0959  0.3057
  890MPD2    C413046   1.401   3.231  15.119 -0.4222 -0.0680 -0.5364
  890MPD2    C513047   1.332   3.280  15.016  0.1532 -0.4903 -1.2661
  890MPD2     H13048   1.573   3.516  15.193  1.6408 -1.5341  0.5341
  890MPD2    H113049   1.378   3.132  15.156  4.0255 -1.6198 -1.9682
  890MPD2    H213050   1.317   3.436  14.868 -0.6635  2.5301  1.4442
  890MPD2    H313051   1.262   3.221  14.960 -0.2093 -0.3026 -1.0099
  890MPD2     N13052   1.551   3.277  15.312 -0.0094 -0.0564  0.3985
  890MPD2    H513053   1.600   3.352  15.360  0.0497 -0.8822  1.6287
  890MPD2    N113054   1.460   3.618  14.955  0.5260 -0.1815  0.8411
  890MPD2    H713055   1.412   3.636  14.868  0.5508 -1.8666  0.4936
  891MPD2     C13056   4.250   1.400  16.536 -0.5021 -0.0650 -0.4538
  891MPD2    C113057   4.179   1.437  16.645 -1.1073  0.2980 -0.1507
  891MPD2    C213058   4.216   1.395  16.768  0.2451  0.1628  0.5670
  891MPD2    C313059   4.325   1.313  16.787 -0.1598  0.2146 -0.8254
  891MPD2    C413060   4.395   1.266  16.676 -0.1148 -0.3539 -0.5383
  891MPD2    C513061   4.357   1.316  16.551  0.2860  0.1362 -0.5094
  891MPD2     H13062   4.173   1.436  16.859  0.1926  1.0357  0.1538
  891MPD2    H113063   4.466   1.184  16.681  0.5696  0.1683 -1.6899
  891MPD2    H213064   4.222   1.425  16.434 -2.1254  0.4573  0.1108
  891MPD2    H313065   4.398   1.274  16.460 -0.3314  0.3156 -0.8721
  891MPD2     N13066   4.349   1.268  16.919 -0.0940  0.2028 -0.4472
  891MPD2    H513067   4.291   1.307  16.992  0.3265 -0.3285  0.1763
  891MPD2    N113068   4.066   1.526  16.621 -0.4617 -0.6356 -1.0795
  891MPD2    H713069   4.053   1.567  16.529  0.1729 -2.3568 -1.9391
  892MPD2     C13070   0.623   2.680  14.923 -0.2601  0.4487  0.5397
  892MPD2    C113071   0.531   2.717  14.832 -0.2235 -0.1848 -0.3504
  892MPD2    C213072   0.570   2.701  14.700  0.0188  0.0246  0.0592
  892MPD2    C313073   0.696   2.658  14.665 -0.7293 -0.3586  0.4688
  892MPD2    C413074   0.788   2.630  14.763 -0.3951  0.7880 -0.7913
  892MPD2    C513075   0.751   2.640  14.889  0.4186 -0.2708  0.2030
  892MPD2     H13076   0.499   2.729  14.624  0.1880  0.5085  0.0743
  892MPD2    H113077   0.892   2.610  14.738 -0.6082  0.4408 -1.3934
  892MPD2    H213078   0.602   2.683  15.030 -1.3344 -0.2554  0.3454
  892MPD2    H313079   0.820   2.625  14.971  0.2839 -3.9729 -0.3843
  892MPD2     N13080   0.732   2.637  14.530 -0.2490  0.0167  0.1903
  892MPD2    H513081   0.829   2.614  14.514 -0.3603 -0.9607  0.9691
  892MPD2    N113082   0.398   2.761  14.865  0.1328 -0.2928  0.1558
  892MPD2    H713083   0.338   2.777  14.784  2.2759 -0.0951 -1.4159
  893MPD2     C13084   2.154   1.178   2.603 -0.6488  0.2086  1.0119
  893MPD2    C113085   2.091   1.138   2.491  0.9170  0.8025 -0.0459
  893MPD2    C213086   1.953   1.129   2.491  0.7519 -0.1625 -0.7340
  893MPD2    C313087   1.881   1.167   2.606  0.0728 -0.1519 -1.0600
  893MPD2    C413088   1.955   1.204   2.720 -0.0489  0.5186 -0.2576
  893MPD2    C513089   2.095   1.215   2.716  0.2009  0.0397 -0.0313
  893MPD2     H13090   1.899   1.091   2.404 -2.2642 -0.6102  1.3270
  893MPD2    H113091   1.906   1.234   2.812 -0.1847 -0.4535 -0.0113
  893MPD2    H213092   2.262   1.188   2.607 -0.5265 -1.2513  1.2801
  893MPD2    H313093   2.136   1.252   2.809  0.5191  2.2357 -1.0434
  893MPD2     N13094   1.737   1.173   2.609  0.6490  0.4719 -0.0908
  893MPD2    H513095   1.696   1.191   2.700 -0.0304 -1.3099 -0.0433
  893MPD2    N113096   2.171   1.092   2.387  0.3321  0.0477 -0.2941
  893MPD2    H713097   2.270   1.077   2.404  0.3475 -0.8504 -1.1568
  894MPD2     C13098   0.382   3.016   0.910 -0.3018 -0.4990  0.5612
  894MPD2    C113099   0.303   3.121   0.946 -0.3261 -0.1741 -0.0038
  894MPD2    C213100   0.358   3.240   0.974  0.5096  0.5706  0.0541
  894MPD2    C313101   0.493   3.264   0.940  0.8207 -0.2241  0.3993
  894MPD2    C413102   0.576   3.162   0.911  0.6251  0.5525 -0.5312
  894MPD2    C513103   0.520   3.042   0.890 -0.0321  0.3297  0.4824
  894MPD2     H13104   0.302   3.319   1.022 -1.3496 -0.2115 -0.8259
  894MPD2    H113105   0.683   3.170   0.898  0.6335  1.9344  0.3472
  894MPD2    H213106   0.348   2.915   0.888 -2.1811  0.2587  0.0242
  894MPD2    H313107   0.587   2.960   0.864  0.3956 -0.0153  2.6722
  894MPD2     N13108   0.545   3.395   0.964 -0.2028  0.2086 -0.1122
  894MPD2    H513109   0.476   3.463   0.994 -1.1146 -0.9190  0.3086
  894MPD2    N113110   0.163   3.108   0.964 -0.1325 -0.4631 -0.6959
  894MPD2    H713111   0.105   3.190   0.979 -1.1939 -1.2275 -0.6189
  895MPD2     C13112   4.194   2.445  13.199 -0.2425 -0.4406 -0.1074
  895MPD2    C113113   4.086   2.383  13.144  0.3751  0.2550  0.1660
  895MPD2    C213114   4.119   2.309  13.034  0.4463  0.4512 -0.6565
  895MPD2    C313115   4.250   2.271  13.002  0.0691 -0.4793 -0.5452
  895MPD2    C413116   4.351   2.332  13.073 -0.2676 -0.5769 -0.0481
  895MPD2    C513117   4.323   2.419  13.168  0.4847 -0.4005 -0.6118
  895MPD2     H13118   4.041   2.245  12.994  1.2319 -0.5812 -0.5352
  895MPD2    H113119   4.457   2.312  13.060 -0.2125 -1.1866  1.3382
  895MPD2    H213120   4.174   2.528  13.266 -4.0240 -0.9261 -0.6122
  895MPD2    H313121   4.403   2.468  13.222 -2.6654  1.9408  1.9286
  895MPD2     N13122   4.285   2.168  12.911  0.0510 -0.4456  0.0945
  895MPD2    H513123   4.382   2.140  12.915  0.0994 -0.4132 -0.7279
  895MPD2    N113124   3.956   2.395  13.195  0.5274 -0.3447 -0.2197
  895MPD2    H713125   3.885   2.355  13.134 -0.3505 -0.2806  0.7483
  896MPD2     C13126   1.816   3.872   2.199  1.0069 -0.6633 -0.0402
  896MPD2    C113127   1.836   3.843   2.065 -0.1451  0.1650 -1.0319
  896MPD2    C213128   1.721   3.818   1.987  0.3667 -0.3911  0.0492
  896MPD2    C313129   1.594   3.842   2.047 -0.5532 -0.7971 -0.6688
  896MPD2    C413130   1.588   3.881   2.179  0.7057 -0.0492 -0.0679
  896MPD2    C513131   1.695   3.887   2.259  0.7693  0.0243  0.1218
  896MPD2     H13132   1.730   3.788   1.883 -1.5669  0.0129 -0.2386
  896MPD2    H113133   1.493   3.888   2.229 -0.4183  0.5882 -2.2981
  896MPD2    H213134   1.904   3.902   2.254  1.4921 -0.4671 -0.9249
  896MPD2    H313135   1.685   3.914   2.363  0.2911 -2.1417  0.6375
  896MPD2     N13136   1.475   3.826   1.967 -0.0535 -0.1512 -0.3715
  896MPD2    H513137   1.488   3.798   1.871 -0.1286 -2.5823  0.3171
  896MPD2    N113138   1.972   3.854   2.025 -0.0820  0.7905 -0.0371
  896MPD2    H713139   2.044   3.883   2.091 -0.1317  2.0847 -0.5438
  897MPD2     C13140   3.349   1.564  10.526 -0.9186 -0.4054  0.5371
  897MPD2    C113141   3.258   1.542  10.421 -0.6372  0.1226 -0.6248
  897MPD2    C213142   3.179   1.432  10.427  0.1910 -0.6823 -0.4072
  897MPD2    C313143   3.172   1.356  10.545 -0.1393 -0.3657  0.2826
  897MPD2    C413144   3.250   1.388  10.650 -0.5312 -0.1715  0.1872
  897MPD2    C513145   3.338   1.498  10.645 -0.4860 -0.3591  0.5155
  897MPD2     H13146   3.107   1.410  10.350 -1.0676 -3.7131  1.6405
  897MPD2    H113147   3.243   1.350  10.752  0.5059 -1.1235 -0.0939
  897MPD2    H213148   3.424   1.640  10.508  0.6223 -1.8909  0.6634
  897MPD2    H313149   3.389   1.520  10.738  0.2909  0.2253 -0.0502
  897MPD2     N13150   3.085   1.246  10.544 -0.3478 -0.2470  0.4977
  897MPD2    H513151   3.051   1.216  10.453  1.8411  1.5499 -0.9133
  897MPD2    N113152   3.250   1.630  10.310  0.3177 -0.5853  0.0958
  897MPD2    H713153   3.292   1.722  10.323  0.3263 -0.7648  1.3405
  898MPD2     C13154   0.260   2.086   0.302  0.6613  0.0411  0.2348
  898MPD2    C113155   0.352   2.190   0.302 -0.9148  0.5433  0.2885
  898MPD2    C213156   0.318   2.312   0.238  0.7891 -0.2054 -0.4478
  898MPD2    C313157   0.196   2.332   0.175 -0.0852 -0.2727  0.7863
  898MPD2    C413158   0.108   2.224   0.175 -0.3160  0.0690  0.6477
  898MPD2    C513159   0.142   2.103   0.242  0.1425  0.4893 -0.3768
  898MPD2     H13160   0.391   2.391   0.249  1.3002 -1.0145  1.9094
  898MPD2    H113161   0.012   2.234   0.125 -0.4070 -1.2285  0.5724
  898MPD2    H213162   0.279   1.989   0.347  4.2611  1.1080  1.0065
  898MPD2    H313163   0.075   2.018   0.239 -1.2395  1.6128 -1.7785
  898MPD2     N13164   0.178   2.456   0.108  0.1125 -0.8242 -0.2488
  898MPD2    H513165   0.250   2.526   0.122  0.3986 -0.3837 -4.0257
  898MPD2    N113166   0.481   2.181   0.370 -0.0695  0.2880  0.2227
  898MPD2    H713167   0.534   2.268   0.370  0.1392  0.1576  2.8087
  899MPD2     C13168   1.022   2.887   0.194 -0.0376  0.1301  0.0447
  899MPD2    C113169   0.917   2.959   0.160 -0.1626 -0.2667  0.8036
  899MPD2    C213170   0.799   2.948   0.234  0.3171  0.6106 -0.2174
  899MPD2    C313171   0.792   2.858   0.336  0.1895 -0.0103  0.4874
  899MPD2    C413172   0.907   2.780   0.368 -0.3640  0.5523  0.4571
  899MPD2    C513173   1.024   2.797   0.296 -0.2194  0.2824  0.1171
  899MPD2     H13174   0.715   3.010   0.207  0.2587  0.4055 -0.5129
  899MPD2    H113175   0.901   2.701   0.443 -2.4984  0.0273 -0.2771
  899MPD2    H213176   1.119   2.919   0.157  1.1373 -0.0911  2.9200
  899MPD2    H313177   1.117   2.746   0.318 -0.3978  0.2582  0.8220
  899MPD2     N13178   0.670   2.836   0.411  0.6397  0.0373 -0.3828
  899MPD2    H513179   0.663   2.759   0.477 -0.7133  0.5336  0.0739
  899MPD2    N113180   0.935   3.061   0.061 -0.3170  0.0906  0.2445
  899MPD2    H713181   1.021   3.057   0.008 -0.5932 -0.4890 -0.1598
  900MPD2     C13182   0.889   4.582  12.391  0.3480 -1.0442  0.3822
  900MPD2    C113183   0.868   4.458  12.339 -0.2153  0.1864  0.3052
  900MPD2    C213184   0.773   4.435  12.240  0.3220  0.3011  1.0389
  900MPD2    C313185   0.691   4.544  12.194 -0.1977 -0.3006  0.1933
  900MPD2    C413186   0.703   4.665  12.254  0.1320  0.4672  0.7575
  900MPD2    C513187   0.802   4.681  12.354  0.1368 -0.3424  0.4324
  900MPD2     H13188   0.759   4.341  12.187  0.4454  1.2881 -0.7485
  900MPD2    H113189   0.643   0.027  12.229 -0.7413 -0.8109 -1.5843
  900MPD2    H213190   0.961   4.596  12.470  0.1484 -1.0221  0.5619
  900MPD2    H313191   0.825   0.058  12.384  0.4778  0.4160 -2.3870
  900MPD2     N13192   0.604   4.511  12.087  0.0385 -0.2308 -0.1179
  900MPD2    H513193   0.603   4.412  12.064  0.4651  0.0443 -1.3537
  900MPD2    N113194   0.954   4.349  12.388  0.1529  0.2302  0.2889
  900MPD2    H713195   1.016   4.367  12.466  2.7067  0.2398 -1.7216
  901MPD2     C13196   0.981   3.718  13.181 -0.3915 -0.2556 -0.4463
  901MPD2    C113197   1.008   3.639  13.070  0.7054 -0.6551 -0.2411
  901MPD2    C213198   1.020   3.698  12.947 -0.2867  0.3906 -0.1478
  901MPD2    C313199   1.006   3.833  12.937  0.1776  0.0280  0.0229
  901MPD2    C413200   0.992   3.912  13.048  0.2149 -0.5062  0.6263
  901MPD2    C513201   0.971   3.856  13.166 -0.0328  0.3332 -0.7295
  901MPD2     H13202   1.035   3.648  12.852  2.7495  0.3920  0.3355
  901MPD2    H113203   0.996   4.020  13.037  0.3284 -0.5265  0.4617
  901MPD2    H213204   0.968   3.684  13.283 -0.9228  0.9511 -0.1035
  901MPD2    H313205   0.936   3.904  13.256  4.0185  0.0369  0.9900
  901MPD2     N13206   1.021   3.887  12.807  0.1203 -0.3778 -0.1862
  901MPD2    H513207   1.034   3.817  12.734  0.1024 -0.1813 -0.3783
  901MPD2    N113208   1.025   3.502  13.082 -0.0225 -0.1897 -0.0382
  901MPD2    H713209   1.025   3.470  13.178 -1.4333  1.4631  0.5138
  902MPD2     C13210   0.056   1.987  12.628  0.0918  0.6100 -0.1465
  902MPD2    C113211   4.707   2.046  12.524 -0.1948 -0.8427  0.0379
  902MPD2    C213212   0.021   2.010  12.396 -0.1131 -0.8246  0.0796
  902MPD2    C313213   0.120   1.920  12.361  0.0934 -0.7289 -0.3496
  902MPD2    C413214   0.187   1.861  12.464  0.8954 -0.0181 -0.0987
  902MPD2    C513215   0.151   1.890  12.592  0.9285  0.2301 -0.3698
  902MPD2     H13216   4.704   2.060  12.310  2.7089  2.3980  0.5553
  902MPD2    H113217   0.263   1.789  12.437  1.4940  0.6647 -0.2502
  902MPD2    H213218   0.038   1.998  12.734  1.6694  1.1573  0.0661
  902MPD2    H313219   0.212   1.844  12.670 -4.0768 -0.8814  2.9213
  902MPD2     N13220   0.159   1.903  12.228 -0.1856  0.2762  0.0630
  902MPD2    H513221   0.100   1.954  12.163  0.3105 -0.2028 -0.7591
  902MPD2    N113222   4.615   2.152  12.533 -0.3483 -0.1037 -0.1136
  902MPD2    H713223   4.569   2.174  12.445 -1.7325  0.4074  0.7348
  903MPD2     C13224   4.671   2.142  11.495 -0.0468  0.0525  0.4655
  903MPD2    C113225   4.687   2.057  11.602 -0.1284  0.5773 -0.4210
  903MPD2    C213226   4.574   1.996  11.645 -0.2809 -0.3270  0.5298
  903MPD2    C313227   4.451   2.015  11.588  0.2477 -0.9710  0.1397
  903MPD2    C413228   4.436   2.093  11.475 -0.2334 -0.4155 -0.3467
  903MPD2    C513229   4.551   2.156  11.425  0.0648 -0.4020 -0.2996
  903MPD2     H13230   4.576   1.915  11.717  0.7352  1.1516  2.1782
  903MPD2    H113231   4.345   2.106  11.419 -0.8231 -0.5721  0.5802
  903MPD2    H213232   0.027   2.207  11.462 -0.0426  0.3330  1.0092
  903MPD2    H313233   4.544   2.224  11.340 -2.7857 -0.7905 -0.3510
  903MPD2     N13234   4.339   1.939  11.627 -0.4849  0.0417  0.2300
  903MPD2    H513235   4.247   1.960  11.590 -0.0879 -0.9201 -1.3058
  903MPD2    N113236   0.087   2.036  11.666 -0.9208  0.2369 -0.9891
  903MPD2    H713237   0.173   2.057  11.615 -0.0154  0.0035  0.4523
  904MPD2     C13238   4.343   1.657  13.320 -0.3405  0.4912 -0.0508
  904MPD2    C113239   4.295   1.588  13.432  0.1726  0.4679  0.0635
  904MPD2    C213240   4.376   1.578  13.542 -0.1010  0.2445 -0.6721
  904MPD2    C313241   4.501   1.635  13.551  0.1336 -0.1379  0.3917
  904MPD2    C413242   4.545   1.714  13.443 -0.1330 -0.4903  1.1851
  904MPD2    C513243   4.465   1.721  13.330  0.2611 -0.7136  0.2763
  904MPD2     H13244   4.329   1.524  13.623  0.3202 -0.1863 -0.7140
  904MPD2    H113245   4.635   1.774  13.446  0.2516 -0.9946 -0.8461
  904MPD2    H213246   4.294   1.669  13.224 -5.7819 -2.1870  2.3845
  904MPD2    H313247   4.509   1.763  13.241 -3.5394  1.4096 -0.5837
  904MPD2     N13248   4.568   1.618  13.675 -0.4510  0.6430 -0.5026
  904MPD2    H513249   4.531   1.546  13.737 -0.9526  1.4226  0.0958
  904MPD2    N113250   4.175   1.507  13.435 -0.3658 -0.0730 -0.0559
  904MPD2    H713251   4.165   1.449  13.518 -0.4719 -2.9232 -2.0281
  905MPD2     C13252   4.002   1.423  12.673  0.2125 -0.0869 -0.1350
  905MPD2    C113253   4.013   1.555  12.713  0.3750  0.1197 -0.4667
  905MPD2    C213254   4.048   1.650  12.616 -0.8512  0.0256  0.0204
  905MPD2    C313255   4.102   1.614  12.492  0.8826  0.3167  0.2867
  905MPD2    C413256   4.082   1.484  12.450  0.2039 -0.3150 -0.0319
  905MPD2    C513257   4.024   1.397  12.535  0.1969  0.2304  0.0872
  905MPD2     H13258   4.036   1.758  12.624 -2.5995 -0.1041 -0.8233
  905MPD2    H113259   4.109   1.454  12.350  1.6067  0.6192  0.0625
  905MPD2    H213260   3.967   1.349  12.745 -1.6236  0.7606 -0.1660
  905MPD2    H313261   4.010   1.296  12.498 -2.2396  0.7475 -0.3797
  905MPD2     N13262   4.152   1.701  12.394 -0.2088  0.2543  0.1481
  905MPD2    H513263   4.136   1.684  12.295  0.8588 -1.3151  0.2419
  905MPD2    N113264   3.993   1.585  12.848  0.5972 -0.3081 -0.2050
  905MPD2    H713265   3.969   1.503  12.904  1.9302 -0.6342 -0.1148
  906MPD2     C13266   1.744   1.151  11.335 -0.1234  0.6558  0.4837
  906MPD2    C113267   1.700   1.058  11.244 -0.5287 -0.4032 -0.2252
  906MPD2    C213268   1.616   0.970  11.287  0.3831 -0.2947  1.1912
  906MPD2    C313269   1.569   0.969  11.414 -0.3277  0.5420  0.3652
  906MPD2    C413270   1.602   1.071  11.504  0.3474 -0.2877 -1.0344
  906MPD2    C513271   1.690   1.163  11.458 -0.1299  0.2343 -0.3643
  906MPD2     H13272   1.596   0.883  11.227 -0.6534  1.0605 -0.4360
  906MPD2    H113273   1.580   1.080  11.610 -0.4486  0.2952 -1.2533
  906MPD2    H213274   1.822   1.220  11.304 -0.1313  0.4383 -0.0270
  906MPD2    H313275   1.724   1.245  11.519 -0.9256 -0.3788  0.9160
  906MPD2     N13276   1.480   0.857  11.445  0.0292 -0.3961  0.6918
  906MPD2    H513277   1.461   0.803  11.361  1.1765  1.2129 -0.6145
  906MPD2    N113278   1.760   1.047  11.116 -0.1003 -0.2972 -1.0037
  906MPD2    H713279   1.725   0.967  11.066  0.6754 -0.5554 -1.1392
  907MPD2     C13280   0.863   0.735  15.825  0.2680 -0.4167  0.0545
  907MPD2    C113281   0.764   0.632  15.831 -0.3392  0.9836 -0.3884
  907MPD2    C213282   0.757   0.556  15.948  0.4593  0.2583  0.5832
  907MPD2    C313283   0.849   0.584  16.052  0.5564 -0.8169 -0.4221
  907MPD2    C413284   0.942   0.683  16.040 -0.1364 -0.0833  0.3316
  907MPD2    C513285   0.954   0.754  15.923  0.0313  0.0619  0.0592
  907MPD2     H13286   0.685   0.476  15.961  0.2304  0.4435  0.4619
  907MPD2    H113287   1.015   0.706  16.118  1.6987 -2.4498 -0.6947
  907MPD2    H213288   0.875   0.813  15.750  1.6647 -1.6947 -1.0577
  907MPD2    H313289   1.034   0.827  15.910  0.4144 -0.3158  0.2996
  907MPD2     N13290   0.858   0.488  16.159  0.7610 -0.3452 -0.0422
  907MPD2    H513291   0.784   0.419  16.155 -0.2319  0.8420 -1.7692
  907MPD2    N113292   0.671   0.615  15.721 -0.2151  0.1825  0.3398
  907MPD2    H713293   0.600   0.543  15.730 -1.7581  1.7042  0.4906
  908MPD2     C13294   2.782   1.559   9.387 -1.2124  0.6152 -0.3595
  908MPD2    C113295   2.846   1.463   9.459  0.0347  0.4163 -0.3052
  908MPD2    C213296   2.924   1.507   9.564  0.0399 -0.7216 -0.3536
  908MPD2    C313297   2.937   1.638   9.601 -0.1846  0.4976  0.6307
  908MPD2    C413298   2.876   1.735   9.523  0.1663 -0.7912  0.2657
  908MPD2    C513299   2.799   1.691   9.414 -0.4176 -0.1907  0.3147
  908MPD2     H13300   2.979   1.438   9.628  2.1120  0.3557 -0.9842
  908MPD2    H113301   2.886   1.842   9.540 -1.2032 -0.8960  1.6422
  908MPD2    H213302   2.726   1.536   9.297  2.8515  1.7324 -3.1896
  908MPD2    H313303   2.749   1.759   9.346  1.6523  2.2339  1.2053
  908MPD2     N13304   3.011   1.670   9.725 -0.2617 -0.7079  0.3619
  908MPD2    H513305   3.044   1.591   9.780  0.9915 -1.8854 -2.1355
  908MPD2    N113306   2.836   1.322   9.419  1.0208  0.4992  0.4588
  908MPD2    H713307   2.789   1.300   9.332 -0.4061  1.4139  1.0136
  909MPD2     C13308   3.287   3.931  11.742  0.5021 -0.4185 -0.4827
  909MPD2    C113309   3.296   4.068  11.740 -0.0064  0.0695 -0.2472
  909MPD2    C213310   3.268   4.134  11.855  0.5956  0.0848  1.1769
  909MPD2    C313311   3.234   4.061  11.971  0.2433 -0.3503  0.0150
  909MPD2    C413312   3.227   3.924  11.966 -0.2062 -0.0266 -0.2865
  909MPD2    C513313   3.241   3.851  11.851  0.3082 -0.0109 -0.6117
  909MPD2     H13314   3.281   4.242  11.864  2.3179  0.2089 -2.9905
  909MPD2    H113315   3.199   3.864  12.052 -0.5943  1.5451  0.6883
  909MPD2    H213316   3.316   3.865  11.662 -0.3031 -1.7917  0.3552
  909MPD2    H313317   3.228   3.744  11.843 -0.6819  0.2088 -1.9448
  909MPD2     N13318   3.203   4.139  12.088  0.1942  0.6730 -0.0255
  909MPD2    H513319   3.207   4.238  12.066  5.2810 -0.4489 -4.0802
  909MPD2    N113320   3.348   4.141  11.635 -0.2317 -0.0453 -0.2311
  909MPD2    H713321   3.376   4.236  11.658 -0.2002  0.4060 -2.1016
  910MPD2     C13322   0.339   1.154  15.384  1.1408 -0.2231  0.4200
  910MPD2    C113323   0.213   1.112  15.400  0.5955  0.0508  0.7611
  910MPD2    C213324   0.114   1.166  15.315  0.6367 -0.9435  0.2242
  910MPD2    C313325   0.141   1.270  15.223  0.3181 -0.3532  0.2870
  910MPD2    C413326   0.271   1.321  15.219 -0.0215 -0.1259  0.2236
  910MPD2    C513327   0.362   1.261  15.300 -0.3725 -0.0926  1.1695
  910MPD2     H13328   0.010   1.142  15.332 -0.1161  1.5926 -0.7438
  910MPD2    H113329   0.299   1.404  15.155  0.0045 -0.4823 -0.2327
  910MPD2    H213330   0.417   1.127  15.454  0.1142  1.6536  2.2816
  910MPD2    H313331   0.461   1.306  15.291 -0.6017 -0.0112 -1.0680
  910MPD2     N13332   0.046   1.326  15.135 -0.1244 -0.6868 -0.2310
  910MPD2    H513333   0.080   1.397  15.071 -2.5720  1.6046  0.9824
  910MPD2    N113334   0.178   1.000  15.487  0.3056 -0.2181  0.0411
  910MPD2    H713335   0.080   0.973  15.487  0.2926 -0.1711 -0.0015
  911MPD2     C13336   2.515   1.690  16.468 -0.0642  0.4878 -0.6604
  911MPD2    C113337   2.544   1.820  16.426  0.8637 -0.3663 -0.9869
  911MPD2    C213338   2.444   1.910  16.384  0.1973  0.2208 -0.4569
  911MPD2    C313339   2.311   1.867  16.373  0.6273 -0.2949 -0.0259
  911MPD2    C413340   2.287   1.738  16.400  0.8051 -0.0020  0.8194
  911MPD2    C513341   2.383   1.645  16.440 -0.0750  0.2314 -0.1458
  911MPD2     H13342   2.479   2.009  16.356 -0.4084  0.0539 -1.8051
  911MPD2    H113343   2.188   1.698  16.383  1.7015 -2.3324  1.0636
  911MPD2    H213344   2.586   1.610  16.485  1.4795  1.9139 -0.3543
  911MPD2    H313345   2.356   1.540  16.435  0.9041  0.0136 -0.8519
  911MPD2     N13346   2.203   1.948  16.335  0.0754 -0.7092 -0.7008
  911MPD2    H513347   2.115   1.908  16.302 -1.1301  1.9044 -0.6818
  911MPD2    N113348   2.682   1.847  16.418  0.3616 -0.3263 -0.2638
  911MPD2    H713349   2.741   1.786  16.474  1.1605  0.0593 -0.6802
  912MPD2     C13350   1.781   1.791  15.759 -0.4953  0.6262  0.7089
  912MPD2    C113351   1.851   1.778  15.879  0.1966  0.0535 -0.5421
  912MPD2    C213352   1.858   1.650  15.936 -0.5946  0.5685  0.3259
  912MPD2    C313353   1.799   1.537  15.872 -0.3787 -0.8589  0.2636
  912MPD2    C413354   1.744   1.556  15.752 -0.5236 -0.0380  0.4237
  912MPD2    C513355   1.739   1.681  15.690  0.0261  0.2800 -0.1975
  912MPD2     H13356   1.909   1.628  16.030 -2.2060  2.8961  1.7496
  912MPD2    H113357   1.701   1.478  15.690 -1.0991  0.2901  0.4049
  912MPD2    H213358   1.776   1.888  15.711  2.9337 -0.1305 -1.1624
  912MPD2    H313359   1.693   1.696  15.594 -2.3331  0.4120  0.9498
  912MPD2     N13360   1.811   1.419  15.936  0.4038  0.3990 -0.0551
  912MPD2    H513361   1.833   1.414  16.036  0.5309 -0.4435 -0.1270
  912MPD2    N113362   1.905   1.897  15.934 -0.1860 -0.4546 -0.4766
  912MPD2    H713363   1.875   1.981  15.885 -2.7859 -1.5362 -0.7278
  913MPD2     C13364   2.833   2.287  11.155  0.6262  1.0491  0.2318
  913MPD2    C113365   2.885   2.412  11.144 -0.1576 -0.0264 -0.1073
  913MPD2    C213366   2.890   2.471  11.024 -0.0741 -0.6069  0.4289
  913MPD2    C313367   2.865   2.392  10.915 -0.9364  0.5588  0.7581
  913MPD2    C413368   2.810   2.271  10.930 -0.1216  0.1333  0.2428
  913MPD2    C513369   2.788   2.218  11.049  0.2964 -0.0003 -0.4922
  913MPD2     H13370   2.936   2.567  11.005 -0.4549 -0.3437  0.8330
  913MPD2    H113371   2.789   2.214  10.841 -2.3766  1.8780 -0.3357
  913MPD2    H213372   2.817   2.255  11.258 -0.5700  0.1496 -0.2387
  913MPD2    H313373   2.745   2.119  11.063  1.5354 -0.2557  1.4585
  913MPD2     N13374   2.883   2.437  10.783  0.3353  0.0595 -0.3775
  913MPD2    H513375   2.847   2.374  10.712 -1.8241  0.0022  0.7570
  913MPD2    N113376   2.931   2.475  11.259 -0.0303 -0.1449 -0.0288
  913MPD2    H713377   2.927   2.422  11.346  2.8634 -1.4326 -0.6710
  914MPD2     C13378   1.214   2.852  12.448 -0.0848  0.2551 -0.0810
  914MPD2    C113379   1.234   2.983  12.431  0.3702 -0.0802  0.5947
  914MPD2    C213380   1.260   3.063  12.544  0.1982  0.2798 -0.3694
  914MPD2    C313381   1.276   2.997  12.668  0.0206  0.3208 -0.1521
  914MPD2    C413382   1.259   2.864  12.685 -0.3262  0.6160  0.2931
  914MPD2    C513383   1.215   2.797  12.573 -0.0972  0.6509 -0.3123
  914MPD2     H13384   1.259   3.171  12.546  2.6649  0.3165 -1.2099
  914MPD2    H113385   1.265   2.811  12.779 -1.6130 -3.0230 -1.6929
  914MPD2    H213386   1.175   2.800  12.361 -0.2711 -0.7239  0.5770
  914MPD2    H313387   1.174   2.697  12.575  1.3707  0.1085  2.1855
  914MPD2     N13388   1.294   3.081  12.778  0.2593  0.2480 -0.5435
  914MPD2    H513389   1.298   3.181  12.761  1.4050 -0.1883 -2.8747
  914MPD2    N113390   1.229   3.045  12.300  0.1409 -0.1744 -0.0616
  914MPD2    H713391   1.203   2.989  12.219  1.8462  0.9002 -1.3616
  915MPD2     C13392   3.600   3.315  16.273 -0.1454 -0.1502  0.4915
  915MPD2    C113393   3.494   3.310  16.183 -0.3885 -0.0213  0.0076
  915MPD2    C213394   3.375   3.384  16.205  0.1391 -0.3698 -0.0925
  915MPD2    C313395   3.358   3.446  16.329  0.4344  0.7026  0.4283
  915MPD2    C413396   3.460   3.450  16.420  0.0471 -0.2915  0.3036
  915MPD2    C513397   3.582   3.387  16.393 -0.0413  0.3632  0.7777
  915MPD2     H13398   3.287   3.372  16.144  0.2784 -3.6146  0.3438
  915MPD2    H113399   3.454   3.492  16.519  0.3794 -1.3117  0.7545
  915MPD2    H213400   3.697   3.268  16.256 -1.4176 -3.1616  1.4540
  915MPD2    H313401   3.661   3.411  16.464 -1.4827  1.7756  1.9102
  915MPD2     N13402   3.233   3.505  16.350 -0.3244  0.1477 -0.4657
  915MPD2    H513403   3.158   3.490  16.283 -0.8679  2.7218 -0.4518
  915MPD2    N113404   3.512   3.241  16.054 -0.5897 -0.2414 -0.1100
  915MPD2    H713405   3.595   3.184  16.045 -0.4709  0.1772 -1.6575
  916MPD2     C13406   1.392   1.462  15.757  0.1042  0.1114  0.9627
  916MPD2    C113407   1.356   1.425  15.883  1.0442 -0.6422 -0.1122
  916MPD2    C213408   1.332   1.287  15.907  0.1570  0.3177 -0.3022
  916MPD2    C313409   1.336   1.196  15.803  0.1520  0.0895 -0.5255
  916MPD2    C413410   1.386   1.234  15.681  0.1779  0.2204  0.0973
  916MPD2    C513411   1.414   1.367  15.664  0.8297 -0.2889  0.2302
  916MPD2     H13412   1.289   1.259  16.002  0.6706 -1.1278 -0.4917
  916MPD2    H113413   1.410   1.165  15.601 -1.6950 -1.9892  1.4330
  916MPD2    H213414   1.398   1.568  15.734  0.0524 -0.1334 -0.2168
  916MPD2    H313415   1.458   1.387  15.567  0.9753  1.5113  0.6748
  916MPD2     N13416   1.304   1.063  15.834 -0.1966  0.2946 -0.3856
  916MPD2    H513417   1.293   1.045  15.934  3.6072 -2.5385 -0.4784
  916MPD2    N113418   1.330   1.529  15.970  0.6233 -0.3138 -0.1669
  916MPD2    H713419   1.346   1.621  15.929  3.0293 -0.3256  0.7688
  917MPD2     C13420   2.166   3.436  11.195  0.1164  0.3537  0.3861
  917MPD2    C113421   2.129   3.499  11.309 -0.2005 -0.8460  0.1881
  917MPD2    C213422   2.154   3.635  11.318 -0.0367 -0.3588 -0.9690
  917MPD2    C313423   2.198   3.714  11.216  0.0777  0.3867  0.8694
  917MPD2    C413424   2.231   3.650  11.100  0.3295 -0.7416  0.4149
  917MPD2    C513425   2.214   3.514  11.096  0.3828 -0.1931  0.5847
  917MPD2     H13426   2.127   3.687  11.409  2.4521 -0.1817 -0.3382
  917MPD2    H113427   2.271   3.706  11.016  0.1481  1.0470  1.5167
  917MPD2    H213428   2.156   3.331  11.167  0.4937  0.2932  0.4826
  917MPD2    H313429   2.245   3.459  11.008 -0.9558 -1.4574  0.8946
  917MPD2     N13430   2.222   3.855  11.221 -0.5855 -0.3328  0.4795
  917MPD2    H513431   2.265   3.895  11.139 -0.5185 -0.3472  0.5083
  917MPD2    N113432   2.073   3.422  11.412  0.8276 -0.3884  0.0103
  917MPD2    H713433   2.073   3.320  11.408  1.6128 -0.4566  2.1015
  918MPD2     C13434   1.886   3.785  12.327 -0.1053  1.2297  0.3051
  918MPD2    C113435   1.992   3.820  12.241 -0.4527  0.5451 -0.3161
  918MPD2    C213436   2.032   3.735  12.139 -0.3612 -0.2812 -0.8307
  918MPD2    C313437   1.969   3.612  12.121 -0.5101  0.9940  0.3994
  918MPD2    C413438   1.856   3.586  12.206  0.1225  0.1785 -0.0664
  918MPD2    C513439   1.823   3.666  12.312 -0.5115  0.0101 -0.0936
  918MPD2     H13440   2.123   3.764  12.089 -0.0941  0.2717 -0.0203
  918MPD2    H113441   1.798   3.497  12.186  0.0867  0.4678 -1.2049
  918MPD2    H213442   1.857   3.845  12.413  1.3900  0.8248  1.0846
  918MPD2    H313443   1.742   3.647  12.381 -0.3448  0.9777  0.3664
  918MPD2     N13444   2.010   3.521  12.020 -0.4685 -0.1302 -0.3802
  918MPD2    H513445   2.079   3.559  11.956 -1.6342  0.4162 -1.3088
  918MPD2    N113446   2.056   3.944  12.252 -0.5664  0.1429  0.2008
  918MPD2    H713447   2.133   3.965  12.189 -1.7541  2.1198 -0.5977
  919MPD2     C13448   2.515   2.518  11.568  0.2884 -0.4587 -0.2503
  919MPD2    C113449   2.500   2.392  11.518 -0.1641 -0.6564  0.9529
  919MPD2    C213450   2.513   2.371  11.382 -0.4265 -1.1617  0.3472
  919MPD2    C313451   2.545   2.477  11.301  0.5820 -0.3485 -0.3761
  919MPD2    C413452   2.586   2.595  11.356 -0.8666  0.6022 -0.1415
  919MPD2    C513453   2.560   2.621  11.489  0.3022 -0.3023  0.4263
  919MPD2     H13454   2.490   2.272  11.346  0.7890 -0.3107 -2.7811
  919MPD2    H113455   2.613   2.683  11.300  2.2185  1.7218  3.0426
  919MPD2    H213456   2.507   2.538  11.674 -0.7984 -0.2195 -0.3752
  919MPD2    H313457   2.584   2.717  11.532  1.8623 -0.4100 -0.2061
  919MPD2     N13458   2.537   2.472  11.156  0.1140  0.4454 -0.0248
  919MPD2    H513459   2.559   2.558  11.108  0.7810  0.3798  0.1676
  919MPD2    N113460   2.463   2.280  11.599  0.3351 -0.1757  0.1775
  919MPD2    H713461   2.443   2.193  11.551  0.5567 -0.4209  0.5263
  920MPD2     C13462   2.535   2.909  10.240 -0.1017  0.4670 -0.6102
  920MPD2    C113463   2.446   2.807  10.232  0.4046 -0.3259  0.1492
  920MPD2    C213464   2.430   2.732  10.346 -0.0263  0.6647  0.2981
  920MPD2    C313465   2.510   2.741  10.457  0.4872  0.1980  0.0415
  920MPD2    C413466   2.612   2.833  10.454 -0.2128  0.3660 -0.2392
  920MPD2    C513467   2.622   2.919  10.344 -0.1929  0.3265 -0.7978
  920MPD2     H13468   2.348   2.660  10.347 -1.0583  1.8233 -0.5828
  920MPD2    H113469   2.678   2.860  10.535 -0.8357  0.8707  0.1020
  920MPD2    H213470   2.550   2.988  10.167  0.5197  1.0143  0.1058
  920MPD2    H313471   2.694   3.001  10.348 -1.9144  1.7384  0.8890
  920MPD2     N13472   2.481   2.661  10.558  0.7334 -0.3916 -0.2119
  920MPD2    H513473   2.389   2.618  10.559 -0.3483  1.9652 -0.0921
  920MPD2    N113474   2.360   2.786  10.129 -0.5876 -0.2891  0.1812
  920MPD2    H713475   2.311   2.698  10.132  0.6646 -0.9939 -0.1027
  921MPD2     C13476   3.423   2.159  16.886  0.0846  0.0681 -0.2433
  921MPD2    C113477   3.440   2.025  16.852 -0.6993  0.4662  0.2694
  921MPD2    C213478   3.340   1.959  16.779 -0.9406 -0.3040 -0.4186
  921MPD2    C313479   3.225   2.033  16.735  0.7073  0.0525  0.5761
  921MPD2    C413480   3.216   2.167  16.769  0.0638  0.2610  0.4846
  921MPD2    C513481   3.308   2.219  16.845 -0.2760 -0.6776  1.1129
  921MPD2     H13482   3.351   1.854  16.757  1.3598  0.0271 -0.9534
  921MPD2    H113483   3.134   2.226  16.730  0.9933 -0.1539 -2.1515
  921MPD2    H213484   3.494   2.217  16.943  1.5056 -0.9238 -0.9893
  921MPD2    H313485   3.298   2.324  16.871 -2.1954 -1.0813  2.0027
  921MPD2     N13486   3.131   1.976  16.645 -0.1956 -0.0695  1.1414
  921MPD2    H513487   3.048   2.027  16.619 -1.0703 -1.3230  1.4910
  921MPD2    N113488   3.578   1.978  16.856  0.1023 -0.2715 -0.1302
  921MPD2    H713489   3.647   2.046  16.888 -0.9164  0.0817  1.3040
  922MPD2     C13490   4.325   4.520  17.053  0.0043 -0.2777 -0.1443
  922MPD2    C113491   4.301   4.528  17.184  0.5444  0.4754  0.2589
  922MPD2    C213492   4.191   4.458  17.233  0.1442 -0.5529  0.1050
  922MPD2    C313493   4.119   4.367  17.150 -0.6097  0.0872 -0.0050
  922MPD2    C413494   4.155   4.358  17.017 -0.7030 -0.1297  0.2406
  922MPD2    C513495   4.252   4.441  16.968  0.1951 -0.2075  0.2886
  922MPD2     H13496   4.160   4.455  17.337  0.6818 -1.6732  0.2349
  922MPD2    H113497   4.103   4.293  16.948 -1.9510 -0.7629  1.7685
  922MPD2    H213498   4.392   4.590  17.005 -0.3129 -0.9269 -1.5218
  922MPD2    H313499   4.269   4.441  16.861 -1.9949  1.0861 -0.0537
  922MPD2     N13500   4.019   4.286  17.213  0.7419  0.1154  0.1631
  922MPD2    H513501   4.007   4.307  17.312  1.1628  2.2909 -0.2609
  922MPD2    N113502   4.386   4.616  17.260 -0.1471 -0.1716 -0.0735
  922MPD2    H713503   4.453   4.666  17.203 -2.1333  1.5422 -0.8863
  923MPD2     C13504   1.091   0.325   9.251 -0.1438 -0.6239  0.3443
  923MPD2    C113505   1.038   0.414   9.346  0.1427 -0.4132  0.6377
  923MPD2    C213506   1.122   0.502   9.408  0.1623  0.0443 -0.3715
  923MPD2    C313507   1.258   0.500   9.387 -0.4751  0.0617  0.2961
  923MPD2    C413508   1.313   0.411   9.298  0.4871  0.2612 -0.2316
  923MPD2    C513509   1.224   0.325   9.231  0.7117  0.6797 -0.0690
  923MPD2     H13510   1.079   0.568   9.483 -1.1846  2.2264 -3.0395
  923MPD2    H113511   1.417   0.416   9.268 -0.0056  2.0418 -1.6803
  923MPD2    H213512   1.023   0.261   9.197  0.0285 -0.1083 -0.4815
  923MPD2    H313513   1.271   0.252   9.166  0.1708  0.7613 -0.5547
  923MPD2     N13514   1.350   0.579   9.459  1.0583  0.0829 -0.3221
  923MPD2    H513515   1.448   0.560   9.438  1.1074 -1.5077  1.3369
  923MPD2    N113516   0.895   0.416   9.359  0.1917  0.1422 -0.1365
  923MPD2    H713517   0.835   0.342   9.324 -0.5825  1.8104 -2.3709
  924MPD2     C13518   0.613   4.352  16.249 -0.4134  1.1618  0.4413
  924MPD2    C113519   0.590   4.414  16.369 -0.0456  1.1725 -0.2469
  924MPD2    C213520   0.657   4.535  16.383  0.4672 -0.4904  0.2810
  924MPD2    C313521   0.731   4.602  16.282 -0.1512  0.0357  0.0497
  924MPD2    C413522   0.734   4.545  16.160 -0.9132  0.3795 -0.3889
  924MPD2    C513523   0.668   4.423  16.143 -0.6004 -1.0132  0.7237
  924MPD2     H13524   0.664   4.584  16.479  2.4636  0.1776 -0.2088
  924MPD2    H113525   0.776   4.596  16.074 -1.3731  1.0655 -0.2080
  924MPD2    H213526   0.574   4.254  16.226  0.2625  0.9942  0.0061
  924MPD2    H313527   0.666   4.378  16.045  0.2396 -0.0835  0.2858
  924MPD2     N13528   0.796   4.723  16.305 -0.4696  0.2845 -0.3830
  924MPD2    H513529   0.824   0.047  16.220 -2.0191 -0.5982 -1.4194
  924MPD2    N113530   0.524   4.339  16.468  0.7952 -0.1709 -0.1935
  924MPD2    H713531   0.527   4.237  16.469 -0.3025 -0.2330 -1.9625
  925MPD2     C13532   3.952   2.546  14.893  0.7701 -0.5039 -0.7726
  925MPD2    C113533   3.994   2.414  14.872  0.0238  0.0673  0.0145
  925MPD2    C213534   4.037   2.338  14.984  0.2480 -0.2372 -0.2536
  925MPD2    C313535   4.003   2.383  15.114  0.3212  0.1559 -0.1633
  925MPD2    C413536   3.943   2.502  15.132 -0.0056 -0.2399  0.7849
  925MPD2    C513537   3.929   2.581  15.022 -0.3420  0.2329 -0.7740
  925MPD2     H13538   4.084   2.243  14.964  0.7543  0.3104 -1.6165
  925MPD2    H113539   3.903   2.548  15.221  0.3059  1.2021  0.1848
  925MPD2    H213540   3.941   2.615  14.810  0.6239  1.3931  0.8421
  925MPD2    H313541   3.886   2.678  15.042  1.9869  0.9853  0.4883
  925MPD2     N13542   4.020   2.303  15.227 -0.5740  0.1988 -0.1882
  925MPD2    H513543   4.009   2.340  15.321 -1.1199  1.1317 -0.6248
  925MPD2    N113544   4.021   2.370  14.737  0.4481  0.6107 -0.3762
  925MPD2    H713545   4.082   2.290  14.719  0.5303  0.6188 -0.1424
  926MPD2     C13546   3.767   0.938  12.860 -0.0374  0.4353 -0.5652
  926MPD2    C113547   3.641   0.961  12.801 -0.1305 -0.1712  0.2073
  926MPD2    C213548   3.636   1.004  12.669  0.2234  0.3063 -0.3050
  926MPD2    C313549   3.750   1.000  12.596 -0.6698 -0.8495 -0.2199
  926MPD2    C413550   3.869   0.990  12.653 -0.6134 -0.5581  0.5170
  926MPD2    C513551   3.877   0.960  12.788 -0.4700 -0.8580  0.4220
  926MPD2     H13552   3.536   1.021  12.632  0.2414 -0.5900 -0.7560
  926MPD2    H113553   3.960   1.014  12.599 -1.2017  0.1500 -0.1647
  926MPD2    H213554   3.784   0.912  12.964 -2.3040  0.7447 -0.1260
  926MPD2    H313555   3.977   0.958  12.831 -0.2051 -2.0387 -0.2357
  926MPD2     N13556   3.754   1.026  12.458 -0.5187 -0.2646 -0.4086
  926MPD2    H513557   3.845   1.021  12.412 -0.3642 -1.1384 -0.0037
  926MPD2    N113558   3.520   0.941  12.869 -0.7024 -0.2525 -1.0731
  926MPD2    H713559   3.431   0.958  12.823 -0.7998  0.4806 -0.6141
  927MPD2     C13560   2.627   2.850   0.137 -0.5919  0.1240 -0.5884
  927MPD2    C113561   2.501   2.905   0.109 -0.7525  0.2631  1.0488
  927MPD2    C213562   2.483   2.966  17.687 -0.2080 -0.0987  0.5730
  927MPD2    C313563   2.588   2.986  17.603 -0.0946 -1.1230  0.6484
  927MPD2    C413564   2.718   2.938  17.637  0.5019 -0.1805 -0.1409
  927MPD2    C513565   2.729   2.871   0.055  0.0486 -0.1766 -0.0314
  927MPD2     H13566   2.390   2.997  17.642  0.3374 -1.0984 -1.2363
  927MPD2    H113567   2.803   2.951  17.571 -0.7543  0.2326 -1.6454
  927MPD2    H213568   2.641   2.794   0.229  0.6841  1.7706  0.2225
  927MPD2    H313569   2.828   2.834   0.079 -1.8103 -3.4611  2.4900
  927MPD2     N13570   2.556   3.040  17.476  0.0845 -0.3030 -0.1341
  927MPD2    H513571   2.458   3.063  17.467  0.2664  0.0634 -1.1946
  927MPD2    N113572   2.406   2.908   0.213  0.2061  0.6491  0.1945
  927MPD2    H713573   2.431   2.864   0.301  1.4379 -0.5105 -0.7258
  928MPD2     C13574   0.986   1.208   1.560  0.0049  0.4345  0.2654
  928MPD2    C113575   1.091   1.300   1.572 -0.2268 -0.2085 -0.0402
  928MPD2    C213576   1.182   1.305   1.465 -0.6955  0.2960 -0.2415
  928MPD2    C313577   1.159   1.235   1.342 -1.2102 -0.4092 -0.3441
  928MPD2    C413578   1.052   1.140   1.342  0.1410 -0.2995 -0.6603
  928MPD2    C513579   0.967   1.134   1.450  0.1760  0.0506 -0.0992
  928MPD2     H13580   1.263   1.377   1.467  0.5096 -1.0669  0.4293
  928MPD2    H113581   1.029   1.083   1.253  0.0318  0.8967 -1.3967
  928MPD2    H213582   0.913   1.194   1.639  0.6589 -1.3678  0.5446
  928MPD2    H313583   0.879   1.072   1.448  1.5856 -2.0551  2.7309
  928MPD2     N13584   1.236   1.256   1.222  0.4742 -0.2862  0.4717
  928MPD2    H513585   1.204   1.207   1.139 -1.9098  0.6103  0.8714
  928MPD2    N113586   1.108   1.388   1.682  0.0491  0.1280  0.2746
  928MPD2    H713587   1.201   1.429   1.689  0.9612 -1.6786 -1.1167
  929MPD2     C13588   1.096   1.446  10.203 -0.1469 -0.2043 -0.1025
  929MPD2    C113589   0.986   1.379  10.150  0.2121  0.5346 -0.3614
  929MPD2    C213590   0.889   1.442  10.075 -1.0576  0.5568  0.1038
  929MPD2    C313591   0.900   1.585  10.054 -0.6092  0.2926  0.1575
  929MPD2    C413592   1.002   1.658  10.118  0.0587 -0.3604  0.6985
  929MPD2    C513593   1.097   1.586  10.187  0.8062 -0.5299  0.1032
  929MPD2     H13594   0.802   1.390  10.037 -1.1312  1.2586 -0.6990
  929MPD2    H113595   0.993   1.766  10.114 -1.5744 -0.5119  0.1198
  929MPD2    H213596   1.162   1.390  10.268 -0.8368 -0.6313  0.2264
  929MPD2    H313597   1.181   1.633  10.236  1.4494 -1.3254 -0.2242
  929MPD2     N13598   0.800   1.654   9.989 -1.0816  0.3093 -0.7023
  929MPD2    H513599   0.784   1.748  10.023  0.6848  1.0082 -1.8092
  929MPD2    N113600   0.992   1.241  10.170  0.6183  0.2007 -0.4909
  929MPD2    H713601   1.063   1.196  10.228  2.7256  0.9150 -2.5347
  930MPD2     C13602   2.486   3.900  14.488 -0.5332  0.3994  0.0756
  930MPD2    C113603   2.594   3.934  14.408 -0.0765  0.4219  0.2353
  930MPD2    C213604   2.579   3.932  14.275  0.9050 -0.1126  0.4831
  930MPD2    C313605   2.466   3.892  14.208 -1.0545 -0.1194  0.0808
  930MPD2    C413606   2.359   3.857  14.290 -0.0288  0.5880 -0.2419
  930MPD2    C513607   2.366   3.866  14.424  0.5868  0.0413 -0.1779
  930MPD2     H13608   2.664   3.946  14.209 -0.8236  1.5952 -1.3862
  930MPD2    H113609   2.274   3.811  14.241 -0.0811  0.5022 -0.0707
  930MPD2    H213610   2.490   3.901  14.596 -0.4751  2.6193  0.0532
  930MPD2    H313611   2.286   3.821  14.482 -0.3024 -1.6680 -2.7257
  930MPD2     N13612   2.479   3.880  14.073  0.6281 -0.4037  0.1270
  930MPD2    H513613   2.566   3.910  14.031 -0.5536  0.0583 -1.9870
  930MPD2    N113614   2.724   3.962  14.454  1.4311  0.3159  0.3918
  930MPD2    H713615   2.784   4.003  14.383 -2.7014  2.1608 -2.0211
  931MPD2     C13616   2.576   2.680   0.728 -0.1043 -0.0074 -0.1513
  931MPD2    C113617   2.467   2.762   0.762  0.0874 -1.0920  0.6166
  931MPD2    C213618   2.474   2.824   0.884 -0.1413  0.2188 -0.2535
  931MPD2    C313619   2.577   2.799   0.971 -0.2100  0.5952 -0.0374
  931MPD2    C413620   2.697   2.739   0.929 -0.0861 -0.2845 -0.6644
  931MPD2    C513621   2.691   2.673   0.806  0.5976 -0.1780 -0.0515
  931MPD2     H13622   2.388   2.869   0.932  0.5248  1.2339 -0.0143
  931MPD2    H113623   2.788   2.733   0.988 -1.1858 -2.8131  0.7341
  931MPD2    H213624   2.580   2.639   0.628  1.3596  0.8933 -0.4723
  931MPD2    H313625   2.766   2.607   0.762  0.5328  0.7695 -1.5890
  931MPD2     N13626   2.577   2.853   1.104  0.7400 -0.1983  0.2627
  931MPD2    H513627   2.660   2.838   1.160  1.2565  2.2498  0.1150
  931MPD2    N113628   2.370   2.795   0.662 -0.3549 -0.0904 -0.7112
  931MPD2    H713629   2.387   2.755   0.570 -1.0188  1.4452 -1.5067
  932MPD2     C13630   4.032   2.525  11.288 -0.2360 -0.0882  0.2308
  932MPD2    C113631   4.163   2.519  11.269  0.1879  0.2917 -0.6199
  932MPD2    C213632   4.219   2.410  11.215  0.8284 -0.0849 -0.2235
  932MPD2    C313633   4.141   2.300  11.169  0.8749  0.1437 -0.0460
  932MPD2    C413634   4.003   2.315  11.185  0.8217 -0.0108  0.6197
  932MPD2    C513635   3.951   2.426  11.237  0.2386 -0.0118  0.2688
  932MPD2     H13636   4.327   2.403  11.203  0.9444  0.6691  0.4357
  932MPD2    H113637   3.935   2.237  11.152  0.2586  0.5138  0.5457
  932MPD2    H213638   3.986   2.606  11.344  2.0676  0.3042  1.5638
  932MPD2    H313639   3.845   2.443  11.252  0.0859  1.2421 -2.2861
  932MPD2     N13640   4.190   2.179  11.114  0.2347 -0.8503 -0.2213
  932MPD2    H513641   4.122   2.105  11.097  1.0211 -1.5464 -0.3388
  932MPD2    N113642   4.255   2.625  11.302 -0.0301 -0.6099  0.6083
  932MPD2    H713643   4.344   2.613  11.255 -0.7463 -0.8331 -0.7040
  933MPD2     C13644   0.757   1.719   2.457 -0.3545  0.1058  0.5611
  933MPD2    C113645   0.754   1.755   2.323 -0.0727  0.1272  0.4339
  933MPD2    C213646   0.657   1.841   2.271 -0.5160  0.4785  0.0294
  933MPD2    C313647   0.553   1.883   2.351  0.7049  0.4801  0.4856
  933MPD2    C413648   0.553   1.844   2.485  0.3553  0.1682 -0.4098
  933MPD2    C513649   0.655   1.768   2.538  0.1029  0.6591  0.2643
  933MPD2     H13650   0.654   1.870   2.167 -0.9057  1.4063  0.3010
  933MPD2    H113651   0.472   1.882   2.546  0.4653 -0.3517  0.0622
  933MPD2    H213652   0.836   1.655   2.495 -1.9140 -1.5952  0.9222
  933MPD2    H313653   0.642   1.758   2.645 -0.7845 -4.2698 -0.2720
  933MPD2     N13654   0.452   1.969   2.302  0.3221 -0.9051 -0.3694
  933MPD2    H513655   0.457   2.000   2.205  1.1416 -0.4631 -0.1872
  933MPD2    N113656   0.844   1.686   2.247  0.4096 -0.1871  0.6288
  933MPD2    H713657   0.900   1.617   2.295  1.6161 -0.5564 -1.3149
  934MPD2     C13658   1.396   3.536   2.291  0.7392 -0.7250 -0.1302
  934MPD2    C113659   1.474   3.502   2.185  0.6381 -0.1064  0.2235
  934MPD2    C213660   1.403   3.444   2.076 -0.0843 -0.7586 -0.3182
  934MPD2    C313661   1.267   3.413   2.076  0.4307  0.0442 -0.6818
  934MPD2    C413662   1.196   3.464   2.180  0.0557  0.3032  0.4383
  934MPD2    C513663   1.260   3.519   2.289  0.1636 -0.1078 -0.3309
  934MPD2     H13664   1.461   3.420   1.987 -0.8342  1.6561 -1.4451
  934MPD2    H113665   1.094   3.426   2.186 -0.7108  1.8024 -2.5850
  934MPD2    H213666   1.448   3.576   2.377  0.1640  0.2935 -0.2611
  934MPD2    H313667   1.201   3.532   2.378  0.0353 -0.3550 -0.3774
  934MPD2     N13668   1.193   3.340   1.981 -0.7453 -0.1525  0.5319
  934MPD2    H513669   1.092   3.356   1.985 -0.6854  0.3075  0.1362
  934MPD2    N113670   1.617   3.505   2.178 -0.0447 -0.0975  0.8488
  934MPD2    H713671   1.659   3.482   2.089 -0.5066 -2.2403  1.1887
  935MPD2     C13672   1.525   2.663   1.342  0.1924  0.8344  0.2194
  935MPD2    C113673   1.388   2.665   1.314  0.4054  0.0852 -0.6808
  935MPD2    C213674   1.301   2.746   1.384  0.1016 -0.5333 -0.3442
  935MPD2    C313675   1.351   2.828   1.480 -0.0789 -0.1601  0.6334
  935MPD2    C413676   1.488   2.823   1.512  0.0159 -0.7814  0.0364
  935MPD2    C513677   1.570   2.741   1.438 -0.3428  0.2561  0.1256
  935MPD2     H13678   1.196   2.746   1.357 -0.1455  1.0994  0.6232
  935MPD2    H113679   1.522   2.861   1.607 -2.3403  0.6393  0.3119
  935MPD2    H213680   1.598   2.609   1.282 -1.0080 -1.3828  0.7658
  935MPD2    H313681   1.677   2.725   1.443 -0.3625 -0.1784 -0.8029
  935MPD2     N13682   1.272   2.915   1.565  0.5442  0.5207 -0.3735
  935MPD2    H513683   1.331   2.971   1.626  0.3085 -1.4198  1.6442
  935MPD2    N113684   1.320   2.583   1.226  0.2631 -0.8786 -0.7852
  935MPD2    H713685   1.222   2.598   1.202  0.7316 -0.3297 -2.3411
  936MPD2     C13686   0.345   0.276  12.884 -0.0574  0.2993 -0.5503
  936MPD2    C113687   0.354   0.412  12.876  0.0517 -0.7746  0.0923
  936MPD2    C213688   0.296   0.477  12.767 -0.2452 -0.4020  0.0038
  936MPD2    C313689   0.257   0.403  12.656  0.0302 -0.6751  0.0898
  936MPD2    C413690   0.262   0.266  12.659 -0.6516 -0.8072  0.2920
  936MPD2    C513691   0.295   0.201  12.779 -0.0841  0.1227  0.6653
  936MPD2     H13692   0.286   0.585  12.772  1.2044 -0.2384 -0.4368
  936MPD2    H113693   0.218   0.211  12.576 -0.2827  1.0580 -1.1505
  936MPD2    H213694   0.378   0.232  12.977 -1.0928  3.2654  1.2424
  936MPD2    H313695   0.283   0.094  12.794 -1.4037  0.3566  1.3266
  936MPD2     N13696   0.212   0.477  12.550  0.4354  0.0515 -0.3758
  936MPD2    H513697   0.211   0.578  12.560  3.9697  0.1690 -1.0814
  936MPD2    N113698   0.416   0.484  12.978  0.0425 -0.0907  0.7034
  936MPD2    H713699   0.451   0.438  13.062  1.7113 -1.2014 -0.6103
  937MPD2     C13700   2.679   1.703  11.437 -0.1669 -0.6154  0.0040
  937MPD2    C113701   2.743   1.790  11.516 -0.0736  0.0671 -0.0893
  937MPD2    C213702   2.837   1.869  11.456  0.2261 -0.4619 -0.1538
  937MPD2    C313703   2.873   1.861  11.321  0.6832 -0.0924 -0.0286
  937MPD2    C413704   2.808   1.765  11.246  0.2032  0.2487  0.2205
  937MPD2    C513705   2.718   1.682  11.312  0.3509 -0.3056  0.4008
  937MPD2     H13706   2.890   1.941  11.518 -1.4075 -0.7370  1.5514
  937MPD2    H113707   2.829   1.742  11.142  1.9329 -0.1280  0.6582
  937MPD2    H213708   2.609   1.633  11.482 -1.9446  0.7683 -0.5921
  937MPD2    H313709   2.667   1.600  11.261 -2.6907  1.5826  0.3823
  937MPD2     N13710   2.980   1.949  11.276 -0.1324  0.8923  0.6115
  937MPD2    H513711   3.027   2.008  11.344 -1.1014 -0.1612  2.2078
  937MPD2    N113712   2.685   1.835  11.635  0.4335  0.3597  0.8796
  937MPD2    H713713   2.736   1.901  11.693 -0.7794  2.0885 -0.0070
  938MPD2     C13714   0.627   2.611   1.393 -0.0646 -0.2253  0.2482
  938MPD2    C113715   0.584   2.724   1.454  0.3928  0.9304 -0.0510
  938MPD2    C213716   0.547   2.724   1.590  0.4704 -0.3887  0.0299
  938MPD2    C313717   0.559   2.614   1.666 -0.2340  0.2875 -0.6556
  938MPD2    C413718   0.609   2.500   1.607  0.2578  0.1895  0.4609
  938MPD2    C513719   0.644   2.497   1.472 -0.2649 -0.3690  0.3532
  938MPD2     H13720   0.519   2.822   1.628  0.5604 -1.2638  2.3541
  938MPD2    H113721   0.636   2.416   1.669  1.8937 -0.7899 -1.5593
  938MPD2    H213722   0.657   2.604   1.289  2.0058  4.1617  0.5444
  938MPD2    H313723   0.694   2.412   1.427 -4.1794 -1.0200 -2.8050
  938MPD2     N13724   0.535   2.611   1.804 -0.1440  0.0888 -0.8294
  938MPD2    H513725   0.579   2.535   1.856 -0.8762  0.3230  0.1392
  938MPD2    N113726   0.578   2.847   1.387 -0.4969  0.4590  1.1320
  938MPD2    H713727   0.527   2.926   1.426 -1.6668  0.4755 -0.4490
  939MPD2     C13728   2.718   4.057   1.229  0.6084  0.2217 -0.6070
  939MPD2    C113729   2.588   4.074   1.194  0.2710 -0.4207  0.0952
  939MPD2    C213730   2.551   4.039   1.070 -0.7404 -0.9293  0.1663
  939MPD2    C313731   2.651   3.986   0.987 -0.1143  0.6447 -0.3194
  939MPD2    C413732   2.777   3.965   1.028 -0.0348 -0.1016  0.2081
  939MPD2    C513733   2.814   4.006   1.153 -0.0204  0.2950 -0.1359
  939MPD2     H13734   2.451   4.053   1.032 -1.2308 -1.7527  1.1479
  939MPD2    H113735   2.861   3.925   0.972 -0.2451 -0.6302  0.2666
  939MPD2    H213736   2.749   4.098   1.324 -1.4701  2.1619 -0.7760
  939MPD2    H313737   2.916   4.005   1.190 -0.4710  0.5197  1.0811
  939MPD2     N13738   2.613   3.965   0.846 -0.9867 -0.1759 -0.1275
  939MPD2    H513739   2.522   3.998   0.817 -0.4135  2.0308  0.5726
  939MPD2    N113740   2.503   4.137   1.279  0.4502  0.4064 -0.1194
  939MPD2    H713741   2.546   4.167   1.366  1.9574 -0.4759 -0.5624
  940MPD2     C13742   0.732   0.221  12.952  0.3293 -1.0384  0.1096
  940MPD2    C113743   0.845   0.246  13.022 -0.2585 -1.1603 -0.0440
  940MPD2    C213744   0.962   0.220  12.952  0.4411  0.0108 -0.2828
  940MPD2    C313745   0.968   0.189  12.815  0.0006  0.7000  0.4325
  940MPD2    C413746   0.846   0.175  12.754 -0.4796 -0.3884 -0.0326
  940MPD2    C513747   0.731   0.195  12.821  0.0452 -0.2333 -0.6375
  940MPD2     H13748   1.053   0.244  13.006 -0.9770  3.0810  0.7446
  940MPD2    H113749   0.839   0.157  12.647  1.3558  2.2416 -0.5824
  940MPD2    H213750   0.633   0.221  12.996  1.0528 -0.7025  1.7503
  940MPD2    H313751   0.644   0.169  12.762 -1.3545 -1.3231  1.9063
  940MPD2     N13752   1.082   0.170  12.737  0.1464 -0.1284  0.8933
  940MPD2    H513753   1.065   0.116  12.652  0.8549 -0.3178  0.8760
  940MPD2    N113754   0.846   0.278  13.160  0.3607  0.2765 -0.2442
  940MPD2    H713755   0.939   0.291  13.197 -1.0452  2.8251  2.4022
  941MPD2     C13756   0.514   3.581   9.125 -0.3603 -0.0216 -0.0445
  941MPD2    C113757   0.470   3.623   9.250 -0.0812 -0.4059  0.1200
  941MPD2    C213758   0.346   3.589   9.299  0.1156 -0.2661  0.1929
  941MPD2    C313759   0.259   3.505   9.225 -1.0026 -1.0696 -0.3616
  941MPD2    C413760   0.304   3.461   9.102 -0.0190 -0.0404  0.2904
  941MPD2    C513761   0.427   3.509   9.048 -0.5539  0.0573 -0.1626
  941MPD2     H13762   0.317   3.611   9.401 -0.4145  0.9884 -0.2325
  941MPD2    H113763   0.250   3.379   9.055 -0.7893  1.5793 -1.6671
  941MPD2    H213764   0.608   3.613   9.082  0.6191 -1.0879  1.3043
  941MPD2    H313765   0.460   3.473   8.951 -0.1427 -0.0605  0.0220
  941MPD2     N13766   0.133   3.457   9.266  0.6688  0.5057  0.0927
  941MPD2    H513767   0.088   3.391   9.204  0.6165 -0.2330  0.9121
  941MPD2    N113768   0.544   3.702   9.335  0.5609  0.1432 -0.0310
  941MPD2    H713769   0.491   3.725   9.418 -1.7427 -0.2656 -1.3766
  942MPD2     C13770   4.581   3.757   9.360 -0.3454 -0.0344 -0.2921
  942MPD2    C113771   4.541   3.854   9.457 -0.7426 -0.2446 -0.3847
  942MPD2    C213772   4.614   3.972   9.465  0.3495  0.0130  1.1763
  942MPD2    C313773   4.713   3.996   9.374 -0.1002 -0.2503 -0.5198
  942MPD2    C413774   0.019   3.911   9.270  0.4884  0.3993  0.2433
  942MPD2    C513775   4.678   3.787   9.269  0.1672 -0.2473 -0.2914
  942MPD2     H13776   4.591   4.040   9.546  1.9305  2.9270 -0.8265
  942MPD2    H113777   0.092   3.936   9.194  0.6794  0.6203  0.5035
  942MPD2    H213778   4.528   3.663   9.346 -0.7938  0.3331 -1.0469
  942MPD2    H313779   4.697   3.716   9.189 -2.0958 -0.5810 -0.5086
  942MPD2     N13780   0.064   4.115   9.366  0.1757 -0.3767 -0.1377
  942MPD2    H513781   0.144   4.118   9.303 -1.8841  0.5245 -2.7129
  942MPD2    N113782   4.440   3.823   9.552  0.4814  0.7253  0.0366
  942MPD2    H713783   4.429   3.890   9.627 -3.1638  2.7917 -2.3449
  943MPD2     C13784   3.347   3.912  10.242  0.4255 -0.7648  0.5886
  943MPD2    C113785   3.314   3.910  10.108 -1.5779 -0.2453  0.2985
  943MPD2    C213786   3.385   3.979  10.019  0.8989 -0.0588 -0.1455
  943MPD2    C313787   3.493   4.059  10.055  0.2615  0.0981 -0.2478
  943MPD2    C413788   3.516   4.059  10.188 -0.4589  0.2137  0.4965
  943MPD2    C513789   3.444   3.994  10.284  0.3719 -0.4209  0.2382
  943MPD2     H13790   3.353   3.978   9.915  0.3726  1.0370  0.0000
  943MPD2    H113791   3.583   4.133  10.232 -1.1515  0.5584  0.9655
  943MPD2    H213792   3.286   3.870  10.322 -1.1232 -1.1737 -0.8017
  943MPD2    H313793   3.461   4.007  10.391 -0.0298  2.9759 -0.1226
  943MPD2     N13794   3.550   4.154   9.964  0.2367 -0.4656  0.7608
  943MPD2    H513795   3.627   4.206  10.004  0.2540  0.5152 -0.5379
  943MPD2    N113796   3.216   3.817  10.071 -0.1218  0.0388  0.0640
  943MPD2    H713797   3.178   3.757  10.144 -3.2317  2.8519  0.7975
  944MPD2     C13798   3.194   4.029  10.824 -0.3959 -0.2680 -0.3959
  944MPD2    C113799   3.235   3.924  10.895  0.4471 -0.7912  0.3264
  944MPD2    C213800   3.204   3.917  11.027 -0.5226 -0.2462  0.1778
  944MPD2    C313801   3.126   4.013  11.088  0.5452  0.8842 -0.7980
  944MPD2    C413802   3.091   4.124  11.016  0.2971 -0.3977 -0.2848
  944MPD2    C513803   3.129   4.135  10.886 -0.3548 -0.4338 -0.0262
  944MPD2     H13804   3.226   3.832  11.091  0.9377 -0.9814 -1.3105
  944MPD2    H113805   3.035   4.204  11.063  0.2664 -0.8259  0.4175
  944MPD2    H213806   3.226   4.036  10.720  1.3865  2.2074  0.3092
  944MPD2    H313807   3.113   4.230  10.835  0.3947 -0.5313 -0.4463
  944MPD2     N13808   3.068   3.983  11.213  0.2480 -0.6889  0.4016
  944MPD2    H513809   3.078   3.893  11.258 -1.0965 -1.1496 -0.2412
  944MPD2    N113810   3.307   3.827  10.829  0.2120  0.2125 -0.0917
  944MPD2    H713811   3.318   3.832  10.729 -0.7550 -2.4036 -0.3391
    1TCq1    O113812   1.225   4.021  15.201  0.2850 -0.2643  0.8390
    1TCq1    C113813   1.356   4.034  15.167  0.0885 -0.5741 -0.2245
    1TCq1    O213814   1.445   3.965  15.203 -0.0990  0.0434 -0.1991
    1TCq1    C213815   1.376   4.145  15.078 -0.1196 -0.3385 -0.1852
    1TCq1    C313816   1.275   4.186  14.998 -0.1668  0.3994  0.1883
    1TCq1    C413817   1.281   4.305  14.930 -0.2526 -0.0805 -0.1230
    1TCq1    C513818   1.402   4.371  14.934 -0.8537 -0.3190  0.8521
    1TCq1    C613819   1.509   4.320  15.001 -0.4129  0.1312 -0.0028
    1TCq1    C713820   1.493   4.206  15.084  0.2248 -0.1911  0.5515
    1TCq1    C813821   1.640   4.389  14.998  0.1267 -0.1591 -0.5145
    1TCq1    O413822   1.724   4.345  15.078 -0.0474  0.1677  0.1029
    1TCq1    C913823   1.175   4.353  14.847  0.0279  0.6646 -0.7953
    1TCq1    O513824   1.197   4.459  14.780 -0.4746  0.5616 -0.4580
    1TCq1    O613825   1.088   4.273  14.810  0.2367 -0.1116 -0.6599
    1TCq1    H113826   1.170   4.100  15.183  0.6514 -0.4284 -1.0272
    1TCq1    H213827   1.184   4.128  14.988  0.5423 -0.6305 -0.3515
    1TCq1    H313828   1.416   4.451  14.862  0.3760 -2.5346 -1.3602
    1TCq1    H413829   1.582   4.167  15.132 -2.4622 -3.9907  2.4595
    2MPD2     C13830   1.928   0.078  14.882 -0.4927 -0.9161 -0.3372
    2MPD2    C113831   1.816   0.091  14.811  0.5609 -0.1278 -0.5287
    2MPD2    C213832   1.727   4.700  14.804  0.1116 -0.6860  0.4189
    2MPD2    C313833   1.745   4.602  14.898 -0.2488  0.1622  0.2333
    2MPD2    C413834   1.861   4.593  14.975 -0.0314 -0.2882  0.3724
    2MPD2    C513835   1.957   4.694  14.961 -0.2098 -0.0548 -0.6150
    2MPD2     H13836   1.642   4.704  14.736  0.6023 -1.5133 -0.2373
    2MPD2    H113837   1.867   4.524  15.058  0.7870  1.3355  1.6666
    2MPD2    H213838   1.996   0.163  14.875 -1.6118  0.1660  1.6755
    2MPD2    H313839   2.041   4.697  15.030 -1.5964  1.0833  1.0261
    2MPD2     N13840   1.643   4.507  14.925 -0.0133 -0.5676 -0.5219
    2MPD2    H513841   1.560   4.514  14.867  0.5964 -0.8848 -1.4355
    2MPD2    N113842   1.797   0.212  14.738 -0.0199  0.5603  0.4109
    2MPD2    H713843   1.865   0.286  14.755  0.9268 -0.3355  0.5131
    3TMC2    C113844   1.690   0.361  14.598  0.0853 -0.1282  0.1237
    3TMC2    C213845   1.749   0.469  14.651 -0.7817  0.4388  0.5006
    3TMC2    C313846   1.744   0.587  14.581 -0.0291  0.6510 -0.0269
    3TMC2    C413847   1.632   0.359  14.477 -0.0220 -0.2630 -0.3910
    3TMC2    C513848   1.643   0.474  14.402 -0.4227 -0.1714  0.1783
    3TMC2    C613849   1.687   0.596  14.457  0.2038  0.7130  0.3137
    3TMC2     C13850   1.685   0.240  14.670  0.7153 -0.0358 -0.4812
    3TMC2     O13851   1.579   0.177  14.662  0.0997 -0.3030 -0.2521
    3TMC2     H13852   1.795   0.468  14.750  1.7185  1.1912 -0.6418
    3TMC2    H113853   1.577   0.273  14.442  0.5108 -0.6676 -0.2387
    3TMC2    H213854   1.667   0.697  14.423 -1.6355  1.3819  3.4691
    3TMC2    C713855   1.564   0.473  14.280  0.2265 -0.2415 -0.0576
    3TMC2    C813856   1.749   0.705  14.669 -0.2278 -0.5125  0.6304
    3TMC2    O113857   1.479   0.389  14.260 -0.1404 -0.8425  0.3527
    3TMC2    O213858   1.656   0.781  14.686  0.3765  0.0893 -0.2849
    3TMC2    O513859   1.866   0.704  14.732 -0.0244  0.3818  0.0600
    3TMC2    H513860   1.939   0.654  14.689 -0.7933 -0.3069 -0.4422
    4MPD2     C13861   1.504   1.434  13.305 -0.0761  0.0037  0.6262
    4MPD2    C113862   1.448   1.311  13.339  0.0188  0.1147 -0.1657
    4MPD2    C213863   1.525   1.212  13.401 -0.5212 -0.1731  0.4833
    4MPD2    C313864   1.659   1.238  13.429 -0.4207 -0.0627 -0.3072
    4MPD2    C413865   1.703   1.365  13.411 -0.2491 -1.2416  0.1033
    4MPD2    C513866   1.628   1.465  13.352 -0.3025 -0.5400 -0.3115
    4MPD2     H13867   1.471   1.121  13.425 -0.8717 -0.3488 -0.9178
    4MPD2    H113868   1.807   1.395  13.426  0.4046 -2.7111 -1.4485
    4MPD2    H213869   1.445   1.510  13.255 -0.4434 -0.2365  0.6892
    4MPD2    H313870   1.668   1.564  13.333  0.4550 -0.7980 -0.0343
    4MPD2     N13871   1.736   1.135  13.493 -0.1453  0.0251  0.2202
    4MPD2    H513872   1.688   1.053  13.528  1.4670 -0.2298  1.8281
    4MPD2    N113873   1.318   1.293  13.291  0.4235  0.0927  0.0950
    4MPD2    H713874   1.284   1.359  13.221 -0.8892  0.8372  1.4282
    5TCq2    C113875   1.872   1.143  13.496 -0.1392 -1.1672 -0.6471
    5TCq2    O213876   1.950   1.236  13.470  0.0975 -0.5440 -0.4433
    5TCq2    C213877   1.927   1.012  13.548 -0.0754  0.0087  0.3037
    5TCq2    C313878   2.060   0.988  13.510 -0.0328 -0.4416 -0.0670
    5TCq2    C413879   2.121   0.878  13.558 -0.0005  0.1776  0.4528
    5TCq2    C513880   2.050   0.791  13.634  0.0099  0.3659  0.2951
    5TCq2    C613881   1.911   0.806  13.648  0.1231 -0.2111 -0.6974
    5TCq2    C713882   1.844   0.918  13.600  0.0980 -0.6069 -0.1010
    5TCq2    C813883   1.850   0.729  13.759  0.4612 -0.0067 -0.1475
    5TCq2    O413884   1.924   0.666  13.835 -0.4764  0.4057  0.0995
    5TCq2    C913885   2.257   0.881  13.545 -0.7367  0.5965 -0.1851
    5TCq2    O513886   2.318   0.968  13.473 -0.8956 -0.4815  0.3335
    5TCq2    O613887   2.309   0.782  13.600  0.1155  0.6682 -0.2224
    5TCq2    H213888   2.115   1.061  13.452  1.2535 -1.2272  0.1804
    5TCq2    H313889   2.098   0.705  13.679 -0.1814  1.1028  1.9052
    5TCq2    H413890   1.747   0.943  13.641  0.6725 -0.1323  0.9388
    6MPD1     C13891   4.594   1.711  12.108 -0.3038 -0.0191 -0.3641
    6MPD1    C113892   4.666   1.632  12.030  0.0199 -0.1424  0.1164
    6MPD1    C213893   0.045   1.559  12.085 -0.3566 -0.3606  0.1650
    6MPD1    C313894   0.061   1.562  12.227 -0.3767 -0.0817 -0.9804
    6MPD1    C413895   4.684   1.626  12.306  0.7459  0.2272 -0.2014
    6MPD1    C513896   4.600   1.713  12.247  0.2635 -0.0145 -0.8176
    6MPD1     H13897   0.122   1.513  12.023  0.5282 -0.7406  1.5377
    6MPD1    H113898   4.698   1.615  12.413 -0.1775  0.1273 -0.0939
    6MPD1    H213899   4.524   1.779  12.061 -0.3540 -0.1809 -0.5224
    6MPD1    H313900   4.548   1.788  12.306  0.8306  1.7640 -2.5672
    6MPD1     N13901   0.178   1.513  12.293  0.1204  0.4477 -0.3530
    6MPD1    H513902   0.189   1.536  12.391  0.4082 -3.2194  0.4755
    6MPD1    N113903   4.660   1.653  11.894 -0.0546  0.5938 -0.9582
    6MPD1    H613904   4.698   1.578  11.836  2.2066  0.0011  1.3062
    6MPD1    H713905   4.570   1.685  11.859  0.3674  1.8965 -0.8584
    7MPD2     C13906   0.421   1.560  12.903  0.3028 -0.5288  0.6617
    7MPD2    C113907   0.543   1.526  12.845 -0.7275 -0.2438  0.7460
    7MPD2    C213908   0.637   1.472  12.926  0.0760  0.3267  0.6624
    7MPD2    C313909   0.621   1.455  13.065 -0.0833 -0.0642  0.9641
    7MPD2    C413910   0.496   1.483  13.117  0.7632  0.5495 -0.3951
    7MPD2    C513911   0.398   1.541  13.039 -0.2325  0.5542 -0.6021
    7MPD2     H13912   0.731   1.447  12.879  0.8508  0.1457  2.2973
    7MPD2    H113913   0.473   1.463  13.221  0.3302  2.2231 -0.1819
    7MPD2    H213914   0.337   1.597  12.845  1.1850  2.5146  1.3119
    7MPD2    H313915   0.309   1.579  13.088 -0.8877 -1.7707  0.0379
    7MPD2     N13916   0.720   1.405  13.150 -0.6844 -0.6961  0.4598
    7MPD2    H513917   0.706   1.403  13.251 -0.1163 -2.0184  0.4999
    7MPD2    N113918   0.573   1.536  12.708  0.3829  0.0383 -0.9197
    7MPD2    H713919   0.665   1.511  12.672  1.2385 -0.5199  1.6459
    8TMC3    C113920   0.902   1.266  13.205  0.4382 -0.2718 -1.0528
    8TMC3    C213921   1.044   1.283  13.221 -0.3239  0.2536 -0.3187
    8TMC3    C313922   1.125   1.171  13.236 -0.2306  1.4216  0.3153
    8TMC3    C413923   0.854   1.141  13.204 -1.0015 -0.0639  0.3967
    8TMC3    C513924   0.937   1.029  13.208 -0.5595 -0.1816 -0.1826
    8TMC3    C613925   1.074   1.046  13.228  0.4560 -0.2866  0.1256
    8TMC3     C13926   0.838   1.350  13.108  0.0096  0.3182 -0.5878
    8TMC3     O13927   0.886   1.343  12.997  0.6602  0.2963 -0.1185
    8TMC3     H13928   1.085   1.380  13.249 -0.1466 -0.4897  2.0687
    8TMC3    H113929   0.747   1.123  13.209 -0.8483 -0.8810  0.7577
    8TMC3    H213930   1.138   0.963  13.257  1.8309  0.4036 -0.9483
    8TMC3    C713931   0.917   0.953  13.089 -0.1607  0.7258 -0.2567
    8TMC3    C813932   1.245   1.185  13.313  0.1189 -0.2223  0.0197
    8TMC3    O113933   0.953   0.836  13.083 -0.3072  0.3858 -0.5014
    8TMC3    O213934   1.255   1.108  13.411 -0.1266  0.1299 -0.3957
    9TMC3    C113935   0.394   1.426  12.309 -0.3030 -0.6063  0.2940
    9TMC3    C213936   0.453   1.297  12.326 -0.6863 -0.3134 -0.1426
    9TMC3    C313937   0.563   1.294  12.415 -0.1079  0.3274 -0.4297
    9TMC3    C413938   0.425   1.534  12.392 -0.0721 -0.0950  0.2249
    9TMC3    C513939   0.525   1.520  12.478 -0.1343 -0.1921  0.3228
    9TMC3    C613940   0.601   1.409  12.485  0.6590 -0.6217  0.1988
    9TMC3     C13941   0.273   1.431  12.233 -0.4892  0.0446  0.4694
    9TMC3     O13942   0.265   1.354  12.138  0.6290 -0.1642 -0.1094
    9TMC3     H13943   0.447   1.219  12.250 -0.6478 -0.8951  0.4484
    9TMC3    H113944   0.380   1.633  12.395 -1.0108 -0.5404  0.6641
    9TMC3    H213945   0.690   1.405  12.546  0.6735 -0.3404  0.1954
    9TMC3    C713946   0.478   1.562  12.607 -0.1386 -0.9856  0.5845
    9TMC3    C813947   0.599   1.155  12.463  0.3402  0.2508  0.5311
    9TMC3    O113948   0.360   1.586  12.613 -0.1932 -0.3949  0.6483
    9TMC3    O213949   0.573   1.061  12.392 -0.0665 -0.1124  0.2936
   10MPD2     C13950   0.846   0.865  12.797  0.0156 -0.4664  0.4715
   10MPD2    C113951   0.823   0.988  12.853 -0.2851  0.2946 -0.6048
   10MPD2    C213952   0.756   1.085  12.772  0.6808 -0.0634  0.0027
   10MPD2    C313953   0.715   1.051  12.649 -0.0777  0.3343 -0.3808
   10MPD2    C413954   0.721   0.920  12.599  0.3280  0.1837 -0.1742
   10MPD2    C513955   0.786   0.830  12.678 -0.3874 -0.1354  0.0406
   10MPD2     H13956   0.746   1.184  12.816  0.9900 -0.2579  0.5142
   10MPD2    H113957   0.686   0.889  12.501  0.8843 -0.9758  0.0023
   10MPD2    H213958   0.902   0.788  12.848  1.3107  0.9697  1.2137
   10MPD2    H313959   0.807   0.731  12.639 -0.7269 -1.0860  2.2668
   10MPD2     N13960   0.657   1.154  12.585 -0.4890  0.4735 -0.0669
   10MPD2    H513961   0.642   1.238  12.640 -1.3262 -0.1776  0.7065
   10MPD2    N113962   0.859   1.029  12.986 -0.8423  0.3737 -0.2737
   10MPD2    H713963   0.840   1.127  13.007  3.3494  0.2329  4.2717
   11MPD2     C13964   1.446   0.553  14.023 -0.9036  0.2945  0.0882
   11MPD2    C113965   1.579   0.577  14.055 -0.5690  0.2039 -0.1077
   11MPD2    C213966   1.660   0.644  13.969 -0.1970  0.6553  0.0354
   11MPD2    C313967   1.624   0.664  13.835  1.2692 -0.6333 -0.3540
   11MPD2    C413968   1.489   0.656  13.808 -0.4823  0.4161 -0.0122
   11MPD2    C513969   1.402   0.596  13.896 -0.6882 -0.0879 -0.7151
   11MPD2     H13970   1.759   0.673  14.002  0.2292 -0.7967  0.0341
   11MPD2    H113971   1.456   0.687  13.709  0.2628 -0.6127 -0.5891
   11MPD2    H213972   1.371   0.514  14.091  0.0359  0.3492  1.1717
   11MPD2    H313973   1.301   0.570  13.869 -0.5135  1.9221 -3.2276
   11MPD2     N13974   1.713   0.724  13.745  0.0797 -0.6423  0.3777
   11MPD2    H513975   1.675   0.771  13.664  1.1610  1.1445  0.8990
   11MPD2    N113976   1.622   0.561  14.187  0.3393  0.0645  0.2852
   11MPD2    H713977   1.717   0.591  14.204  0.8987 -1.3179 -0.3979
    1MPD1     C13978   3.907   2.216  16.867  0.8646  0.1019 -0.6317
    1MPD1    C113979   3.832   2.255  16.759  0.4662  0.3913 -0.7196
    1MPD1    C213980   3.891   2.250  16.636  0.5224  0.5737  0.2125
    1MPD1    C313981   4.023   2.228  16.619 -0.6708 -0.3845 -0.0228
    1MPD1    C413982   4.100   2.197  16.729 -0.0222 -0.0122  0.3527
    1MPD1    C513983   4.042   2.186  16.856 -0.2558 -0.0371  0.2081
    1MPD1     H13984   3.829   2.270  16.550  2.4155 -0.2189 -1.3195
    1MPD1    H113985   4.208   2.208  16.719 -0.3409  0.7113 -2.1175
    1MPD1    H213986   3.859   2.201  16.963 -0.0560  0.7806 -0.9817
    1MPD1    H313987   4.108   2.170  16.940  0.6661  0.3511 -0.4432
    1MPD1     N13988   4.091   2.227  16.493  0.1710 -0.1406  0.2954
    1MPD1    H513989   4.186   2.194  16.498 -0.0606 -0.8955 -0.3240
    1MPD1    N113990   3.700   2.281  16.788 -0.1175  0.3347 -0.2538
    1MPD1    H613991   3.690   2.326  16.878 -1.9035 -0.2405 -0.1724
    1MPD1    H713992   3.659   2.341  16.716 -0.7084 -0.9849 -1.0107
    2MPD1     C13993   4.122   1.478  16.120 -0.1456 -0.2724  0.1643
    2MPD1    C113994   4.050   1.543  16.215  0.3812  0.4486  0.1985
    2MPD1    C213995   4.084   1.673  16.245  0.5803  0.6341  0.3047
    2MPD1    C313996   4.173   1.747  16.164 -1.4683 -0.4573 -0.3004
    2MPD1    C413997   4.247   1.675  16.074  0.2456  0.3842 -0.3996
    2MPD1    C513998   4.225   1.543  16.051 -0.6309  0.6593  0.0970
    2MPD1     H13999   4.023   1.713  16.325  0.6844 -0.8754  1.1314
    2MPD1    H114000   4.323   1.715  16.008 -0.1754  1.7827 -0.0410
    2MPD1    H214001   4.097   1.375  16.096  0.6562 -0.5551  0.5280
    2MPD1    H314002   4.276   1.499  15.967  0.4321  0.5861  0.7842
    2MPD1     N14003   4.191   1.883  16.186 -0.0531 -0.3445 -0.3284
    2MPD1    H514004   4.137   1.926  16.260  0.4768 -1.0000  0.4450
    2MPD1    N114005   3.949   1.467  16.283 -0.5721 -0.2754  0.4228
    2MPD1    H614006   3.908   1.384  16.241 -0.7703  0.0094  0.0521
    2MPD1    H714007   3.882   1.525  16.333  0.7541  0.5161  1.3111
    3TMC3    C114008   4.245   2.103  16.147 -0.1313  0.0871  0.6923
    3TMC3    C214009   4.248   2.189  16.044  0.6834 -0.1058 -0.0944
    3TMC3    C314010   4.193   2.312  16.059  0.4977  0.8417 -0.5088
    3TMC3    C414011   4.175   2.129  16.264  0.3741 -0.4667 -0.1571
    3TMC3    C514012   4.123   2.252  16.272  0.2026  0.9258 -0.5376
    3TMC3    C614013   4.127   2.344  16.174  0.0766  0.0889  0.4000
    3TMC3     C14014   4.272   1.966  16.113 -0.3563  0.0065 -0.4849
    3TMC3     O14015   4.341   1.943  16.011  0.3953  0.3305  0.3582
    3TMC3     H14016   4.309   2.176  15.955  0.5540  2.0103 -0.5004
    3TMC3    H114017   4.162   2.058  16.345 -0.1051 -2.2399 -1.7814
    3TMC3    H214018   4.085   2.442  16.191 -1.5435 -0.2352 -1.6873
    3TMC3    C714019   4.030   2.272  16.379  0.0013 -0.5002  0.3885
    3TMC3    C814020   4.252   2.435  16.001  0.7012  0.0439  0.8615
    3TMC3    O114021   3.945   2.359  16.365  0.3345 -0.3163  0.2009
    3TMC3    O214022   4.257   2.540  16.065  0.3024 -0.8217 -0.3269
    4MPD1     C14023   4.538   2.665  15.637 -0.3236 -0.2728  0.4882
    4MPD1    C114024   4.485   2.550  15.581  0.2823  0.3032 -0.9001
    4MPD1    C214025   4.416   2.473  15.668 -0.1568  0.1976 -0.5208
    4MPD1    C314026   4.372   2.506  15.794 -0.5086 -0.3588 -0.0311
    4MPD1    C414027   4.415   2.629  15.835  0.0595 -0.4979  0.5660
    4MPD1    C514028   4.495   2.708  15.760 -0.2302  0.2312 -0.8082
    4MPD1     H14029   4.383   2.373  15.639 -0.2082  0.1674 -0.3597
    4MPD1    H114030   4.379   2.663  15.932 -0.4546 -3.3409  1.3585
    4MPD1    H214031   4.596   2.740  15.585 -1.7154 -0.2576 -1.0738
    4MPD1    H314032   4.529   2.804  15.798  0.4766 -1.2855  2.3579
    4MPD1     N14033   4.286   2.419  15.870 -1.0074  0.3758 -0.5080
    4MPD1    H514034   4.244   2.339  15.823  0.9296 -0.1016 -1.3843
    4MPD1    N114035   4.525   2.508  15.455 -0.0355  0.2097 -0.0093
    4MPD1    H614036   4.466   2.442  15.405  1.7453 -0.5010 -1.1746
    4MPD1    H714037   4.537   2.591  15.398  0.6347  0.3973  0.4210
    1TCq1    O114038   4.645   0.960  11.405 -0.2881  0.1039 -0.5030
    1TCq1    C114039   4.664   1.015  11.284 -0.4364 -0.3260  0.2125
    1TCq1    O214040   0.015   0.976  11.197  0.2558 -0.2853 -0.2741
    1TCq1    C214041   4.561   1.115  11.254 -0.2024 -0.9081  0.0710
    1TCq1    C314042   4.430   1.103  11.276 -0.0334 -0.2242  0.5412
    1TCq1    C414043   4.335   1.181  11.219  0.5681  0.2077 -0.5403
    1TCq1    C514044   4.378   1.291  11.151 -0.3107 -1.3530  0.3028
    1TCq1    C614045   4.511   1.298  11.117  0.7300  0.6157  0.0159
    1TCq1    C714046   4.603   1.207  11.163 -0.9567 -0.3904 -0.5849
    1TCq1    C814047   4.555   1.406  11.036 -0.2173 -0.0957  0.6560
    1TCq1    O414048   4.644   1.473  11.082 -0.2593 -0.6807 -0.0646
    1TCq1    C914049   4.208   1.175  11.281 -0.1650  0.5518  0.1251
    1TCq1    O514050   4.189   1.085  11.368 -0.0111 -0.5986  1.0765
    1TCq1    O614051   4.140   1.279  11.267  0.8459 -0.2842 -0.1463
    1TCq1    H114052   4.586   1.006  11.468 -0.6095 -1.5590  0.4112
    1TCq1    H214053   4.405   1.027  11.349 -2.0332 -0.7923 -0.7280
    1TCq1    H314054   4.309   1.370  11.125 -0.3854 -1.6707 -0.4620
    1TCq1    H414055   4.703   1.212  11.121  0.2015  1.3911  2.4184
    2MPD1     C14056   4.440   1.768  10.681  0.2643  0.1035 -0.0046
    2MPD1    C114057   4.355   1.663  10.663 -0.5999 -0.3102 -0.2791
    2MPD1    C214058   4.357   1.551  10.747  0.3421 -0.4260 -0.1654
    2MPD1    C314059   4.460   1.542  10.843 -0.6659 -0.5564  0.7444
    2MPD1    C414060   4.549   1.644  10.855 -0.0430 -0.9535 -0.0967
    2MPD1    C514061   4.540   1.756  10.771  0.1090 -0.0877 -0.3469
    2MPD1     H14062   4.285   1.472  10.736  0.7108 -0.7921  0.0273
    2MPD1    H114063   4.625   1.638  10.932 -2.6527 -0.3752  2.5026
    2MPD1    H214064   4.450   1.849  10.610  0.6889  0.7163  0.7521
    2MPD1    H314065   4.617   1.831  10.781  0.9144 -0.8839 -0.5089
    2MPD1     N14066   4.462   1.432  10.936 -0.0419 -0.6375 -0.3291
    2MPD1    H514067   4.394   1.361  10.910 -3.0360  2.2730 -0.3877
    2MPD1    N114068   4.264   1.677  10.556 -0.0514  0.4581  0.1042
    2MPD1    H614069   4.248   1.592  10.502 -1.1120  2.2226 -2.3791
    2MPD1    H714070   4.297   1.745  10.488 -1.0141 -1.7402 -2.5790
    1TCq1    O114071   4.697   0.427   0.615 -0.2654 -0.1139  0.1401
    1TCq1    C114072   0.012   0.306   0.576  0.9007  0.8222  0.2430
    1TCq1    O214073   0.059   0.228   0.654 -0.6668  0.3031  0.0282
    1TCq1    C214074   4.625   0.257   0.501  0.0419 -0.2589 -0.3452
    1TCq1    C314075   4.544   0.176   0.575 -0.8802 -0.3806 -0.4513
    1TCq1    C414076   4.433   0.141   0.507 -0.0037 -0.6340 -0.4578
    1TCq1    C514077   4.396   0.201   0.389  0.1948  0.0925  0.1587
    1TCq1    C614078   4.481   0.278   0.323 -0.2329 -0.4325  0.4271
    1TCq1    C714079   4.596   0.314   0.377  0.0686 -0.3587 -0.1736
    1TCq1    C814080   4.449   0.335   0.192  0.4179  0.0278 -0.1019
    1TCq1    O414081   4.498   0.446   0.167 -0.1449  0.3304  0.1819
    1TCq1    C914082   4.321   0.107   0.591  0.1742 -0.1329 -0.4267
    1TCq1    O514083   4.349   0.089   0.714 -0.3428 -0.2780  0.2302
    1TCq1    O614084   4.210   0.075   0.536  0.2448  0.2097 -0.0603
    1TCq1    H114085   4.663   0.468   0.532  0.6119 -0.0960 -0.2033
    1TCq1    H214086   4.572   0.140   0.673 -2.0116  1.5778  0.5842
    1TCq1    H314087   4.294   0.202   0.351 -0.0615 -1.9257  0.7781
    1TCq1    H414088   4.670   0.372   0.323  1.5435 -1.8863  0.2032
    2MPD1     C14089   4.241   0.350  17.432 -0.0723  0.1462 -0.4198
    2MPD1    C114090   4.207   0.227  17.495 -0.2530 -0.0472 -0.0866
    2MPD1    C214091   4.248   0.196  17.618 -0.1881 -0.6635  0.2165
    2MPD1    C314092   4.331   0.285  17.682 -0.9378 -0.1288 -0.0878
    2MPD1    C414093   4.365   0.410  17.618  0.1440 -0.5482  0.8005
    2MPD1    C514094   4.323   0.438  17.491  0.0628 -0.6293  0.0481
    2MPD1     H14095   4.218   0.102  17.663  0.2911 -0.8143  0.2159
    2MPD1    H114096   4.424   0.489  17.663 -0.1961  0.2067 -0.0647
    2MPD1    H214097   4.209   0.382  17.333  0.3084  0.0149 -0.5857
    2MPD1    H314098   4.348   0.525  17.431  0.8525 -0.9237 -0.0442
    2MPD1     N14099   4.368   0.258   0.113 -0.4000  0.0330 -0.1133
    2MPD1    H514100   4.326   0.177   0.158 -1.9743  1.1057  0.3591
    2MPD1    N114101   4.104   0.152  17.428 -0.0052 -0.3175  0.5232
    2MPD1    H614102   4.099   0.164  17.327  1.3577  1.0740  0.6174
    2MPD1    H714103   4.103   0.056  17.460 -1.0380 -0.9372 -1.3210
    1MPD1     C14104   0.960   1.102  12.365  0.7010 -0.4805  0.2396
    1MPD1    C114105   1.087   1.122  12.413  0.2006  0.0549 -0.1771
    1MPD1    C214106   1.175   1.205  12.338 -0.2855 -0.3725  0.4298
    1MPD1    C314107   1.134   1.271  12.224 -0.5919  0.2881 -0.3678
    1MPD1    C414108   1.009   1.243  12.171  0.2917  0.3401 -0.8513
    1MPD1    C514109   0.922   1.170  12.253 -1.0987 -0.5078 -0.2677
    1MPD1     H14110   1.278   1.220  12.369 -0.5534 -0.9675  1.5944
    1MPD1    H114111   0.970   1.292  12.082  0.2280  0.4785 -0.7458
    1MPD1    H214112   0.892   1.033  12.412 -2.1661  0.9873 -1.6949
    1MPD1    H314113   0.821   1.165  12.215 -0.2673 -4.1033 -1.9903
    1MPD1     N14114   1.210   1.382  12.177  0.0240  0.0722  0.1164
    1MPD1    H514115   1.301   1.400  12.217 -0.5048  0.2115  1.2701
    1MPD1    N114116   1.137   1.030  12.515 -0.2670  0.4541  0.1923
    1MPD1    H614117   1.217   1.079  12.554 -0.3793  0.6731  0.1483
    1MPD1    H714118   1.069   1.009  12.588 -0.0234 -0.9575 -0.0049
    2MPD1     C14119   2.150   2.094  10.136 -0.0375  0.0218 -0.2421
    2MPD1    C114120   2.015   2.122  10.166  0.6098  0.3666  0.0056
    2MPD1    C214121   1.937   2.030  10.227 -0.7298 -0.2609 -0.2371
    2MPD1    C314122   1.991   1.905  10.257  0.6810  0.3136 -0.2052
    2MPD1    C414123   2.123   1.877  10.225 -0.0188 -0.7304  0.0860
    2MPD1    C514124   2.203   1.969  10.160  0.4484  0.4385 -0.1384
    2MPD1     H14125   1.834   2.048  10.257 -0.8027  0.5515 -0.9930
    2MPD1    H114126   2.162   1.776  10.224 -0.5525 -0.9292 -0.8665
    2MPD1    H214127   2.212   2.179  10.110  0.6853 -1.2911 -2.7522
    2MPD1    H314128   2.306   1.951  10.130 -0.1122 -2.5082 -0.3315
    2MPD1     N14129   1.918   1.803  10.323  0.3599 -0.6553 -0.7810
    2MPD1    H514130   1.967   1.714  10.331 -1.4736 -1.5585  0.5710
    2MPD1    N114131   1.967   2.252  10.145 -0.1087 -0.6371 -0.5713
    2MPD1    H614132   1.866   2.264  10.139 -0.4848 -3.5995 -0.4005
    2MPD1    H714133   2.007   2.295  10.062  1.5262  2.6025  1.9195
    3MPD1     C14134   1.538   0.882  10.482  0.1758  0.0953  0.4368
    3MPD1    C114135   1.472   0.950  10.582  0.3777  0.7806  0.3169
    3MPD1    C214136   1.512   1.079  10.606 -0.2986  0.2128 -0.4276
    3MPD1    C314137   1.611   1.145  10.529 -0.2222 -0.3483  0.3409
    3MPD1    C414138   1.674   1.072  10.429 -0.0461  1.2748 -1.1887
    3MPD1    C514139   1.630   0.942  10.411 -0.2140  0.5569 -0.4642
    3MPD1     H14140   1.455   1.134  10.679 -0.4184 -0.6835  0.1593
    3MPD1    H114141   1.741   1.118  10.357  1.1147  1.2654 -0.1220
    3MPD1    H214142   1.515   0.777  10.466 -1.1399  0.6240 -1.0693
    3MPD1    H314143   1.694   0.889  10.342 -0.1311  1.6291 -1.2164
    3MPD1     N14144   1.639   1.281  10.551  0.5127  0.7326  0.1624
    3MPD1    H514145   1.593   1.319  10.633  0.0899 -0.8126  0.6368
    3MPD1    N114146   1.374   0.890  10.657  0.6799 -0.2584  0.3510
    3MPD1    H614147   1.282   0.933  10.665  0.0365 -1.4183 -0.7972
    3MPD1    H714148   1.344   0.809  10.603 -1.1713  0.4743  0.2774
    4MPD2     C14149   1.353   1.961  11.616 -0.1638  0.2976  0.2751
    4MPD2    C114150   1.439   1.955  11.717 -0.0801  0.2120 -0.5198
    4MPD2    C214151   1.573   1.978  11.698  0.9492 -0.3271  0.1030
    4MPD2    C314152   1.626   1.990  11.569 -0.2124 -0.3197  0.3183
    4MPD2    C414153   1.535   1.999  11.463  0.2183 -0.3689 -0.6545
    4MPD2    C514154   1.401   1.970  11.487  0.4314  0.2913 -0.0604
    4MPD2     H14155   1.633   1.973  11.788  1.2131  0.6837 -0.0134
    4MPD2    H114156   1.565   2.022  11.362  0.8817 -1.0235 -0.6083
    4MPD2    H214157   1.247   1.938  11.626 -0.5485  1.4008 -1.3501
    4MPD2    H314158   1.334   1.965  11.402 -1.0147  2.7246  0.9213
    4MPD2     N14159   1.766   2.012  11.547 -0.1296 -0.0487 -0.4020
    4MPD2    H514160   1.809   2.016  11.455  0.8833 -1.2361  0.0208
    4MPD2    N114161   1.404   1.928  11.852 -0.1716  0.2294  0.0463
    4MPD2    H714162   1.488   1.926  11.910 -0.2370 -0.6660  0.1017
    5TMC3    C114163   1.287   1.825  12.027  0.0527  0.6084  0.7675
    5TMC3    C214164   1.207   1.712  12.021 -0.1126  0.5612  0.1507
    5TMC3    C314165   1.265   1.588  12.046 -0.0832 -0.8833 -0.3075
    5TMC3    C414166   1.411   1.811  12.082  0.0687  0.6648  0.5227
    5TMC3    C514167   1.475   1.687  12.082  0.2118 -0.8386  0.0238
    5TMC3    C614168   1.402   1.569  12.074  0.2359 -0.5211 -0.2995
    5TMC3     C14169   1.284   1.891  11.905 -0.2844 -0.3101  0.3903
    5TMC3     O14170   1.175   1.872  11.843 -0.4114 -0.0132 -0.0427
    5TMC3     H14171   1.100   1.718  12.005 -0.6039  0.5693  3.4205
    5TMC3    H114172   1.471   1.901  12.094 -0.1217  0.8325  0.2002
    5TMC3    H214173   1.436   1.467  12.063  0.4240 -0.3241 -1.5982
    5TMC3    C714174   1.620   1.687  12.068  0.2391 -0.0019 -0.2057
    5TMC3    C814175   1.172   1.475  12.079 -0.4612  0.5400  0.4569
    5TMC3    O114176   1.674   1.792  12.040  0.4018  0.0372 -0.6264
    5TMC3    O214177   1.063   1.480  12.026 -0.5772  0.1683  0.2708
    6TMC3    C114178   1.761   1.712  10.478 -0.0030 -0.5343 -0.2369
    6TMC3    C214179   1.760   1.582  10.437  0.1545 -0.9336  0.4728
    6TMC3    C314180   1.731   1.494  10.532  0.1361  0.0713  0.9202
    6TMC3    C414181   1.741   1.751  10.607 -0.5875 -0.7433 -0.8502
    6TMC3    C514182   1.719   1.659  10.701 -0.6820  0.7023  0.0532
    6TMC3    C614183   1.708   1.530  10.668 -0.1061 -0.8896 -0.1554
    6TMC3     C14184   1.793   1.820  10.386  0.1420 -0.4481 -0.4115
    6TMC3     O14185   1.723   1.922  10.387  0.1722 -0.1585 -0.6712
    6TMC3     H14186   1.775   1.559  10.332 -2.8136 -1.4553  0.1652
    6TMC3    H114187   1.755   1.852  10.642  2.0715 -0.5535 -2.5285
    6TMC3    H214188   1.720   1.446  10.735 -0.3810 -1.8764 -1.3475
    6TMC3    C714189   1.753   1.693  10.841  0.6181 -0.0136 -0.3926
    6TMC3    C814190   1.721   1.364  10.480  0.0200 -0.1216 -0.5480
    6TMC3    O114191   1.827   1.783  10.872 -0.2973 -0.1271 -0.4537
    6TMC3    O214192   1.786   1.344  10.376  0.0173  0.7714 -0.1042
    7MPD2     C14193   2.055   1.418  12.004  0.0013 -0.1557 -1.1039
    7MPD2    C114194   2.025   1.546  11.963 -0.2328  0.2897  0.7137
    7MPD2    C214195   1.892   1.589  11.987 -0.0474 -0.3649 -0.4051
    7MPD2    C314196   1.806   1.524  12.069  0.0674  0.4815  0.4880
    7MPD2    C414197   1.841   1.395  12.117  0.0672 -0.3454  0.3119
    7MPD2    C514198   1.962   1.350  12.080 -0.8228 -0.2317 -1.4978
    7MPD2     H14199   1.853   1.681  11.946 -0.2719 -0.4022 -0.2764
    7MPD2    H114200   1.775   1.319  12.157  2.2050 -2.5027 -0.2601
    7MPD2    H214201   2.154   1.373  11.997 -0.0916 -0.4083 -0.7759
    7MPD2    H314202   1.987   1.248  12.109 -1.8165  0.5045  1.9292
    7MPD2     N14203   1.671   1.560  12.088 -0.5892  0.1533 -0.0304
    7MPD2    H514204   1.606   1.489  12.118  0.6734 -0.6105  0.8760
    7MPD2    N114205   2.105   1.627  11.879 -0.1408  0.1229  0.5123
    7MPD2    H714206   2.181   1.586  11.825 -0.1765 -1.9466  2.0292
    8TMC3    C114207   2.121   1.812  11.730  0.5554 -0.5533  0.4009
    8TMC3    C214208   2.112   1.720  11.626 -0.4732 -0.1666  0.4026
    8TMC3    C314209   2.051   1.760  11.509 -0.0993 -0.4629  0.1377
    8TMC3    C414210   2.072   1.938  11.709  0.3601 -0.3124 -0.3441
    8TMC3    C514211   1.993   1.972  11.601 -0.1574  0.2787 -0.0841
    8TMC3    C614212   1.996   1.884  11.494 -0.6853 -0.1665 -0.1966
    8TMC3     C14213   2.080   1.763  11.860  0.5467  0.2593 -0.0709
    8TMC3     O14214   2.015   1.837  11.936 -0.1392  0.4199 -0.3388
    8TMC3     H14215   2.156   1.622  11.636 -1.1893 -0.7216 -1.7952
    8TMC3    H114216   2.090   2.007  11.791  1.3256 -1.8751  0.7588
    8TMC3    H214217   1.948   1.930  11.408 -0.8814 -0.7342 -0.3886
    8TMC3    C714218   1.860   2.019  11.644 -0.0260  0.1098  0.4056
    8TMC3    C814219   1.974   1.654  11.450 -0.4025 -0.7422  0.0797
    8TMC3    O114220   1.853   2.023  11.766  0.1226  0.5267  0.2075
    8TMC3    O214221   1.970   1.550  11.513 -0.0392 -0.2775 -0.6294
    9MPD2     C14222   1.723   1.541  11.329  0.1485 -0.6818  0.2839
    9MPD2    C114223   1.799   1.647  11.270 -0.5479 -0.2471  0.0165
    9MPD2    C214224   1.769   1.694  11.148  0.2996  0.5526  0.1827
    9MPD2    C314225   1.695   1.601  11.063 -0.0026 -0.2160  0.3070
    9MPD2    C414226   1.622   1.503  11.125 -0.6566  0.1986 -1.0474
    9MPD2    C514227   1.623   1.485  11.260 -0.0050 -0.3736 -0.3295
    9MPD2     H14228   1.823   1.780  11.107  0.3321  0.0962 -0.7426
    9MPD2    H114229   1.569   1.427  11.069  0.2982 -0.6018 -0.8797
    9MPD2    H214230   1.744   1.498  11.426  0.3162  1.6153  1.2605
    9MPD2    H314231   1.571   1.397  11.297  0.5286 -0.9908 -1.0446
    9MPD2     N14232   1.687   1.603  10.920 -0.6967 -0.1399 -0.0570
    9MPD2    H514233   1.605   1.556  10.882  0.6535 -1.1318 -1.7469
    9MPD2    N114234   1.916   1.697  11.333  0.1989  0.2027  0.3441
    9MPD2    H714235   1.968   1.770  11.285 -0.0791  0.2182  0.0680
    1MPD1     C14236   1.104   4.575  16.996 -0.9625  0.1055 -0.3700
    1MPD1    C114237   1.186   4.678  17.024  0.0857 -0.4645  0.1719
    1MPD1    C214238   1.237   0.030  16.921  0.4143  0.5459  0.1773
    1MPD1    C314239   1.201   4.719  16.795  0.0881 -0.0001  0.0306
    1MPD1    C414240   1.114   4.614  16.758 -0.2518  0.6287  0.1042
    1MPD1    C514241   1.068   4.541  16.865 -0.2661  0.0970  0.5858
    1MPD1     H14242   1.313   0.105  16.943  0.8349  0.2892 -0.3818
    1MPD1    H114243   1.081   4.579  16.661 -0.4295 -0.8968  0.7103
    1MPD1    H214244   1.055   4.511  17.069 -0.4266  0.4981  0.3326
    1MPD1    H314245   1.004   4.456  16.845 -0.7491  0.5469  0.2254
    1MPD1     N14246   1.254   0.066  16.682 -0.2681  0.1000 -0.8884
    1MPD1    H514247   1.218   0.041  16.590  0.1481 -1.4713 -0.6301
    1MPD1    N114248   1.229   4.695  17.158 -0.2793  0.0426 -0.3645
    1MPD1    H614249   1.245   0.065  17.191 -5.1996  0.1917  1.4662
    1MPD1    H714250   1.147   4.663  17.208 -0.2642  0.7399  0.1148
    2MPD1     C14251   1.312   1.047  16.300 -0.0829 -0.4130 -0.6325
    2MPD1    C114252   1.242   0.960  16.213  0.8720 -0.2888 -0.4184
    2MPD1    C214253   1.251   0.829  16.237 -0.4812 -0.2748  0.4514
    2MPD1    C314254   1.321   0.779  16.350  0.0205  0.1473 -0.9187
    2MPD1    C414255   1.389   0.864  16.431 -0.4417  0.1609  0.4386
    2MPD1    C514256   1.385   0.991  16.402 -0.4541  0.2880  0.1333
    2MPD1     H14257   1.212   0.755  16.169  1.1135 -0.6048 -0.1024
    2MPD1    H114258   1.453   0.829  16.511 -0.1998  1.8582  0.9754
    2MPD1    H214259   1.304   1.155  16.293  2.1469 -0.1305  1.3199
    2MPD1    H314260   1.447   1.061  16.458  0.9499 -0.6547 -0.2476
    2MPD1     N14261   1.327   0.640  16.363  0.0885  0.0831  0.3934
    2MPD1    H514262   1.277   0.580  16.297  0.3427 -1.2835  1.4396
    2MPD1    N114263   1.184   1.015  16.102  0.0530  0.1927  0.6083
    2MPD1    H614264   1.096   0.975  16.071  0.1195  0.4308  0.1102
    2MPD1    H714265   1.161   1.113  16.116  0.7514  0.5324 -0.5668
    3TCq2    C114266   1.413   0.573  16.445  0.3377 -0.1979 -0.2781
    3TCq2    O214267   1.496   0.605  16.530  0.3994 -0.1959 -0.4127
    3TCq2    C214268   1.376   0.429  16.435 -0.4733 -0.1861  0.3836
    3TCq2    C314269   1.310   0.377  16.326 -0.3083  0.3673  0.0134
    3TCq2    C414270   1.285   0.243  16.324 -0.4878 -0.0038 -0.3641
    3TCq2    C514271   1.300   0.168  16.441 -0.1944 -0.1784  0.4423
    3TCq2    C614272   1.366   0.225  16.539  0.5485 -0.1110 -0.2200
    3TCq2    C714273   1.414   0.354  16.541 -0.1296 -0.0784  0.0704
    3TCq2    C814274   1.350   0.169  16.676  0.1509 -0.7190 -0.5898
    3TCq2    O414275   1.404   0.237  16.765 -0.3120 -0.0170 -0.3915
    3TCq2    C914276   1.197   0.186  16.221  0.5838  0.5419  0.2965
    3TCq2    O514277   1.169   0.063  16.216  0.1858  0.2059 -0.0732
    3TCq2    O614278   1.178   0.259  16.121  0.2125 -0.1801  0.3515
    3TCq2    H214279   1.276   0.438  16.244  0.4684  0.1580 -0.4657
    3TCq2    H314280   1.257   0.069  16.437 -0.0348 -0.2742  1.0833
    3TCq2    H414281   1.467   0.400  16.624  0.1742 -2.6967  1.3284
    1TCq1    O114282   4.373   4.388  12.748 -0.5664  0.6909 -0.1108
    1TCq1    C114283   4.308   4.365  12.864 -0.7884  0.1030 -0.7208
    1TCq1    O214284   4.195   4.322  12.883  0.0274 -0.1116 -0.3593
    1TCq1    C214285   4.406   4.370  12.972 -0.3399  0.2751 -0.1405
    1TCq1    C314286   4.382   4.297  13.089  0.0972  0.7025 -0.0812
    1TCq1    C414287   4.453   4.320  13.202 -0.6318  0.2210 -0.1763
    1TCq1    C514288   4.571   4.399  13.196  0.0009 -0.6222  0.5226
    1TCq1    C614289   4.601   4.462  13.076 -0.0391 -0.5196  0.2000
    1TCq1    C714290   4.520   4.443  12.970  0.0840  0.5842 -0.2875
    1TCq1    C814291   4.683   4.576  13.081 -0.7053  0.0052 -0.2955
    1TCq1    O414292   4.707   4.630  12.975 -0.2553 -0.2751  0.4493
    1TCq1    C914293   4.426   4.238  13.317 -0.6210 -0.3877  0.4980
    1TCq1    O514294   4.343   4.148  13.290  0.0151 -0.3801 -0.3421
    1TCq1    O614295   4.513   4.239  13.409  0.3284 -0.7943 -0.1152
    1TCq1    H114296   4.462   4.428  12.748 -0.5401  0.6361 -3.3729
    1TCq1    H214297   4.294   4.234  13.086 -0.5104  1.5658 -0.7690
    1TCq1    H314298   4.625   4.419  13.288 -0.1731  0.3405  0.4171
    1TCq1    H414299   4.522   4.516  12.890  0.5388 -1.8929 -2.5671
    2MPD2     C14300   0.118   0.094  13.147  0.0336  0.1923  0.0327
    2MPD2    C114301   0.085   4.721  13.237 -0.1705  0.2963  0.2214
    2MPD2    C214302   0.133   0.010  13.370 -1.0676  0.0094  0.7255
    2MPD2    C314303   0.214   0.116  13.401 -0.1516 -0.8272  0.4684
    2MPD2    C414304   0.226   0.221  13.315 -0.2588 -0.2144 -0.2221
    2MPD2    C514305   0.183   0.204  13.185 -0.5142 -0.9851 -0.6651
    2MPD2     H14306   0.108   4.656  13.440 -3.4890 -0.6781 -0.9216
    2MPD2    H114307   0.278   0.312  13.343  2.1671 -1.0828 -1.9375
    2MPD2    H214308   0.091   0.089  13.042 -2.5654 -0.0824  0.7136
    2MPD2    H314309   0.197   0.285  13.114 -1.2395 -0.4209 -0.1655
    2MPD2     N14310   0.264   0.128  13.535 -0.3647  0.1153  0.2279
    2MPD2    H514311   0.243   0.055  13.602 -0.3140 -0.4738 -0.3994
    2MPD2    N114312   0.008   4.604  13.205 -0.6895  0.3446 -0.4159
    2MPD2    H714313   4.698   4.544  13.279 -1.2500  0.4033 -0.6300
    3TCq1    O114314   0.207   0.107  14.122 -0.1819  0.3141 -0.4493
    3TCq1    C114315   0.188   0.205  14.032 -0.1150 -0.4672  0.7589
    3TCq1    O214316   0.120   0.305  14.062 -0.2201 -0.2291  0.4502
    3TCq1    C214317   0.292   0.190  13.937 -0.6396  0.0225  1.3079
    3TCq1    C314318   0.401   0.235  13.993  0.0171 -0.0428 -0.0989
    3TCq1    C414319   0.494   0.281  13.906  0.0434 -0.4013  0.3798
    3TCq1    C514320   0.479   0.273  13.769 -0.1434  0.2014 -0.4546
    3TCq1    C614321   0.364   0.227  13.720 -0.5720 -0.3228  0.8496
    3TCq1    C714322   0.259   0.185  13.800 -0.4614  0.1685  0.0154
    3TCq1    C814323   0.358   0.210  13.572 -0.4497  0.0051 -0.0231
    3TCq1    O414324   0.437   0.277  13.500 -0.2711 -0.1686 -0.3403
    3TCq1    C914325   0.626   0.316  13.954  0.5464  0.3093  0.3903
    3TCq1    O514326   0.701   0.381  13.877 -0.3300 -0.1354 -0.0135
    3TCq1    O614327   0.638   0.305  14.078 -0.1543 -0.5773 -0.0178
    3TCq1    H114328   0.257   0.036  14.077  1.9394  0.3692  1.8659
    3TCq1    H214329   0.402   0.259  14.099  2.3385  1.8355 -0.5443
    3TCq1    H314330   0.566   0.290  13.706 -0.2727  0.1464 -0.6469
    3TCq1    H414331   0.160   0.151  13.772 -0.6889  2.3972 -1.8317
    1MPD2     C14332   3.683   0.865  14.870  0.1306  0.2841 -0.0405
    1MPD2    C114333   3.545   0.869  14.859  1.0240 -0.3370 -0.4162
    1MPD2    C214334   3.481   0.770  14.795 -0.0768 -0.2958  0.5206
    1MPD2    C314335   3.547   0.665  14.734 -0.7312 -0.1671  0.5490
    1MPD2    C414336   3.685   0.658  14.751 -0.2973 -0.0058  0.4990
    1MPD2    C514337   3.747   0.758  14.817  0.3094 -0.0330  0.8149
    1MPD2     H14338   3.374   0.780  14.779 -0.3797 -2.7531  0.9303
    1MPD2    H114339   3.749   0.584  14.705  0.0767  1.7181 -1.8014
    1MPD2    H214340   3.742   0.946  14.910  0.9679 -0.1201 -0.4583
    1MPD2    H314341   3.855   0.744  14.809 -0.0363 -1.7821 -1.0353
    1MPD2     N14342   3.476   0.565  14.663 -0.1005  0.0793 -0.0476
    1MPD2    H514343   3.527   0.478  14.651 -1.4423 -0.5120 -1.4976
    1MPD2    N114344   3.457   0.971  14.911 -0.2031 -0.0831  0.1376
    1MPD2    H714345   3.356   0.967  14.901 -0.1814  1.3502 -0.7224
    2TMC3    C114346   3.372   1.163  14.990  0.2651 -0.4150  0.3129
    2TMC3    C214347   3.247   1.102  15.001  0.4067  0.1659 -0.2577
    2TMC3    C314348   3.138   1.181  14.996 -0.3007  0.6006 -0.0544
    2TMC3    C414349   3.382   1.298  14.965  0.0432  0.3234 -0.2981
    2TMC3    C514350   3.272   1.374  14.945  0.4518  0.6827  0.1006
    2TMC3    C614351   3.148   1.313  14.951 -0.9597 -0.8215 -0.1660
    2TMC3     C14352   3.492   1.087  14.968 -0.4461 -0.3469  0.2361
    2TMC3     O14353   3.594   1.131  15.014  0.6750  0.2230  0.7548
    2TMC3     H14354   3.245   1.008  15.055  2.3134  0.3745  0.1687
    2TMC3    H114355   3.482   1.337  14.950  0.4345  0.1201  1.7723
    2TMC3    H214356   3.058   1.371  14.930  0.4415  1.1855 -0.5771
    2TMC3    C714357   3.290   1.500  14.871  0.3457  0.4321 -0.0994
    2TMC3    C814358   3.010   1.126  14.958  0.3646 -0.3100  0.7689
    2TMC3    O114359   3.203   1.534  14.791 -0.2984 -0.3268  0.1175
    2TMC3    O214360   2.914   1.194  14.922  0.1190  0.0899 -0.1946
    3TCq1    O114361   4.149   1.746  15.073  0.2045  0.5795 -0.2079
    3TCq1    C114362   4.206   1.869  15.045  0.6359 -0.4830 -0.3800
    3TCq1    O214363   4.284   1.930  15.114 -0.1175 -0.4623 -0.2315
    3TCq1    C214364   4.157   1.915  14.913  0.1703 -0.6175 -0.0192
    3TCq1    C314365   4.232   2.017  14.858  0.0955  0.3806  0.4170
    3TCq1    C414366   4.203   2.049  14.728  0.0398 -0.0852 -0.9113
    3TCq1    C514367   4.089   2.008  14.661 -0.5507 -0.2665 -0.4291
    3TCq1    C614368   4.015   1.910  14.726  0.1063 -0.0773  0.2590
    3TCq1    C714369   4.046   1.855  14.850  0.0966  0.2008  1.0757
    3TCq1    C814370   3.890   1.872  14.658 -0.5432 -0.3075  0.1452
    3TCq1    O414371   3.874   1.918  14.550 -0.0180  0.4955 -0.2954
    3TCq1    C914372   4.307   2.133  14.663  0.0812 -0.8764  0.6480
    3TCq1    O514373   4.413   2.160  14.723  0.8159 -0.0749  0.0051
    3TCq1    O614374   4.282   2.178  14.554  1.1484 -0.1378  0.5573
    3TCq1    H114375   4.115   1.693  14.999  0.0125  1.2717 -0.6141
    3TCq1    H214376   4.315   2.051  14.919  0.6043  1.3905 -0.8397
    3TCq1    H314377   4.080   2.031  14.556 -0.5409  1.1118 -0.1398
    3TCq1    H414378   3.992   1.775  14.899  0.2701 -1.5168 -1.5267
    4MPD2     C14379   3.608   1.812  14.594  0.1916  0.2716  0.0745
    4MPD2    C114380   3.668   1.775  14.716 -0.1971  0.0263 -0.8020
    4MPD2    C214381   3.595   1.691  14.803 -0.5638  0.4189 -0.1883
    4MPD2    C314382   3.468   1.649  14.778  0.1799  0.5507 -1.1164
    4MPD2    C414383   3.411   1.688  14.657  0.0251  0.2919  0.6029
    4MPD2    C514384   3.485   1.754  14.566  0.0142 -0.0229  0.0210
    4MPD2     H14385   3.638   1.670  14.900 -0.9191  2.1626  0.3515
    4MPD2    H114386   3.313   1.648  14.633  0.2722 -1.1063  1.9453
    4MPD2    H214387   3.650   1.882  14.522 -0.8052 -1.3218 -2.0479
    4MPD2    H314388   3.436   1.778  14.472  1.9386  3.5768 -0.0695
    4MPD2     N14389   3.416   1.557  14.876  0.5014 -0.3408 -0.0105
    4MPD2    H514390   3.472   1.534  14.957 -1.5408 -0.7909  1.2781
    4MPD2    N114391   3.803   1.807  14.742 -0.6217 -0.8327 -0.1772
    4MPD2    H714392   3.844   1.797  14.835 -0.1993 -0.4629 -0.3201
    5TMC2    C114393   3.049   0.428  14.555  0.4038 -0.4559 -0.2505
    5TMC2    C214394   3.052   0.329  14.647  1.0444  0.3868 -0.2057
    5TMC2    C314395   3.166   0.310  14.714 -0.7788 -0.7596 -0.0943
    5TMC2    C414396   3.158   0.500  14.519 -0.2684  0.5316  0.0876
    5TMC2    C514397   3.278   0.475  14.582 -0.6376 -0.1054  1.0956
    5TMC2    C614398   3.281   0.385  14.690 -0.2426  0.3748 -0.4366
    5TMC2     C14399   2.939   0.519  14.570  0.0746  0.2538  0.4090
    5TMC2     O14400   2.841   0.477  14.624 -0.0743  0.0599 -0.5351
    5TMC2     H14401   2.964   0.305  14.705 -0.0114 -0.7690 -2.3390
    5TMC2    H114402   3.163   0.569  14.435 -0.9714 -0.8050 -1.0564
    5TMC2    H214403   3.360   0.376  14.762 -0.6893  1.3386  0.1711
    5TMC2    C714404   3.362   0.596  14.597 -0.2237 -0.6419  0.1132
    5TMC2    C814405   3.141   0.280  14.857  0.6438  0.2731 -0.8756
    5TMC2    O114406   3.316   0.708  14.566  0.3384  0.0019  0.1659
    5TMC2    O214407   3.045   0.329  14.914 -0.3994  0.5974 -0.1237
    5TMC2    O514408   3.190   0.153  14.884  0.3593  0.4831  0.3547
    5TMC2    H514409   3.264   0.139  14.821  0.5881  1.7784  0.3362
    6MPD2     C14410   2.808   0.934  14.828 -0.1117 -0.3048 -0.8757
    6MPD2    C114411   2.947   0.926  14.828 -0.2951  0.6669  0.0008
    6MPD2    C214412   3.003   0.830  14.745 -0.0185  0.0781  0.0021
    6MPD2    C314413   2.922   0.746  14.667  0.2077 -0.2969 -0.3081
    6MPD2    C414414   2.788   0.772  14.654 -1.1886  0.2780  0.8810
    6MPD2    C514415   2.736   0.874  14.732  0.8188  0.5967  0.3518
    6MPD2     H14416   3.111   0.820  14.738 -0.1897 -0.1129 -2.2908
    6MPD2    H114417   2.729   0.710  14.588 -0.9720  2.9378 -1.8158
    6MPD2    H214418   2.756   1.011  14.884 -0.2134 -1.1677  0.2256
    6MPD2    H314419   2.628   0.876  14.725  0.8644 -0.0399 -0.5857
    6MPD2     N14420   2.990   0.645  14.600  0.2257  0.1068 -0.3696
    6MPD2    H514421   3.091   0.646  14.585  0.3437  1.2764  0.5051
    6MPD2    N114422   3.035   0.994  14.914  0.1880 -0.4355 -0.3536
    6MPD2    H714423   3.129   0.957  14.920  0.0896 -0.7561 -0.7884
  945NH4     N114424   0.957   2.142  16.133  0.3145 -0.2017  0.4877
  945NH4     H214425   0.943   2.245  16.136  0.4772 -0.1996  1.4115
  945NH4     H314426   0.949   2.114  16.034 -1.5709 -0.5594  0.7344
  945NH4     H414427   0.881   2.086  16.177  0.5984 -0.3740  0.7637
  945NH4     H514428   1.048   2.111  16.173  1.1682 -1.0225 -2.1180
  946SOD     NA14429   0.930   3.916  17.110  0.3688 -0.1322 -0.2816
  947SOD     NA14430   2.568   3.404   9.832 -0.0035  0.2601  0.4150
  948SOD     NA14431   4.363   2.970   8.444 -0.1308 -0.1778 -0.3153
  949SOD     NA14432   2.247   0.012  16.213  0.2105 -0.1785 -0.4100
  950SOD     NA14433   4.170   0.509  10.649 -0.8536 -0.1977 -0.0351
  951SOD     NA14434   3.364   3.231  11.104  0.4524  0.4458 -0.3506
  952SOD     NA14435   2.586   4.377   1.877  0.0593  0.2784 -0.2806
  953SOD     NA14436   2.178   2.366   0.921 -0.1255 -0.2230 -0.1832
  954SOD     NA14437   1.844   1.984  11.988  0.1310  0.1910  0.4885
  955SOD     NA14438   1.469   3.986  13.151  0.6934 -0.1608  0.3116
  956SOD     NA14439   0.955   3.390  12.629 -0.1912 -0.1004  0.2815
  957SOD     NA14440   2.961   4.350   1.551  0.0323 -0.3858  0.0402
  958SOD     NA14441   4.074   4.499  10.003 -0.0302  0.4203 -0.0333
  959SOD     NA14442   1.364   3.154  14.612  0.6123  0.1496  0.1232
  960SOD     NA14443   3.741   1.735  14.181  0.6206  0.1046  0.4674
  961SOD     NA14444   2.786   4.679   5.881  0.0824  0.0203  0.4284
  962SOD     NA14445   4.027   1.414  11.122  0.4883  0.0208  0.2554
  963SOD     NA14446   0.143   1.536   2.627 -0.2691  0.1321  0.5166
  964SOD     NA14447   2.055   1.507   6.974 -0.7779  0.3610  0.3187
  965SOD     NA14448   2.275   4.243  14.540  0.3859 -0.6557 -0.0552
  966SOD     NA14449   2.972   0.329   8.005  0.3567  0.4150 -0.5064
  967SOD     NA14450   3.820   4.368  13.129  0.3229  0.2628  0.2160
  968SOD     NA14451   1.022   0.221  15.059  0.2808  0.4040  0.0278
  969SOD     NA14452   4.531   4.311  10.271  0.2477  0.0049 -0.2467
  970SOD     NA14453   3.134   1.950   2.593 -0.0450 -0.1046  0.1252
  971SOD     NA14454   0.144   3.740  12.118 -0.1545 -0.3022  0.0911
  972SOD     NA14455   4.056   1.034  14.913  0.2773 -0.5010 -0.2089
  973SOD     NA14456   1.458   0.537  11.094 -0.0980 -1.2019 -0.0753
  974SOD     NA14457   4.119   4.222   9.953 -0.3070  0.0790  0.1595
  975SOD     NA14458   2.181   4.353   0.466 -0.0715 -0.1785 -0.9752
  976SOD     NA14459   0.629   0.442  14.251 -0.1466 -0.1301 -0.3485
  977SOD     NA14460   3.432   0.000  12.201  0.1133 -0.1655  0.0796
  978SOD     NA14461   2.800   0.014   0.756  0.0884 -0.5620  0.1790
  979SOD     NA14462   3.815   3.013  10.723  0.1762  0.3056 -0.1661
  980SOD     NA14463   1.338   0.227  15.699 -0.0283 -0.2200  0.6075
  981SOD     NA14464   1.963   3.806   4.454  0.0291  0.1076 -0.0091
  982SOD     NA14465   4.265   0.614   9.787 -0.7362 -0.3738  0.1288
  983SOD     NA14466   3.892   1.528  10.618 -0.0525 -0.0216 -0.5791
  984SOD     NA14467   3.029   2.967  16.771 -0.0273  0.0742 -0.4621
  985SOD     NA14468   0.334   2.919  11.266  0.2684  0.0285  0.3695
  986SOD     NA14469   0.894   4.588  14.533 -0.2018 -0.1883 -0.0805
  987SOD     NA14470   3.071   1.161  12.779 -0.0511  0.2660 -0.4242
  988SOD     NA14471   1.991   0.938  14.730 -0.4076  0.5703  0.1765
  989SOD     NA14472   3.656   3.197  10.955  0.0092 -0.2721 -0.5989
  990SOD     NA14473   3.106   1.414   2.480 -0.1213 -0.5714  0.1183
  991SOD     NA14474   3.324   1.706   2.508 -0.3013 -0.2511 -0.1380
  992SOD     NA14475   3.528   3.688  15.273 -0.2069  0.3867  0.1605
  993SOD     NA14476   1.201   4.616  14.643  0.4472 -0.3694 -0.3623
  994SOD     NA14477   4.698   0.832   0.814  0.0647  0.1922  0.1276
  995SOD     NA14478   1.622   2.947   2.666  0.1046  0.1275 -0.3856
  996SOD     NA14479   4.504   4.361  13.585  0.3912 -0.0573  0.2822
  997SOD     NA14480   0.023   2.482  15.491 -0.6931  0.0023 -0.1797
  998SOD     NA14481   1.702   4.354  12.516 -0.4980 -0.0405 -0.0827
  999SOD     NA14482   4.339   2.081   1.150  0.3421 -0.2769 -0.4436
 1000SOD     NA14483   0.400   4.467  11.353 -0.0836 -0.0010  0.4164
 1001SOD     NA14484   2.526   1.152  13.074 -0.0154  1.0260  0.4869
 1002SOD     NA14485   3.429   2.977  10.851  0.0691 -0.2434 -0.4991
 1003SOD     NA14486   3.884   1.544   2.695 -0.1647 -0.1787 -0.3700
 1004SOD     NA14487   4.397   2.028   3.978  0.1840 -0.3032  0.3712
 1005SOD     NA14488   3.331   3.776  15.539 -0.5567 -0.1729 -0.0988
 1006SOD     NA14489   3.186   0.167  10.359  0.1199 -0.8348 -0.0783
 1007SOD     NA14490   0.372   4.179  11.469  0.1110 -0.5188  0.1372
 1008SOD     NA14491   3.673   3.843   9.060  0.3524 -0.0096  0.3475
 1009SOD     NA14492   4.158   1.408   8.414 -0.2443 -0.2719  0.3332
 1010SOD     NA14493   0.093   0.739   9.349  0.0398  0.4002 -0.1296
 1011SOL     OW14494   4.201   1.986   1.296  0.0235  0.6951 -0.7515
 1011SOL    HW114495   4.115   1.999   1.336  0.7839 -0.0365  1.1547
 1011SOL    HW214496   4.210   1.892   1.314 -0.8087  1.0545  1.6270
 1012SOL     OW14497   3.005   0.617   6.888  0.0649  0.3577 -0.2306
 1012SOL    HW114498   2.965   0.698   6.858  0.3529  0.6404  0.1467
 1012SOL    HW214499   3.043   0.644   6.971 -2.0638 -1.3969  1.3151
 1013SOL     OW14500   3.815   2.677  13.153  0.9805  0.0039 -0.0373
 1013SOL    HW114501   3.880   2.649  13.089 -0.6141 -2.6060 -0.4987
 1013SOL    HW214502   3.883   2.711  13.211  1.3432 -2.0158  0.6979
 1014SOL     OW14503   2.505   2.044   7.198 -0.3051  0.7005 -0.1150
 1014SOL    HW114504   2.551   1.969   7.162  1.6118  1.3554  0.9664
 1014SOL    HW214505   2.580   2.099   7.220  1.5769 -0.5833 -3.4069
 1015SOL     OW14506   2.878   2.026   4.765  0.0856  0.2792 -0.1812
 1015SOL    HW114507   2.916   2.060   4.846 -0.2854 -0.2016  0.1940
 1015SOL    HW214508   2.901   1.934   4.752  1.1217  0.6127 -0.6853
 1016SOL     OW14509   2.282   1.817   8.669 -0.7205  0.5204 -0.4649
 1016SOL    HW114510   2.354   1.846   8.613 -0.3300  1.6099  0.5943
 1016SOL    HW214511   2.331   1.813   8.751 -3.0867 -2.8023  0.7850
 1017SOL     OW14512   2.256   2.486  14.196 -0.0986  0.1199  0.2579
 1017SOL    HW114513   2.233   2.578  14.186  1.1179  0.2145 -1.6770
 1017SOL    HW214514   2.312   2.470  14.120 -0.4393 -1.1071  0.2644
 1018SOL     OW14515   0.639   4.343   6.505 -0.0160 -0.1750 -0.1604
 1018SOL    HW114516   0.587   4.264   6.488 -1.3993  0.5265  0.9178
 1018SOL    HW214517   0.685   4.333   6.588  0.6846 -0.0972 -0.5342
 1019SOL     OW14518   3.025   3.506   1.485  0.2597  0.6108 -0.4372
 1019SOL    HW114519   2.934   3.486   1.506 -0.0478 -1.4463 -3.6819
 1019SOL    HW214520   3.010   3.542   1.398  1.8877 -1.3775 -1.5540
 1020SOL     OW14521   1.475   3.666   4.869 -0.1469  0.3163  0.2214
 1020SOL    HW114522   1.461   3.756   4.840 -1.8271  0.1077  0.3784
 1020SOL    HW214523   1.530   3.691   4.943 -1.8518  4.7491  0.0038
 1021SOL     OW14524   0.504   0.019  13.170 -0.0411 -0.0005  0.6308
 1021SOL    HW114525   0.579   4.721  13.226  0.0038 -1.2997  0.0500
 1021SOL    HW214526   0.508   0.110  13.199  0.7160  0.5757 -1.2451
 1022SOL     OW14527   1.920   4.544  12.255 -0.2482 -0.9287  0.0910
 1022SOL    HW114528   1.902   4.538  12.161  1.0285 -1.9801 -0.0895
 1022SOL    HW214529   2.016   4.549  12.256 -0.4384  3.0066 -1.4133
 1023SOL     OW14530   2.572   2.854  15.198  0.3827  0.2708 -0.4489
 1023SOL    HW114531   2.487   2.840  15.158  0.0251 -0.7069  0.6690
 1023SOL    HW214532   2.575   2.942  15.237  0.4195  0.2808 -0.4738
 1024SOL     OW14533   0.842   1.412   4.424  0.3738 -0.7930  0.0370
 1024SOL    HW114534   0.775   1.475   4.398 -1.0114 -1.7516  1.2855
 1024SOL    HW214535   0.800   1.368   4.498  2.2911 -0.2687  1.4692
 1025SOL     OW14536   2.423   0.988   3.252  0.6227  0.0103  0.3107
 1025SOL    HW114537   2.342   1.000   3.203  0.0755  0.5258  1.3378
 1025SOL    HW214538   2.436   1.075   3.289  1.0461  0.3288 -0.6121
 1026SOL     OW14539   0.976   1.232  11.353  0.5682  0.6674  0.0988
 1026SOL    HW114540   1.003   1.164  11.413 -1.0671  0.2827  0.3888
 1026SOL    HW214541   1.055   1.283  11.333  1.1347 -1.0791 -2.1420
 1027SOL     OW14542   3.355   2.832   7.375 -0.0574 -0.2905 -0.4482
 1027SOL    HW114543   3.450   2.836   7.362  0.2320  1.0954  2.0200
 1027SOL    HW214544   3.335   2.808   7.465 -0.6382  1.6480 -0.0464
 1028SOL     OW14545   3.010   2.322   6.942 -0.3807  0.0874  0.2242
 1028SOL    HW114546   2.924   2.363   6.935 -0.0298  1.1159  1.9236
 1028SOL    HW214547   3.059   2.383   6.998 -0.1496  1.5454 -1.5783
 1029SOL     OW14548   3.290   1.782   3.273 -0.1791  0.3377  0.4193
 1029SOL    HW114549   3.290   1.802   3.180 -0.0633  0.3963  0.4317
 1029SOL    HW214550   3.202   1.808   3.299  0.6985  3.4778  0.3181
 1030SOL     OW14551   3.323   3.086  11.284  0.1863 -0.3948  0.3925
 1030SOL    HW114552   3.271   3.042  11.351 -0.1675  0.7749  0.9017
 1030SOL    HW214553   3.408   3.066  11.324  1.6990  1.3197 -1.9634
 1031SOL     OW14554   0.687   1.759   4.192  0.7316  0.6676  0.6117
 1031SOL    HW114555   0.664   1.848   4.220  1.4138  0.8425  0.5962
 1031SOL    HW214556   0.660   1.700   4.262 -1.8051 -0.1860 -1.0846
 1032SOL     OW14557   1.163   0.510   6.772  0.1838 -1.1691 -0.0606
 1032SOL    HW114558   1.132   0.594   6.738  1.1103 -0.8604 -0.1501
 1032SOL    HW214559   1.193   0.473   6.689 -0.4583 -1.6646 -0.0679
 1033SOL     OW14560   2.085   3.321   4.074 -0.0452  0.1144  0.7369
 1033SOL    HW114561   2.127   3.403   4.050  0.7274 -1.0985 -2.0602
 1033SOL    HW214562   2.085   3.281   3.987  1.4816  1.8816 -0.0691
 1034SOL     OW14563   2.718   3.919   9.414  0.0367  0.5198  0.0616
 1034SOL    HW114564   2.730   4.014   9.413  0.4360  0.4663 -0.9585
 1034SOL    HW214565   2.709   3.898   9.321  1.7417  0.8919 -0.1964
 1035SOL     OW14566   1.486   1.540   9.273 -0.1089  0.1576  0.7513
 1035SOL    HW114567   1.422   1.493   9.326  0.2457 -1.2576 -0.0739
 1035SOL    HW214568   1.447   1.522   9.188 -1.3159  0.0902  1.3286
 1036SOL     OW14569   3.052   1.495  12.118 -0.0186 -0.0509 -0.1682
 1036SOL    HW114570   3.100   1.458  12.193  0.3966 -0.8859 -0.8561
 1036SOL    HW214571   2.972   1.445  12.128 -1.3392  2.2869  1.0490
 1037SOL     OW14572   2.823   1.912   4.061 -0.3145  0.2618  0.0678
 1037SOL    HW114573   2.833   1.891   3.968 -1.0153 -0.0695  0.0664
 1037SOL    HW214574   2.786   1.831   4.096  1.5332 -0.3998  0.4679
 1038SOL     OW14575   4.225   1.912   2.074  0.2505  0.2645 -0.1318
 1038SOL    HW114576   4.173   1.963   2.012 -0.0383 -2.3969 -2.0985
 1038SOL    HW214577   4.193   1.944   2.158 -1.4600 -0.8774 -0.3333
 1039SOL     OW14578   4.120   3.979   4.755 -0.0425 -0.5052 -0.5298
 1039SOL    HW114579   4.158   3.998   4.669 -0.0300 -1.8853 -0.8246
 1039SOL    HW214580   4.162   3.896   4.776  0.3397 -0.4714 -1.1742
 1040SOL     OW14581   0.522   1.121  10.085 -0.0608  0.4399 -0.5033
 1040SOL    HW114582   0.458   1.185  10.115  1.6092  0.3859  3.2308
 1040SOL    HW214583   0.606   1.167  10.081 -0.4459  1.1022 -1.0582
 1041SOL     OW14584   0.182   0.550   8.756 -0.1274  0.2535  0.7095
 1041SOL    HW114585   0.114   0.601   8.712  0.7846 -0.3965 -1.4521
 1041SOL    HW214586   0.209   0.506   8.675 -0.8602  1.6292 -0.2710
 1042SOL     OW14587   1.793   1.712   4.049 -0.2526  0.3507  0.4880
 1042SOL    HW114588   1.876   1.760   4.054 -0.7246  1.1120  1.0375
 1042SOL    HW214589   1.746   1.763   4.115 -1.1654  0.5868 -0.3438
 1043SOL     OW14590   2.040   4.371   6.756 -0.8442 -0.3129  0.4186
 1043SOL    HW114591   2.075   4.365   6.668 -2.4006 -0.3480 -0.1982
 1043SOL    HW214592   1.991   4.289   6.767  0.7113 -1.2368  0.4563
 1044SOL     OW14593   0.227   3.515  13.812  0.5314  0.1427 -0.6416
 1044SOL    HW114594   0.247   3.541  13.902 -1.8762 -0.0354 -0.0618
 1044SOL    HW214595   0.148   3.568  13.802  0.1828 -0.1913  0.3262
 1045SOL     OW14596   4.458   0.493   5.373 -0.3804 -0.0329  0.3842
 1045SOL    HW114597   4.431   0.421   5.430  3.4855 -0.4330  1.7063
 1045SOL    HW214598   4.410   0.469   5.294 -0.4913  0.6765  0.2318
 1046SOL     OW14599   4.335   2.439   8.543  0.4948 -0.3235 -0.1315
 1046SOL    HW114600   4.245   2.468   8.528 -0.2777 -1.7084  1.8761
 1046SOL    HW214601   4.324   2.344   8.553  3.2391 -0.4683  1.4696
 1047SOL     OW14602   2.810   2.575   1.415 -0.2523 -0.0348  0.3735
 1047SOL    HW114603   2.831   2.630   1.490 -0.6648 -1.2996  1.4174
 1047SOL    HW214604   2.768   2.499   1.456  0.8508  0.2665  2.0589
 1048SOL     OW14605   1.887   2.030   2.922  0.5436  0.3856  0.1390
 1048SOL    HW114606   1.882   2.104   2.982  1.1885 -0.0884  0.7821
 1048SOL    HW214607   1.795   2.006   2.918  0.7685 -0.3070 -0.9256
 1049SOL     OW14608   3.787   2.058   3.651  0.3693  0.2633  0.1316
 1049SOL    HW114609   3.854   2.123   3.675 -1.4142  1.9645  0.5294
 1049SOL    HW214610   3.803   2.059   3.556 -1.7146  1.2027 -0.2103
 1050SOL     OW14611   0.320   0.329   6.658 -0.2785 -0.7486  0.2164
 1050SOL    HW114612   0.247   0.276   6.626 -0.5156  0.3543 -1.0852
 1050SOL    HW214613   0.364   0.334   6.573  0.2874  0.3002  0.5694
 1051SOL     OW14614   1.232   4.257  13.202  0.3496  0.2058  0.1184
 1051SOL    HW114615   1.317   4.245  13.158  0.0919  0.1479 -0.3706
 1051SOL    HW214616   1.219   4.168  13.233  0.5363 -0.3680 -1.4348
 1052SOL     OW14617   1.793   3.392   6.232  0.5759 -0.1586  0.3029
 1052SOL    HW114618   1.751   3.376   6.316 -1.3293 -1.0805 -0.8264
 1052SOL    HW214619   1.727   3.444   6.187  0.6518  0.4209  0.8712
 1053SOL     OW14620   3.966   1.969  13.772  0.3313 -0.7289 -0.9437
 1053SOL    HW114621   3.928   2.023  13.703 -0.7147 -0.2542  0.0164
 1053SOL    HW214622   3.970   2.033  13.842 -1.2297  0.9720 -2.4075
 1054SOL     OW14623   0.137   0.227   1.935  0.2453  0.2298 -0.6887
 1054SOL    HW114624   0.103   0.222   2.024 -1.6915 -0.3356 -1.4636
 1054SOL    HW214625   0.106   0.315   1.913  1.0113  0.2560 -1.6612
 1055SOL     OW14626   0.136   4.016  11.846  0.2481 -0.1887 -0.0174
 1055SOL    HW114627   0.223   4.039  11.813  0.3423 -1.9202 -0.9469
 1055SOL    HW214628   0.142   4.019  11.941 -0.5342  0.1953  0.0196
 1056SOL     OW14629   2.715   3.844   5.521  0.0933  0.0083 -0.3463
 1056SOL    HW114630   2.809   3.825   5.524 -0.4346 -2.3153  2.0512
 1056SOL    HW214631   2.678   3.764   5.559  0.2910 -0.5843 -1.3973
 1057SOL     OW14632   3.144   4.649   4.694 -0.5632  0.3808  0.1147
 1057SOL    HW114633   3.235   4.642   4.724 -0.8186 -0.2913  0.7468
 1057SOL    HW214634   3.096   4.593   4.755  0.3843  0.8505  1.3041
 1058SOL     OW14635   1.993   3.318  10.825  1.1922 -0.5067  0.0212
 1058SOL    HW114636   1.985   3.284  10.736 -4.8424  0.4847  0.1468
 1058SOL    HW214637   1.951   3.404  10.820  1.6163 -0.3569 -0.8107
 1059SOL     OW14638   0.290   1.390   3.068  0.7116  0.4054  0.1681
 1059SOL    HW114639   0.266   1.329   3.139 -0.1771 -0.8520 -1.2070
 1059SOL    HW214640   0.383   1.401   3.088  1.1047  0.1659 -1.5890
 1060SOL     OW14641   4.674   1.406   3.333  0.6971  0.3719 -0.2744
 1060SOL    HW114642   4.711   1.452   3.258  0.8993  0.3940 -0.1612
 1060SOL    HW214643   4.605   1.466   3.362  0.0946 -0.6189  0.3514
 1061SOL     OW14644   0.141   0.363   1.510 -0.0902  0.3938 -0.2203
 1061SOL    HW114645   0.150   0.383   1.417 -1.4902 -0.6622 -0.5900
 1061SOL    HW214646   0.202   0.420   1.556  0.9718  0.3366 -1.5637
 1062SOL     OW14647   3.164   0.893  14.067  0.0651 -0.1601  0.7097
 1062SOL    HW114648   3.126   0.835  14.133  0.4646 -0.1611  0.9420
 1062SOL    HW214649   3.128   0.980  14.085 -0.7226 -0.4090  0.3126
 1063SOL     OW14650   4.312   1.275   8.551  0.3833 -0.3094  0.5989
 1063SOL    HW114651   4.390   1.310   8.508 -0.7443  1.0525 -0.3649
 1063SOL    HW214652   4.317   1.288   8.646  1.6686  0.7269  0.3867
 1064SOL     OW14653   2.529   3.999   3.400 -0.4857  0.0267 -0.2219
 1064SOL    HW114654   2.591   3.958   3.339 -0.2845  0.3881 -0.2610
 1064SOL    HW214655   2.577   3.991   3.482  1.0031  4.4163 -0.6914
 1065SOL     OW14656   4.682   3.746  11.400 -0.0096 -0.0665 -0.4807
 1065SOL    HW114657   4.695   3.801  11.478 -1.1349 -0.5623  0.0605
 1065SOL    HW214658   0.051   3.732  11.388  0.0203 -0.4240  0.1440
 1066SOL     OW14659   2.906   0.446   9.270  0.0128  0.0428 -0.1169
 1066SOL    HW114660   2.815   0.419   9.273 -0.1854  0.7245 -0.0193
 1066SOL    HW214661   2.912   0.475   9.178 -5.1073  0.7012 -0.2127
 1067SOL     OW14662   4.370   0.956  14.829 -0.4623  0.1582 -0.8917
 1067SOL    HW114663   4.330   1.037  14.862 -2.3438 -0.5915 -1.3698
 1067SOL    HW214664   4.402   0.989  14.745  0.6350 -0.2172 -0.6222
 1068SOL     OW14665   1.423   0.417   6.827 -0.3881 -0.3405 -0.2180
 1068SOL    HW114666   1.487   0.422   6.898 -0.2729  0.1538 -0.3517
 1068SOL    HW214667   1.343   0.442   6.873 -0.7089  0.3228 -1.1367
 1069SOL     OW14668   1.832   0.024   4.136  0.5893 -0.4963 -0.1474
 1069SOL    HW114669   1.876   0.067   4.063 -0.1294 -0.9987 -0.8733
 1069SOL    HW214670   1.902   4.703   4.182  0.3539 -1.1931 -0.4767
 1070SOL     OW14671   2.559   3.620   7.597 -0.3145 -0.9905 -0.2029
 1070SOL    HW114672   2.571   3.550   7.533  1.2088 -0.3488 -0.6325
 1070SOL    HW214673   2.627   3.590   7.657  0.7000  0.3854 -0.6700
 1071SOL     OW14674   2.179   0.072   6.195  0.3621 -0.3432 -0.6868
 1071SOL    HW114675   2.150   0.155   6.233 -1.1906 -1.5404  0.7711
 1071SOL    HW214676   2.265   0.054   6.233 -1.2559  0.7858  3.5126
 1072SOL     OW14677   1.503   3.670   6.362  0.3147  0.0076 -0.2270
 1072SOL    HW114678   1.568   3.658   6.293  0.5814 -1.4315  0.2722
 1072SOL    HW214679   1.426   3.699   6.313 -0.2052  0.3794  0.8024
 1073SOL     OW14680   2.978   4.053   7.537  0.3109 -0.5274 -0.3246
 1073SOL    HW114681   2.960   4.052   7.631 -2.0441 -1.1684 -0.8020
 1073SOL    HW214682   3.068   4.087   7.545  0.8379 -2.5537  2.3847
 1074SOL     OW14683   4.664   4.280   4.331  0.2228  0.3264  0.2109
 1074SOL    HW114684   4.682   4.223   4.406  0.0794  0.7842  0.5968
 1074SOL    HW214685   4.600   4.337   4.373  0.3204  1.0460 -0.6245
 1075SOL     OW14686   4.179   0.115   6.515  0.1822 -0.4669 -0.0945
 1075SOL    HW114687   4.155   0.155   6.431 -0.6525  0.6023  0.6530
 1075SOL    HW214688   4.141   0.180   6.574  2.4173  2.3014 -1.7253
 1076SOL     OW14689   1.172   2.598   5.109  0.2469  0.1296  0.2413
 1076SOL    HW114690   1.158   2.567   5.199  0.3263  2.2970  0.9889
 1076SOL    HW214691   1.238   2.538   5.073 -0.9749 -0.3297 -1.2261
 1077SOL     OW14692   0.916   1.470   5.185  0.3214  0.1866 -0.3476
 1077SOL    HW114693   1.010   1.459   5.176  0.3359 -0.1338  0.1719
 1077SOL    HW214694   0.895   1.490   5.094  2.7195  0.7199 -0.7929
 1078SOL     OW14695   1.472   2.048   9.346  0.3700  0.1332  0.0309
 1078SOL    HW114696   1.528   2.095   9.284  0.0321  0.7800  0.2116
 1078SOL    HW214697   1.534   1.975   9.354 -0.8026 -0.6749  1.8149
 1079SOL     OW14698   0.038   3.822   8.844  0.0436  0.8147 -0.1265
 1079SOL    HW114699   4.715   3.810   8.926  1.5249  2.7260  1.0252
 1079SOL    HW214700   4.718   3.759   8.788  0.1536  0.9926 -0.4200
 1080SOL     OW14701   3.114   1.641   8.159  0.7503 -0.2966 -0.3332
 1080SOL    HW114702   3.021   1.635   8.180  0.8398  1.2828  0.5021
 1080SOL    HW214703   3.161   1.600   8.232 -0.8234 -0.6765  0.4521
 1081SOL     OW14704   0.552   0.386  11.432 -0.2478  0.0142 -0.1819
 1081SOL    HW114705   0.459   0.382  11.456  0.0375 -1.1213  0.7770
 1081SOL    HW214706   0.542   0.360  11.340 -0.0953 -1.2067  0.1401
 1082SOL     OW14707   4.536   0.634  10.709  0.4678 -0.6070 -0.1678
 1082SOL    HW114708   4.533   0.568  10.640 -1.6795 -0.1277 -0.5122
 1082SOL    HW214709   4.448   0.670  10.718  1.2214  0.9965  0.9063
 1083SOL     OW14710   4.496   0.836   0.722 -0.4691 -0.4315 -0.0505
 1083SOL    HW114711   4.410   0.866   0.752 -0.5934 -0.7649 -0.0799
 1083SOL    HW214712   4.489   0.828   0.627  1.3704 -2.1599 -0.0463
 1084SOL     OW14713   0.193   0.490   5.900 -0.0197 -0.2796  0.8880
 1084SOL    HW114714   0.128   0.489   5.969 -0.5387 -2.0136  0.3836
 1084SOL    HW214715   0.200   0.399   5.870  0.0143  1.3129 -3.9695
 1085SOL     OW14716   0.489   2.349   6.163 -0.1601  0.2330  0.5122
 1085SOL    HW114717   0.404   2.392   6.160  0.1806  0.8878  0.0556
 1085SOL    HW214718   0.544   2.418   6.201 -0.7002  0.1448  1.4384
 1086SOL     OW14719   1.579   2.801   2.499 -0.2120  0.0597  0.2588
 1086SOL    HW114720   1.622   2.716   2.498 -1.4743 -0.5779 -0.8266
 1086SOL    HW214721   1.556   2.820   2.408 -0.8366 -1.3269  0.1153
 1087SOL     OW14722   3.953   1.996  12.316 -0.0925 -0.0410 -0.1532
 1087SOL    HW114723   4.036   1.955  12.291  1.0429  0.8658  2.1605
 1087SOL    HW214724   3.975   2.085  12.290  1.8746  0.1562  2.1752
 1088SOL     OW14725   0.686   0.501   0.725 -0.3401  0.3292  0.2267
 1088SOL    HW114726   0.759   0.558   0.699  1.2143 -2.1233 -0.7396
 1088SOL    HW214727   0.716   0.446   0.797 -0.4224 -0.8630 -0.6496
 1089SOL     OW14728   2.106   1.344  17.529  0.3598 -0.4993  0.0419
 1089SOL    HW114729   2.136   1.309  17.445 -0.1244  1.7595 -1.0556
 1089SOL    HW214730   2.043   1.273  17.547 -1.2511  0.0862 -3.1461
 1090SOL     OW14731   0.103   1.587   0.919 -0.1211  0.0611  0.6840
 1090SOL    HW114732   0.076   1.672   0.884  0.2100 -0.4760 -0.8505
 1090SOL    HW214733   0.149   1.558   0.841 -3.0375  1.5297 -1.5878
 1091SOL     OW14734   3.018   2.919   7.381  0.0340 -0.3629 -0.4034
 1091SOL    HW114735   2.960   2.941   7.308 -0.4757 -1.4482 -0.3311
 1091SOL    HW214736   3.105   2.924   7.340  0.3655  0.1556  0.3637
 1092SOL     OW14737   4.126   0.350   7.283 -0.4895  0.6309  0.2949
 1092SOL    HW114738   4.181   0.299   7.343 -0.7884 -3.4896 -2.9508
 1092SOL    HW214739   4.044   0.341   7.332  0.0756 -1.0321  0.9309
 1093SOL     OW14740   0.343   4.707   5.254  0.2618 -0.1341  0.4031
 1093SOL    HW114741   0.414   0.022   5.202 -2.2238  2.2925 -1.1370
 1093SOL    HW214742   0.302   4.648   5.192 -1.2589 -0.0494  1.3317
 1094SOL     OW14743   4.418   1.202   2.372  0.3577 -0.3151 -0.8554
 1094SOL    HW114744   4.511   1.185   2.360  0.8127  1.1925  0.4892
 1094SOL    HW214745   4.401   1.271   2.308 -0.1956 -2.1543 -2.6725
 1095SOL     OW14746   3.529   2.954   3.795  0.2027 -0.1906  0.1102
 1095SOL    HW114747   3.544   2.919   3.707  0.6595  0.0388  0.0987
 1095SOL    HW214748   3.601   3.017   3.792 -1.6314  1.8408 -1.0915
 1096SOL     OW14749   2.291   0.085   4.439  0.5166  0.1920  0.1232
 1096SOL    HW114750   2.338   0.085   4.522  0.1250 -4.3459  0.3188
 1096SOL    HW214751   2.274   0.180   4.432  0.9832  0.2257 -0.5526
 1097SOL     OW14752   0.575   2.346   2.379 -0.5752  0.8797  0.2940
 1097SOL    HW114753   0.636   2.302   2.320 -1.9167 -0.1380 -0.3427
 1097SOL    HW214754   0.600   2.320   2.468 -0.3448  0.4181  0.0967
 1098SOL     OW14755   0.901   2.243   8.971 -0.3598  0.6860 -0.0557
 1098SOL    HW114756   0.942   2.158   8.956 -1.6974 -0.2064  1.3563
 1098SOL    HW214757   0.863   2.227   9.057 -1.6086 -0.1658 -0.7642
 1099SOL     OW14758   0.696   2.859   4.986  0.0783  0.1605  0.3871
 1099SOL    HW114759   0.727   2.925   5.047 -0.0613  1.8866 -1.4003
 1099SOL    HW214760   0.767   2.796   4.985 -1.2083 -1.2843  0.1519
 1100SOL     OW14761   2.838   1.877   5.779 -0.5478  0.1830 -0.1037
 1100SOL    HW114762   2.774   1.822   5.825  1.3166  0.5894  2.9903
 1100SOL    HW214763   2.911   1.817   5.796  0.6578  1.6687 -0.1017
 1101SOL     OW14764   0.454   0.566   1.281 -0.3943  0.0857 -0.6130
 1101SOL    HW114765   0.424   0.645   1.326  0.8941  0.7055 -0.8251
 1101SOL    HW214766   0.460   0.505   1.354  0.9873  1.5651  0.5262
 1102SOL     OW14767   0.422   4.617   4.447 -0.2787  0.2154  0.0506
 1102SOL    HW114768   0.377   4.535   4.467 -1.9898  1.5827  1.8063
 1102SOL    HW214769   0.364   4.655   4.381  1.1216  2.6598  0.2213
 1103SOL     OW14770   3.317   0.678   8.474 -0.1812 -0.3744  0.1756
 1103SOL    HW114771   3.296   0.737   8.546  2.1623  0.7541 -0.0566
 1103SOL    HW214772   3.412   0.679   8.489 -0.1520  1.3808 -0.1760
 1104SOL     OW14773   0.676   3.999   5.378 -0.0478 -0.0694 -0.9212
 1104SOL    HW114774   0.766   3.975   5.355  0.0907  0.7455 -1.2078
 1104SOL    HW214775   0.685   4.006   5.473  2.8657  1.6030 -1.3161
 1105SOL     OW14776   3.869   0.048   0.822  0.0416 -0.8730 -0.5262
 1105SOL    HW114777   3.885   0.008   0.907 -1.0923  0.0670  0.1367
 1105SOL    HW214778   3.945   0.022   0.771  0.1960  0.6214 -1.0626
 1106SOL     OW14779   3.224   4.484  13.246 -0.5820  0.1038  0.1017
 1106SOL    HW114780   3.297   4.431  13.213 -0.9913 -1.4699  1.7117
 1106SOL    HW214781   3.233   4.562  13.192  1.5429 -0.4092 -0.2866
 1107SOL     OW14782   1.025   3.495   1.074 -0.1412  0.1637 -1.0246
 1107SOL    HW114783   0.978   3.454   1.146 -0.5993  0.3296 -1.2296
 1107SOL    HW214784   0.980   3.579   1.077 -1.5944 -0.6772  0.5182
 1108SOL     OW14785   0.828   0.527   3.432 -0.1282  0.6292 -0.3092
 1108SOL    HW114786   0.788   0.506   3.516  1.4948  1.5543  0.6989
 1108SOL    HW214787   0.761   0.488   3.375  2.0102 -0.6262 -1.9928
 1109SOL     OW14788   0.641   0.893  10.324  0.0674  0.2022 -0.2631
 1109SOL    HW114789   0.596   0.817  10.361 -0.3189  0.4801 -0.1694
 1109SOL    HW214790   0.575   0.934  10.269 -0.3229  1.0494  0.8280
 1110SOL     OW14791   4.452   0.867   7.389  0.2127 -0.5446 -0.4059
 1110SOL    HW114792   4.413   0.898   7.471 -0.0544  1.4135 -1.2601
 1110SOL    HW214793   4.499   0.950   7.375  0.1007 -0.2043  1.2264
 1111SOL     OW14794   2.883   0.992  13.468 -0.3965 -0.6069  0.3937
 1111SOL    HW114795   2.801   0.950  13.495 -1.4662  1.6585  0.7273
 1111SOL    HW214796   2.876   1.076  13.514  0.0489 -0.3942  0.0751
 1112SOL     OW14797   0.612   1.643   1.261 -0.1462 -0.2886 -0.2056
 1112SOL    HW114798   0.701   1.609   1.249  0.0179 -1.1473  3.3224
 1112SOL    HW214799   0.561   1.585   1.204 -1.9016 -0.9565  2.0549
 1113SOL     OW14800   3.556   4.260  16.875  0.5730  0.5439 -0.2414
 1113SOL    HW114801   3.526   4.243  16.965  1.4421  0.5333  0.0460
 1113SOL    HW214802   3.514   4.346  16.867  0.5028  0.3924 -1.4488
 1114SOL     OW14803   3.545   3.499   7.905 -0.2549  0.4331  0.4349
 1114SOL    HW114804   3.511   3.434   7.966  1.3201  0.5174  1.4042
 1114SOL    HW214805   3.602   3.441   7.856 -1.3879  1.2150 -1.7795
 1115SOL     OW14806   4.091   3.193   2.409 -0.2950  0.2327  0.6516
 1115SOL    HW114807   4.052   3.115   2.369 -0.9951  0.2927  1.2280
 1115SOL    HW214808   4.144   3.230   2.338 -1.7173  0.6947 -0.1692
 1116SOL     OW14809   0.713   2.149  15.226 -0.0486  0.4033 -0.1832
 1116SOL    HW114810   0.718   2.075  15.165  1.2929  1.3641 -1.2350
 1116SOL    HW214811   0.804   2.136  15.254  0.3355 -0.0924 -1.6558
 1117SOL     OW14812   3.858   4.589   4.858 -0.0429 -0.2575 -0.2147
 1117SOL    HW114813   3.921   4.661   4.853  1.7994 -1.8005  0.2902
 1117SOL    HW214814   3.874   4.557   4.947 -0.4179 -0.4803 -0.2277
 1118SOL     OW14815   4.448   1.434  12.300 -0.2827 -0.3847  0.4958
 1118SOL    HW114816   4.415   1.477  12.379  0.6246 -0.6498  1.0239
 1118SOL    HW214817   4.517   1.495  12.273 -0.6293 -0.8503 -1.3691
 1119SOL     OW14818   1.113   4.194   5.429  0.4882  0.1301 -0.3028
 1119SOL    HW114819   1.184   4.235   5.478  0.3503  0.2569 -0.2077
 1119SOL    HW214820   1.058   4.273   5.424 -2.4907 -1.8564  1.3775
 1120SOL     OW14821   3.554   2.587   4.077 -0.3957 -0.2100  0.0913
 1120SOL    HW114822   3.649   2.585   4.086 -0.3616  0.4350 -0.1493
 1120SOL    HW214823   3.531   2.679   4.064  0.3519 -0.3922 -2.6240
 1121SOL     OW14824   2.867   3.338   5.754 -0.2192  0.1626 -0.3058
 1121SOL    HW114825   2.937   3.326   5.690 -0.0581 -0.5192 -0.0015
 1121SOL    HW214826   2.807   3.270   5.722  0.7207 -0.9811  0.3952
 1122SOL     OW14827   3.237   2.455  13.296  0.3562 -0.1541  0.1206
 1122SOL    HW114828   3.250   2.364  13.325 -1.2666 -0.3141  0.3130
 1122SOL    HW214829   3.245   2.450  13.201 -0.8145 -1.7750  0.1185
 1123SOL     OW14830   0.428   2.110   4.176  0.0036 -0.0456 -0.5938
 1123SOL    HW114831   0.469   2.190   4.145 -0.7542  1.0636  1.2555
 1123SOL    HW214832   0.343   2.118   4.133 -0.7796  1.7777  1.2764
 1124SOL     OW14833   2.969   2.557   2.165 -0.0781  0.3554  0.2945
 1124SOL    HW114834   3.017   2.482   2.131 -1.1883  0.2465 -1.0626
 1124SOL    HW214835   3.027   2.628   2.138 -0.5704 -0.1827 -2.2274
 1125SOL     OW14836   2.410   1.350   3.708  0.2147 -0.1894  0.4723
 1125SOL    HW114837   2.457   1.273   3.676  1.0704  0.7511 -0.5908
 1125SOL    HW214838   2.486   1.406   3.727 -1.1217  1.7184  0.1886
 1126SOL     OW14839   0.878   4.304  16.663 -0.2926 -0.0258 -0.2466
 1126SOL    HW114840   0.945   4.240  16.686 -1.4816 -1.1021  0.1960
 1126SOL    HW214841   0.887   4.321  16.569 -1.3279 -1.7140 -0.6393
 1127SOL     OW14842   1.258   0.664  16.812  0.4248 -0.3456 -0.4145
 1127SOL    HW114843   1.228   0.586  16.766 -2.5816  0.3032  0.4680
 1127SOL    HW214844   1.208   0.733  16.770 -0.6327 -1.2394 -0.6309
 1128SOL     OW14845   3.285   1.278  11.123  0.4606  0.2982 -0.1909
 1128SOL    HW114846   3.340   1.203  11.104  1.4556  0.7452  0.8928
 1128SOL    HW214847   3.350   1.346  11.106  0.6188 -0.4595 -2.5185
 1129SOL     OW14848   2.499   1.905  11.059  0.0275  0.3786  0.6001
 1129SOL    HW114849   2.528   1.831  11.113 -1.3221  0.4336  1.3954
 1129SOL    HW214850   2.444   1.955  11.119 -0.1482  0.4793  0.3579
 1130SOL     OW14851   3.375   1.366  17.653 -0.6295 -0.3197  0.0563
 1130SOL    HW114852   3.304   1.312  17.619  1.0709 -0.5750 -3.0756
 1130SOL    HW214853   3.330   1.442  17.690  1.1955 -0.0811  1.8016
 1131SOL     OW14854   2.603   4.516   4.150  0.5482  0.3781  0.3213
 1131SOL    HW114855   2.643   4.599   4.123 -1.6471  0.8032 -1.6813
 1131SOL    HW214856   2.514   4.536   4.179 -0.0560 -1.8506 -0.0211
 1132SOL     OW14857   1.321   4.132   1.564 -0.1427  0.0526 -0.6652
 1132SOL    HW114858   1.241   4.162   1.606 -1.1795 -1.7582 -1.3349
 1132SOL    HW214859   1.380   4.140   1.639  0.5783 -0.1307 -1.2113
 1133SOL     OW14860   2.307   1.048   5.772  0.0663  0.2119  0.2975
 1133SOL    HW114861   2.394   1.051   5.732 -0.9513 -1.3156 -2.0324
 1133SOL    HW214862   2.320   0.986   5.843  1.1301 -0.7925 -0.7797
 1134SOL     OW14863   3.285   1.888  14.918  0.1026 -0.5872 -0.2188
 1134SOL    HW114864   3.376   1.919  14.915  0.5347 -1.6718  1.5138
 1134SOL    HW214865   3.293   1.824  14.848 -1.0421 -0.6317 -0.3048
 1135SOL     OW14866   0.387   0.958   1.717  0.6090 -0.0053  0.7646
 1135SOL    HW114867   0.325   0.889   1.738 -2.0626  2.4043  0.8025
 1135SOL    HW214868   0.320   1.026   1.718  0.7888  0.2022 -1.9526
 1136SOL     OW14869   2.422   3.200   6.482 -0.1073  0.4362 -0.1046
 1136SOL    HW114870   2.432   3.295   6.485 -2.4460  0.6785 -0.2800
 1136SOL    HW214871   2.330   3.214   6.459 -0.0358 -1.1793 -1.3704
 1137SOL     OW14872   4.337   4.640  14.587  0.4494 -0.0389 -0.3942
 1137SOL    HW114873   4.319   4.603  14.500  0.2553  1.2235 -0.8980
 1137SOL    HW214874   4.291   4.724  14.584  2.8925  1.4171  2.7783
 1138SOL     OW14875   2.582   2.584   8.200 -0.1511  0.6474  0.5303
 1138SOL    HW114876   2.626   2.576   8.115 -3.5210  0.8486 -1.2173
 1138SOL    HW214877   2.642   2.640   8.250  1.8626 -1.6534  0.6798
 1139SOL     OW14878   0.105   4.040   3.761 -0.1739 -0.4160 -0.3526
 1139SOL    HW114879   0.178   4.005   3.813 -0.2284  0.7985  0.5408
 1139SOL    HW214880   0.152   4.098   3.701 -0.5923  1.2690  0.9456
 1140SOL     OW14881   0.380   4.101   2.994 -0.1472  0.0635  0.9168
 1140SOL    HW114882   0.369   4.013   2.960  0.7587  0.7454 -1.1809
 1140SOL    HW214883   0.433   4.086   3.072  1.3242 -0.9018 -0.2718
 1141SOL     OW14884   4.417   3.833   5.935 -0.4896  0.3035  0.1874
 1141SOL    HW114885   4.451   3.830   6.024 -0.6409 -0.2836  0.2226
 1141SOL    HW214886   4.346   3.898   5.937 -1.6891 -1.0717  1.9713
 1142SOL     OW14887   4.702   3.171   6.529 -0.2479  0.5642 -0.1005
 1142SOL    HW114888   4.685   3.109   6.599  0.8736  0.1419 -0.1989
 1142SOL    HW214889   4.675   3.257   6.560 -1.2396  0.4404 -0.6126
 1143SOL     OW14890   1.794   2.647  13.444  0.2645  0.3943  0.3505
 1143SOL    HW114891   1.706   2.651  13.483  1.2899  2.3525  2.4455
 1143SOL    HW214892   1.777   2.637  13.351  4.1639  1.4088 -0.4667
 1144SOL     OW14893   1.589   4.091  13.599  0.0524  0.7604 -0.2313
 1144SOL    HW114894   1.663   4.141  13.565  1.6108 -1.3269  0.0487
 1144SOL    HW214895   1.603   4.113  13.691  0.6991 -1.5088  0.2241
 1145SOL     OW14896   3.576   1.661  13.838  0.7094  0.3770 -0.3303
 1145SOL    HW114897   3.615   1.735  13.791  1.0587  0.8947  0.7916
 1145SOL    HW214898   3.613   1.584  13.793  0.6729  0.1167  0.0888
 1146SOL     OW14899   0.566   2.753  11.751  0.1229 -0.2306 -0.0485
 1146SOL    HW114900   0.640   2.747  11.812  1.4013  0.0138 -1.5804
 1146SOL    HW214901   0.620   2.731  11.675  0.9030  0.8650  0.1795
 1147SOL     OW14902   3.423   2.795   5.497 -0.0368 -0.1528  0.6731
 1147SOL    HW114903   3.503   2.812   5.547  2.1747 -0.6862 -2.7348
 1147SOL    HW214904   3.430   2.710   5.455 -0.5276  0.3721 -0.4885
 1148SOL     OW14905   0.672   2.387  13.423  0.2977 -0.4210  0.1665
 1148SOL    HW114906   0.676   2.293  13.404  1.0108 -0.4893  0.6375
 1148SOL    HW214907   0.617   2.420  13.352 -0.1371 -0.2689  0.5760
 1149SOL     OW14908   4.565   3.167   5.133 -0.1926 -0.1152 -0.3553
 1149SOL    HW114909   4.651   3.209   5.139 -0.7469  0.8832  0.6290
 1149SOL    HW214910   4.598   3.077   5.130 -0.1590 -0.0438 -2.5094
 1150SOL     OW14911   1.254   4.706   3.718  0.0380  0.2765 -0.0832
 1150SOL    HW114912   1.165   4.696   3.752 -0.8863 -0.5001 -2.6893
 1150SOL    HW214913   1.294   0.018   3.797 -0.3186 -0.4366  0.4254
 1151SOL     OW14914   0.877   2.735  12.212  0.2748  0.1758 -0.5527
 1151SOL    HW114915   0.836   2.703  12.132 -1.2276 -1.7215  0.9820
 1151SOL    HW214916   0.811   2.741  12.281  1.1665  0.3176  0.2842
 1152SOL     OW14917   0.446   4.450   4.717  0.6823  0.1894 -0.1430
 1152SOL    HW114918   0.500   4.527   4.736  0.5474  0.2215  0.1132
 1152SOL    HW214919   0.409   4.438   4.804 -0.7297  1.9486 -0.4894
 1153SOL     OW14920   0.816   1.482  11.556 -0.0824 -0.2065 -0.2082
 1153SOL    HW114921   0.742   1.421  11.560  0.0934 -0.3479  0.8772
 1153SOL    HW214922   0.892   1.433  11.587 -1.4143 -2.1167  0.0542
 1154SOL     OW14923   4.008   0.191   8.786  0.7884 -0.5386  0.2252
 1154SOL    HW114924   3.943   0.134   8.745 -0.5671 -0.0008  1.6381
 1154SOL    HW214925   3.953   0.253   8.834  1.5007  0.5099 -0.3024
 1155SOL     OW14926   4.491   0.886   0.173  0.3496  0.4514  0.5579
 1155SOL    HW114927   4.479   0.963   0.119  0.0515 -0.3718 -0.5421
 1155SOL    HW214928   4.586   0.882   0.189  0.5802  2.1009 -0.5206
 1156SOL     OW14929   0.990   3.971   4.989 -0.5424 -0.2321  0.3226
 1156SOL    HW114930   1.025   3.994   4.903 -1.3094 -0.6707 -0.1008
 1156SOL    HW214931   1.020   4.039   5.049  1.3873 -0.0611 -0.8357
 1157SOL     OW14932   2.597   0.179   1.704  0.5859 -0.2231 -0.6792
 1157SOL    HW114933   2.676   0.227   1.728 -0.8829  2.7726 -1.8766
 1157SOL    HW214934   2.536   0.201   1.775  2.4552 -1.3015  1.2601
 1158SOL     OW14935   4.476   3.727   7.465 -0.1694  0.6113 -0.0101
 1158SOL    HW114936   4.448   3.746   7.554 -0.5689  0.3119 -0.0734
 1158SOL    HW214937   4.571   3.729   7.476 -0.2408 -1.5486  0.8936
 1159SOL     OW14938   0.870   2.990   8.126  0.6628  0.1211 -0.3383
 1159SOL    HW114939   0.787   2.976   8.081  0.2332  0.5804  0.3210
 1159SOL    HW214940   0.859   3.005   8.220  0.3830 -2.0216 -0.0109
 1160SOL     OW14941   4.152   3.008   7.259  0.3285  0.0351 -0.1087
 1160SOL    HW114942   4.075   2.960   7.288 -0.0196  0.5403 -0.2080
 1160SOL    HW214943   4.203   2.941   7.212  0.2152 -0.3818  0.3603
 1161SOL     OW14944   3.965   1.405  17.303 -0.5808 -0.3542  0.1186
 1161SOL    HW114945   3.920   1.488  17.316  2.6105  1.1457  1.5777
 1161SOL    HW214946   3.979   1.384  17.395  0.1887 -1.4312 -0.2384
 1162SOL     OW14947   2.746   4.335   9.181 -0.0368  0.0541 -0.4285
 1162SOL    HW114948   2.810   4.362   9.115  1.1605  1.3808  1.2966
 1162SOL    HW214949   2.781   4.277   9.249 -2.0617 -0.6042  0.0460
 1163SOL     OW14950   3.562   4.006   6.811  0.3114 -0.1357  0.5647
 1163SOL    HW114951   3.636   4.040   6.861 -1.3057  1.4740  1.8711
 1163SOL    HW214952   3.536   4.089   6.771 -0.9286 -0.5585  0.4887
 1164SOL     OW14953   0.784   2.856  12.580 -0.2735 -0.4036  0.7037
 1164SOL    HW114954   0.699   2.834  12.543 -1.1254  1.4565  1.5485
 1164SOL    HW214955   0.815   2.911  12.508 -0.2100 -1.4464 -0.0605
 1165SOL     OW14956   3.957   3.947   0.409  0.4741 -0.1625  0.1236
 1165SOL    HW114957   3.996   4.022   0.364  1.5807  0.0561  1.4432
 1165SOL    HW214958   3.990   3.953   0.498 -3.1801 -0.5867  1.4954
 1166SOL     OW14959   1.047   2.941  11.656 -0.5328 -0.1701  0.4428
 1166SOL    HW114960   1.050   3.034  11.634 -2.3825  0.0389  1.0883
 1166SOL    HW214961   0.976   2.916  11.597 -0.0448 -0.2384 -0.1207
 1167SOL     OW14962   4.271   2.601   0.498 -0.1854  0.3566 -0.3411
 1167SOL    HW114963   4.322   2.525   0.468  0.5664  2.1803 -3.6082
 1167SOL    HW214964   4.301   2.668   0.437  0.3187  0.1256 -0.3540
 1168SOL     OW14965   3.217   4.333   1.532  0.0976  0.4665 -0.4707
 1168SOL    HW114966   3.296   4.302   1.576 -0.1818  0.8978  0.3244
 1168SOL    HW214967   3.242   4.304   1.444 -0.4865 -1.2471 -0.0693
 1169SOL     OW14968   3.665   2.418  16.391  0.4644 -0.2536  0.2745
 1169SOL    HW114969   3.725   2.349  16.364  2.5908  2.1561 -1.1786
 1169SOL    HW214970   3.606   2.370  16.450 -3.0998  0.9098 -2.3163
 1170SOL     OW14971   0.199   0.928   4.447 -0.5545  0.0909  0.0554
 1170SOL    HW114972   0.213   0.871   4.522 -0.0524  0.4485  0.2384
 1170SOL    HW214973   0.132   0.990   4.475  0.9325  1.5015  0.5271
 1171SOL     OW14974   4.157   1.338  17.132  0.8686  0.0291  0.1547
 1171SOL    HW114975   4.074   1.362  17.173  0.6281  0.1261 -0.3953
 1171SOL    HW214976   4.173   1.246  17.156 -1.9307 -0.4382  0.1624
 1172SOL     OW14977   3.096   4.631   8.955 -0.2148  0.1764  0.0440
 1172SOL    HW114978   3.015   4.587   8.980 -0.4234 -0.4229 -1.6663
 1172SOL    HW214979   3.088   4.722   8.984  0.6670  0.6070 -1.0301
 1173SOL     OW14980   4.493   3.014   7.611  0.1782 -0.3065  0.4622
 1173SOL    HW114981   4.463   3.104   7.596  0.8482 -0.3480 -1.1747
 1173SOL    HW214982   4.512   2.979   7.524  0.7997 -0.8646  0.8199
 1174SOL     OW14983   3.893   4.475   0.556  1.0504  0.6510 -0.4351
 1174SOL    HW114984   3.928   4.561   0.582  0.7595  0.0323  2.0089
 1174SOL    HW214985   3.896   4.429   0.640  1.4619  1.4361 -0.0141
 1175SOL     OW14986   3.193   1.998   4.003 -0.0239  0.8142  0.1399
 1175SOL    HW114987   3.154   2.026   4.086 -1.8320 -1.7281  0.1289
 1175SOL    HW214988   3.207   1.904   4.011 -0.2991  0.9047  1.5853
 1176SOL     OW14989   1.457   1.077  15.254 -0.4861 -0.2787  0.0344
 1176SOL    HW114990   1.393   1.015  15.290 -0.0952 -1.0929 -0.6766
 1176SOL    HW214991   1.496   1.032  15.179 -0.5461 -0.5581  0.1738
 1177SOL     OW14992   1.246   1.782  13.491 -1.0404  0.3021  0.1217
 1177SOL    HW114993   1.334   1.789  13.456 -1.2081 -0.2940 -0.4143
 1177SOL    HW214994   1.214   1.865  13.453 -0.4264  0.3588 -0.2730
 1178SOL     OW14995   1.310   2.559  15.519  0.0437 -0.5469  0.2434
 1178SOL    HW114996   1.292   2.646  15.556  0.9477 -0.5345  0.6461
 1178SOL    HW214997   1.269   2.572  15.433  0.3640 -0.3253  0.1234
 1179SOL     OW14998   0.360   3.636   1.290 -0.8719  0.3966  0.7412
 1179SOL    HW114999   0.369   3.546   1.320 -0.0725  0.8830  1.9673
 1179SOL    HW215000   0.266   3.650   1.279 -0.9663 -0.7812  0.1579
 1180SOL     OW15001   2.772   1.531   2.303  0.0920  0.2164 -0.3410
 1180SOL    HW115002   2.749   1.608   2.252 -2.9523  0.9674  2.1526
 1180SOL    HW215003   2.860   1.554   2.333  0.9110 -2.1321 -0.9829
 1181SOL     OW15004   0.944   0.042   8.165 -0.5970 -0.8858 -0.2375
 1181SOL    HW115005   1.038   0.048   8.185 -0.7130 -1.7693  0.6126
 1181SOL    HW215006   0.929   0.110   8.100  0.5084 -0.2338  0.1776
 1182SOL     OW15007   4.655   1.712   3.278  0.2650 -0.3529  0.5869
 1182SOL    HW115008   4.564   1.681   3.271  0.0611  0.1312  1.1163
 1182SOL    HW215009   4.639   1.806   3.284 -0.0886 -0.1065 -3.6983
 1183SOL     OW15010   0.958   3.377  13.612  0.0687 -0.2343 -0.4461
 1183SOL    HW115011   1.025   3.445  13.615  1.3171 -1.4093 -1.6480
 1183SOL    HW215012   0.950   3.355  13.704 -0.2137  0.1200 -0.3826
 1184SOL     OW15013   1.458   0.123   2.408  0.1255  0.3821  0.3198
 1184SOL    HW115014   1.515   0.072   2.465 -0.6705  0.6927  1.3924
 1184SOL    HW215015   1.372   0.085   2.428  0.2072 -0.5249 -1.0122
 1185SOL     OW15016   1.550   1.444  16.300  0.0065  0.6166  0.0190
 1185SOL    HW115017   1.473   1.445  16.243 -1.3172  0.0009  1.8133
 1185SOL    HW215018   1.570   1.532  16.329 -1.9322  0.5678  1.4607
 1186SOL     OW15019   2.500   0.761   8.478  0.2124  0.2920  0.8389
 1186SOL    HW115020   2.573   0.731   8.532 -1.5800 -2.2607  1.8742
 1186SOL    HW215021   2.505   0.856   8.481  1.2750  0.1741  2.5351
 1187SOL     OW15022   0.910   0.377   6.701 -0.4425 -0.1172  0.1465
 1187SOL    HW115023   0.956   0.428   6.767 -2.7302 -0.1264  1.7503
 1187SOL    HW215024   0.982   0.336   6.654 -0.6936  0.6142 -0.8837
 1188SOL     OW15025   0.709   0.057   0.849 -0.0669  0.0156 -0.2120
 1188SOL    HW115026   0.760   4.700   0.846  0.0268 -0.0008  1.6830
 1188SOL    HW215027   0.728   0.093   0.936  1.1123  0.8647 -0.8335
 1189SOL     OW15028   4.377   4.638   7.351  0.5659  0.4265  0.8867
 1189SOL    HW115029   4.295   4.588   7.345  1.2380 -0.1418 -3.7511
 1189SOL    HW215030   4.376   4.664   7.443  0.0752 -1.2406  1.3483
 1190SOL     OW15031   3.016   0.456   5.526  0.3766 -0.5267 -0.4885
 1190SOL    HW115032   3.023   0.432   5.434  1.9966 -1.5118 -0.1110
 1190SOL    HW215033   2.922   0.472   5.536  0.5383  0.1400 -0.0173
 1191SOL     OW15034   0.925   3.497  11.721 -0.3842  0.0857  0.3562
 1191SOL    HW115035   1.020   3.494  11.734 -0.2439 -1.1510 -0.9228
 1191SOL    HW215036   0.929   3.498  11.625  1.1768  1.8750  0.4466
 1192SOL     OW15037   2.278   4.116  10.663 -0.3673  0.3075  0.3974
 1192SOL    HW115038   2.288   4.171  10.741  0.9583  1.1292 -0.3447
 1192SOL    HW215039   2.270   4.035  10.712 -0.8215 -0.3804 -0.8183
 1193SOL     OW15040   2.706   4.141   3.653 -0.2381 -0.1323 -0.5310
 1193SOL    HW115041   2.760   4.200   3.601  1.0444 -1.3218 -0.5706
 1193SOL    HW215042   2.619   4.171   3.627 -0.7381  0.5693  1.9995
 1194SOL     OW15043   2.170   4.641   7.259 -0.4113  0.2356  0.3664
 1194SOL    HW115044   2.212   4.647   7.345 -0.6555 -0.7829  0.5526
 1194SOL    HW215045   2.227   4.697   7.206 -1.0833 -0.5285 -1.1342
 1195SOL     OW15046   2.649   2.594  13.795  0.1594  0.0679  0.2289
 1195SOL    HW115047   2.660   2.648  13.717  0.7263  2.8861  2.2777
 1195SOL    HW215048   2.606   2.649  13.860 -1.0051 -1.4447  0.7420
 1196SOL     OW15049   3.242   4.319   8.695 -0.0962 -0.0508  0.1717
 1196SOL    HW115050   3.254   4.362   8.779 -0.7065  1.5980 -0.5876
 1196SOL    HW215051   3.148   4.308   8.686  0.0960 -0.4417 -1.4237
 1197SOL     OW15052   0.200   1.636   6.110  0.2228 -0.1751 -0.0498
 1197SOL    HW115053   0.285   1.655   6.071  1.1342 -1.0342  1.5003
 1197SOL    HW215054   0.158   1.721   6.100 -0.7653 -0.6856 -0.2787
 1198SOL     OW15055   0.125   0.315   9.551 -0.3400  0.8108 -0.4334
 1198SOL    HW115056   0.063   0.355   9.613  0.9342 -0.9761  1.9898
 1198SOL    HW215057   0.095   0.224   9.549 -3.2368  1.8040 -2.5424
 1199SOL     OW15058   3.298   2.079   4.372  0.2019 -0.0278  0.5025
 1199SOL    HW115059   3.209   2.058   4.347  0.7622  0.6285 -1.9822
 1199SOL    HW215060   3.268   2.154   4.423 -0.3120 -0.2089  0.4684
 1200SOL     OW15061   3.224   3.194   9.745  0.5349  0.2361  0.0102
 1200SOL    HW115062   3.130   3.215   9.744  0.0133 -2.0928  0.5591
 1200SOL    HW215063   3.228   3.108   9.787  1.2546 -1.0998 -2.8579
 1201SOL     OW15064   4.630   1.396   1.125 -0.0833 -0.0002  0.5730
 1201SOL    HW115065   4.717   1.434   1.142  0.8984 -1.0707 -2.0913
 1201SOL    HW215066   4.651   1.303   1.134  2.3199  0.3598 -1.1501
 1202SOL     OW15067   2.069   1.066   1.405  0.2994  0.2966 -1.0165
 1202SOL    HW115068   2.064   1.062   1.501 -1.9422 -0.7893 -1.1728
 1202SOL    HW215069   2.102   0.979   1.385  3.2008  0.9741  0.7505
 1203SOL     OW15070   4.446   1.376  13.818 -0.3197  0.1666  0.0930
 1203SOL    HW115071   4.378   1.395  13.883  0.8307 -1.2199  1.7141
 1203SOL    HW215072   4.495   1.314  13.873 -0.5824  1.1551  1.4452
 1204SOL     OW15073   2.471   4.632  14.302 -0.1568  0.5215 -0.4311
 1204SOL    HW115074   2.479   4.695  14.231  0.4588  0.1366 -0.7018
 1204SOL    HW215075   2.500   4.692  14.371  0.5098  0.4932 -0.6797
 1205SOL     OW15076   2.264   0.944   5.087 -0.3203  0.3457 -0.6493
 1205SOL    HW115077   2.282   1.034   5.115  1.0165  0.1626 -0.8850
 1205SOL    HW215078   2.349   0.901   5.093  0.2917  1.4244 -1.4115
 1206SOL     OW15079   1.004   2.535  11.655 -0.0817  0.3305  0.0585
 1206SOL    HW115080   1.041   2.587  11.726 -0.5509  2.5347 -1.3198
 1206SOL    HW215081   1.058   2.553  11.577 -1.7695  0.3992 -1.0844
 1207SOL     OW15082   0.284   3.301   3.488 -0.3262  0.5247  0.3121
 1207SOL    HW115083   0.333   3.229   3.448  0.5260  1.0667  0.3793
 1207SOL    HW215084   0.320   3.373   3.436  0.0825  0.1971  0.1435
 1208SOL     OW15085   2.016   4.452   7.584 -0.1732  0.1453  0.0046
 1208SOL    HW115086   1.949   4.432   7.649 -0.7056 -0.5907 -0.7775
 1208SOL    HW215087   2.005   4.386   7.516  1.0377  0.5975 -0.6259
 1209SOL     OW15088   1.913   1.433  16.204 -0.2959 -0.3503 -0.1546
 1209SOL    HW115089   2.001   1.413  16.173  0.3436  1.0281  0.7644
 1209SOL    HW215090   1.926   1.522  16.238 -1.1831 -0.4631  0.4987
 1210SOL     OW15091   2.933   1.639   2.632  0.4035  0.3827 -1.1594
 1210SOL    HW115092   2.954   1.729   2.657  0.0755  0.1698 -0.1150
 1210SOL    HW215093   2.969   1.631   2.544 -2.6381  0.1886 -2.3499
 1211SOL     OW15094   0.596   1.468   6.801  0.3192  0.1440 -0.1128
 1211SOL    HW115095   0.662   1.474   6.732  1.2565 -0.7039  0.7108
 1211SOL    HW215096   0.522   1.522   6.772 -0.3790 -0.8500 -0.1900
 1212SOL     OW15097   1.406   2.571   7.634  0.6982 -0.3707 -0.3037
 1212SOL    HW115098   1.451   2.575   7.718 -1.9553 -0.1438  1.1008
 1212SOL    HW215099   1.355   2.652   7.638  2.8335  0.8616  1.7769
 1213SOL     OW15100   0.595   1.793   6.687  0.2424 -0.4228  0.0880
 1213SOL    HW115101   0.691   1.790   6.690  0.1265 -1.1456  3.1643
 1213SOL    HW215102   0.582   1.727   6.619  0.6835 -0.8722  0.4457
 1214SOL     OW15103   0.221   0.422  11.024 -0.0992  0.2510  0.4614
 1214SOL    HW115104   0.148   0.438  10.963  1.1281  3.7181 -0.1171
 1214SOL    HW215105   0.167   0.434  11.102  1.4261  0.0510  1.5399
 1215SOL     OW15106   1.017   1.931   4.178 -0.0128  0.2476 -0.5564
 1215SOL    HW115107   0.977   1.859   4.131  1.0383 -0.5805 -0.1794
 1215SOL    HW215108   0.947   1.972   4.228  0.9487  3.7227 -1.9945
 1216SOL     OW15109   3.090   1.766   5.158 -0.3517 -0.6968 -0.4272
 1216SOL    HW115110   3.112   1.804   5.072  1.1350 -0.6505 -0.0313
 1216SOL    HW215111   3.174   1.730   5.187  0.0664 -0.1358 -0.9376
 1217SOL     OW15112   2.177   0.855   3.431 -0.1234  0.5092 -0.2613
 1217SOL    HW115113   2.210   0.932   3.477  1.1486  0.0426 -0.3707
 1217SOL    HW215114   2.124   0.905   3.369  0.1609  1.1698  0.0340
 1218SOL     OW15115   2.169   3.166  10.949  0.0815  0.5664 -0.0339
 1218SOL    HW115116   2.244   3.179  10.891  0.1172 -0.4202 -0.2002
 1218SOL    HW215117   2.105   3.232  10.921  0.8366  0.6071 -1.6436
 1219SOL     OW15118   3.671   0.783   7.548  0.7997  0.2371  0.3016
 1219SOL    HW115119   3.613   0.808   7.476  0.6488  0.8931  0.6563
 1219SOL    HW215120   3.718   0.718   7.495 -0.2277  0.2704 -0.6398
 1220SOL     OW15121   0.461   0.572  14.200  0.3668 -0.2555 -0.0519
 1220SOL    HW115122   0.366   0.577  14.194  0.4213 -1.3045 -1.8034
 1220SOL    HW215123   0.489   0.660  14.176 -1.0329  0.6937  1.8228
 1221SOL     OW15124   2.712   4.173  12.319 -0.4215  0.1971 -0.3563
 1221SOL    HW115125   2.775   4.216  12.262 -1.4256 -1.0448 -2.3971
 1221SOL    HW215126   2.738   4.081  12.311  2.6135  1.0326 -0.0249
 1222SOL     OW15127   3.480   3.392   4.800 -0.4633 -0.5072 -0.6603
 1222SOL    HW115128   3.548   3.392   4.867 -0.9784  0.7319 -0.1347
 1222SOL    HW215129   3.429   3.473   4.808  0.2629 -0.1562  0.4459
 1223SOL     OW15130   0.750   1.422  14.851  0.6224  0.0235  0.6027
 1223SOL    HW115131   0.728   1.472  14.772  0.9020  0.8482  1.0401
 1223SOL    HW215132   0.835   1.385  14.830  1.9303  2.0396  2.2279
 1224SOL     OW15133   0.149   0.370   7.224 -0.5609 -0.3345  0.7821
 1224SOL    HW115134   0.093   0.446   7.238 -2.7711 -1.5925 -1.2016
 1224SOL    HW215135   0.148   0.352   7.130  0.6091  0.5695  0.5976
 1225SOL     OW15136   2.987   4.338   1.787  0.1115 -0.2819 -0.5012
 1225SOL    HW115137   2.961   4.247   1.802  0.2805 -0.4933 -1.4568
 1225SOL    HW215138   3.048   4.353   1.859  0.2159  1.2251 -0.8946
 1226SOL     OW15139   1.441   3.395   6.577  0.7552  0.0118  0.2792
 1226SOL    HW115140   1.454   3.357   6.664  0.2144  0.2971  0.4842
 1226SOL    HW215141   1.368   3.454   6.595  0.6312 -0.2666  0.6903
 1227SOL     OW15142   4.495   0.607   9.870  0.4190 -0.4103 -0.3804
 1227SOL    HW115143   4.493   0.585   9.963 -0.5240  1.1552 -0.0362
 1227SOL    HW215144   4.506   0.702   9.875  0.0824 -0.4203  0.7124
 1228SOL     OW15145   1.651   1.921   9.642  0.1156  0.3139 -0.6540
 1228SOL    HW115146   1.642   1.890   9.732 -0.1639 -0.4086 -0.9300
 1228SOL    HW215147   1.680   1.842   9.596 -0.7330 -0.9916  1.0317
 1229SOL     OW15148   2.721   1.825  13.157  0.2037  0.6808 -0.0216
 1229SOL    HW115149   2.791   1.883  13.126 -0.8390  1.9241 -0.0297
 1229SOL    HW215150   2.697   1.792  13.071 -0.5951  0.5470  0.2588
 1230SOL     OW15151   3.716   1.393  17.051  0.6540 -0.6331  0.0663
 1230SOL    HW115152   3.686   1.383  16.961 -0.2728 -2.4943  0.5906
 1230SOL    HW215153   3.809   1.394  17.031  0.4454  1.6617 -0.8577
 1231SOL     OW15154   3.779   2.853  14.777 -0.1306  0.0096 -0.0620
 1231SOL    HW115155   3.795   2.893  14.692  2.0717  1.6730  1.1294
 1231SOL    HW215156   3.872   2.857  14.801 -0.6451 -0.9569  2.1371
 1232SOL     OW15157   4.446   3.987   2.848 -0.1729  0.2701  0.3025
 1232SOL    HW115158   4.491   4.043   2.911  0.1074 -1.7703  1.9209
 1232SOL    HW215159   4.431   4.046   2.774 -1.1444 -0.2719  0.0749
 1233SOL     OW15160   4.075   0.968  15.911 -0.9854 -0.3207  0.5284
 1233SOL    HW115161   4.136   0.993  15.980  0.7990 -0.1914 -1.1000
 1233SOL    HW215162   4.013   1.041  15.906 -0.6338 -0.1523 -1.4168
 1234SOL     OW15163   4.674   4.188  15.623 -0.3802  0.0910  0.5400
 1234SOL    HW115164   4.615   4.152  15.556 -1.8554  1.4463  1.1184
 1234SOL    HW215165   4.615   4.233  15.683 -0.5703  1.1482 -0.4605
 1235SOL     OW15166   2.148   0.824   4.818 -0.0042 -0.6678  0.5503
 1235SOL    HW115167   2.185   0.835   4.905 -1.6451 -1.6851  1.3802
 1235SOL    HW215168   2.074   0.885   4.821  1.0050  0.5469  0.4998
 1236SOL     OW15169   3.154   2.052   3.748 -0.0460 -0.1983 -0.2204
 1236SOL    HW115170   3.113   2.138   3.744  3.0923  1.4150  1.9362
 1236SOL    HW215171   3.164   2.041   3.843  1.8181  3.3627 -0.0161
 1237SOL     OW15172   3.995   1.040   1.000  0.0086 -0.0127  0.0320
 1237SOL    HW115173   3.934   1.063   0.929 -1.0830 -1.2321  0.5921
 1237SOL    HW215174   3.956   0.959   1.032  0.3950  0.5819  2.0110
 1238SOL     OW15175   1.917   2.262   8.115 -0.8098  0.0330 -0.0964
 1238SOL    HW115176   1.899   2.349   8.078  0.2738  0.2315 -0.1585
 1238SOL    HW215177   1.831   2.233   8.144  0.2440 -0.1359  2.8363
 1239SOL     OW15178   4.663   0.555   7.716  0.5401  0.5360 -0.4323
 1239SOL    HW115179   0.015   0.566   7.661 -0.4695  0.3182 -1.8734
 1239SOL    HW215180   4.595   0.548   7.649  0.4230 -0.0124 -0.2596
 1240SOL     OW15181   4.049   4.434   0.040  0.0590 -0.3425 -0.0268
 1240SOL    HW115182   4.041   4.425   0.135 -2.0921  0.0705 -0.1770
 1240SOL    HW215183   3.972   4.488   0.024 -0.8444 -2.2029 -2.1037
 1241SOL     OW15184   3.400   4.446   5.287  0.1902 -0.2687 -0.0566
 1241SOL    HW115185   3.443   4.425   5.204  0.8439  0.6167  0.0644
 1241SOL    HW215186   3.311   4.448   5.252 -0.7284  1.7602  2.4098
 1242SOL     OW15187   4.046   0.488   1.315  0.0436  0.5672  0.3704
 1242SOL    HW115188   4.004   0.429   1.252  1.5743  0.6631 -0.7380
 1242SOL    HW215189   4.017   0.466   1.403  0.7033  0.9881  0.6936
 1243SOL     OW15190   0.636   3.956   3.093  0.5431  0.3516  0.6996
 1243SOL    HW115191   0.554   3.946   3.143  0.6075  0.8363  0.8986
 1243SOL    HW215192   0.672   3.872   3.122 -1.8795 -0.7542  0.5760
 1244SOL     OW15193   0.181   3.228   4.731 -0.1612 -0.0354 -0.3295
 1244SOL    HW115194   0.239   3.253   4.803  1.6298  0.5786 -2.0075
 1244SOL    HW215195   0.157   3.316   4.702  0.1598  0.3459  0.5371
 1245SOL     OW15196   0.532   1.016  12.142  0.5414  0.4164  0.4284
 1245SOL    HW115197   0.568   1.026  12.230  1.2981  0.2876  0.1365
 1245SOL    HW215198   0.501   0.928  12.161 -1.1295  0.9048  0.0152
 1246SOL     OW15199   4.275   3.124   4.941  0.0453 -0.0582  0.1920
 1246SOL    HW115200   4.313   3.088   4.861 -0.3369  2.5068 -1.1563
 1246SOL    HW215201   4.209   3.057   4.958 -0.9810  0.7329 -0.6549
 1247SOL     OW15202   0.744   0.697   2.838  0.2184 -0.2842 -0.5401
 1247SOL    HW115203   0.688   0.676   2.763  0.5838 -0.4947 -0.7571
 1247SOL    HW215204   0.811   0.631   2.821 -2.1469 -3.1593  1.3049
 1248SOL     OW15205   2.811   1.536   5.673 -0.4235  0.3066  0.2866
 1248SOL    HW115206   2.894   1.501   5.641 -0.2369  0.0777  1.0153
 1248SOL    HW215207   2.831   1.517   5.765  1.1357  0.7303  0.0228
 1249SOL     OW15208   3.731   3.864   7.154  0.0816 -0.0589 -0.1936
 1249SOL    HW115209   3.638   3.871   7.176 -0.0815 -1.7878 -0.2864
 1249SOL    HW215210   3.744   3.781   7.200  0.8054 -1.3358 -2.6827
 1250SOL     OW15211   4.364   1.683   9.757  0.6056  0.0721  0.0811
 1250SOL    HW115212   4.272   1.706   9.765  0.7285 -0.2754  2.4520
 1250SOL    HW215213   4.407   1.765   9.783 -0.8835  0.7016  0.5941
 1251SOL     OW15214   3.949   0.540  14.983  0.7158 -0.2389 -0.3899
 1251SOL    HW115215   4.002   0.465  15.008  1.7407  0.6238 -0.0164
 1251SOL    HW215216   3.882   0.484  14.942 -1.1207  1.0428  0.8447
 1252SOL     OW15217   4.433   0.169   6.985  1.1237  0.2505 -0.2311
 1252SOL    HW115218   4.435   0.160   7.081 -0.3468 -3.0631 -0.5103
 1252SOL    HW215219   4.451   0.263   6.985  0.0566  0.4494  2.4001
 1253SOL     OW15220   0.598   2.409   7.974  0.5056 -0.0603  0.4274
 1253SOL    HW115221   0.675   2.463   7.991  0.2463  0.7309 -0.9620
 1253SOL    HW215222   0.649   2.334   7.944 -1.1901 -0.4087 -1.5764
 1254SOL     OW15223   1.483   0.368   8.505  0.2965  0.4860  0.2622
 1254SOL    HW115224   1.431   0.446   8.485 -2.2191 -1.6460 -1.4085
 1254SOL    HW215225   1.571   0.406   8.494 -0.7923  2.7480 -0.6695
 1255SOL     OW15226   0.667   1.973   3.390  0.4330  0.2257 -0.6857
 1255SOL    HW115227   0.634   2.060   3.367  0.3649  0.4868  0.3997
 1255SOL    HW215228   0.589   1.919   3.379  0.5744 -0.0483 -0.3567
 1256SOL     OW15229   3.687   1.045   1.414  0.3727 -0.2221  0.2974
 1256SOL    HW115230   3.624   1.106   1.452 -0.3897  0.1002 -1.4689
 1256SOL    HW215231   3.644   0.962   1.434 -0.5297  0.2259  0.2032
 1257SOL     OW15232   0.394   4.383   1.307 -0.3945  0.3258  0.1664
 1257SOL    HW115233   0.448   4.308   1.329 -1.4165  0.2831  2.4789
 1257SOL    HW215234   0.371   4.418   1.392 -2.3411 -0.7379  0.0825
 1258SOL     OW15235   3.041   2.055   8.590 -0.1846 -0.3442  0.3897
 1258SOL    HW115236   2.978   2.076   8.659 -0.5345 -0.3231  0.0621
 1258SOL    HW215237   3.088   1.983   8.633  1.6776  0.5729 -0.1179
 1259SOL     OW15238   1.653   2.863   7.214 -0.6278  0.6741  0.1343
 1259SOL    HW115239   1.604   2.784   7.191  0.7077  0.3943 -1.7625
 1259SOL    HW215240   1.625   2.920   7.142 -0.2743 -0.0624 -0.5944
 1260SOL     OW15241   2.051   0.171   5.398  0.4837  0.2822 -0.5253
 1260SOL    HW115242   2.031   0.263   5.381  0.4759  0.2552 -0.6595
 1260SOL    HW215243   1.970   0.137   5.359  0.2040 -0.3126  0.5685
 1261SOL     OW15244   4.159   4.372   0.736 -0.6922 -0.3087 -0.2002
 1261SOL    HW115245   4.072   4.354   0.774 -0.2729 -0.6571  0.6020
 1261SOL    HW215246   4.140   4.452   0.687  0.5174 -0.0616 -0.2593
 1262SOL     OW15247   0.987   4.531   6.013  0.2727 -0.0744 -0.2577
 1262SOL    HW115248   1.038   4.452   5.996  1.6753  0.8569 -0.4154
 1262SOL    HW215249   0.947   4.556   5.929  0.0480  1.6113  0.3615
 1263SOL     OW15250   1.872   2.521   3.258 -0.2374  0.8647  0.3711
 1263SOL    HW115251   1.837   2.580   3.324 -0.9256  1.9115 -0.9225
 1263SOL    HW215252   1.964   2.516   3.283  0.1060 -0.6904 -1.1747
 1264SOL     OW15253   0.357   1.531  16.780 -0.0210 -0.2821 -0.0275
 1264SOL    HW115254   0.411   1.583  16.839 -1.5978  1.2381  0.0791
 1264SOL    HW215255   0.287   1.595  16.773 -1.3265 -1.6497  0.4861
 1265SOL     OW15256   2.042   4.103   1.426  0.6576  0.1684 -0.7918
 1265SOL    HW115257   2.020   4.010   1.426  1.5115 -0.0190  1.4911
 1265SOL    HW215258   2.055   4.110   1.520  2.3069 -2.2958 -0.8492
 1266SOL     OW15259   0.650   0.345   7.113  0.2160  0.7115  0.9076
 1266SOL    HW115260   0.635   0.297   7.031  0.7146  0.0796  1.1825
 1266SOL    HW215261   0.578   0.304   7.161  0.0956 -2.7914 -2.2382
 1267SOL     OW15262   3.215   1.572   2.678  0.0359 -1.2756 -0.4732
 1267SOL    HW115263   3.179   1.574   2.767  0.0104 -1.6863 -0.4738
 1267SOL    HW215264   3.292   1.516   2.687 -0.9159 -2.0721  2.7112
 1268SOL     OW15265   4.183   0.085   8.257 -0.3371  0.0614  0.1568
 1268SOL    HW115266   4.250   0.085   8.325  1.2159  2.8523 -1.3666
 1268SOL    HW215267   4.147   0.174   8.257  1.1191  0.6269 -2.8523
 1269SOL     OW15268   0.046   0.954   7.274  0.2211 -0.3543  0.4435
 1269SOL    HW115269   0.119   0.987   7.326 -1.9553  1.4843  2.3451
 1269SOL    HW215270   4.701   1.006   7.314  0.2539  0.2884 -0.3418
 1270SOL     OW15271   4.305   0.678   0.200  0.3445 -0.0669 -0.1618
 1270SOL    HW115272   4.360   0.748   0.234  0.0294 -1.2432  2.8205
 1270SOL    HW215273   4.373   0.611   0.189  0.6916  0.4354 -1.0416
 1271SOL     OW15274   0.665   4.342   3.579  0.4015 -0.3367  0.0977
 1271SOL    HW115275   0.716   4.411   3.537  1.0144 -0.7841  0.1197
 1271SOL    HW215276   0.650   4.289   3.501  0.5695 -1.4183  0.8053
 1272SOL     OW15277   4.063   1.332   6.894  0.3926  0.2046 -0.3758
 1272SOL    HW115278   4.059   1.295   6.982 -2.9902 -2.1264 -1.5095
 1272SOL    HW215279   4.105   1.263   6.843 -1.6827  0.2001 -2.0731
 1273SOL     OW15280   2.087   4.647   4.548  0.7794 -0.2328  0.1655
 1273SOL    HW115281   2.143   4.570   4.550 -0.3354 -1.0653 -0.5196
 1273SOL    HW215282   2.145   4.699   4.493 -1.5032  0.8772 -1.1951
 1274SOL     OW15283   4.051   1.585  10.765 -0.4418  0.0393  0.1307
 1274SOL    HW115284   4.043   1.637  10.845  0.8137  1.8171 -0.9023
 1274SOL    HW215285   4.114   1.638  10.717 -0.8505 -0.6625 -1.1950
 1275SOL     OW15286   3.598   3.636   3.692 -0.2636 -0.6260 -0.1152
 1275SOL    HW115287   3.541   3.671   3.760  1.6155 -1.6484  1.9537
 1275SOL    HW215288   3.558   3.665   3.610  2.4996 -2.9011 -2.2966
 1276SOL     OW15289   3.704   1.168   8.572  0.5399 -0.1102  0.5817
 1276SOL    HW115290   3.716   1.173   8.477  0.8180 -0.3598  0.6063
 1276SOL    HW215291   3.711   1.259   8.601  0.4693  0.1254 -0.1488
 1277SOL     OW15292   3.330   1.861   2.681  0.8241 -0.7247 -0.4859
 1277SOL    HW115293   3.402   1.921   2.699 -2.0752  2.6941 -0.3352
 1277SOL    HW215294   3.311   1.815   2.763 -2.2983  2.9433  0.8176
 1278SOL     OW15295   2.181   2.352   2.000  0.3630 -0.4470  0.7952
 1278SOL    HW115296   2.117   2.316   2.062 -0.6916 -0.5136 -0.3370
 1278SOL    HW215297   2.128   2.351   1.921  0.9841  0.7508  0.3678
 1279SOL     OW15298   0.802   4.243  13.747 -0.5048 -0.3060  0.2642
 1279SOL    HW115299   0.824   4.281  13.662  0.7633 -2.3388 -0.3144
 1279SOL    HW215300   0.719   4.199  13.731  0.3947 -1.5739 -0.9099
 1280SOL     OW15301   0.960   1.016   6.228  0.0105 -0.0315 -0.0689
 1280SOL    HW115302   1.002   0.945   6.180 -0.7144 -0.6650  0.2409
 1280SOL    HW215303   1.021   1.087   6.210  0.1089 -0.4934 -1.5407
 1281SOL     OW15304   2.974   4.291   8.699  0.1246  0.2442  0.5409
 1281SOL    HW115305   2.914   4.344   8.647  1.0129 -0.2356 -0.9595
 1281SOL    HW215306   2.952   4.200   8.684 -1.5538  0.9820 -1.4688
 1282SOL     OW15307   3.041   3.083   5.998  0.9593 -0.2814  0.9568
 1282SOL    HW115308   3.039   3.001   6.047  0.2347 -0.9431 -0.1856
 1282SOL    HW215309   3.053   3.049   5.909  0.9277 -1.3555  1.3562
 1283SOL     OW15310   2.448   1.029  12.892  0.0480  0.1413  0.1461
 1283SOL    HW115311   2.462   1.068  12.806  1.1831 -1.1693 -0.2733
 1283SOL    HW215312   2.354   1.017  12.904  0.2040 -1.9109 -0.6636
 1284SOL     OW15313   0.326   2.925   6.598  0.4109  0.0724 -0.0487
 1284SOL    HW115314   0.281   2.860   6.652  0.6322 -0.2665 -0.2769
 1284SOL    HW215315   0.377   2.870   6.538 -2.2885 -2.2303 -0.2362
 1285SOL     OW15316   3.799   3.110   6.459  0.0298  0.5273  0.1102
 1285SOL    HW115317   3.713   3.086   6.494  0.3897  0.0534  0.6504
 1285SOL    HW215318   3.849   3.114   6.540 -1.0550  1.8623  0.7192
 1286SOL     OW15319   0.181   0.333   3.767  0.2490  0.8434 -0.0088
 1286SOL    HW115320   0.249   0.280   3.808 -0.1011  1.1630  0.9861
 1286SOL    HW215321   0.137   0.282   3.699 -0.4099  1.9234 -0.3977
 1287SOL     OW15322   4.310   3.528   6.614  0.1818 -0.2617  0.0221
 1287SOL    HW115323   4.242   3.542   6.680 -0.6522 -0.3816 -0.8089
 1287SOL    HW215324   4.360   3.452   6.645 -0.4029 -0.2658  0.9763
 1288SOL     OW15325   1.990   3.430   6.499 -0.4388 -0.2122 -0.7690
 1288SOL    HW115326   2.004   3.368   6.570  1.2559  1.9450  0.8023
 1288SOL    HW215327   2.056   3.497   6.519  1.1454 -2.3426  1.1980
 1289SOL     OW15328   3.753   1.951  12.915  0.1567 -0.5648 -0.2469
 1289SOL    HW115329   3.792   1.921  12.833 -0.0502  0.2602 -0.6505
 1289SOL    HW215330   3.677   1.999  12.880  0.0702  0.0832  0.8360
 1290SOL     OW15331   0.206   1.656   2.794 -0.3842  0.2571  0.3747
 1290SOL    HW115332   0.281   1.658   2.854 -1.8346  0.8658  2.1963
 1290SOL    HW215333   0.144   1.702   2.852  0.1043  1.1066  0.2314
 1291SOL     OW15334   1.947   2.186   0.616 -0.1017 -0.1285 -0.3125
 1291SOL    HW115335   1.965   2.115   0.678 -0.1758  0.3259  0.2365
 1291SOL    HW215336   1.852   2.180   0.606 -0.1234 -0.5138  0.1287
 1292SOL     OW15337   2.622   3.895   8.214 -0.0390 -0.6337 -0.0542
 1292SOL    HW115338   2.669   3.816   8.188  0.2595 -0.9969  1.5615
 1292SOL    HW215339   2.694   3.953   8.189 -0.9036  0.3785 -0.1999
 1293SOL     OW15340   4.427   4.113   9.176 -0.5915  0.4932 -0.6917
 1293SOL    HW115341   4.404   4.190   9.228 -0.3802  0.3727 -0.4233
 1293SOL    HW215342   4.360   4.050   9.204 -2.1789  2.6929  0.5108
 1294SOL     OW15343   0.062   4.676   3.570  0.0478  0.0313 -0.0826
 1294SOL    HW115344   0.088   0.040   3.542  1.1026  0.2095  1.4907
 1294SOL    HW215345   4.702   4.706   3.604  0.9334  2.7814 -0.3107
 1295SOL     OW15346   4.289   4.425   9.868 -0.6192  0.6070 -0.2412
 1295SOL    HW115347   4.286   4.407   9.774  0.4982 -1.2791  0.1038
 1295SOL    HW215348   4.381   4.405   9.884 -0.7587 -0.9878 -1.4660
 1296SOL     OW15349   1.798   1.492   4.240  0.1653 -0.8031  0.3476
 1296SOL    HW115350   1.875   1.448   4.279 -0.6055 -0.0482  2.7236
 1296SOL    HW215351   1.830   1.575   4.206  1.0415 -1.0291  0.6046
 1297SOL     OW15352   0.389   3.096   4.023  0.3679  0.1853  0.6232
 1297SOL    HW115353   0.472   3.129   3.990  0.2245  0.3468  0.4173
 1297SOL    HW215354   0.339   3.176   4.042  2.9602  1.9760 -0.2242
 1298SOL     OW15355   0.381   1.927   1.355  0.6159  0.1001 -0.0057
 1298SOL    HW115356   0.289   1.932   1.381  0.4837 -0.0427 -0.4418
 1298SOL    HW215357   0.369   1.886   1.270 -0.5568  0.0834  0.1625
 1299SOL     OW15358   3.778   2.900   1.978  0.0874  0.4583 -0.5365
 1299SOL    HW115359   3.870   2.927   1.980 -0.1729  1.3977 -1.5979
 1299SOL    HW215360   3.734   2.983   1.962 -0.9470 -0.3105 -1.6804
 1300SOL     OW15361   3.807   2.770   6.163 -0.3607 -0.0856 -0.3893
 1300SOL    HW115362   3.883   2.778   6.220 -0.3279 -0.2723 -0.4070
 1300SOL    HW215363   3.786   2.678   6.172 -1.6541  0.3854  1.3728
 1301SOL     OW15364   3.906   2.234  12.214 -0.3669 -0.4702 -0.0256
 1301SOL    HW115365   3.896   2.299  12.144 -0.2442 -0.5886 -0.1522
 1301SOL    HW215366   3.874   2.289  12.286 -0.6863  2.1360 -2.1299
 1302SOL     OW15367   0.470   4.247   3.788  0.4814 -0.0665  0.0799
 1302SOL    HW115368   0.500   4.322   3.841 -1.0009  0.2523  0.4611
 1302SOL    HW215369   0.535   4.248   3.718  1.5145  0.4263  1.0538
 1303SOL     OW15370   4.630   0.231   1.542  0.2334  0.1480  0.1078
 1303SOL    HW115371   4.575   0.303   1.572  3.3099  3.1220 -1.5518
 1303SOL    HW215372   4.700   0.278   1.498 -0.7667  1.7971  0.2999
 1304SOL     OW15373   2.374   2.297   7.028  0.5720 -0.1756 -0.2396
 1304SOL    HW115374   2.462   2.308   7.064 -0.3714  0.7889  1.8153
 1304SOL    HW215375   2.390   2.266   6.939  1.5108  1.0971 -0.5172
 1305SOL     OW15376   4.691   3.846   2.818  0.2142 -0.1427 -0.1313
 1305SOL    HW115377   4.616   3.903   2.835 -1.2579 -1.9819 -0.3805
 1305SOL    HW215378   4.725   3.830   2.906  2.3767 -0.2716 -0.9787
 1306SOL     OW15379   0.468   2.637  15.308  0.0058  0.3666  0.1658
 1306SOL    HW115380   0.497   2.549  15.283 -2.1866 -0.6819  1.4005
 1306SOL    HW215381   0.442   2.676  15.225 -0.0476  1.8241  0.8812
 1307SOL     OW15382   3.258   0.281   1.977 -0.2716 -0.0548 -0.0277
 1307SOL    HW115383   3.215   0.366   1.965 -1.4943 -0.8338 -1.1522
 1307SOL    HW215384   3.281   0.267   1.886 -1.2973 -0.0497 -0.2855
 1308SOL     OW15385   0.846   3.519   9.164  0.4121  0.1809  0.1969
 1308SOL    HW115386   0.813   3.609   9.167 -0.8336 -0.3083  1.1593
 1308SOL    HW215387   0.792   3.469   9.226 -1.8539  1.3734 -0.8357
 1309SOL     OW15388   2.667   2.916   9.315  0.2347 -0.3556  0.1970
 1309SOL    HW115389   2.700   2.829   9.337  0.7544  0.0148  0.8910
 1309SOL    HW215390   2.578   2.885   9.297 -0.0938 -0.1756  1.5144
 1310SOL     OW15391   3.455   4.237  13.188  0.0303 -0.0347 -0.5500
 1310SOL    HW115392   3.400   4.200  13.256  1.7515  0.4673  1.1235
 1310SOL    HW215393   3.530   4.275  13.234  0.6073  0.1746 -1.6695
 1311SOL     OW15394   3.782   2.921  15.117 -0.0524  0.5937 -0.8076
 1311SOL    HW115395   3.693   2.908  15.084 -0.1723  0.8110 -0.5709
 1311SOL    HW215396   3.786   2.856  15.187 -1.6529  1.0341 -0.3037
 1312SOL     OW15397   0.284   0.194  17.385  0.3228 -0.5960  0.3204
 1312SOL    HW115398   0.309   0.257  17.453 -0.2334 -1.9839  1.7886
 1312SOL    HW215399   0.356   0.212  17.323 -0.5748  1.2943 -0.1859
 1313SOL     OW15400   0.296   1.421   2.506 -0.1236 -0.1551 -0.5147
 1313SOL    HW115401   0.383   1.407   2.544 -0.5484  0.0916  0.5460
 1313SOL    HW215402   0.324   1.457   2.422  0.3600  0.5493 -0.0468
 1314SOL     OW15403   1.841   2.102   4.846 -0.6710 -0.1151 -0.7449
 1314SOL    HW115404   1.768   2.141   4.799  0.5159  1.5048 -1.2623
 1314SOL    HW215405   1.868   2.172   4.906 -2.4716 -0.3240  0.2964
 1315SOL     OW15406   1.692   1.063  14.495  0.0098  0.1374 -0.2551
 1315SOL    HW115407   1.612   1.041  14.541 -0.7791  0.2186 -1.5852
 1315SOL    HW215408   1.669   1.063  14.402  1.6445 -0.5215 -0.6635
 1316SOL     OW15409   2.091   0.339   8.633  0.0959 -0.7015  0.8140
 1316SOL    HW115410   2.117   0.414   8.687  1.4301 -0.4071 -0.2170
 1316SOL    HW215411   2.170   0.284   8.637  0.4901 -0.2117 -0.1478
 1317SOL     OW15412   1.796   1.364  10.111  0.5222 -0.1885  0.0295
 1317SOL    HW115413   1.778   1.354  10.204  0.6310  1.3280  0.2108
 1317SOL    HW215414   1.884   1.401  10.106 -0.4789  1.8854 -2.0804
 1318SOL     OW15415   0.372   1.122   2.732  0.3503 -0.1819 -0.2484
 1318SOL    HW115416   0.310   1.189   2.762  1.6936  0.5604  0.9276
 1318SOL    HW215417   0.360   1.126   2.637 -1.3384 -2.8498 -0.1096
 1319SOL     OW15418   2.884   3.314   6.589  0.5986  0.5284  0.8285
 1319SOL    HW115419   2.880   3.218   6.591 -1.0639  0.6191  1.4291
 1319SOL    HW215420   2.858   3.324   6.497  0.5216  0.6324  0.8620
 1320SOL     OW15421   1.257   3.908   3.364 -0.4271 -0.2014 -0.0545
 1320SOL    HW115422   1.239   3.948   3.279 -0.4426 -1.0809 -0.4658
 1320SOL    HW215423   1.202   3.965   3.419 -0.0951 -0.2487  0.3287
 1321SOL     OW15424   1.057   1.169   7.954 -0.4378  1.0002  0.0742
 1321SOL    HW115425   1.078   1.261   7.938 -1.5100  1.4981  1.5073
 1321SOL    HW215426   0.964   1.170   7.931 -0.5987  0.1545  0.6929
 1322SOL     OW15427   0.655   1.036   2.318  0.8728  0.1487 -0.1261
 1322SOL    HW115428   0.742   1.072   2.338  1.0572 -0.0601 -0.5605
 1322SOL    HW215429   0.678   0.974   2.249  0.4296 -3.2628  2.7715
 1323SOL     OW15430   1.863   0.004   2.375  0.1571 -0.1988 -0.7366
 1323SOL    HW115431   1.856   4.641   2.338 -2.8524  0.1233 -0.8954
 1323SOL    HW215432   1.807   0.045   2.310 -0.7589 -0.6738 -0.2521
 1324SOL     OW15433   2.368   4.053   8.999  0.7553  0.4852 -0.1342
 1324SOL    HW115434   2.303   4.004   9.050 -0.1678  0.4989 -1.2888
 1324SOL    HW215435   2.313   4.127   8.971  0.2021  0.4495  0.8503
 1325SOL     OW15436   1.140   1.585   3.689 -0.1576 -0.5786 -0.0520
 1325SOL    HW115437   1.206   1.518   3.675 -0.0796 -0.5568  0.2111
 1325SOL    HW215438   1.172   1.656   3.633 -2.7718  0.1686 -0.5853
 1326SOL     OW15439   3.351   3.493  14.283 -0.0445 -0.1752 -0.5179
 1326SOL    HW115440   3.326   3.484  14.191  2.1505 -0.1192 -1.1136
 1326SOL    HW215441   3.286   3.550  14.324 -1.2206 -1.9458  0.0496
 1327SOL     OW15442   0.060   0.421   0.121 -0.6199 -0.3364 -0.3516
 1327SOL    HW115443   4.703   0.471   0.130 -0.1398  0.4210 -0.2223
 1327SOL    HW215444   0.043   0.347   0.063 -2.5900 -1.2606  1.3899
 1328SOL     OW15445   0.456   1.863   6.909  1.1463 -0.1516  0.4799
 1328SOL    HW115446   0.491   1.834   6.825  0.0355  0.1990 -0.1030
 1328SOL    HW215447   0.428   1.778   6.943 -2.1273  0.7805  0.1592
 1329SOL     OW15448   3.965   2.174   6.094 -0.2316  0.2216 -0.0742
 1329SOL    HW115449   3.883   2.125   6.098 -0.7694  1.1244 -0.2211
 1329SOL    HW215450   4.035   2.116   6.125  0.3733  0.6556 -0.6312
 1330SOL     OW15451   4.515   0.566   7.477  0.2883  0.0322  0.2690
 1330SOL    HW115452   4.536   0.525   7.394  0.6748 -0.0459  0.4050
 1330SOL    HW215453   4.506   0.658   7.455 -0.8002 -0.1234  0.0946
 1331SOL     OW15454   1.756   3.393  16.372 -0.2720 -0.0345 -0.4830
 1331SOL    HW115455   1.834   3.444  16.392 -0.8074  0.6443 -0.1072
 1331SOL    HW215456   1.700   3.459  16.413 -0.1637  0.3357 -0.9368
 1332SOL     OW15457   0.784   2.248  10.784  0.0155  0.0294 -0.2660
 1332SOL    HW115458   0.872   2.226  10.752  0.0229 -0.7726  0.3001
 1332SOL    HW215459   0.753   2.159  10.800  0.9666 -0.0915  1.0155
 1333SOL     OW15460   3.497   1.317   0.390 -0.3920 -0.0141  0.1005
 1333SOL    HW115461   3.405   1.339   0.398 -0.6592 -0.3231 -2.1230
 1333SOL    HW215462   3.539   1.403   0.379  3.3065 -1.7649  0.2691
 1334SOL     OW15463   1.939   4.581   6.911  0.6743  0.0258  0.2502
 1334SOL    HW115464   1.898   4.618   6.833 -0.3152 -0.6012  0.4807
 1334SOL    HW215465   1.995   4.520   6.863 -0.4250 -1.3482  0.7248
 1335SOL     OW15466   3.071   2.506   1.761 -0.0116 -0.0524 -0.0549
 1335SOL    HW115467   3.026   2.515   1.845 -0.5692  0.0705 -0.3642
 1335SOL    HW215468   3.025   2.577   1.716 -2.9723 -2.4820 -0.8968
 1336SOL     OW15469   3.856   3.214   8.872  0.5476 -0.8536 -0.1646
 1336SOL    HW115470   3.903   3.184   8.949 -0.9232 -0.9121  0.7046
 1336SOL    HW215471   3.908   3.168   8.807  1.6889 -0.8568  0.7642
 1337SOL     OW15472   3.982   1.367  11.492  0.4659  0.1667 -0.2254
 1337SOL    HW115473   4.012   1.453  11.464  0.9473  0.0535 -0.0536
 1337SOL    HW215474   4.025   1.311  11.427  1.1908  0.0680  0.3367
 1338SOL     OW15475   0.420   1.686  10.144 -0.4852  0.5085  0.4769
 1338SOL    HW115476   0.456   1.767  10.182  0.3074 -0.2601  1.3646
 1338SOL    HW215477   0.340   1.721  10.105 -1.2013 -0.5100  1.0313
 1339SOL     OW15478   1.550   4.560   4.948 -0.0966  0.3475  0.1325
 1339SOL    HW115479   1.467   4.589   4.988  0.5401  2.9186 -0.4308
 1339SOL    HW215480   1.536   4.477   4.902 -0.0321  1.6745 -2.2774
 1340SOL     OW15481   3.117   4.619   0.826 -0.3235 -0.1142 -0.1908
 1340SOL    HW115482   3.106   4.713   0.811 -0.7976  0.2591  2.4905
 1340SOL    HW215483   3.094   4.592   0.737 -3.3066  0.7652  0.2970
 1341SOL     OW15484   4.454   1.572   7.535  0.4294 -0.4428  0.3620
 1341SOL    HW115485   4.423   1.650   7.581  1.9786  0.9580 -0.9465
 1341SOL    HW215486   4.549   1.576   7.549  0.5788 -1.4667 -0.2879
 1342SOL     OW15487   1.926   4.520   4.728  0.6142 -0.0291 -0.0454
 1342SOL    HW115488   2.011   4.496   4.763  0.5257  0.5695  0.6005
 1342SOL    HW215489   1.964   4.558   4.649 -0.2844  0.4959 -0.2383
 1343SOL     OW15490   3.998   4.071  10.083  0.6602  0.1581  0.2541
 1343SOL    HW115491   3.986   3.980  10.056 -0.8630  1.3676 -3.1313
 1343SOL    HW215492   4.019   4.047  10.173  0.6500  0.0722  0.2335
 1344SOL     OW15493   2.430   4.578   0.634  0.3646 -0.0225 -0.1042
 1344SOL    HW115494   2.429   4.673   0.635 -1.9976 -0.0459 -0.2748
 1344SOL    HW215495   2.372   4.559   0.560 -0.9280 -2.3296  1.5087
 1345SOL     OW15496   4.645   1.315   5.161  0.3314  1.4013 -0.1818
 1345SOL    HW115497   4.565   1.266   5.178 -0.2127  2.3263 -0.0458
 1345SOL    HW215498   4.602   1.401   5.163  1.3440  1.9001  0.3285
 1346SOL     OW15499   3.323   1.068   2.559  0.2872 -0.5369  0.4188
 1346SOL    HW115500   3.356   1.128   2.492  0.7124 -1.3531 -0.0962
 1346SOL    HW215501   3.254   1.123   2.597 -2.0811 -3.9160  0.9599
 1347SOL     OW15502   2.692   1.662   3.047 -0.5109 -0.1950 -0.1593
 1347SOL    HW115503   2.737   1.627   2.970 -0.0325 -0.7458  0.3766
 1347SOL    HW215504   2.622   1.600   3.068  1.3580 -1.7312  1.4263
 1348SOL     OW15505   0.974   3.891   6.263  0.5097 -0.1199 -0.1175
 1348SOL    HW115506   0.915   3.966   6.270  2.1875  1.2461 -0.5840
 1348SOL    HW215507   0.910   3.821   6.279 -0.2750  0.3956 -1.0488
 1349SOL     OW15508   0.588   3.934   3.673  0.1510 -0.7260 -0.0635
 1349SOL    HW115509   0.668   3.957   3.720  0.9049 -2.3994 -0.5471
 1349SOL    HW215510   0.623   3.933   3.584  0.3573  1.7726 -0.0110
 1350SOL     OW15511   4.691   4.580   8.055 -0.1913  0.0530 -0.1363
 1350SOL    HW115512   0.043   4.633   8.076 -0.0430 -0.7078  1.2636
 1350SOL    HW215513   4.721   4.531   7.978  0.3852 -0.1175  0.1879
 1351SOL     OW15514   4.372   0.427   7.130  0.1375 -0.6485 -0.4373
 1351SOL    HW115515   4.422   0.369   7.187  1.6348 -0.9517 -2.0793
 1351SOL    HW215516   4.281   0.399   7.140 -0.1386  0.9181  1.3203
 1352SOL     OW15517   3.188   1.134   7.620  0.0340  0.5121 -0.4059
 1352SOL    HW115518   3.145   1.163   7.701 -3.2456 -0.9195 -1.6675
 1352SOL    HW215519   3.247   1.209   7.610  2.5972 -1.3363  1.0025
 1353SOL     OW15520   0.007   3.474   7.613  0.0415 -0.4076  0.4719
 1353SOL    HW115521   0.034   3.538   7.548 -0.8368  0.8730  1.3564
 1353SOL    HW215522   4.672   3.525   7.669 -2.0467 -1.0134 -1.2391
 1354SOL     OW15523   4.672   1.250   7.686  0.3846 -0.5220  0.1450
 1354SOL    HW115524   4.589   1.279   7.649  1.6688  0.6079 -1.8301
 1354SOL    HW215525   4.656   1.255   7.781  1.4486 -0.1042  0.3066
 1355SOL     OW15526   1.007   2.709   7.411 -0.3251  0.0328 -0.5398
 1355SOL    HW115527   0.981   2.767   7.482 -2.3800 -0.7549 -0.6472
 1355SOL    HW215528   1.099   2.733   7.404 -0.0109 -1.1817 -0.6677
 1356SOL     OW15529   2.200   1.457   1.235 -0.6708  0.1230  0.2585
 1356SOL    HW115530   2.197   1.552   1.243  0.0296  0.1635  0.0717
 1356SOL    HW215531   2.178   1.420   1.320  0.8462  0.6369  0.8872
 1357SOL     OW15532   2.750   0.003   5.409 -0.1154 -0.6467 -0.4794
 1357SOL    HW115533   2.827   0.042   5.450 -1.4824 -1.0987  2.5798
 1357SOL    HW215534   2.748   4.635   5.431 -1.1024 -0.6480 -0.5386
 1358SOL     OW15535   1.087   2.453  11.044 -0.0142  0.1703  0.0360
 1358SOL    HW115536   1.180   2.435  11.029 -0.4837 -1.7750 -0.5126
 1358SOL    HW215537   1.060   2.363  11.028  0.5161  0.2207 -1.1685
 1359SOL     OW15538   3.314   0.805   3.957 -0.3037 -0.1605 -0.4750
 1359SOL    HW115539   3.244   0.844   3.904  1.3293  1.4889 -1.3800
 1359SOL    HW215540   3.254   0.753   4.011 -2.3214  0.6299 -1.9435
 1360SOL     OW15541   2.235   3.389   7.158 -0.0593 -0.0070 -0.3683
 1360SOL    HW115542   2.328   3.391   7.135 -0.0423 -0.1115 -0.3072
 1360SOL    HW215543   2.204   3.385   7.067  1.4046 -0.9110 -0.8417
 1361SOL     OW15544   2.350   4.213  16.182  0.6003  0.4088 -0.0415
 1361SOL    HW115545   2.316   4.124  16.173  0.2118  0.5742 -0.1846
 1361SOL    HW215546   2.400   4.236  16.103  0.3652  2.2965  0.3571
 1362SOL     OW15547   0.405   0.840   2.786 -0.4985 -0.5454  0.6570
 1362SOL    HW115548   0.351   0.913   2.756 -0.5411  0.4815  3.1961
 1362SOL    HW215549   0.471   0.842   2.717 -1.6449 -3.3407 -0.5383
 1363SOL     OW15550   0.290   3.246  11.957  0.0573 -0.2172 -0.4342
 1363SOL    HW115551   0.363   3.306  11.944  1.6869 -2.1385 -0.0840
 1363SOL    HW215552   0.235   3.273  11.883 -1.5729  0.6246  1.0918
 1364SOL     OW15553   3.714   3.866   2.320 -0.0794 -0.3785  0.4035
 1364SOL    HW115554   3.785   3.810   2.288 -0.2114 -0.4562  0.2464
 1364SOL    HW215555   3.690   3.817   2.398 -1.1728 -1.1521 -0.4277
 1365SOL     OW15556   1.909   3.156   5.021 -0.1038  0.4671 -0.3759
 1365SOL    HW115557   1.885   3.063   5.018 -0.1101  0.5117 -1.5241
 1365SOL    HW215558   1.930   3.159   5.115  2.2784  0.8382 -0.9236
 1366SOL     OW15559   1.234   2.778  13.399  0.2144  0.2499  0.0293
 1366SOL    HW115560   1.165   2.712  13.397 -1.4721  2.0372 -0.1715
 1366SOL    HW215561   1.190   2.862  13.389 -0.3205  0.1372  1.4017
 1367SOL     OW15562   0.481   0.122   0.678 -0.6611 -0.2113 -0.5749
 1367SOL    HW115563   0.567   0.106   0.717 -1.1575 -3.3049 -0.7559
 1367SOL    HW215564   0.427   0.051   0.712 -1.4667  0.7264  0.0898
 1368SOL     OW15565   1.558   0.257   4.831  0.5719 -0.3518 -0.1071
 1368SOL    HW115566   1.583   0.291   4.745  0.7800  1.1865  0.5622
 1368SOL    HW215567   1.566   0.163   4.815  1.4358 -0.2853 -0.0668
 1369SOL     OW15568   2.283   2.743  11.287 -0.0293  0.1299  0.0923
 1369SOL    HW115569   2.240   2.815  11.242  0.2178  0.0325 -0.3030
 1369SOL    HW215570   2.359   2.794  11.314 -0.0466  2.2380 -3.8319
 1370SOL     OW15571   1.601   4.645   1.408 -0.3965 -0.0389 -0.1960
 1370SOL    HW115572   1.506   4.653   1.406 -0.4739 -0.9252  0.1751
 1370SOL    HW215573   1.614   4.551   1.424 -3.8424 -0.0571  2.5696
 1371SOL     OW15574   0.560   4.015  15.063 -0.1318 -0.4559 -0.3392
 1371SOL    HW115575   0.640   4.026  15.115 -0.9589  2.9240  0.2183
 1371SOL    HW215576   0.495   4.032  15.131  0.8393 -0.4544  0.5973
 1372SOL     OW15577   3.901   3.851   3.582 -0.0597 -0.5203  0.0148
 1372SOL    HW115578   3.987   3.819   3.554 -0.5147  0.2713 -2.3008
 1372SOL    HW215579   3.845   3.844   3.505 -0.3354 -0.8875  0.2476
 1373SOL     OW15580   4.712   2.778   2.540 -0.2085 -0.0458  0.0983
 1373SOL    HW115581   4.625   2.741   2.524 -0.8090  0.9010  1.1179
 1373SOL    HW215582   0.034   2.746   2.464  0.9190 -0.3479  0.9167
 1374SOL     OW15583   3.698   4.173   5.161  0.0825 -0.0604  0.3719
 1374SOL    HW115584   3.710   4.091   5.114  1.4056 -0.9655  2.2719
 1374SOL    HW215585   3.786   4.211   5.156 -0.4587  0.8281 -2.0662
 1375SOL     OW15586   3.471   1.722   8.563  0.1905  0.4298 -0.0717
 1375SOL    HW115587   3.490   1.658   8.631  0.3481 -2.4650 -2.8156
 1375SOL    HW215588   3.561   1.753   8.553  1.0685 -1.6642  1.4054
 1376SOL     OW15589   4.378   2.532  15.015 -0.5575 -0.0338 -0.2503
 1376SOL    HW115590   4.301   2.500  15.062 -1.3346 -1.6145 -2.5921
 1376SOL    HW215591   4.352   2.528  14.923  0.1498 -0.3019 -0.4358
 1377SOL     OW15592   2.052   0.898   8.480  0.2363  0.0147 -0.3889
 1377SOL    HW115593   2.120   0.849   8.527  0.0091 -1.3104 -1.4533
 1377SOL    HW215594   1.978   0.837   8.490 -0.4832  0.7218 -1.4818
 1378SOL     OW15595   2.175   0.182   6.542 -0.5995 -0.1687  0.2569
 1378SOL    HW115596   2.146   0.093   6.522  0.6595 -1.3204  3.5576
 1378SOL    HW215597   2.253   0.181   6.486  0.6332 -1.4028  1.9953
 1379SOL     OW15598   0.572   3.967   2.578 -0.1410 -0.1498 -0.1037
 1379SOL    HW115599   0.664   3.981   2.554 -0.2752  2.0943  0.6814
 1379SOL    HW215600   0.571   3.883   2.622  0.7593 -1.6669 -2.9358
 1380SOL     OW15601   3.263   2.980   9.894  0.5189 -0.5516 -0.0259
 1380SOL    HW115602   3.333   2.942   9.841  0.2857  0.4250 -1.0357
 1380SOL    HW215603   3.300   2.997   9.980 -0.6375  0.4157  0.2822
 1381SOL     OW15604   3.406   4.352   0.717 -0.0921 -0.1223 -0.2677
 1381SOL    HW115605   3.484   4.407   0.721  0.4019 -0.8081 -0.4147
 1381SOL    HW215606   3.357   4.380   0.795 -0.2001 -1.0011 -0.0155
 1382SOL     OW15607   4.051   2.168  11.957  0.3892  0.0898  0.2956
 1382SOL    HW115608   4.096   2.108  12.018  2.0003  1.0036  0.0030
 1382SOL    HW215609   4.024   2.233  12.021 -1.2031 -0.7353  0.4651
 1383SOL     OW15610   3.318   4.699   1.569 -0.3495  0.0530 -0.5128
 1383SOL    HW115611   3.224   4.680   1.560 -0.4745 -0.2858  1.5673
 1383SOL    HW215612   3.346   4.659   1.486  0.0900  2.3769 -1.4734
 1384SOL     OW15613   0.030   1.981   2.574  0.1219  0.1250 -0.2056
 1384SOL    HW115614   0.038   2.009   2.665 -0.0676  2.1053 -0.7785
 1384SOL    HW215615   0.122   1.979   2.549  0.0661  0.6408 -0.4499
 1385SOL     OW15616   0.102   2.530   4.938 -0.1565  0.0346 -0.2758
 1385SOL    HW115617   0.018   2.575   4.933  1.5515  2.8467 -3.7022
 1385SOL    HW215618   0.131   2.523   4.847  0.4399  0.9790 -0.1576
 1386SOL     OW15619   2.846   2.147   7.772 -0.0451 -0.0061  0.1028
 1386SOL    HW115620   2.772   2.106   7.726  0.1780 -3.4628  2.8778
 1386SOL    HW215621   2.907   2.156   7.699  0.5452  1.0613  0.7342
 1387SOL     OW15622   1.646   1.927  13.579 -0.3671  0.3710  0.0842
 1387SOL    HW115623   1.714   1.893  13.636 -0.8987  0.1066  0.5606
 1387SOL    HW215624   1.658   2.021  13.590  2.0382  0.3077 -2.0325
 1388SOL     OW15625   0.719   2.686   8.527 -0.3958 -0.7300 -0.4756
 1388SOL    HW115626   0.664   2.624   8.478 -0.7250 -1.9905  1.4844
 1388SOL    HW215627   0.676   2.771   8.515 -0.1814 -0.6931 -0.9810
 1389SOL     OW15628   3.471   2.304   5.564 -0.1347 -0.3805 -0.0518
 1389SOL    HW115629   3.476   2.236   5.497  0.1304  0.0837 -0.5027
 1389SOL    HW215630   3.492   2.379   5.507 -0.7594 -0.5459 -0.4971
 1390SOL     OW15631   1.200   2.793   2.900  0.1185  0.5513 -0.0047
 1390SOL    HW115632   1.126   2.784   2.840 -0.5937 -0.7197  1.0551
 1390SOL    HW215633   1.199   2.888   2.914 -3.0484  0.6751 -1.0504
 1391SOL     OW15634   0.159   1.707   2.474  0.2011 -0.2658 -0.8447
 1391SOL    HW115635   0.142   1.711   2.380  2.1337  2.6875 -1.0578
 1391SOL    HW215636   0.195   1.794   2.492  0.6729 -0.4733 -0.7868
 1392SOL     OW15637   3.355   1.157  17.353  0.0871 -0.6747  0.1345
 1392SOL    HW115638   3.441   1.155  17.395  0.8078 -1.0372 -1.3462
 1392SOL    HW215639   3.294   1.151  17.426 -1.1484 -0.3624 -0.8743
 1393SOL     OW15640   0.978   2.156   3.930  0.5731  0.4115 -0.1709
 1393SOL    HW115641   0.917   2.229   3.941  0.1582 -0.1360  1.0763
 1393SOL    HW215642   0.972   2.125   3.839 -0.8275 -0.9754  0.4009
 1394SOL     OW15643   2.596   1.242   4.968  0.0524 -0.2880 -0.3406
 1394SOL    HW115644   2.501   1.228   4.978 -0.3627  1.5402 -1.8088
 1394SOL    HW215645   2.594   1.290   4.885 -0.5101  3.2478  1.7034
 1395SOL     OW15646   0.318   3.229   6.276 -0.1910  0.1966 -0.3090
 1395SOL    HW115647   0.244   3.287   6.294 -0.0571  1.0763 -2.6298
 1395SOL    HW215648   0.279   3.145   6.300 -1.1454  0.9975  0.9164
 1396SOL     OW15649   3.067   3.760  15.433  0.2746  0.3564  0.5141
 1396SOL    HW115650   3.030   3.762  15.345  2.8117  0.4892 -0.5673
 1396SOL    HW215651   2.992   3.768  15.492  1.0084  0.6300  1.4215
 1397SOL     OW15652   0.888   2.903   7.535 -0.3496 -0.1013 -0.2936
 1397SOL    HW115653   0.851   2.990   7.516  0.9557  0.3190 -0.9464
 1397SOL    HW215654   0.887   2.910   7.630 -0.6008 -2.1610 -0.1437
 1398SOL     OW15655   2.209   1.751   5.453 -0.4431 -0.0987  0.1633
 1398SOL    HW115656   2.221   1.807   5.529 -0.4307  0.2297 -0.0821
 1398SOL    HW215657   2.245   1.666   5.481 -2.5108 -0.9614  0.2002
 1399SOL     OW15658   4.670   3.000   9.176  0.4554  0.2259 -0.2636
 1399SOL    HW115659   0.015   3.065   9.182  0.7606  0.0351 -1.7688
 1399SOL    HW215660   4.600   3.053   9.138  0.0978  0.4037  0.6511
 1400SOL     OW15661   1.710   0.720   4.954  0.3036  0.3236  0.2605
 1400SOL    HW115662   1.642   0.664   4.991  2.1314 -0.4237  2.5034
 1400SOL    HW215663   1.785   0.662   4.936  1.5810  1.6710  1.2093
 1401SOL     OW15664   1.745   2.197   3.546  0.1040 -0.3243  0.0341
 1401SOL    HW115665   1.789   2.278   3.573  1.3380 -1.4676  1.4777
 1401SOL    HW215666   1.653   2.224   3.551  0.5294  1.3257 -0.9635
 1402SOL     OW15667   3.912   0.782   5.402  0.1570 -0.0115  0.1783
 1402SOL    HW115668   3.963   0.705   5.427  0.8373  0.6809  0.9106
 1402SOL    HW215669   3.976   0.853   5.406 -2.0275  1.9969 -0.1209
 1403SOL     OW15670   1.831   4.452   2.296  0.4508  0.8567  0.3762
 1403SOL    HW115671   1.897   4.463   2.228 -1.2224 -0.7873 -1.5046
 1403SOL    HW215672   1.884   4.412   2.365  0.3086 -0.9684 -0.5663
 1404SOL     OW15673   1.794   2.008   3.365  0.0189  0.5314  0.4266
 1404SOL    HW115674   1.811   2.066   3.439 -2.3122 -0.8473  2.0244
 1404SOL    HW215675   1.885   2.011   3.333  0.2563  0.6604  1.1066
 1405SOL     OW15676   2.810   3.731   7.348 -0.5297  0.2343 -0.0508
 1405SOL    HW115677   2.753   3.790   7.398  1.7058  1.0136  1.5743
 1405SOL    HW215678   2.889   3.784   7.349 -0.8393  0.6977 -0.8036
 1406SOL     OW15679   0.769   0.336   5.766 -0.0338  0.4052  0.4997
 1406SOL    HW115680   0.686   0.298   5.792  0.9891 -2.1186  0.0291
 1406SOL    HW215681   0.807   0.262   5.718 -0.1776  2.4786 -2.8568
 1407SOL     OW15682   4.457   3.969   6.985  0.7022 -0.1226 -0.1191
 1407SOL    HW115683   4.440   3.909   6.912 -1.2312  0.3939 -0.0948
 1407SOL    HW215684   4.461   3.913   7.063 -0.0730  0.8135  0.5904
 1408SOL     OW15685   1.282   0.868   8.064  0.2221 -0.2562  0.2487
 1408SOL    HW115686   1.366   0.899   8.096  0.5045 -0.7778  0.0181
 1408SOL    HW215687   1.282   0.915   7.981 -1.1333 -1.9328 -0.7246
 1409SOL     OW15688   3.313   4.389   6.842 -0.1795  0.1698  1.2794
 1409SOL    HW115689   3.291   4.356   6.929 -0.1186  2.0644  2.0089
 1409SOL    HW215690   3.407   4.367   6.839 -0.0459  1.1063 -1.8419
 1410SOL     OW15691   4.681   0.556  14.268  0.1371  0.0064 -0.3663
 1410SOL    HW115692   4.638   0.640  14.285  1.8759  1.0944 -1.4751
 1410SOL    HW215693   4.610   0.511  14.222 -0.9312 -0.5230  1.7588
 1411SOL     OW15694   0.336   1.903   3.980 -0.5181  0.2895  0.7655
 1411SOL    HW115695   0.391   1.976   4.008  1.0476  0.6789 -3.4574
 1411SOL    HW215696   0.323   1.911   3.886  1.1619 -0.3396  0.4890
 1412SOL     OW15697   1.665   3.402   8.159  0.1377  0.1293  0.1129
 1412SOL    HW115698   1.592   3.401   8.221  1.7124 -2.0684  1.9234
 1412SOL    HW215699   1.715   3.328   8.192 -1.8833 -0.8767  0.8955
 1413SOL     OW15700   1.825   1.093  14.724  0.1852 -0.3739 -0.2839
 1413SOL    HW115701   1.767   1.100  14.649 -0.4491 -0.8207  0.1546
 1413SOL    HW215702   1.818   1.183  14.755  0.5316 -0.4487  0.0173
 1414SOL     OW15703   3.329   3.627   4.962 -0.0420 -0.0988  0.3207
 1414SOL    HW115704   3.407   3.678   4.941  0.0436 -0.7495 -0.9380
 1414SOL    HW215705   3.262   3.670   4.909  2.1103  1.6769 -0.9437
 1415SOL     OW15706   3.834   2.136   9.819  0.0361  0.2309  0.5816
 1415SOL    HW115707   3.909   2.177   9.863  1.0715  1.1813 -2.0230
 1415SOL    HW215708   3.867   2.047   9.809 -0.2720 -0.0218  1.8910
 1416SOL     OW15709   0.439   1.682   7.382 -0.4430 -0.1717 -0.0867
 1416SOL    HW115710   0.413   1.605   7.431 -3.1748 -1.0025 -2.8703
 1416SOL    HW215711   0.359   1.733   7.373 -1.3502 -1.2637  1.9845
 1417SOL     OW15712   2.571   3.824  12.399 -0.5190 -0.5026  0.4854
 1417SOL    HW115713   2.478   3.820  12.420 -0.5050  0.6464  0.7375
 1417SOL    HW215714   2.615   3.798  12.480 -1.3020  0.3567  1.1889
 1418SOL     OW15715   2.622   3.219   4.425  0.7576 -0.7018  0.0578
 1418SOL    HW115716   2.579   3.136   4.407 -1.5942  1.0670 -2.4414
 1418SOL    HW215717   2.667   3.190   4.504  0.6964  1.6316  0.9500
 1419SOL     OW15718   2.771   3.560  10.358  0.2094  0.2835  0.3039
 1419SOL    HW115719   2.726   3.564  10.274  2.1232  1.0501 -0.6785
 1419SOL    HW215720   2.750   3.475  10.396  1.0762 -0.2363 -0.4039
 1420SOL     OW15721   0.493   1.607  14.377 -0.2092 -0.4317 -0.4277
 1420SOL    HW115722   0.424   1.549  14.407 -2.2161  0.6792 -2.8392
 1420SOL    HW215723   0.444   1.663  14.315  1.1064  0.9830 -0.1853
 1421SOL     OW15724   2.269   4.194   7.409 -0.1777  0.4171  0.8679
 1421SOL    HW115725   2.245   4.102   7.408  1.4351 -0.0024  1.2355
 1421SOL    HW215726   2.320   4.198   7.328 -0.4115 -1.3154  0.6524
 1422SOL     OW15727   0.111   0.667   2.911 -0.1749 -0.0695  0.3065
 1422SOL    HW115728   0.062   0.663   2.993 -1.8944 -0.4863 -0.7471
 1422SOL    HW215729   0.135   0.759   2.899 -1.4396  0.1574 -0.4732
 1423SOL     OW15730   2.492   1.817  13.953  0.4313 -0.2305  0.7622
 1423SOL    HW115731   2.552   1.771  14.012 -0.1397 -2.6272 -0.5549
 1423SOL    HW215732   2.504   1.907  13.985  1.4371 -0.1502  0.1456
 1424SOL     OW15733   3.210   4.657  12.996  0.3378 -0.1645  0.3812
 1424SOL    HW115734   3.236   4.630  12.908 -2.0892  0.0140 -0.3886
 1424SOL    HW215735   3.276   4.724  13.017 -1.0849  1.2214  0.3828
 1425SOL     OW15736   4.013   2.730  10.402  0.0554 -0.0504  0.0838
 1425SOL    HW115737   4.084   2.704  10.461 -1.8244 -0.2979  2.2391
 1425SOL    HW215738   4.042   2.689  10.321 -1.4670 -1.6703  0.3436
 1426SOL     OW15739   3.088   2.123  13.172 -0.4709  0.1737  0.3861
 1426SOL    HW115740   2.993   2.120  13.165 -0.4274  1.7796 -0.8816
 1426SOL    HW215741   3.105   2.154  13.083  1.1597  0.0027  0.6320
 1427SOL     OW15742   3.557   2.994   1.314  0.4367  0.3975 -0.7858
 1427SOL    HW115743   3.632   2.959   1.265  1.8557  2.4664 -0.0555
 1427SOL    HW215744   3.522   3.062   1.257 -0.6064 -1.4196 -2.3248
 1428SOL     OW15745   0.872   3.097   3.287  0.3346  0.0420  0.1691
 1428SOL    HW115746   0.825   3.029   3.336 -0.1502 -1.2113 -2.0464
 1428SOL    HW215747   0.901   3.058   3.204  1.6601 -1.6809  1.4361
 1429SOL     OW15748   3.361   0.159  12.940  0.4502  0.8178 -0.1418
 1429SOL    HW115749   3.273   0.170  12.904  0.6365 -1.8867 -1.3988
 1429SOL    HW215750   3.364   0.237  12.996 -0.1172  1.1421 -0.5690
 1430SOL     OW15751   2.852   0.297   8.808 -0.9919  0.2001  0.2048
 1430SOL    HW115752   2.878   0.261   8.723 -0.4504 -1.3049  1.0079
 1430SOL    HW215753   2.763   0.264   8.822 -0.8583  0.6427  2.0763
 1431SOL     OW15754   1.228   3.071   3.693  0.8617 -0.2865  0.2450
 1431SOL    HW115755   1.261   3.161   3.699  1.3373 -0.3520 -1.4100
 1431SOL    HW215756   1.245   3.050   3.601 -0.3900 -0.4966  0.0661
 1432SOL     OW15757   3.133   1.891   8.032 -0.5134  0.2748 -0.0717
 1432SOL    HW115758   3.138   1.945   8.110  0.6637 -0.1866  0.1728
 1432SOL    HW215759   3.126   1.806   8.074  1.9401 -0.9662 -2.1169
 1433SOL     OW15760   0.670   3.487  12.121 -0.9371 -1.0050  0.8035
 1433SOL    HW115761   0.607   3.461  12.053 -1.3054 -0.4036  0.9097
 1433SOL    HW215762   0.626   3.467  12.204 -0.0740 -1.2002  1.2040
 1434SOL     OW15763   0.917   1.026   2.383 -0.0604 -0.7188 -0.2962
 1434SOL    HW115764   0.998   1.075   2.366 -1.0382  0.1378 -2.3661
 1434SOL    HW215765   0.935   0.933   2.369  1.6551 -0.4860  0.3149
 1435SOL     OW15766   3.355   3.583   8.302 -0.6919  0.6450  0.5676
 1435SOL    HW115767   3.397   3.589   8.388 -0.2773  1.9972  0.2769
 1435SOL    HW215768   3.384   3.667   8.267  0.7011 -1.0401 -2.3340
 1436SOL     OW15769   1.538   4.591   3.653 -0.7506 -0.1765  0.5110
 1436SOL    HW115770   1.497   4.675   3.675 -0.7197  0.1033 -0.4943
 1436SOL    HW215771   1.618   4.626   3.613 -0.8030  0.9022  1.3256
 1437SOL     OW15772   4.270   3.890   3.412  0.1226 -0.5275 -0.5149
 1437SOL    HW115773   4.253   3.915   3.321  1.2017 -1.4012 -0.9418
 1437SOL    HW215774   4.242   3.799   3.419  1.8393 -0.7955  2.8107
 1438SOL     OW15775   0.292   3.553  12.128  0.4458  0.7308 -0.1303
 1438SOL    HW115776   0.363   3.527  12.069 -1.0656 -1.3851 -1.0533
 1438SOL    HW215777   0.338   3.568  12.210  1.0958 -0.0913 -0.3366
 1439SOL     OW15778   3.490   0.852   7.391  0.1526 -0.0781 -0.0722
 1439SOL    HW115779   3.449   0.769   7.370 -2.0106  0.7024  1.0105
 1439SOL    HW215780   3.450   0.875   7.475  0.0446  0.1317 -0.1802
 1440SOL     OW15781   3.821   2.082   8.213 -0.0157  0.5409 -0.0260
 1440SOL    HW115782   3.870   2.137   8.274  0.4971  0.1864 -0.1182
 1440SOL    HW215783   3.740   2.095   8.261  0.0091  1.2906 -0.1809
 1441SOL     OW15784   3.592   4.177  12.509 -0.6587 -0.0233 -0.2594
 1441SOL    HW115785   3.687   4.173  12.523 -0.5933  0.5064 -0.5584
 1441SOL    HW215786   3.561   4.100  12.556 -2.6197  0.3671 -0.9084
 1442SOL     OW15787   0.719   4.059   7.095  0.0129 -0.1890 -0.3937
 1442SOL    HW115788   0.684   4.012   7.171 -0.2626 -0.0099 -0.4096
 1442SOL    HW215789   0.654   4.130   7.090  0.2103  0.2087  2.5163
 1443SOL     OW15790   3.895   3.689  14.465 -0.3030  0.1717 -0.1059
 1443SOL    HW115791   3.895   3.635  14.386 -0.7089  0.8739 -0.5833
 1443SOL    HW215792   3.933   3.637  14.536 -1.4071 -0.0329  0.3326
 1444SOL     OW15793   4.709   3.427   2.479 -0.7667  0.0291 -0.5315
 1444SOL    HW115794   4.650   3.499   2.456 -0.9479 -0.2194 -0.8505
 1444SOL    HW215795   0.023   3.472   2.554 -0.5776  0.6551 -1.0051
 1445SOL     OW15796   2.754   3.320  10.552 -0.1106 -0.5131 -0.1805
 1445SOL    HW115797   2.831   3.376  10.566  2.1215 -3.1937 -1.5894
 1445SOL    HW215798   2.740   3.293  10.643 -0.0184  0.9190  0.2646
 1446SOL     OW15799   2.960   0.771   6.521 -0.0086 -0.5012  0.0569
 1446SOL    HW115800   2.910   0.772   6.440  0.7976 -2.0331 -0.4705
 1446SOL    HW215801   2.885   0.771   6.580  0.8603 -0.9493  1.1864
 1447SOL     OW15802   2.111   3.113  11.366 -0.8389 -0.1135  0.0161
 1447SOL    HW115803   2.181   3.124  11.430 -0.3274  1.2438 -0.7906
 1447SOL    HW215804   2.154   3.089  11.284 -1.7955 -0.1220 -0.4855
 1448SOL     OW15805   0.756   1.965  17.675  0.0529 -0.0474 -0.4562
 1448SOL    HW115806   0.718   1.964   0.063  0.1624 -3.0516 -0.4421
 1448SOL    HW215807   0.846   1.952   0.005 -0.2452 -1.2948 -0.1265
 1449SOL     OW15808   3.019   1.679   5.811  0.2766  0.1010  0.8073
 1449SOL    HW115809   2.994   1.606   5.868  1.1757  0.5348  1.7561
 1449SOL    HW215810   3.106   1.648   5.788  0.2864 -0.6818  1.9522
 1450SOL     OW15811   2.249   2.753  10.781 -0.1115  0.0771  0.1352
 1450SOL    HW115812   2.210   2.724  10.864 -2.8128 -1.0563 -1.5348
 1450SOL    HW215813   2.310   2.820  10.813 -0.6489  0.5767  0.1020
 1451SOL     OW15814   4.481   3.433  13.413  0.1407  0.2042  0.0151
 1451SOL    HW115815   4.440   3.519  13.401  1.7030  0.8307 -0.7754
 1451SOL    HW215816   4.572   3.459  13.416  0.3289 -0.4199 -0.2732
 1452SOL     OW15817   0.704   0.257   1.812 -0.3159 -0.6861  0.2370
 1452SOL    HW115818   0.713   0.352   1.821  1.5233 -0.8234 -0.1809
 1452SOL    HW215819   0.640   0.229   1.878  0.8825 -0.4482  1.4896
 1453SOL     OW15820   4.159   0.081   2.746  0.3964 -0.2861 -0.3695
 1453SOL    HW115821   4.252   0.098   2.736  0.6077 -1.9510 -1.2670
 1453SOL    HW215822   4.127   0.057   2.659 -1.2269  1.7643 -0.3347
 1454SOL     OW15823   0.206   1.487  14.932 -0.2472 -0.4277  0.6123
 1454SOL    HW115824   0.271   1.432  14.888  0.0724 -0.6700  1.3754
 1454SOL    HW215825   0.264   1.554  14.969 -0.1948  1.1652 -2.3594
 1455SOL     OW15826   2.689   1.498   7.263 -0.5844 -0.2971 -0.2010
 1455SOL    HW115827   2.617   1.554   7.293 -0.8701 -1.2506  0.8859
 1455SOL    HW215828   2.765   1.553   7.244  0.5392 -0.9635  2.2533
 1456SOL     OW15829   0.304   0.646   1.058 -0.3140 -0.0830 -0.3071
 1456SOL    HW115830   0.254   0.648   1.139 -0.6132  1.0040 -0.5099
 1456SOL    HW215831   0.391   0.619   1.086  0.1717  1.9312  0.1581
 1457SOL     OW15832   1.541   3.407  14.202  0.2974  0.0272  0.1179
 1457SOL    HW115833   1.599   3.458  14.260 -1.0880  2.1935 -0.3887
 1457SOL    HW215834   1.496   3.358  14.270 -0.5450 -0.3689 -0.7356
 1458SOL     OW15835   4.600   2.447  10.405 -0.7665  0.1317  0.7605
 1458SOL    HW115836   4.652   2.367  10.413  0.5485  0.7857 -1.1054
 1458SOL    HW215837   4.588   2.438  10.310 -1.3783  1.2599  0.7379
 1459SOL     OW15838   1.713   0.613   2.004  0.4026  0.0981  0.3966
 1459SOL    HW115839   1.762   0.654   1.932  1.7764 -0.1210  1.2143
 1459SOL    HW215840   1.695   0.524   1.973  3.0420 -0.9065  1.7570
 1460SOL     OW15841   3.068   0.729   1.736  0.4014  0.0036  0.3415
 1460SOL    HW115842   3.079   0.726   1.831  0.2184  1.8994  0.4121
 1460SOL    HW215843   3.050   0.822   1.729 -2.3727 -0.5647 -0.2374
 1461SOL     OW15844   4.175   3.071   3.249  0.8599 -0.3667  0.3572
 1461SOL    HW115845   4.152   3.015   3.175 -2.7340  1.0269  0.4178
 1461SOL    HW215846   4.243   3.128   3.213  3.3286 -1.0761  3.8878
 1462SOL     OW15847   2.856   4.298   0.750 -0.0877 -0.0135 -0.5102
 1462SOL    HW115848   2.762   4.283   0.765 -0.0811  2.6903  2.0932
 1462SOL    HW215849   2.867   4.392   0.738 -3.2452  0.4245  0.0606
 1463SOL     OW15850   3.664   2.883   5.686  0.0077  0.2533 -0.0730
 1463SOL    HW115851   3.652   2.954   5.623 -0.2379 -0.5017 -0.8777
 1463SOL    HW215852   3.660   2.936   5.766  0.0895 -0.5534  0.4667
 1464SOL     OW15853   2.620   3.251   3.088 -0.2038  0.4851  0.4987
 1464SOL    HW115854   2.551   3.313   3.064  0.0860  0.2994 -0.8195
 1464SOL    HW215855   2.612   3.182   3.023 -0.9290 -1.3505  2.5542
 1465SOL     OW15856   3.665   3.074   1.545 -0.3356  0.0612 -0.4101
 1465SOL    HW115857   3.758   3.070   1.526  0.0486  0.1055  1.4113
 1465SOL    HW215858   3.629   3.041   1.463  0.1650  0.8065 -0.9281
 1466SOL     OW15859   0.060   2.080   3.180  0.1160 -0.5052 -0.0081
 1466SOL    HW115860   0.109   2.112   3.104 -4.1094  0.0427 -2.5156
 1466SOL    HW215861   4.691   2.093   3.165  0.4678  2.4814  0.4308
 1467SOL     OW15862   1.956   2.330  12.878 -0.0593 -0.1892 -0.1609
 1467SOL    HW115863   2.027   2.321  12.941  1.5019  0.8200 -1.7672
 1467SOL    HW215864   1.930   2.239  12.865 -0.2768 -0.2223  0.5052
 1468SOL     OW15865   2.717   1.410  16.436  0.4676 -0.7395 -0.1389
 1468SOL    HW115866   2.722   1.347  16.364 -0.6413 -0.1674 -0.7196
 1468SOL    HW215867   2.639   1.384  16.485  0.6687 -2.3160 -0.6472
 1469SOL     OW15868   4.536   2.414  10.964 -0.0440  0.0567 -0.1875
 1469SOL    HW115869   4.542   2.475  11.038  1.5682 -1.7198  1.1285
 1469SOL    HW215870   4.498   2.337  11.007 -2.5707  1.0533 -0.6654
 1470SOL     OW15871   2.146   0.893  15.600 -0.0734  0.3696 -0.3162
 1470SOL    HW115872   2.068   0.878  15.654 -0.8797  1.7740 -1.0654
 1470SOL    HW215873   2.130   0.827  15.532 -2.4923  0.5445  0.0632
 1471SOL     OW15874   2.433   0.754   4.748 -0.6105 -0.0001 -0.1489
 1471SOL    HW115875   2.410   0.836   4.706  0.1981 -0.4062 -1.3862
 1471SOL    HW215876   2.431   0.779   4.841 -0.1438 -0.4683 -0.0092
 1472SOL     OW15877   3.490   0.172  12.704  0.4900 -0.4856 -0.8309
 1472SOL    HW115878   3.463   0.128  12.785 -0.9437 -0.1266 -1.0981
 1472SOL    HW215879   3.570   0.123  12.688  0.2840 -1.2748  0.5172
 1473SOL     OW15880   3.889   1.197   4.785 -0.1275  0.0630  0.1826
 1473SOL    HW115881   3.984   1.199   4.799 -0.2277 -0.2083  0.8986
 1473SOL    HW215882   3.872   1.216   4.877 -0.3793 -0.5626  0.2691
 1474SOL     OW15883   3.552   0.750  13.355 -0.1982  0.0089 -0.0728
 1474SOL    HW115884   3.628   0.792  13.397 -1.2752  0.8032  1.0740
 1474SOL    HW215885   3.553   0.805  13.277  2.0830 -2.8554 -2.0810
 1475SOL     OW15886   2.018   0.733  12.516  0.5911  0.0015 -0.2681
 1475SOL    HW115887   2.094   0.789  12.498  0.5938  0.9521  2.6704
 1475SOL    HW215888   2.065   0.678  12.580  1.1046  0.0321 -0.6132
 1476SOL     OW15889   1.400   0.086   6.893 -0.2045 -0.5877  0.2636
 1476SOL    HW115890   1.305   0.096   6.889 -0.0154  2.0697  2.4690
 1476SOL    HW215891   1.418   0.164   6.945  1.6527  0.5021 -2.0051
 1477SOL     OW15892   3.844   2.300   7.607  0.2989  0.4574 -0.2348
 1477SOL    HW115893   3.790   2.245   7.551  1.4555  0.9026 -1.7885
 1477SOL    HW215894   3.781   2.328   7.673  0.7880  1.9148 -0.3909
 1478SOL     OW15895   2.217   3.470   5.359  0.4859 -0.2122 -0.3832
 1478SOL    HW115896   2.288   3.427   5.406  0.5294 -0.3432 -0.5690
 1478SOL    HW215897   2.213   3.409   5.286  0.3657  2.6066 -2.7388
 1479SOL     OW15898   2.164   4.684   5.932  0.0469 -0.3296 -0.4278
 1479SOL    HW115899   2.162   4.713   6.023  1.9337 -1.2702 -0.0863
 1479SOL    HW215900   2.147   0.037   5.879 -1.1668  0.1132  0.6187
 1480SOL     OW15901   4.246   2.786   7.561 -0.0071 -0.3343 -1.0937
 1480SOL    HW115902   4.175   2.787   7.625  0.4523 -0.2362 -0.5891
 1480SOL    HW215903   4.271   2.878   7.567  0.9152 -0.6537 -0.0962
 1481SOL     OW15904   4.518   2.152  15.643  0.4124 -0.1199 -0.1470
 1481SOL    HW115905   4.425   2.155  15.621  0.7752 -0.2174 -1.6648
 1481SOL    HW215906   4.541   2.061  15.621  1.0189  1.0347 -4.2496
 1482SOL     OW15907   1.090   0.677   2.980 -0.2010  0.1675  0.0394
 1482SOL    HW115908   1.155   0.652   3.045 -0.5697 -0.6291  0.0936
 1482SOL    HW215909   1.146   0.731   2.923  2.6153 -0.1015  2.5483
 1483SOL     OW15910   0.429   1.798   4.967 -0.5153  0.2814  0.0153
 1483SOL    HW115911   0.444   1.776   5.059  2.6982 -1.0131 -0.8443
 1483SOL    HW215912   0.334   1.810   4.961 -0.6641 -1.2758 -0.9381
 1484SOL     OW15913   4.471   0.175   7.256  0.1898  0.1905 -0.4162
 1484SOL    HW115914   4.549   0.138   7.296 -1.2436 -2.4451 -0.0511
 1484SOL    HW215915   4.413   0.119   7.308 -2.2377  3.3847  0.3654
 1485SOL     OW15916   0.492   0.080  11.184  0.0068 -0.1581 -0.4461
 1485SOL    HW115917   0.552   0.077  11.259 -2.2923 -1.4561  1.3623
 1485SOL    HW215918   0.523   0.166  11.157  1.1231  0.2009  1.9304
 1486SOL     OW15919   0.883   4.416  11.128  0.1782  0.0844  0.1978
 1486SOL    HW115920   0.880   4.388  11.036  1.0624 -1.1842  0.5557
 1486SOL    HW215921   0.961   4.471  11.135 -0.6623  1.2401  0.5326
 1487SOL     OW15922   3.114   3.154   7.134 -0.2658  0.0564 -0.2798
 1487SOL    HW115923   3.134   3.236   7.090 -0.6293 -0.8770 -2.1928
 1487SOL    HW215924   3.056   3.106   7.075  2.0658 -2.0567 -0.8882
 1488SOL     OW15925   1.320   4.691   5.025  0.1707 -0.1653 -0.5276
 1488SOL    HW115926   1.259   0.026   4.983 -1.0242 -1.1658 -0.1979
 1488SOL    HW215927   1.382   0.032   5.057  0.5798 -0.5578 -0.5135
 1489SOL     OW15928   1.843   1.662   4.841 -0.6633 -0.1525 -0.7417
 1489SOL    HW115929   1.890   1.610   4.906 -1.9792  0.6745  0.8673
 1489SOL    HW215930   1.816   1.744   4.881  2.5395  1.5643 -2.1026
 1490SOL     OW15931   3.638   0.555   2.295 -0.1441  0.0935  0.3917
 1490SOL    HW115932   3.656   0.634   2.347 -0.2286  0.4857 -0.1703
 1490SOL    HW215933   3.599   0.580   2.211 -0.0417 -2.0337 -0.2857
 1491SOL     OW15934   2.699   0.100   0.573 -0.1366 -0.2247 -0.5803
 1491SOL    HW115935   2.608   0.091   0.543  0.2957  1.3309 -2.3806
 1491SOL    HW215936   2.729   0.168   0.513 -0.9293  1.5299  1.0021
 1492SOL     OW15937   2.963   3.668  11.970  0.6054  0.7935 -0.1026
 1492SOL    HW115938   2.948   3.657  12.064  1.3346 -2.3109 -0.3595
 1492SOL    HW215939   2.986   3.761  11.963  1.0286  0.7700  0.9476
 1493SOL     OW15940   2.772   1.772   1.691 -0.2592 -0.1382  0.3535
 1493SOL    HW115941   2.848   1.752   1.746  0.9776  1.2856 -0.8395
 1493SOL    HW215942   2.803   1.846   1.639 -0.9295 -0.6164 -0.7428
 1494SOL     OW15943   0.690   2.134   3.119 -0.2407  0.3426 -0.2233
 1494SOL    HW115944   0.700   2.208   3.059 -1.3015 -0.0820 -0.9343
 1494SOL    HW215945   0.766   2.157   3.171  0.5273 -2.3621 -0.1713
 1495SOL     OW15946   0.145   0.819  13.034 -0.9350  0.3450  0.0948
 1495SOL    HW115947   0.185   0.834  13.120  0.8355 -1.3574 -0.4307
 1495SOL    HW215948   0.064   0.778  13.065 -0.4284 -0.5129  0.2805
 1496SOL     OW15949   2.105   0.189  11.777 -0.5408  0.0632 -0.5258
 1496SOL    HW115950   2.131   0.262  11.833 -0.5769 -1.0306  0.9264
 1496SOL    HW215951   2.081   0.239  11.699 -0.9886 -0.6093 -0.8199
 1497SOL     OW15952   3.572   0.484   8.135  0.4728  0.3972  0.3055
 1497SOL    HW115953   3.499   0.510   8.079  1.0628  0.1256 -0.5873
 1497SOL    HW215954   3.530   0.463   8.219  0.1068 -0.8827 -0.2073
 1498SOL     OW15955   4.454   1.718   6.084 -0.3885  0.0533  0.0327
 1498SOL    HW115956   4.506   1.690   6.160  0.9732  0.0399 -0.9009
 1498SOL    HW215957   4.438   1.638   6.035 -0.4137  1.1985 -1.8535
 1499SOL     OW15958   0.683   2.991   6.652  0.1904  0.3554  0.1166
 1499SOL    HW115959   0.689   2.991   6.556 -1.2924 -0.8729  0.0270
 1499SOL    HW215960   0.628   3.067   6.669  1.3540  1.0269  0.9197
 1500SOL     OW15961   2.309   2.468   1.750 -0.0514  0.2097 -0.7086
 1500SOL    HW115962   2.233   2.525   1.764  0.2854  0.2912  0.7491
 1500SOL    HW215963   2.312   2.415   1.829 -4.2543  1.3909  0.2594
 1501SOL     OW15964   0.193   1.472   3.745 -0.5237 -0.2045  0.1634
 1501SOL    HW115965   0.181   1.413   3.671  0.2240  0.3327 -0.3879
 1501SOL    HW215966   0.120   1.534   3.733 -0.0462  0.5060  0.9046
 1502SOL     OW15967   4.244   1.572   5.191 -0.4208 -0.6742  0.6642
 1502SOL    HW115968   4.156   1.548   5.221 -0.4916  0.0151  1.0237
 1502SOL    HW215969   4.228   1.623   5.112 -3.3597 -2.4089  0.1153
 1503SOL     OW15970   4.678   0.068  16.514  0.0503  0.2284  0.2054
 1503SOL    HW115971   4.675   0.045  16.422 -1.3965 -0.3217  0.3913
 1503SOL    HW215972   0.017   0.140  16.513  0.4202 -0.1337 -1.2845
 1504SOL     OW15973   1.065   2.919   5.620  0.8551 -0.3359  0.0458
 1504SOL    HW115974   1.088   3.001   5.663  1.4379  0.3162 -1.5202
 1504SOL    HW215975   0.969   2.917   5.623  0.8649 -1.9538 -0.6189
 1505SOL     OW15976   1.195   1.054  10.057 -0.5164 -0.2452  0.5043
 1505SOL    HW115977   1.138   1.022   9.988 -0.5840 -3.3658  2.0431
 1505SOL    HW215978   1.182   1.149  10.053  1.4604 -0.2015 -3.8912
 1506SOL     OW15979   3.885   0.341   1.489 -0.4870 -0.0667  0.7461
 1506SOL    HW115980   3.890   0.287   1.568  0.5288 -1.8579 -0.5728
 1506SOL    HW215981   3.859   0.266   1.436 -1.0816  1.1210 -0.6677
 1507SOL     OW15982   3.065   3.296   5.566  0.0845 -0.4707  0.1732
 1507SOL    HW115983   3.053   3.365   5.501 -0.8797 -2.0489 -1.3291
 1507SOL    HW215984   3.157   3.290   5.590  0.1861  1.8947  0.3572
 1508SOL     OW15985   2.962   2.838   4.194  0.2307  0.4433  0.5756
 1508SOL    HW115986   2.926   2.921   4.225 -2.0223  0.3681 -1.9011
 1508SOL    HW215987   2.996   2.802   4.277  1.9278 -2.5923 -1.4326
 1509SOL     OW15988   0.442   1.391  11.952  0.5573 -0.5157  0.2178
 1509SOL    HW115989   0.369   1.363  12.007 -1.1247  3.2457 -0.1657
 1509SOL    HW215990   0.400   1.446  11.886 -0.5645 -0.4434  1.0049
 1510SOL     OW15991   1.814   2.364   7.404  0.1448  0.2070 -0.0746
 1510SOL    HW115992   1.886   2.427   7.399 -0.7690  1.5191  3.0251
 1510SOL    HW215993   1.742   2.423   7.426 -0.9589 -1.8448  1.9218
 1511SOL     OW15994   0.826   4.387   5.044  0.4628  0.3812  0.1118
 1511SOL    HW115995   0.763   4.352   4.980 -0.0283  1.1128  0.1980
 1511SOL    HW215996   0.904   4.366   4.993 -0.7838 -1.9170 -0.8568
 1512SOL     OW15997   3.873   0.390   8.946 -0.1577 -0.1056  0.2419
 1512SOL    HW115998   3.794   0.415   8.899 -0.0149 -1.8553 -0.9366
 1512SOL    HW215999   3.844   0.368   9.035  3.8235 -2.1124  1.0680
 1513SOL     OW16000   0.126   4.202   8.394  0.1740  0.6942  0.5875
 1513SOL    HW116001   0.098   4.276   8.340  1.4212 -0.1747 -1.2668
 1513SOL    HW216002   0.121   4.238   8.483  0.5445  0.6044  0.6449
 1514SOL     OW16003   0.974   2.578  11.967 -0.5870 -0.4472  0.0365
 1514SOL    HW116004   1.011   2.523  12.036 -1.6364 -0.2894  0.7170
 1514SOL    HW216005   1.045   2.642  11.957 -0.1223 -1.5717 -3.6914
 1515SOL     OW16006   1.786   3.621   5.824 -0.4417  0.4878 -0.0348
 1515SOL    HW116007   1.733   3.589   5.898  0.3846 -2.4870 -0.7128
 1515SOL    HW216008   1.766   3.550   5.763  0.6689  0.6683 -0.5991
 1516SOL     OW16009   3.174   1.193   8.620  0.0216 -0.5075 -0.0929
 1516SOL    HW116010   3.087   1.158   8.635  0.5597 -1.1647  1.4509
 1516SOL    HW216011   3.151   1.251   8.547 -0.7463 -0.1043  0.4633
 1517SOL     OW16012   3.532   0.129  15.154  0.6326  0.0279  0.3586
 1517SOL    HW116013   3.497   0.216  15.136 -0.6874 -0.4902  0.4454
 1517SOL    HW216014   3.603   0.153  15.214 -0.1327 -3.6687  2.7126
 1518SOL     OW16015   1.139   0.124   6.867 -0.0042 -0.3820  0.4691
 1518SOL    HW116016   1.086   0.128   6.946 -1.7294 -1.4206 -0.6352
 1518SOL    HW216017   1.068   0.101   6.807  0.2585  1.0623 -0.3889
 1519SOL     OW16018   3.732   4.538   0.278 -0.1810  0.6615 -0.2804
 1519SOL    HW116019   3.727   4.510   0.369 -1.1831 -0.8735 -0.8022
 1519SOL    HW216020   3.777   4.460   0.247 -3.7654 -2.0102  1.3449
 1520SOL     OW16021   0.240   2.353   3.476 -0.5763  0.0458 -0.0307
 1520SOL    HW116022   0.163   2.345   3.420 -0.0712  0.9527 -0.8562
 1520SOL    HW216023   0.301   2.306   3.419  1.4915  0.8878  1.4812
 1521SOL     OW16024   2.881   3.859   2.231 -0.3614  0.1817 -0.4380
 1521SOL    HW116025   2.802   3.901   2.266  0.3786  0.2263  1.1235
 1521SOL    HW216026   2.848   3.770   2.223 -0.2024  0.0659  0.2689
 1522SOL     OW16027   4.724   1.404   5.828  0.0038 -0.2747 -0.0162
 1522SOL    HW116028   0.064   1.405   5.758 -0.2346 -2.5321 -0.2852
 1522SOL    HW216029   4.722   1.310   5.846 -1.5253 -0.4331 -1.1052
 1523SOL     OW16030   1.562   2.451   2.112 -0.1009 -0.2750 -0.4061
 1523SOL    HW116031   1.635   2.434   2.053  0.8915  1.3900  0.3413
 1523SOL    HW216032   1.566   2.545   2.127 -0.8001 -0.4054  0.6195
 1524SOL     OW16033   4.433   4.362   9.629  0.2707  0.1389 -0.0008
 1524SOL    HW116034   4.505   4.425   9.635  0.3263  0.0268  0.4976
 1524SOL    HW216035   4.478   4.277   9.635 -1.1026 -0.6747 -1.2208
 1525SOL     OW16036   3.480   4.305   5.071  0.2121 -0.0705  0.0086
 1525SOL    HW116037   3.569   4.285   5.098 -0.2320  1.1718  2.3813
 1525SOL    HW216038   3.497   4.287   4.979  0.1281  2.2241 -0.4529
 1526SOL     OW16039   1.438   1.377  10.723 -0.6301 -0.0747  0.3736
 1526SOL    HW116040   1.404   1.449  10.777 -1.8932 -0.6357  0.3349
 1526SOL    HW216041   1.376   1.384  10.650  1.0036  0.9191 -0.9135
 1527SOL     OW16042   1.232   0.690  17.109  0.7527 -0.4179 -0.0349
 1527SOL    HW116043   1.268   0.602  17.122 -0.7685 -0.6034  2.9945
 1527SOL    HW216044   1.224   0.692  17.013  0.5403  2.7566  0.0592
 1528SOL     OW16045   1.520   0.144   8.225 -0.5737  0.2975 -0.4678
 1528SOL    HW116046   1.571   0.086   8.282 -0.2043  1.4967  0.4239
 1528SOL    HW216047   1.582   0.216   8.218 -1.4846  0.9518 -1.9022
 1529SOL     OW16048   3.734   1.575   0.352  0.6683  0.2660 -0.0517
 1529SOL    HW116049   3.744   1.554   0.445 -2.6692  1.4503  0.5966
 1529SOL    HW216050   3.803   1.522   0.313  0.5010 -2.4132  3.2407
 1530SOL     OW16051   0.396   1.728  17.446  0.1412  0.8746 -0.3860
 1530SOL    HW116052   0.386   1.824  17.445 -0.1707  0.8459 -0.1182
 1530SOL    HW216053   0.331   1.705  17.380 -1.6419 -0.1841  1.7462
 1531SOL     OW16054   1.146   1.644  11.679  0.9090  0.1533 -0.3876
 1531SOL    HW116055   1.145   1.712  11.746  2.0438 -1.9556  1.8017
 1531SOL    HW216056   1.175   1.577  11.741  0.1811  2.1539  2.0794
 1532SOL     OW16057   4.241   1.043   9.762 -0.0769 -0.0398 -0.5808
 1532SOL    HW116058   4.189   1.118   9.732  1.2017  0.6843 -1.0352
 1532SOL    HW216059   4.183   1.020   9.834  1.7844 -1.3419  0.4983
 1533SOL     OW16060   2.943   2.281  11.481 -0.4866  0.4801 -0.3645
 1533SOL    HW116061   2.887   2.294  11.557 -0.5153  0.8208 -0.4428
 1533SOL    HW216062   3.028   2.304  11.518 -0.1989  0.8920 -1.2842
 1534SOL     OW16063   4.082   3.304   8.289  0.4666  0.2332 -0.4438
 1534SOL    HW116064   4.086   3.371   8.356 -0.6740 -0.1592  0.0144
 1534SOL    HW216065   4.095   3.224   8.341  1.1081 -0.2904 -1.3906
 1535SOL     OW16066   2.961   1.923   7.480  0.2016  0.1407  0.4330
 1535SOL    HW116067   3.005   1.842   7.455 -1.1332 -0.2651 -0.6441
 1535SOL    HW216068   2.991   1.939   7.570 -3.2317 -0.6150  1.7230
 1536SOL     OW16069   2.171   3.067   3.523  0.0696 -0.0493 -0.2818
 1536SOL    HW116070   2.113   3.095   3.452 -1.8092 -0.6357  1.0268
 1536SOL    HW216071   2.202   3.147   3.566 -1.1424  0.7004 -0.8014
 1537SOL     OW16072   2.015   2.539   2.583  0.0918  0.5440  0.7348
 1537SOL    HW116073   1.955   2.465   2.579 -0.6913  1.1722  0.9634
 1537SOL    HW216074   2.031   2.552   2.489 -0.6421 -0.7448  0.4373
 1538SOL     OW16075   1.712   0.102   3.486 -0.1528 -0.1041  0.1134
 1538SOL    HW116076   1.626   0.127   3.452  0.2156 -0.3018 -0.9770
 1538SOL    HW216077   1.760   0.181   3.512 -2.3617  0.8783  1.1767
 1539SOL     OW16078   4.127   4.169   9.707 -0.2862  0.4901  0.0638
 1539SOL    HW116079   4.076   4.090   9.726  1.5467 -0.4938  0.9375
 1539SOL    HW216080   4.102   4.170   9.614 -2.8379  1.7986  0.7446
 1540SOL     OW16081   1.486   3.083   4.246  0.0334  0.1332 -0.1997
 1540SOL    HW116082   1.402   3.126   4.235 -0.5398 -0.9956 -0.1834
 1540SOL    HW216083   1.512   3.077   4.154 -0.3461 -0.5517 -0.2631
 1541SOL     OW16084   3.199   3.432   7.442 -0.2911  0.0652  0.3779
 1541SOL    HW116085   3.255   3.356   7.426  1.4488  1.9449 -2.6159
 1541SOL    HW216086   3.206   3.479   7.359 -0.0414 -0.3490  0.1641
 1542SOL     OW16087   3.102   2.730   1.322  0.3474  1.2956 -0.1646
 1542SOL    HW116088   3.128   2.696   1.408 -0.8249  0.7251 -0.0389
 1542SOL    HW216089   3.171   2.689   1.268 -0.5779 -0.6221  0.1113
 1543SOL     OW16090   0.129   2.454  11.503 -0.0960  0.5198 -0.3014
 1543SOL    HW116091   0.208   2.412  11.538  0.3959  0.7142 -1.1885
 1543SOL    HW216092   0.178   2.530  11.472 -2.9183  1.5383 -2.2169
 1544SOL     OW16093   4.523   0.156  13.242 -0.0665  1.0686  0.1069
 1544SOL    HW116094   4.469   0.087  13.281  1.9123  0.0843  1.0979
 1544SOL    HW216095   4.606   0.113  13.223 -1.1559 -1.6811  1.5691
 1545SOL     OW16096   1.680   2.135   0.657  0.6474  0.1191  0.0640
 1545SOL    HW116097   1.652   2.055   0.613  2.1535  0.9273 -2.3744
 1545SOL    HW216098   1.602   2.189   0.665  1.0605  0.6224  0.7682
 1546SOL     OW16099   3.844   0.216   5.410  0.7247 -0.5057  0.2989
 1546SOL    HW116100   3.803   0.281   5.466 -2.1316 -0.5722 -1.7202
 1546SOL    HW216101   3.901   0.273   5.358 -0.2492  0.1834 -0.0056
 1547SOL     OW16102   4.443   1.120   4.623  0.1295  0.4298 -0.2365
 1547SOL    HW116103   4.502   1.194   4.638 -1.4380  1.5598  0.2752
 1547SOL    HW216104   4.450   1.070   4.705  0.1941 -1.3287 -1.3111
 1548SOL     OW16105   3.897   4.229   6.325  0.0158  0.5571 -0.0746
 1548SOL    HW116106   3.826   4.257   6.267 -0.1117 -1.1507 -0.7250
 1548SOL    HW216107   3.862   4.148   6.361 -0.7796  2.1664  2.7672
 1549SOL     OW16108   2.758   4.170   7.680  0.8765  0.1129  0.1531
 1549SOL    HW116109   2.696   4.227   7.724 -0.3579 -1.2134  0.1393
 1549SOL    HW216110   2.730   4.192   7.591 -1.9299  0.7091  1.1936
 1550SOL     OW16111   1.291   1.735  15.098 -0.1177  0.2280  1.2309
 1550SOL    HW116112   1.380   1.752  15.066  0.0413 -1.8002  0.6454
 1550SOL    HW216113   1.309   1.666  15.161 -1.4909 -0.0731  1.2852
 1551SOL     OW16114   2.721   2.653   5.829  0.4676 -0.1333 -0.5477
 1551SOL    HW116115   2.720   2.613   5.742  1.2102 -0.8109 -0.2521
 1551SOL    HW216116   2.810   2.626   5.853  0.4053  1.0097  0.9874
 1552SOL     OW16117   1.706   1.001   5.514 -0.2870 -0.4734  0.7058
 1552SOL    HW116118   1.621   1.009   5.557  0.8677 -2.3380  3.3073
 1552SOL    HW216119   1.735   0.914   5.540  0.3071 -1.3557 -2.8781
 1553SOL     OW16120   0.992   0.669   9.711 -0.2423 -0.2921  0.1420
 1553SOL    HW116121   1.070   0.686   9.659 -1.5596  1.8346 -1.1790
 1553SOL    HW216122   0.938   0.629   9.642 -1.4897  1.0855  0.3007
 1554SOL     OW16123   1.236   0.770   2.642 -0.6018  0.4210  0.2907
 1554SOL    HW116124   1.319   0.807   2.674 -0.7515 -0.6458  1.9201
 1554SOL    HW216125   1.254   0.776   2.548  0.9026  0.5934  0.5787
 1555SOL     OW16126   4.330   0.617   5.960 -0.2996  0.2134  0.4911
 1555SOL    HW116127   4.415   0.574   5.960 -0.9165 -1.0281 -0.9474
 1555SOL    HW216128   4.288   0.548   6.012 -0.4897 -1.2147 -1.5473
 1556SOL     OW16129   1.761   0.424   5.901 -0.2228  0.4255 -0.2480
 1556SOL    HW116130   1.830   0.358   5.910 -1.3459 -0.6842  0.1320
 1556SOL    HW216131   1.684   0.376   5.932  0.3173  0.2524  0.7907
 1557SOL     OW16132   4.363   1.851   8.770 -0.3588  0.2174  0.2213
 1557SOL    HW116133   4.405   1.872   8.686 -1.0304 -1.1458 -0.4595
 1557SOL    HW216134   4.293   1.917   8.775  1.5937  2.1380  2.3577
 1558SOL     OW16135   3.109   2.584  13.488  0.4373  0.0473 -0.1476
 1558SOL    HW116136   3.114   2.669  13.445  1.0788  0.6793  1.1668
 1558SOL    HW216137   3.162   2.533  13.426  1.5540 -0.3822  1.1580
 1559SOL     OW16138   0.646   3.083  13.710 -0.3459  0.3898 -0.0601
 1559SOL    HW116139   0.607   3.148  13.768 -0.9394  1.0101 -1.1636
 1559SOL    HW216140   0.691   3.140  13.648  3.0603 -0.3747  1.7134
 1560SOL     OW16141   3.015   2.875   3.621 -0.3071  0.1553  0.0278
 1560SOL    HW116142   3.057   2.876   3.535  1.9952  2.2965  1.1924
 1560SOL    HW216143   3.074   2.934   3.667  0.2097 -0.0981 -0.3081
 1561SOL     OW16144   2.756   4.288  16.955 -0.0995 -0.2631 -0.2482
 1561SOL    HW116145   2.782   4.253  17.041  0.0315  3.2036  1.1149
 1561SOL    HW216146   2.821   4.248  16.897  0.9062 -0.1845  0.8111
 1562SOL     OW16147   1.914   3.485   9.151  0.0825 -0.1409  0.0861
 1562SOL    HW116148   2.003   3.513   9.174 -0.1379  1.5245 -1.0857
 1562SOL    HW216149   1.859   3.555   9.186 -0.2566  0.9330 -2.5929
 1563SOL     OW16150   1.143   1.639  15.479  0.0386 -0.5248  0.3084
 1563SOL    HW116151   1.135   1.675  15.567  0.2543  1.7243 -0.5801
 1563SOL    HW216152   1.177   1.714  15.430 -1.6999  1.4440  2.1286
 1564SOL     OW16153   3.495   2.206   2.568  0.0071  1.1324  0.3617
 1564SOL    HW116154   3.521   2.141   2.635 -1.8583  1.1540  1.0997
 1564SOL    HW216155   3.576   2.257   2.572  1.7847 -1.7598  2.3425
 1565SOL     OW16156   1.811   0.317   5.018  0.1122 -0.4565  0.2235
 1565SOL    HW116157   1.901   0.295   4.993  0.4405  3.0105 -1.7015
 1565SOL    HW216158   1.774   0.352   4.937 -0.2859  0.5956  0.8586
 1566SOL     OW16159   3.334   0.739   7.080 -0.6583 -0.4443  0.3979
 1566SOL    HW116160   3.417   0.705   7.046 -0.4754 -0.8823  1.2675
 1566SOL    HW216161   3.347   0.834   7.077  1.7787 -0.7392  1.5506
 1567SOL     OW16162   4.401   0.263   5.496 -1.1210 -0.6738 -0.2561
 1567SOL    HW116163   4.400   0.169   5.514 -1.2433 -1.0767 -2.3864
 1567SOL    HW216164   4.309   0.286   5.502 -0.0993  2.7806  2.0585
 1568SOL     OW16165   2.561   3.996   2.823  0.2476 -0.1267  0.6769
 1568SOL    HW116166   2.555   3.901   2.834 -2.4449 -0.2008 -1.5143
 1568SOL    HW216167   2.652   3.999   2.854  0.3835  0.5819  0.1967
 1569SOL     OW16168   2.443   2.608  16.067 -0.0084 -0.1795  0.1515
 1569SOL    HW116169   2.410   2.645  16.149  0.8000  3.3423 -1.1364
 1569SOL    HW216170   2.396   2.525  16.058 -3.0597  1.6619 -1.1252
 1570SOL     OW16171   2.045   2.174   4.255 -0.1232 -0.0418  0.0465
 1570SOL    HW116172   1.961   2.146   4.292 -1.6506 -0.1790 -3.5898
 1570SOL    HW216173   2.020   2.227   4.180 -0.1254  1.5041  1.1325
 1571SOL     OW16174   0.453   3.986   5.862 -0.6412 -0.1535  0.0274
 1571SOL    HW116175   0.442   3.892   5.877  2.3725 -0.7799 -1.7409
 1571SOL    HW216176   0.473   4.015   5.951  0.7199  0.6206 -0.5432
 1572SOL     OW16177   1.929   0.355   7.950  0.0040  0.1830  0.0651
 1572SOL    HW116178   1.906   0.264   7.966 -0.6011  0.3522  0.1739
 1572SOL    HW216179   1.884   0.367   7.866 -0.3959  0.3167  0.2982
 1573SOL     OW16180   2.960   2.679   9.055  0.9670  0.5391 -0.4484
 1573SOL    HW116181   3.019   2.660   9.128  0.8615  0.2917 -0.4270
 1573SOL    HW216182   3.019   2.735   9.005 -0.1621  0.9803 -1.2976
 1574SOL     OW16183   4.329   0.007   1.761 -0.0764  0.1257  0.3053
 1574SOL    HW116184   4.321   0.001   1.666  1.7302 -2.2270  0.3083
 1574SOL    HW216185   4.257   4.679   1.796 -1.2214  1.1416 -0.5003
 1575SOL     OW16186   1.726   4.046   8.209 -0.6758  0.2952 -0.4258
 1575SOL    HW116187   1.797   4.065   8.271  0.7497 -0.8941 -1.6816
 1575SOL    HW216188   1.719   4.128   8.161 -0.3042  0.8960  0.5542
 1576SOL     OW16189   4.528   2.241   7.588  0.3350 -0.6839 -0.0337
 1576SOL    HW116190   4.536   2.186   7.666 -3.0680 -3.0081 -1.3700
 1576SOL    HW216191   4.488   2.321   7.622  0.0144 -1.6586  1.9269
 1577SOL     OW16192   3.460   1.570   7.136  0.3678 -1.1320 -0.6045
 1577SOL    HW116193   3.495   1.539   7.053  1.8274  0.1080 -0.4489
 1577SOL    HW216194   3.480   1.494   7.192  0.1739 -0.4697  0.3755
 1578SOL     OW16195   4.449   4.384   0.744 -0.4800 -0.1367 -0.3251
 1578SOL    HW116196   4.398   4.390   0.663  0.4361  1.8633 -0.7456
 1578SOL    HW216197   4.461   4.477   0.763 -1.9580  0.0729 -0.3959
 1579SOL     OW16198   0.169   3.194  10.391 -0.3887 -0.1449 -0.0887
 1579SOL    HW116199   0.214   3.135  10.331  1.4529  0.1020  1.0253
 1579SOL    HW216200   0.232   3.266  10.382 -0.7957  0.0716 -1.2016
 1580SOL     OW16201   3.787   2.339   6.471 -0.2714 -0.3910 -0.4835
 1580SOL    HW116202   3.867   2.370   6.427 -1.4269  1.6153 -1.1954
 1580SOL    HW216203   3.821   2.266   6.523 -0.2106  0.1846  0.2758
 1581SOL     OW16204   2.328   3.762  10.452  0.1997 -0.1609 -0.0866
 1581SOL    HW116205   2.384   3.722  10.385  2.6590  0.9497  1.3128
 1581SOL    HW216206   2.362   3.852  10.456 -0.3012  0.0563 -0.6453
 1582SOL     OW16207   2.893   1.050   4.781  0.0442  0.1661 -0.1183
 1582SOL    HW116208   2.823   0.994   4.816  0.4900 -0.2547  0.1078
 1582SOL    HW216209   2.845   1.098   4.714 -1.4372  1.3964  1.8372
 1583SOL     OW16210   4.479   0.002  14.154 -0.2408  0.1129  0.0370
 1583SOL    HW116211   4.545   4.723  14.223  2.1459 -1.0576 -2.2963
 1583SOL    HW216212   4.413   0.046  14.207 -0.1242 -1.0470  1.1397
 1584SOL     OW16213   2.071   1.872   8.037 -0.0885  0.1242 -0.0690
 1584SOL    HW116214   2.023   1.797   8.071 -1.3468  0.3086 -1.4217
 1584SOL    HW216215   2.111   1.835   7.958 -1.0383 -1.4960  0.2094
 1585SOL     OW16216   0.474   2.446  11.923  0.3465 -0.7360 -0.7526
 1585SOL    HW116217   0.379   2.440  11.924  0.4259 -1.5513  1.2115
 1585SOL    HW216218   0.479   2.430  11.828 -2.5612 -1.9152 -0.7226
 1586SOL     OW16219   1.649   4.143   9.981 -0.3307  0.3536 -0.7109
 1586SOL    HW116220   1.725   4.161   9.926  0.9372  2.3065  1.6837
 1586SOL    HW216221   1.596   4.215   9.945 -0.2458  0.8524  0.1634
 1587SOL     OW16222   3.282   0.276  11.382  0.5489  0.2138 -0.4165
 1587SOL    HW116223   3.213   0.321  11.432  1.0416  0.7850 -0.2428
 1587SOL    HW216224   3.331   0.341  11.332 -0.6565 -0.2137 -2.1429
 1588SOL     OW16225   3.097   1.849   1.168  0.2007 -0.4944 -0.5924
 1588SOL    HW116226   3.056   1.768   1.199  0.0891  0.1403  0.9381
 1588SOL    HW216227   3.059   1.901   1.239  1.3178 -0.3717 -0.0886
 1589SOL     OW16228   2.654   1.506  17.366 -0.1283 -0.4287  0.0196
 1589SOL    HW116229   2.649   1.601  17.377  0.1837 -0.4557  0.4037
 1589SOL    HW216230   2.683   1.472  17.450  1.0656  0.7058  0.0775
 1590SOL     OW16231   3.952   3.039   1.573  0.1909  0.6477  0.2992
 1590SOL    HW116232   3.971   2.963   1.519  1.5130  1.0667  0.1707
 1590SOL    HW216233   4.026   3.097   1.557 -0.0176  1.0288  0.7055
 1591SOL     OW16234   2.561   0.705   3.571 -0.3878 -0.3447  0.3142
 1591SOL    HW116235   2.625   0.634   3.580 -0.8870 -0.9894 -1.1479
 1591SOL    HW216236   2.479   0.665   3.541 -0.3786 -0.4424  0.4208
 1592SOL     OW16237   0.812   2.236   7.134 -0.3808 -0.6577 -0.1762
 1592SOL    HW116238   0.743   2.300   7.148 -0.2768 -0.8919  1.3751
 1592SOL    HW216239   0.814   2.188   7.217 -0.9979  1.6898  1.1952
 1593SOL     OW16240   4.621   2.664   1.125  0.1794  0.2734  0.1272
 1593SOL    HW116241   4.679   2.653   1.200 -0.7516 -1.0557  0.6725
 1593SOL    HW216242   4.673   2.660   1.045  2.0096  2.3268  1.2188
 1594SOL     OW16243   4.332   2.653  13.504  0.1687 -0.7132 -0.2300
 1594SOL    HW116244   4.256   2.664  13.561  0.2394 -1.0761 -0.0672
 1594SOL    HW216245   4.398   2.703  13.552  0.0124 -0.4742 -0.2621
 1595SOL     OW16246   0.277   3.416   5.518  0.6893 -0.0534 -0.2218
 1595SOL    HW116247   0.240   3.328   5.528  3.1355 -1.0281  0.0392
 1595SOL    HW216248   0.266   3.449   5.429  0.8019  0.1165 -0.1717
 1596SOL     OW16249   1.030   4.517   1.393 -0.0808  0.5622  0.0042
 1596SOL    HW116250   0.984   4.433   1.398  1.1284  0.0082  2.1934
 1596SOL    HW216251   1.036   4.537   1.487 -1.1492  0.3603  0.1222
 1597SOL     OW16252   4.650   2.600  12.903 -0.0339 -0.1259  0.5567
 1597SOL    HW116253   4.583   2.615  12.969  0.1718  0.3997  0.6442
 1597SOL    HW216254   4.683   2.689  12.897 -0.1095 -0.1346 -0.0359
 1598SOL     OW16255   3.795   3.653   9.485  0.2047 -0.6401 -0.2701
 1598SOL    HW116256   3.708   3.618   9.465  0.1529  0.3795 -1.7880
 1598SOL    HW216257   3.859   3.592   9.450 -0.4670 -0.6148 -1.5555
 1599SOL     OW16258   0.357   3.201  12.246 -0.1502  0.1327  0.4150
 1599SOL    HW116259   0.332   3.235  12.160  2.5356 -0.3141 -0.5287
 1599SOL    HW216260   0.355   3.106  12.232 -0.0877  0.0827  0.7438
 1600SOL     OW16261   3.862   0.871  13.887  0.0876  0.2869 -0.3868
 1600SOL    HW116262   3.867   0.778  13.864 -2.3187 -0.1093  0.7507
 1600SOL    HW216263   3.773   0.897  13.864  0.0661  1.3281  0.8891
 1601SOL     OW16264   0.847   0.274   7.305 -0.3628  0.5203  0.6289
 1601SOL    HW116265   0.855   0.366   7.331  2.1444 -0.1474  2.2663
 1601SOL    HW216266   0.778   0.284   7.240 -0.2377 -0.0142  0.4123
 1602SOL     OW16267   1.011   3.761  14.755  0.3079 -0.3305  0.5506
 1602SOL    HW116268   1.050   3.840  14.717  0.1304 -0.7015 -0.3996
 1602SOL    HW216269   0.992   3.794  14.842 -0.2278 -0.5158  0.5076
 1603SOL     OW16270   1.890   2.506   1.424  0.4329 -0.3095 -0.0622
 1603SOL    HW116271   1.840   2.532   1.347  0.5493  0.5512  0.1481
 1603SOL    HW216272   1.920   2.422   1.392  1.9438 -0.1840  1.0261
 1604SOL     OW16273   1.964   3.849   7.263 -0.0667 -0.1539  0.1651
 1604SOL    HW116274   1.924   3.884   7.183 -2.2396  0.5906  1.5857
 1604SOL    HW216275   1.986   3.759   7.238 -0.3654  0.4273 -2.1972
 1605SOL     OW16276   3.947   1.122   2.016 -0.2066 -0.1025 -0.1925
 1605SOL    HW116277   4.037   1.153   2.007  0.9384 -2.7844  1.9366
 1605SOL    HW216278   3.912   1.145   1.930  1.7061  2.1863 -0.3541
 1606SOL     OW16279   0.911   0.673   2.544  1.1261 -0.1808 -0.9086
 1606SOL    HW116280   0.844   0.684   2.612  0.1078  0.1891 -1.9764
 1606SOL    HW216281   0.993   0.678   2.593  0.6589  0.2466 -0.1613
 1607SOL     OW16282   1.878   4.200  15.236 -0.5259  0.2138 -0.0932
 1607SOL    HW116283   1.914   4.135  15.176 -0.1292 -0.7553  1.1987
 1607SOL    HW216284   1.821   4.253  15.180 -1.5042  0.1281  0.8180
 1608SOL     OW16285   0.314   4.320  17.426  0.3106 -0.0750 -0.8619
 1608SOL    HW116286   0.281   4.271  17.351 -0.5183  1.1430 -1.2939
 1608SOL    HW216287   0.323   4.401  17.376  2.5047 -0.7681 -1.5813
 1609SOL     OW16288   0.196   1.144   1.734  0.4875 -0.0389  0.4376
 1609SOL    HW116289   0.232   1.232   1.747  1.5370 -0.3020 -0.7211
 1609SOL    HW216290   0.114   1.153   1.685  2.0496  1.3905 -1.9064
 1610SOL     OW16291   0.558   0.404  17.583  0.2513 -0.2083  0.5246
 1610SOL    HW116292   0.493   0.338  17.607  0.8786 -2.0044 -2.6947
 1610SOL    HW216293   0.549   0.471  17.651 -1.1660 -1.4513  1.5581
 1611SOL     OW16294   3.156   0.932   4.278  0.1697  0.6033 -0.3277
 1611SOL    HW116295   3.218   1.005   4.282 -1.0481  1.5316  1.9344
 1611SOL    HW216296   3.210   0.858   4.305 -0.3480  1.6535  3.6324
 1612SOL     OW16297   1.611   2.881   0.523  0.0844  0.4057  0.2531
 1612SOL    HW116298   1.690   2.914   0.479  0.8632  0.9290  2.0367
 1612SOL    HW216299   1.546   2.943   0.491  0.3738 -0.4864 -2.0913
 1613SOL     OW16300   1.176   1.132   6.474  0.3242 -0.0313  0.4927
 1613SOL    HW116301   1.084   1.110   6.480 -0.0906  0.9437 -2.0327
 1613SOL    HW216302   1.184   1.170   6.386  0.7029  1.1353  1.0198
 1614SOL     OW16303   0.029   1.180   2.875 -0.0821  0.0795  0.2008
 1614SOL    HW116304   0.011   1.102   2.927 -0.7177  0.8201  1.1179
 1614SOL    HW216305   4.677   1.185   2.818  0.4263  4.4290 -0.1477
 1615SOL     OW16306   4.087   0.406  16.232  0.1863  0.3051  0.1834
 1615SOL    HW116307   4.011   0.349  16.223 -1.6133  2.7634 -0.0054
 1615SOL    HW216308   4.091   0.440  16.143 -0.2251  0.4028  0.2054
 1616SOL     OW16309   4.413   2.957  10.227  0.0284  0.5432 -0.4453
 1616SOL    HW116310   4.340   2.983  10.172  0.1845  1.2347 -0.3193
 1616SOL    HW216311   4.478   3.027  10.216 -1.2147  1.5885 -1.1307
 1617SOL     OW16312   1.358   0.037  14.575  0.3228  0.3158 -0.0489
 1617SOL    HW116313   1.445   0.061  14.606 -0.1494  1.5403  0.3427
 1617SOL    HW216314   1.342   0.123  14.534  1.2190 -0.7571 -2.6645
 1618SOL     OW16315   2.846   3.126   9.355 -0.5319 -0.4013 -0.6551
 1618SOL    HW116316   2.771   3.082   9.316 -1.9621  1.8475 -0.4772
 1618SOL    HW216317   2.797   3.206   9.375  0.9121  0.5990 -1.1761
 1619SOL     OW16318   4.005   3.277   5.959  0.3501 -0.1416  0.2371
 1619SOL    HW116319   3.986   3.272   6.053  1.2324 -2.1774  0.3089
 1619SOL    HW216320   3.920   3.272   5.916 -0.1167  2.1476  0.9185
 1620SOL     OW16321   2.277   0.369   4.410  0.0106  0.3458 -0.1709
 1620SOL    HW116322   2.255   0.449   4.362 -0.0347 -0.0787 -0.8617
 1620SOL    HW216323   2.330   0.415   4.474 -0.6654  1.2536 -0.2584
 1621SOL     OW16324   2.919   2.546  17.172  0.0418  0.2845 -1.0796
 1621SOL    HW116325   3.004   2.542  17.128  0.4488 -1.3103 -0.1212
 1621SOL    HW216326   2.892   2.454  17.168 -1.2160  0.6061  0.4644
 1622SOL     OW16327   2.359   3.073   2.479  0.1897 -0.5741 -0.3354
 1622SOL    HW116328   2.417   3.120   2.539  0.2763  0.1734 -0.9924
 1622SOL    HW216329   2.359   2.985   2.516  2.7291 -1.0358 -1.4715
 1623SOL     OW16330   3.334   1.951   8.376 -0.2247 -0.0783 -0.1694
 1623SOL    HW116331   3.354   1.877   8.433 -1.9863 -0.0104  0.5247
 1623SOL    HW216332   3.250   1.932   8.333 -1.1996 -1.2891  2.2559
 1624SOL     OW16333   3.965   4.196   8.297  0.2260  0.1467  0.8595
 1624SOL    HW116334   3.998   4.122   8.349 -0.0601 -1.4023 -1.1841
 1624SOL    HW216335   3.870   4.191   8.306  0.2432  1.0491  1.5847
 1625SOL     OW16336   2.996   2.913  10.824 -0.3730  0.5319 -0.1414
 1625SOL    HW116337   3.011   2.935  10.915 -0.2059  0.6050 -0.1867
 1625SOL    HW216338   2.994   2.817  10.825 -2.8437  0.5640 -2.1513
 1626SOL     OW16339   1.381   0.581  10.891  0.2347  0.5108  0.0563
 1626SOL    HW116340   1.434   0.562  10.813  0.6587  0.6038  0.3166
 1626SOL    HW216341   1.305   0.622  10.851 -0.3049 -0.0963  0.4639
 1627SOL     OW16342   3.205   0.872  15.548 -0.2661 -0.1775 -0.1285
 1627SOL    HW116343   3.129   0.876  15.605 -0.6230 -2.5477 -0.4474
 1627SOL    HW216344   3.273   0.924  15.593  2.4034 -2.7811 -1.1325
 1628SOL     OW16345   1.256   1.399   3.232  0.1408  0.1524  0.5207
 1628SOL    HW116346   1.309   1.479   3.224  0.4815 -0.1180  0.1188
 1628SOL    HW216347   1.172   1.443   3.246 -0.4891 -0.9060  0.0234
 1629SOL     OW16348   2.354   1.720   0.693  0.0189  0.2900 -0.2278
 1629SOL    HW116349   2.316   1.808   0.696 -2.0398 -0.5277 -1.9927
 1629SOL    HW216350   2.300   1.662   0.747 -1.2608  0.9643 -0.7779
 1630SOL     OW16351   1.608   3.124   5.236 -0.4826 -0.5320 -0.1689
 1630SOL    HW116352   1.535   3.115   5.176 -0.8484 -0.0454  0.2047
 1630SOL    HW216353   1.678   3.066   5.205 -0.1497  1.0928 -2.4555
 1631SOL     OW16354   3.487   0.586   9.202 -0.3999 -0.5385 -0.1936
 1631SOL    HW116355   3.396   0.557   9.199 -0.0894 -1.7075  1.5251
 1631SOL    HW216356   3.490   0.614   9.111 -1.0465 -0.9990 -0.3591
 1632SOL     OW16357   2.082   2.128   8.957 -0.2350 -0.0534 -0.2100
 1632SOL    HW116358   2.089   2.101   8.865  0.0190 -0.1122 -0.1745
 1632SOL    HW216359   2.142   2.065   8.996 -1.1226 -1.8300 -1.7345
 1633SOL     OW16360   4.701   1.502   5.426 -0.4325 -0.1115  0.1872
 1633SOL    HW116361   4.710   1.411   5.456  1.5104  0.2242  0.6454
 1633SOL    HW216362   0.014   1.495   5.339 -0.8612 -0.6568  0.0416
 1634SOL     OW16363   1.224   3.109  17.698  0.0325  0.3861 -0.1027
 1634SOL    HW116364   1.228   3.018  17.669  0.1772  1.0963 -2.2701
 1634SOL    HW216365   1.298   3.118   0.058  0.2488 -1.0286 -0.1529
 1635SOL     OW16366   0.019   1.928  10.511  0.4426  0.1809  0.9690
 1635SOL    HW116367   0.074   1.957  10.583  2.3878  0.9813 -0.8341
 1635SOL    HW216368   0.074   1.870  10.459  3.1383  2.2663  1.5214
 1636SOL     OW16369   1.199   3.074   9.397 -0.0689  0.1635 -0.5092
 1636SOL    HW116370   1.147   3.143   9.357 -1.5418 -0.2164  0.7331
 1636SOL    HW216371   1.291   3.101   9.398  0.1534 -0.5946 -0.0596
 1637SOL     OW16372   0.163   1.214   4.315  0.1640  0.3142  0.8627
 1637SOL    HW116373   0.130   1.278   4.253 -1.0678 -3.2917 -2.1758
 1637SOL    HW216374   0.222   1.261   4.374  0.4082  1.2533 -0.1417
 1638SOL     OW16375   0.200   2.861   2.762 -0.2175 -0.0397 -0.1683
 1638SOL    HW116376   0.141   2.861   2.837  0.6471 -1.4271  0.4954
 1638SOL    HW216377   0.129   2.869   2.698  1.4609 -0.6611 -2.0875
 1639SOL     OW16378   1.633   2.189   7.304 -0.4852  0.5023 -0.4105
 1639SOL    HW116379   1.716   2.236   7.318  0.5067 -1.8074  1.4958
 1639SOL    HW216380   1.659   2.103   7.338  0.6881  0.6712 -0.8900
 1640SOL     OW16381   1.744   1.037  14.005  0.1806  0.4385  0.0911
 1640SOL    HW116382   1.812   1.015  13.942 -0.8066  0.0854 -0.8666
 1640SOL    HW216383   1.670   1.055  13.947 -1.0976 -0.5879  1.3994
 1641SOL     OW16384   4.228   1.655  14.073 -0.4828  0.6494 -0.1221
 1641SOL    HW116385   4.311   1.627  14.110 -1.3379 -0.0490  1.2588
 1641SOL    HW216386   4.184   1.698  14.147  2.1141  2.4132  0.3993
 1642SOL     OW16387   0.743   0.030   3.888  0.1005 -0.3190 -0.5637
 1642SOL    HW116388   0.706   4.721   3.807  1.6085  0.5778 -1.6277
 1642SOL    HW216389   0.750   0.123   3.866  0.2368 -0.7981 -2.4908
 1643SOL     OW16390   0.692   0.137   7.743  0.4412 -0.5433 -0.0564
 1643SOL    HW116391   0.674   0.112   7.652 -0.0390  2.4121 -0.7718
 1643SOL    HW216392   0.720   0.228   7.736  0.5277 -0.7746 -2.9092
 1644SOL     OW16393   3.773   3.994   1.969  0.5527  0.4289 -0.3019
 1644SOL    HW116394   3.779   4.074   2.021 -0.8585  1.7631 -2.1800
 1644SOL    HW216395   3.846   4.003   1.908  0.5006 -2.7276 -0.8223
 1645SOL     OW16396   0.989   3.104   6.352  0.0847 -0.4312  0.2768
 1645SOL    HW116397   1.005   3.138   6.439 -1.9062  0.4599  0.2898
 1645SOL    HW216398   1.006   3.010   6.353  0.5112 -0.3248  2.8810
 1646SOL     OW16399   1.787   1.401   5.084 -0.2914 -0.4473 -0.3002
 1646SOL    HW116400   1.853   1.460   5.048  0.4051  0.2816  2.1412
 1646SOL    HW216401   1.717   1.465   5.102 -0.4242 -0.8728  0.6853
 1647SOL     OW16402   2.958   2.616   8.195 -0.2237 -1.0442  0.3792
 1647SOL    HW116403   2.888   2.561   8.162 -0.5128 -0.4203 -0.0393
 1647SOL    HW216404   2.989   2.556   8.263 -1.9220 -1.7479  0.5112
 1648SOL     OW16405   4.413   4.416   8.169 -0.9173  0.0891  0.6899
 1648SOL    HW116406   4.375   4.490   8.121 -2.6891 -0.7556  0.7674
 1648SOL    HW216407   4.436   4.457   8.252 -1.5308  0.9142  0.4558
 1649SOL     OW16408   0.522   0.971   3.371 -0.1371 -0.0541  0.2681
 1649SOL    HW116409   0.510   1.050   3.424 -3.0307  0.3772 -0.9938
 1649SOL    HW216410   0.540   0.901   3.434 -1.8661 -1.4758 -0.7973
 1650SOL     OW16411   3.615   1.285   6.158  0.1547 -0.2645  0.3299
 1650SOL    HW116412   3.691   1.229   6.172 -0.1718 -1.2227 -1.5936
 1650SOL    HW216413   3.540   1.227   6.173  0.2619 -0.5375 -0.1805
 1651SOL     OW16414   0.141   1.862   4.937  0.0315 -0.1133 -0.4549
 1651SOL    HW116415   0.141   1.768   4.953 -0.8307  0.1300  0.9577
 1651SOL    HW216416   0.083   1.890   5.008  0.3481  0.7148 -0.5187
 1652SOL     OW16417   2.053   1.310   4.713  0.0162 -0.1486  0.0829
 1652SOL    HW116418   2.087   1.368   4.780 -0.9551  2.0052 -1.2864
 1652SOL    HW216419   1.959   1.326   4.719  0.5020  1.7052  2.5140
 1653SOL     OW16420   3.002   2.085   9.526  0.5962  0.0691  0.5089
 1653SOL    HW116421   2.993   2.174   9.561 -0.8412  0.5892 -1.2247
 1653SOL    HW216422   2.991   2.030   9.604 -0.3858  0.6053  0.7514
 1654SOL     OW16423   1.322   4.648   8.686  0.5554 -0.1194 -0.4086
 1654SOL    HW116424   1.270   4.570   8.667 -1.0912  0.7215  0.6076
 1654SOL    HW216425   1.252   4.714   8.679 -0.5625 -1.1234  1.4043
 1655SOL     OW16426   4.109   3.014  15.943 -0.5786  0.0988 -0.7929
 1655SOL    HW116427   4.143   2.946  16.001  0.2462  1.7608  0.6425
 1655SOL    HW216428   4.020   2.983  15.923 -0.0976 -1.5794 -0.3537
 1656SOL     OW16429   1.449   1.450   5.389  0.4991  0.4101  0.5816
 1656SOL    HW116430   1.427   1.381   5.326  4.4387  0.7654 -1.1487
 1656SOL    HW216431   1.543   1.455   5.376  0.5429 -0.5707  0.5144
 1657SOL     OW16432   0.039   1.991   4.155  0.1340 -0.3127 -0.6597
 1657SOL    HW116433   0.124   1.995   4.112  0.7023  0.0319  0.5017
 1657SOL    HW216434   0.040   1.907   4.199  0.3990 -0.5202 -1.0640
 1658SOL     OW16435   2.827   2.218  10.602  0.0641 -0.0922  0.2159
 1658SOL    HW116436   2.736   2.190  10.594 -0.6132  2.3829 -0.9057
 1658SOL    HW216437   2.867   2.136  10.631  1.7508  1.1846  1.5182
 1659SOL     OW16438   3.553   2.583  14.992  0.6538 -0.0854 -0.0036
 1659SOL    HW116439   3.515   2.671  14.994  2.6377  0.7677  0.0968
 1659SOL    HW216440   3.577   2.590  14.899 -1.1667  0.3321 -0.4478
 1660SOL     OW16441   3.450   1.267   2.419  0.0067 -0.5085  0.5321
 1660SOL    HW116442   3.457   1.355   2.381 -0.0714 -0.9077 -0.4063
 1660SOL    HW216443   3.538   1.235   2.439  0.0986 -0.7992 -0.3351
 1661SOL     OW16444   3.076   0.246   6.540  0.6005  0.2177 -0.4880
 1661SOL    HW116445   3.105   0.316   6.598  1.3026 -0.4748 -0.0093
 1661SOL    HW216446   2.983   0.262   6.557  1.1887  2.4672  0.6394
 1662SOL     OW16447   3.663   3.227   2.321  0.4752  0.0097  0.3607
 1662SOL    HW116448   3.691   3.242   2.412 -2.4476  0.8740  1.1226
 1662SOL    HW216449   3.688   3.137   2.302  0.3486  0.4912 -2.0219
 1663SOL     OW16450   3.424   2.994   8.633 -0.2658 -0.1305 -0.2180
 1663SOL    HW116451   3.400   3.055   8.702 -2.6518 -2.1556  0.7530
 1663SOL    HW216452   3.413   2.910   8.679 -0.7249  1.0817  1.8843
 1664SOL     OW16453   2.088   2.827   7.808 -0.2538 -0.1047 -0.0414
 1664SOL    HW116454   2.031   2.778   7.750 -1.9284  2.2500 -0.3922
 1664SOL    HW216455   2.147   2.872   7.747 -1.3408  1.0883 -0.2106
 1665SOL     OW16456   1.990   4.477   5.458 -0.3845  0.3562  0.1846
 1665SOL    HW116457   1.992   4.549   5.520 -1.1346 -0.4220  1.1239
 1665SOL    HW216458   2.067   4.430   5.491 -1.3247  0.4136  2.4592
 1666SOL     OW16459   0.211   2.342   5.630  0.3135  0.3740  0.4235
 1666SOL    HW116460   0.295   2.387   5.621 -0.3686  1.7417  0.8690
 1666SOL    HW216461   0.241   2.267   5.681 -0.8389  0.3060  0.9956
 1667SOL     OW16462   4.474   2.841   2.084 -0.0672 -0.2218  0.8089
 1667SOL    HW116463   4.569   2.846   2.090 -0.0748 -0.3422  1.0031
 1667SOL    HW216464   4.463   2.752   2.116 -0.8780 -0.6530 -0.6651
 1668SOL     OW16465   4.559   0.602   0.419  0.1320  0.2399 -0.1945
 1668SOL    HW116466   4.624   0.625   0.352  0.4565  0.6908  0.2774
 1668SOL    HW216467   4.531   0.688   0.450 -1.9193 -0.9226  1.1841
 1669SOL     OW16468   4.066   2.714   8.130 -0.6701  0.0741  0.4253
 1669SOL    HW116469   4.085   2.782   8.194 -1.2033 -0.6068  1.3022
 1669SOL    HW216470   4.059   2.769   8.052 -0.0073 -0.5067 -0.0378
 1670SOL     OW16471   2.050   0.064   9.000 -0.6087  0.0809  0.5667
 1670SOL    HW116472   1.993   4.717   9.030  1.0989 -1.6850 -0.4302
 1670SOL    HW216473   1.997   0.140   9.023 -0.8302  0.2374 -0.4806
 1671SOL     OW16474   0.189   4.553   2.136 -0.2931  0.1981  0.1045
 1671SOL    HW116475   0.108   4.524   2.179  0.9502 -0.7374  1.8149
 1671SOL    HW216476   0.250   4.530   2.206  0.0323  1.4972  0.2452
 1672SOL     OW16477   1.922   3.346   3.572 -0.1454  0.6397  0.2117
 1672SOL    HW116478   1.826   3.341   3.572 -0.1390  0.4919  0.5268
 1672SOL    HW216479   1.957   3.342   3.483  2.5603  1.6605  1.2363
 1673SOL     OW16480   1.023   1.646   7.170  0.1799 -0.4651 -0.4533
 1673SOL    HW116481   1.059   1.648   7.259 -1.7633  0.3845  0.3195
 1673SOL    HW216482   0.968   1.569   7.181 -0.7100 -0.0830 -2.2006
 1674SOL     OW16483   0.472   1.892  16.362 -0.3110  0.2578  0.0249
 1674SOL    HW116484   0.521   1.817  16.326  0.1661  0.7317 -0.3102
 1674SOL    HW216485   0.416   1.847  16.425 -0.6788  1.2060  0.3701
 1675SOL     OW16486   3.381   3.642  16.814  0.6357 -0.3459 -0.5658
 1675SOL    HW116487   3.366   3.698  16.738  2.3399 -0.2653 -0.8574
 1675SOL    HW216488   3.468   3.668  16.847  0.6868 -0.5585 -0.5332
 1676SOL     OW16489   0.748   4.194   3.252  0.4640 -0.2098 -0.2585
 1676SOL    HW116490   0.822   4.239   3.211  0.1050  0.5600 -0.0474
 1676SOL    HW216491   0.686   4.262   3.226 -0.0860 -0.9205 -0.8149
 1677SOL     OW16492   0.555   0.616  11.053  0.2261 -0.0342  0.1631
 1677SOL    HW116493   0.506   0.650  11.128  0.3082  0.1399  0.1375
 1677SOL    HW216494   0.550   0.691  10.994 -2.0713  1.3206  2.0774
 1678SOL     OW16495   3.852   2.113   7.265  0.0938 -0.2561  0.1017
 1678SOL    HW116496   3.779   2.056   7.240  0.3241 -0.4601 -0.1091
 1678SOL    HW216497   3.914   2.048   7.298  0.9304  0.3695 -0.2553
 1679SOL     OW16498   0.468   0.139   2.953 -0.5055 -0.1469 -0.0958
 1679SOL    HW116499   0.549   0.185   2.932  0.3558 -1.0627  1.2421
 1679SOL    HW216500   0.403   0.181   2.896 -1.9317 -0.5113  1.2467
 1680SOL     OW16501   3.872   4.702   8.644 -0.0261 -0.1033  0.0973
 1680SOL    HW116502   3.819   4.635   8.601  1.5249 -0.9352 -0.5170
 1680SOL    HW216503   3.957   4.661   8.629 -0.1319 -0.2776 -0.0230
 1681SOL     OW16504   4.171   1.600   3.063 -0.4640 -0.2145 -0.1684
 1681SOL    HW116505   4.218   1.667   3.013 -1.3544  0.1154 -0.5673
 1681SOL    HW216506   4.141   1.649   3.140  0.8308  3.2463 -1.8891
 1682SOL     OW16507   2.808   2.357   5.709 -0.0745  0.1820  0.2914
 1682SOL    HW116508   2.713   2.368   5.719 -0.2478 -1.2355  0.1778
 1682SOL    HW216509   2.834   2.447   5.731  0.6869  0.4199 -1.6499
 1683SOL     OW16510   0.643   4.698   3.128  0.5417  0.5783  0.6174
 1683SOL    HW116511   0.573   4.724   3.069  1.0108 -0.9491 -0.6050
 1683SOL    HW216512   0.625   4.605   3.139 -0.3958  0.6247 -0.4776
 1684SOL     OW16513   4.670   2.529  11.823 -0.0682  0.5774  0.7210
 1684SOL    HW116514   4.705   2.455  11.872  3.4588  2.5195  1.1308
 1684SOL    HW216515   4.605   2.485  11.767  0.3625 -0.9738  1.4614
 1685SOL     OW16516   2.818   2.763   8.650  0.0746  0.4846 -0.2011
 1685SOL    HW116517   2.724   2.748   8.658 -0.1133  3.2621  2.9621
 1685SOL    HW216518   2.841   2.683   8.697  2.0282  0.7855 -0.6339
 1686SOL     OW16519   0.466   2.474   8.724 -0.0982 -0.1437  0.3895
 1686SOL    HW116520   0.546   2.512   8.762  1.3932 -1.4166 -1.4544
 1686SOL    HW216521   0.503   2.470   8.636  0.1857  0.0122  0.4997
 1687SOL     OW16522   4.425   0.602   9.083  0.2638 -0.6810 -0.0323
 1687SOL    HW116523   4.443   0.664   9.012 -1.6304 -0.5253 -0.3549
 1687SOL    HW216524   4.396   0.525   9.035 -1.9416  0.0432  0.1689
 1688SOL     OW16525   4.510   4.064   1.103 -0.0010 -0.1355  0.2872
 1688SOL    HW116526   4.465   3.982   1.084  3.2386 -1.8974  0.2711
 1688SOL    HW216527   4.449   4.116   1.050 -1.3565 -1.1790  0.8311
 1689SOL     OW16528   1.891   0.869   5.069 -0.1639  0.0350 -0.0821
 1689SOL    HW116529   1.918   0.927   4.997 -2.1880 -0.2344 -1.0596
 1689SOL    HW216530   1.813   0.829   5.029 -1.0945  1.6825  0.0987
 1690SOL     OW16531   3.615   0.732   0.818  0.0815 -0.4576 -0.1593
 1690SOL    HW116532   3.703   0.731   0.779  0.0610 -2.1799 -0.1734
 1690SOL    HW216533   3.583   0.820   0.798 -0.9221 -0.3786  1.8883
 1691SOL     OW16534   1.438   3.903   1.486  0.9037  0.1005 -0.2802
 1691SOL    HW116535   1.394   3.881   1.404  0.6386 -1.6744  0.3497
 1691SOL    HW216536   1.379   3.972   1.516 -0.5164 -1.9886  1.7442
 1692SOL     OW16537   3.776   0.416   5.621  0.3037  0.0386  0.2513
 1692SOL    HW116538   3.708   0.477   5.650 -0.5491 -1.7892  2.1340
 1692SOL    HW216539   3.792   0.369   5.703  1.6889  0.6126  0.3099
 1693SOL     OW16540   2.979   0.111  17.023  0.0691 -0.1476 -0.2780
 1693SOL    HW116541   2.958   0.177  17.089 -0.8369 -1.4017  0.6889
 1693SOL    HW216542   2.901   0.117  16.967  1.4320 -0.2448 -2.2070
 1694SOL     OW16543   1.932   0.271  15.337 -0.0754 -0.1015 -0.6924
 1694SOL    HW116544   1.846   0.276  15.378  0.6561  1.2483  0.6947
 1694SOL    HW216545   1.926   0.357  15.296 -1.7861  0.1249  0.0434
 1695SOL     OW16546   3.572   0.780   8.560 -0.1404 -0.1662  0.9852
 1695SOL    HW116547   3.517   0.857   8.546  0.3911  0.1645  0.7566
 1695SOL    HW216548   3.633   0.787   8.487 -1.5428  0.0156 -0.1652
 1696SOL     OW16549   4.272   1.235   3.214 -0.6026  0.3805 -0.4132
 1696SOL    HW116550   4.287   1.141   3.202 -1.0244  0.1004  1.2700
 1696SOL    HW216551   4.333   1.268   3.148 -1.8695  2.7595 -0.3984
 1697SOL     OW16552   4.457   1.338   0.528  0.2191 -0.1125  0.2434
 1697SOL    HW116553   4.383   1.397   0.512 -0.3501 -0.6088  1.0466
 1697SOL    HW216554   4.437   1.264   0.470  0.0692 -0.6503  0.9748
 1698SOL     OW16555   4.640   3.142  10.235 -0.3777  0.1899  0.0578
 1698SOL    HW116556   0.002   3.119  10.203  0.2874 -0.7485  2.6010
 1698SOL    HW216557   4.636   3.228  10.192 -0.1443  1.1142  1.8907
 1699SOL     OW16558   3.359   1.867   7.683  0.5884 -0.1001 -0.1307
 1699SOL    HW116559   3.360   1.829   7.595 -0.5011  1.3835 -0.7895
 1699SOL    HW216560   3.377   1.786   7.730  0.7152  0.1352  0.2230
 1700SOL     OW16561   0.085   3.962   1.534 -0.2786 -0.1387  0.0771
 1700SOL    HW116562   0.036   3.981   1.614  0.1734  0.9103  0.1172
 1700SOL    HW216563   0.091   3.867   1.529 -1.2927 -0.0615 -2.7649
 1701SOL     OW16564   0.889   3.904  11.184  0.1680  0.0734  0.4577
 1701SOL    HW116565   0.976   3.918  11.148 -0.3588 -0.3082 -0.9437
 1701SOL    HW216566   0.874   3.991  11.221  0.0973 -0.0191  0.6478
 1702SOL     OW16567   3.473   3.799   0.869  0.4546 -0.7280 -0.0176
 1702SOL    HW116568   3.487   3.890   0.843 -0.7269 -1.0905 -1.9216
 1702SOL    HW216569   3.385   3.794   0.831  1.5394 -1.9185 -2.4278
 1703SOL     OW16570   1.954   2.926   2.430  0.3569  0.3534  0.5327
 1703SOL    HW116571   1.888   2.973   2.482  2.5273  1.8288  1.9404
 1703SOL    HW216572   1.991   2.873   2.501  1.1353  1.3622  0.8768
 1704SOL     OW16573   2.315   1.359   6.563 -0.3365 -0.0142  0.1903
 1704SOL    HW116574   2.342   1.312   6.484 -0.1844 -1.2841  1.0153
 1704SOL    HW216575   2.367   1.304   6.620  0.0986  0.4841  0.2796
 1705SOL     OW16576   2.486   0.627  14.689 -1.2415  0.2671  0.6954
 1705SOL    HW116577   2.544   0.673  14.750 -1.4640  1.3943  0.0766
 1705SOL    HW216578   2.408   0.602  14.738 -0.0966  0.6948  2.7291
 1706SOL     OW16579   3.700   3.446   1.685  0.2830  0.2830  0.4205
 1706SOL    HW116580   3.636   3.516   1.673 -0.7042 -0.5615  0.6790
 1706SOL    HW216581   3.643   3.369   1.679  0.8636 -0.3692  3.0949
 1707SOL     OW16582   4.086   3.297   6.685 -0.3929  0.2826  0.4143
 1707SOL    HW116583   4.161   3.245   6.656 -1.0575 -0.4649  0.0372
 1707SOL    HW216584   4.125   3.330   6.765  1.0859  0.6878 -0.4787
 1708SOL     OW16585   4.275   4.240   0.990 -0.5138 -0.1587 -0.7236
 1708SOL    HW116586   4.229   4.316   1.025 -0.1724 -0.3892  0.2239
 1708SOL    HW216587   4.295   4.271   0.901  2.6610 -0.2829 -0.0457
 1709SOL     OW16588   4.650   2.482  15.054  0.5133 -0.6004 -0.2221
 1709SOL    HW116589   4.561   2.505  15.026  0.6747 -2.7977 -2.5614
 1709SOL    HW216590   4.648   2.386  15.055 -0.8386 -0.5637  2.3079
 1710SOL     OW16591   0.719   0.683   1.935  0.5165 -0.2324  0.0686
 1710SOL    HW116592   0.686   0.666   1.846  2.4556  2.0179 -1.0720
 1710SOL    HW216593   0.800   0.636   1.912  0.3717  0.6397 -2.2735
 1711SOL     OW16594   2.528   0.611   3.868  0.0031 -0.3102 -0.6768
 1711SOL    HW116595   2.480   0.653   3.797 -0.6531 -1.0040 -0.6388
 1711SOL    HW216596   2.602   0.671   3.862  0.1644 -0.7691 -3.3363
 1712SOL     OW16597   2.067   3.196   6.702 -0.3357 -0.0927  0.2542
 1712SOL    HW116598   2.125   3.132   6.661  0.2822 -0.1463  1.2058
 1712SOL    HW216599   2.136   3.250   6.740 -0.9717  1.0321 -0.1924
 1713SOL     OW16600   3.849   2.381   7.255  0.6572 -0.1574  0.1471
 1713SOL    HW116601   3.811   2.394   7.169  0.1685  2.4856  0.7406
 1713SOL    HW216602   3.838   2.287   7.272  1.2315 -0.0701  1.0499
 1714SOL     OW16603   1.924   0.080   1.547 -0.2509  0.3729  0.2839
 1714SOL    HW116604   1.951   0.032   1.469 -0.1142  0.2177  0.4294
 1714SOL    HW216605   1.855   0.133   1.506 -3.7783 -3.0679  1.7508
 1715SOL     OW16606   2.908   1.106   8.662  0.0875  0.1574 -0.2051
 1715SOL    HW116607   2.870   1.026   8.626 -0.1506 -0.3281  1.1317
 1715SOL    HW216608   2.829   1.153   8.688 -0.0150 -0.5306  0.7468
 1716SOL     OW16609   2.189   3.192   7.529 -0.3390 -0.1406  0.0414
 1716SOL    HW116610   2.243   3.164   7.455  0.0803 -1.4508  0.8399
 1716SOL    HW216611   2.151   3.275   7.501  1.5863  0.4058 -1.0004
 1717SOL     OW16612   1.512   1.215  17.275  0.3782  0.7100  0.7861
 1717SOL    HW116613   1.450   1.189  17.207  0.1268  3.7277 -0.1242
 1717SOL    HW216614   1.476   1.167  17.350 -1.2255  1.2087  0.3282
 1718SOL     OW16615   4.383   2.168  10.408 -0.1546 -0.3444 -0.3103
 1718SOL    HW116616   4.477   2.171  10.391 -0.0254 -0.2429  0.4032
 1718SOL    HW216617   4.379   2.234  10.477  1.6915 -0.3007 -0.2553
 1719SOL     OW16618   0.728   1.191   9.803  0.1215 -0.3072 -0.0105
 1719SOL    HW116619   0.712   1.285   9.800 -0.1510 -0.3920 -1.3698
 1719SOL    HW216620   0.752   1.200   9.895 -1.8856  0.8831  0.3935
 1720SOL     OW16621   1.755   2.041  10.827  0.1963  0.4098  0.4861
 1720SOL    HW116622   1.837   2.090  10.818 -0.3147  1.0320 -0.7026
 1720SOL    HW216623   1.791   1.956  10.855 -1.3585 -0.2237  0.5551
 1721SOL     OW16624   1.045   3.627   0.571 -0.2900 -0.0441 -0.2026
 1721SOL    HW116625   1.055   3.554   0.633 -1.6703  1.9938  2.4279
 1721SOL    HW216626   1.022   3.703   0.624 -1.0430 -0.1527 -0.3747
 1722SOL     OW16627   3.400   0.898  14.215 -0.4951 -0.0872  0.4169
 1722SOL    HW116628   3.324   0.903  14.156 -0.2813 -1.3124  0.0443
 1722SOL    HW216629   3.462   0.855  14.157 -0.0236  1.0432  0.0683
 1723SOL     OW16630   2.988   3.388   7.035  0.0610  0.6317 -0.4879
 1723SOL    HW116631   2.905   3.405   6.990 -0.8671  2.9461  2.1376
 1723SOL    HW216632   3.010   3.463   7.089  0.9714  0.9302 -1.2769
 1724SOL     OW16633   3.303   3.006  10.208  0.5728 -1.0843  0.3951
 1724SOL    HW116634   3.287   3.077  10.269  0.4147  0.7713 -1.8324
 1724SOL    HW216635   3.219   2.959  10.212 -0.8222  1.3033 -1.3672
 1725SOL     OW16636   2.655   1.705  14.123 -0.3180  0.1234  0.2033
 1725SOL    HW116637   2.745   1.733  14.105  0.6154 -2.5793  0.6053
 1725SOL    HW216638   2.642   1.739  14.212  1.7320  0.6768  0.2916
 1726SOL     OW16639   2.553   1.333   3.035  0.2373 -0.7331 -0.0833
 1726SOL    HW116640   2.570   1.305   2.945  0.2714 -1.5726  0.1861
 1726SOL    HW216641   2.470   1.288   3.047 -0.4997  0.3492 -1.0929
 1727SOL     OW16642   4.209   3.790   0.861 -0.0260  0.5178  0.1917
 1727SOL    HW116643   4.171   3.853   0.922 -1.4544 -0.5286  0.3980
 1727SOL    HW216644   4.280   3.767   0.921 -0.1677 -2.3246 -0.7037
 1728SOL     OW16645   2.042   4.322   0.967 -0.3445  0.9328 -0.3333
 1728SOL    HW116646   1.981   4.249   0.963  0.5695  0.0907  0.9087
 1728SOL    HW216647   1.994   4.400   0.996 -3.3491 -1.8943  2.2738
 1729SOL     OW16648   0.118   1.562   8.678  0.7164  0.0650 -0.5927
 1729SOL    HW116649   0.084   1.502   8.744 -0.0609  2.3948  1.0925
 1729SOL    HW216650   0.072   1.645   8.692 -0.7918 -0.6503 -1.3338
 1730SOL     OW16651   2.187   4.204  13.071  0.3465 -0.3167  0.4622
 1730SOL    HW116652   2.257   4.223  13.134  1.7958  0.3631 -1.3566
 1730SOL    HW216653   2.169   4.286  13.026  1.2069 -0.1025  0.5130
 1731SOL     OW16654   0.284   1.777   5.225 -0.1308  0.7059 -0.7033
 1731SOL    HW116655   0.229   1.849   5.194 -1.8080 -0.9196 -1.4926
 1731SOL    HW216656   0.321   1.806   5.308  0.4652 -1.3505 -0.2418
 1732SOL     OW16657   3.900   3.736   2.176  0.5450 -0.0433  0.6358
 1732SOL    HW116658   3.856   3.715   2.093  0.1554 -0.0214  0.8363
 1732SOL    HW216659   3.971   3.672   2.174  0.5851  0.0090  0.2804
 1733SOL     OW16660   4.444   3.476   5.402 -0.5430  0.4340  0.0289
 1733SOL    HW116661   4.532   3.441   5.413 -0.3607  1.4068  1.6005
 1733SOL    HW216662   4.412   3.417   5.334 -0.4893 -0.2083  0.5598
 1734SOL     OW16663   2.002   4.389   0.332 -0.5530 -0.1367  0.1082
 1734SOL    HW116664   1.955   4.319   0.287 -1.5542  0.7301 -0.2107
 1734SOL    HW216665   1.985   4.465   0.276 -1.0198  0.3265  0.8674
 1735SOL     OW16666   2.959   3.158   4.120 -0.1002 -0.1575 -0.1936
 1735SOL    HW116667   3.023   3.098   4.081  0.7615  0.2453  0.6019
 1735SOL    HW216668   2.995   3.167   4.208 -0.0440  0.5145 -0.2861
 1736SOL     OW16669   0.631   0.899  11.484  0.0803 -0.0334 -0.7230
 1736SOL    HW116670   0.683   0.974  11.456 -1.3728  1.8718  1.7460
 1736SOL    HW216671   0.595   0.918  11.571 -2.1878 -1.1883 -1.4004
 1737SOL     OW16672   1.934   4.342   9.560 -0.3131 -0.3107  0.4605
 1737SOL    HW116673   1.989   4.418   9.577  0.5587 -0.7016 -0.6326
 1737SOL    HW216674   1.896   4.324   9.646 -1.5220  0.6010  0.1322
 1738SOL     OW16675   0.975   4.598   7.771 -0.0506  0.1930 -0.1469
 1738SOL    HW116676   0.927   4.636   7.697  0.1592  0.9268  0.0899
 1738SOL    HW216677   1.014   4.521   7.731 -0.0355  0.7329 -1.1775
 1739SOL     OW16678   3.675   3.793  10.208 -0.5828  0.0432 -0.0200
 1739SOL    HW116679   3.641   3.881  10.226  1.9451  0.6222  1.7545
 1739SOL    HW216680   3.608   3.743  10.253  1.1839 -3.2836 -1.1248
 1740SOL     OW16681   4.380   4.283   4.716 -0.0556 -0.2096 -0.6435
 1740SOL    HW116682   4.466   4.326   4.716  0.3665 -1.0497  2.0648
 1740SOL    HW216683   4.377   4.232   4.635  1.2771  0.2760 -1.0089
 1741SOL     OW16684   2.286   1.338   0.262  0.3925 -0.5160  0.3319
 1741SOL    HW116685   2.372   1.318   0.226  0.1507 -1.7533  0.4388
 1741SOL    HW216686   2.224   1.273   0.228 -0.5255  1.3199 -1.5331
 1742SOL     OW16687   1.324   1.718   3.470 -0.1533 -0.2471 -0.0752
 1742SOL    HW116688   1.360   1.807   3.469  1.8330 -1.0513  0.6057
 1742SOL    HW216689   1.395   1.674   3.422 -1.2626  0.5116 -2.4328
 1743SOL     OW16690   3.730   1.658   4.252 -0.1753  0.2079 -0.5940
 1743SOL    HW116691   3.642   1.629   4.229  0.6027 -2.8123  0.1533
 1743SOL    HW216692   3.728   1.749   4.223  1.1676 -0.2014 -2.0039
 1744SOL     OW16693   4.635   3.794   7.110 -0.6271  0.3467 -0.1291
 1744SOL    HW116694   4.591   3.712   7.135 -2.2439  1.4231  0.5337
 1744SOL    HW216695   4.682   3.816   7.190 -3.3105 -1.2952  1.9224
 1745SOL     OW16696   4.193   4.312   8.984 -0.1118 -0.2428 -0.3994
 1745SOL    HW116697   4.163   4.223   8.966  0.2647 -0.1034 -1.7178
 1745SOL    HW216698   4.145   4.366   8.920  0.5825 -0.6979 -1.3036
 1746SOL     OW16699   0.404   3.707  13.540  0.1117  0.1815  0.2139
 1746SOL    HW116700   0.485   3.690  13.492 -0.2514  2.2039 -1.1080
 1746SOL    HW216701   0.374   3.784  13.492 -0.2911  1.1215  1.9613
 1747SOL     OW16702   3.435   3.052   5.242 -0.2221  0.0030 -0.1917
 1747SOL    HW116703   3.437   2.974   5.187  0.5554 -0.9102  1.1226
 1747SOL    HW216704   3.485   3.108   5.183 -0.5484  1.9460  1.3542
 1748SOL     OW16705   2.653   3.857  11.962 -0.2892 -0.3481 -0.7297
 1748SOL    HW116706   2.721   3.907  11.915  0.7717 -0.3992  0.7602
 1748SOL    HW216707   2.575   3.900  11.928  0.0475  1.1478  0.3732
 1749SOL     OW16708   0.741   0.564   8.726 -0.2071  0.5705 -0.2732
 1749SOL    HW116709   0.762   0.627   8.795 -2.0141  0.8078  0.0708
 1749SOL    HW216710   0.821   0.511   8.723 -1.5314 -1.4239 -0.8322
 1750SOL     OW16711   0.713   0.942   6.738  0.7460 -0.3367  0.5242
 1750SOL    HW116712   0.729   0.883   6.665 -1.5616 -0.2250 -0.0477
 1750SOL    HW216713   0.742   0.890   6.814 -2.2365 -2.0708  0.4600
 1751SOL     OW16714   3.477   1.007  11.082  0.3744 -0.2117 -0.3757
 1751SOL    HW116715   3.389   0.974  11.102  0.2369  0.3015 -0.1336
 1751SOL    HW216716   3.457   1.040  10.995 -2.2897 -2.2041 -0.5282
 1752SOL     OW16717   0.779   0.254  15.799  0.2657  0.1254 -0.7268
 1752SOL    HW116718   0.844   0.249  15.869  0.5365  0.5666 -0.9489
 1752SOL    HW216719   0.822   0.258  15.714  2.1562 -3.5167  0.0772
 1753SOL     OW16720   0.635   1.510   3.080  0.1048 -0.6494 -0.1033
 1753SOL    HW116721   0.708   1.501   3.141  1.1827  1.9402 -1.0521
 1753SOL    HW216722   0.660   1.441   3.018  0.9966  1.2274 -1.8108
 1754SOL     OW16723   4.220   0.654   1.540 -0.4410 -0.1401  0.0754
 1754SOL    HW116724   4.240   0.577   1.594  0.9264  0.8106  0.8858
 1754SOL    HW216725   4.264   0.621   1.461  1.1159  0.5060  0.6789
 1755SOL     OW16726   2.738   2.088   4.273 -0.1085 -0.0399 -0.7652
 1755SOL    HW116727   2.712   2.046   4.355  0.8040 -2.0781 -1.5133
 1755SOL    HW216728   2.715   2.014   4.217 -4.9384  0.7202  0.2464
 1756SOL     OW16729   3.305   4.412   0.960 -0.4876 -0.5387 -0.0211
 1756SOL    HW116730   3.223   4.456   0.938  0.6323  0.2030 -2.7124
 1756SOL    HW216731   3.276   4.321   0.965 -0.4089 -0.4879  1.3304
 1757SOL     OW16732   2.709   0.237   0.838  0.3117 -0.2789  0.2720
 1757SOL    HW116733   2.691   0.276   0.753 -0.4427 -0.3622  0.4011
 1757SOL    HW216734   2.756   0.306   0.886 -1.4771  0.2706  1.2184
 1758SOL     OW16735   2.972   4.350   1.304 -0.1019 -0.2063  0.0318
 1758SOL    HW116736   3.027   4.296   1.247 -0.1706  1.1504 -1.3337
 1758SOL    HW216737   2.920   4.394   1.237  1.4824 -0.7249 -1.5482
 1759SOL     OW16738   2.822   2.383   8.143  0.0058 -0.3614  0.0956
 1759SOL    HW116739   2.883   2.312   8.125 -0.7149 -1.2933  1.3246
 1759SOL    HW216740   2.803   2.358   8.233 -1.8164  1.0576  0.1182
 1760SOL     OW16741   4.065   0.528   9.742 -0.2511  0.4751  0.1880
 1760SOL    HW116742   4.002   0.555   9.675  0.1076  3.0122  0.8832
 1760SOL    HW216743   4.067   0.434   9.725  2.8398  0.6600 -0.3355
 1761SOL     OW16744   3.063   0.843  16.718  0.5318 -0.2668 -0.0752
 1761SOL    HW116745   3.107   0.902  16.779  0.2045 -0.1518  0.0497
 1761SOL    HW216746   3.030   0.910  16.658 -3.7590 -1.9577  0.3920
 1762SOL     OW16747   0.146   2.676  15.540  0.5974  0.7305 -0.4879
 1762SOL    HW116748   0.220   2.701  15.595 -1.0267  1.3671  1.4138
 1762SOL    HW216749   0.115   2.760  15.503  0.1982 -0.7624 -3.5771
 1763SOL     OW16750   3.348   3.261  17.459  0.3381  0.9276 -0.9296
 1763SOL    HW116751   3.394   3.303  17.532  1.6503  1.9318 -2.3536
 1763SOL    HW216752   3.284   3.330  17.439  0.2428  2.1298  3.5724
 1764SOL     OW16753   3.475   1.247  12.768  0.1738 -0.2285 -0.8998
 1764SOL    HW116754   3.541   1.285  12.711  1.5742 -0.8052  0.3284
 1764SOL    HW216755   3.517   1.245  12.854 -0.0397 -3.4856 -0.8401
 1765SOL     OW16756   0.639   3.004   5.909 -0.2865  0.6828 -0.0919
 1765SOL    HW116757   0.565   3.064   5.906  0.7846  2.0062  0.0812
 1765SOL    HW216758   0.629   2.970   5.999  0.2177  2.2653  0.5548
 1766SOL     OW16759   0.650   4.302   4.840  0.0942  0.9532 -0.4043
 1766SOL    HW116760   0.555   4.291   4.831  0.4048 -0.2036 -2.0188
 1766SOL    HW216761   0.679   4.211   4.842 -0.4782  0.7654 -0.8581
 1767SOL     OW16762   3.160   1.020   8.199  0.5354 -0.4628 -0.8329
 1767SOL    HW116763   3.202   1.105   8.212 -0.2489 -0.0063 -1.3150
 1767SOL    HW216764   3.134   0.995   8.288 -0.1031  0.2662 -0.8205
 1768SOL     OW16765   2.540   0.998   5.289 -0.4212  0.2033 -0.5827
 1768SOL    HW116766   2.623   0.983   5.334 -1.1583 -1.8376  0.0853
 1768SOL    HW216767   2.563   0.964   5.203  2.1231 -0.0054  0.1745
 1769SOL     OW16768   2.781   2.544   1.961  0.7584 -0.3349  0.0437
 1769SOL    HW116769   2.830   2.569   2.039  1.0033 -2.0298  0.4308
 1769SOL    HW216770   2.744   2.630   1.941  0.8612 -0.0465  1.0893
 1770SOL     OW16771   2.497   3.294   6.143  0.0238 -0.6847  0.1808
 1770SOL    HW116772   2.531   3.234   6.076  0.3741 -1.0989  0.7291
 1770SOL    HW216773   2.563   3.286   6.212  0.7994  1.4544 -0.3330
 1771SOL     OW16774   4.568   1.418  12.629  0.1699  0.6857 -0.0672
 1771SOL    HW116775   4.589   1.369  12.708  0.8889  1.3742  0.1637
 1771SOL    HW216776   4.649   1.467  12.612  0.4674 -0.1045 -0.9787
 1772SOL     OW16777   1.964   0.146   8.265 -0.1366 -0.1916  0.5211
 1772SOL    HW116778   1.887   0.201   8.254  1.4932  1.8374 -0.7544
 1772SOL    HW216779   1.959   0.096   8.184  3.5449 -1.9536  1.3653
 1773SOL     OW16780   2.431   3.812   2.133  0.1617  0.1730 -0.2113
 1773SOL    HW116781   2.348   3.827   2.177 -0.2453  0.1444 -0.9741
 1773SOL    HW216782   2.423   3.717   2.145  0.8550 -0.1160 -1.9763
 1774SOL     OW16783   0.362   0.813   6.759  0.3785 -0.7379 -0.6524
 1774SOL    HW116784   0.361   0.719   6.779  2.2070 -0.3054  1.4036
 1774SOL    HW216785   0.420   0.814   6.682 -0.1674 -1.7126 -1.0849
 1775SOL     OW16786   0.026   4.282   7.687  0.2952 -0.4119 -0.7736
 1775SOL    HW116787   4.721   4.281   7.778 -0.2763 -0.2306 -0.9602
 1775SOL    HW216788   0.091   4.352   7.688  2.8427 -2.7729 -2.0844
 1776SOL     OW16789   4.398   1.091   3.935 -0.5348 -0.2339 -0.6822
 1776SOL    HW116790   4.319   1.093   3.881 -1.0631  2.2877  0.1952
 1776SOL    HW216791   4.367   1.021   3.992 -0.5430 -0.3521 -0.8291
 1777SOL     OW16792   2.819   4.097   8.112  0.0636  0.2874 -0.2222
 1777SOL    HW116793   2.904   4.062   8.139 -0.9956 -2.0793  0.0339
 1777SOL    HW216794   2.853   4.158   8.046  1.7949 -1.1115 -0.6257
 1778SOL     OW16795   3.683   4.627   2.899 -0.4354  0.3093  0.2908
 1778SOL    HW116796   3.744   4.701   2.892  0.4091 -0.3811  0.4108
 1778SOL    HW216797   3.722   4.570   2.834  0.8746 -1.0046  2.2297
 1779SOL     OW16798   3.157   1.625   7.232  0.2834 -0.2209 -0.4801
 1779SOL    HW116799   3.128   1.715   7.243  1.0780 -0.1214  0.6774
 1779SOL    HW216800   3.194   1.622   7.320 -2.0726  1.3682  0.5524
 1780SOL     OW16801   4.049   0.660   4.377  0.6502  0.2064 -0.2513
 1780SOL    HW116802   4.093   0.745   4.366  1.7377 -0.2331  0.7717
 1780SOL    HW216803   4.085   0.617   4.299  1.7174  0.8336 -0.1044
 1781SOL     OW16804   1.340   3.716   6.750 -0.0463  0.1249  0.1945
 1781SOL    HW116805   1.316   3.671   6.668 -1.7115  0.3688  0.5358
 1781SOL    HW216806   1.259   3.712   6.801 -0.5316  0.1165 -0.5610
 1782SOL     OW16807   4.665   3.432   4.680 -0.0745  0.2511 -0.1008
 1782SOL    HW116808   0.022   3.474   4.654 -0.1400 -0.0883 -0.8349
 1782SOL    HW216809   4.664   3.441   4.776  1.8511 -1.1169  0.0484
 1783SOL     OW16810   2.728   2.732   8.376 -0.2439 -0.0275  0.1264
 1783SOL    HW116811   2.725   2.823   8.348  0.5912 -0.1389 -0.3053
 1783SOL    HW216812   2.782   2.738   8.455  0.9365 -0.9411 -0.6151
 1784SOL     OW16813   0.997   0.650   1.677 -0.0282 -0.2432  0.1567
 1784SOL    HW116814   1.010   0.639   1.583  1.3511  1.6601  0.1239
 1784SOL    HW216815   1.073   0.704   1.699  1.3224 -1.6706 -1.0644
 1785SOL     OW16816   4.420   3.912  14.878 -0.0070 -0.0223  0.7043
 1785SOL    HW116817   4.501   3.880  14.840  0.0399  0.8274  0.0837
 1785SOL    HW216818   4.364   3.835  14.864 -1.2903  1.3285 -1.6725
 1786SOL     OW16819   1.790   1.038  10.135 -0.7471  0.2917  0.2082
 1786SOL    HW116820   1.836   1.077  10.060 -1.1049 -3.0654 -1.7527
 1786SOL    HW216821   1.860   1.036  10.201  0.6204  1.3184 -1.1835
 1787SOL     OW16822   4.160   1.574   5.563  0.6055 -0.3626  0.1088
 1787SOL    HW116823   4.119   1.660   5.550 -1.9895 -1.3567  1.6816
 1787SOL    HW216824   4.255   1.586   5.553  0.2149  1.9885 -0.8107
 1788SOL     OW16825   1.622   2.045   3.952  0.3454 -0.1806 -0.2206
 1788SOL    HW116826   1.582   2.126   3.919  1.6648  0.7659  0.5027
 1788SOL    HW216827   1.658   2.011   3.870 -0.3720 -0.0617 -0.5869
 1789SOL     OW16828   2.329   2.306  12.649  0.9754 -0.8087  0.2282
 1789SOL    HW116829   2.340   2.399  12.629 -1.9038 -0.3689  0.6762
 1789SOL    HW216830   2.314   2.275  12.560 -0.7393 -0.7000  0.4654
 1790SOL     OW16831   0.364   3.888  11.655  0.6331  0.5703 -0.2318
 1790SOL    HW116832   0.308   3.894  11.578 -0.3357 -0.7559  0.3516
 1790SOL    HW216833   0.365   3.981  11.679  3.5692 -0.0146  1.8826
 1791SOL     OW16834   0.226   1.496  15.992  0.4287 -0.4847 -0.2399
 1791SOL    HW116835   0.283   1.461  16.060 -0.0796 -1.4268 -0.2981
 1791SOL    HW216836   0.251   1.440  15.919 -0.5059  0.5057 -1.3113
 1792SOL     OW16837   3.787   1.645   8.389  0.2048 -0.2320 -0.0688
 1792SOL    HW116838   3.754   1.629   8.301 -0.0739 -0.7834  0.1357
 1792SOL    HW216839   3.720   1.596   8.435 -0.0148 -0.0997 -0.2508
 1793SOL     OW16840   3.664   1.630   5.115  0.3525  0.2402 -0.3116
 1793SOL    HW116841   3.616   1.570   5.058  2.8874 -1.9598 -0.1406
 1793SOL    HW216842   3.689   1.581   5.192 -1.2728  0.4784  0.3749
 1794SOL     OW16843   0.832   0.671  17.598 -0.1515 -0.5723  0.2762
 1794SOL    HW116844   0.770   0.650  17.669 -0.0877 -1.1698  0.1573
 1794SOL    HW216845   0.885   0.592  17.611 -0.7251 -0.5331  2.8204
 1795SOL     OW16846   4.294   4.147   1.874 -0.3585  0.3999 -0.3728
 1795SOL    HW116847   4.299   4.240   1.897  0.2628  0.1900  0.3251
 1795SOL    HW216848   4.344   4.140   1.793 -1.4591  0.7049 -1.0880
 1796SOL     OW16849   2.995   4.573   8.094  0.0650  0.6370  0.1228
 1796SOL    HW116850   2.986   4.525   8.177 -0.5120  2.1069  0.9103
 1796SOL    HW216851   3.086   4.600   8.102  0.1510 -0.3026  2.3930
 1797SOL     OW16852   0.539   0.896   1.448  0.2036 -0.1629 -0.3431
 1797SOL    HW116853   0.610   0.848   1.491  1.1898  0.5487 -1.1916
 1797SOL    HW216854   0.463   0.838   1.449  1.6886 -2.1096  1.6183
 1798SOL     OW16855   4.349   3.530   4.330  0.5976 -0.3061 -0.2019
 1798SOL    HW116856   4.422   3.469   4.340  1.4593  0.3421 -2.4779
 1798SOL    HW216857   4.384   3.583   4.259  0.0508 -0.3455 -0.5017
 1799SOL     OW16858   4.237   0.738   4.096 -0.0273 -0.5326 -0.3301
 1799SOL    HW116859   4.294   0.697   4.031  0.6336 -1.0240  0.5593
 1799SOL    HW216860   4.299   0.797   4.136  0.5750 -0.6500 -1.0854
 1800SOL     OW16861   1.255   4.043   5.873 -0.3842 -0.1159 -0.1507
 1800SOL    HW116862   1.341   4.005   5.857 -0.1094  1.5302 -2.6323
 1800SOL    HW216863   1.242   4.018   5.964  2.8901  0.5542  0.4937
 1801SOL     OW16864   3.028   3.023   2.337  0.1624  0.1581 -0.3247
 1801SOL    HW116865   2.979   2.953   2.380  0.0868 -0.2063 -1.0018
 1801SOL    HW216866   2.989   3.013   2.250  0.1035 -2.1079 -0.0351
 1802SOL     OW16867   1.629   3.896  13.025 -0.0059 -0.5582  0.9528
 1802SOL    HW116868   1.629   3.919  12.932  0.0113 -1.7928  0.6498
 1802SOL    HW216869   1.718   3.861  13.026  0.3720  0.3592 -0.3276
 1803SOL     OW16870   2.746   1.626   1.420 -0.7476 -0.0667 -0.5247
 1803SOL    HW116871   2.745   1.653   1.512 -0.4707 -1.5729 -0.0703
 1803SOL    HW216872   2.683   1.554   1.421 -2.8183  1.7285 -0.9240
 1804SOL     OW16873   2.584   2.001   6.289  0.6164 -0.0179 -0.0123
 1804SOL    HW116874   2.648   2.053   6.240 -0.8236  2.3363  0.5702
 1804SOL    HW216875   2.634   1.932   6.332 -0.8679 -0.8622  0.3846
 1805SOL     OW16876   0.451   3.854  12.548 -0.0397  0.5642 -0.2294
 1805SOL    HW116877   0.367   3.838  12.505 -0.6612  0.4331  1.0323
 1805SOL    HW216878   0.495   3.901  12.477  1.9532 -0.5820  0.2229
 1806SOL     OW16879   1.516   3.865   9.138 -0.2070 -0.4111  0.2691
 1806SOL    HW116880   1.433   3.843   9.096 -0.2309  1.3552 -0.6060
 1806SOL    HW216881   1.499   3.829   9.225  2.0902  0.6143  1.1622
 1807SOL     OW16882   1.548   3.634   3.811 -0.0666 -0.2877 -0.0047
 1807SOL    HW116883   1.483   3.564   3.803  1.5273 -1.9752  1.8128
 1807SOL    HW216884   1.499   3.715   3.806 -1.3906 -1.1189 -0.4284
 1808SOL     OW16885   2.845   1.784   0.301  0.1539  0.2285 -0.0664
 1808SOL    HW116886   2.755   1.755   0.286  0.0302  0.3796  0.3682
 1808SOL    HW216887   2.859   1.851   0.235  1.1326  0.6308  0.5558
 1809SOL     OW16888   0.482   2.918   3.738 -0.1188  0.0510  0.3355
 1809SOL    HW116889   0.446   2.973   3.807 -1.3416  0.0725 -0.3120
 1809SOL    HW216890   0.575   2.938   3.729  0.2777 -1.1987  1.6599
 1810SOL     OW16891   0.981   0.942   3.526 -0.0183  0.1936  0.3263
 1810SOL    HW116892   0.931   1.011   3.483 -0.4357 -0.4151 -0.1712
 1810SOL    HW216893   0.975   0.876   3.456  0.6581  1.0332 -0.5290
 1811SOL     OW16894   3.489   1.927  10.608 -0.4102 -0.6642  0.2752
 1811SOL    HW116895   3.440   1.988  10.554  0.9917 -2.6685 -3.2932
 1811SOL    HW216896   3.571   1.913  10.560 -0.5534  1.5709 -0.5948
 1812SOL     OW16897   4.235   1.485   0.466  0.2783  0.1385  0.0011
 1812SOL    HW116898   4.181   1.536   0.526  0.4769  1.4416 -0.9311
 1812SOL    HW216899   4.232   1.548   0.394  0.5362  1.2753  0.9798
 1813SOL     OW16900   1.927   4.154   2.925 -0.7189 -0.1885 -0.3948
 1813SOL    HW116901   1.929   4.063   2.955  2.7937  0.3124  0.9665
 1813SOL    HW216902   2.012   4.197   2.936 -1.6990  1.5842  0.2545
 1814SOL     OW16903   0.514   2.697  11.416 -0.8039  0.0903 -0.1601
 1814SOL    HW116904   0.515   2.658  11.329 -0.9140  1.3093 -0.7132
 1814SOL    HW216905   0.607   2.680  11.435 -1.0860 -0.9551  0.2675
 1815SOL     OW16906   4.114   2.714   1.751 -0.6852 -0.5648 -0.5759
 1815SOL    HW116907   4.180   2.761   1.803 -2.0587 -0.9649  1.4926
 1815SOL    HW216908   4.175   2.657   1.705 -0.9945 -1.4606  0.1332
 1816SOL     OW16909   3.813   4.441  11.199 -0.0663 -0.1000 -0.1368
 1816SOL    HW116910   3.858   4.475  11.122  0.0355  2.0257  0.8627
 1816SOL    HW216911   3.826   4.348  11.179 -2.3604 -0.8022  1.6244
 1817SOL     OW16912   0.696   2.731   0.985 -0.8781  0.2549 -0.1001
 1817SOL    HW116913   0.715   2.778   1.066  0.3542  0.5619 -0.5796
 1817SOL    HW216914   0.775   2.678   0.983 -2.2629 -1.7587 -1.1211
 1818SOL     OW16915   1.020   2.408  14.176 -0.0216 -0.2825  0.1442
 1818SOL    HW116916   1.057   2.320  14.167  1.8205  0.4863  0.3543
 1818SOL    HW216917   1.092   2.466  14.199 -1.6826  2.0626 -0.5780
 1819SOL     OW16918   1.975   1.238   3.736 -0.5314  1.0025  0.1203
 1819SOL    HW116919   2.061   1.269   3.706  0.1959 -0.2936  0.8236
 1819SOL    HW216920   1.993   1.144   3.722  1.2840  1.3900 -0.2058
 1820SOL     OW16921   3.289   3.050   9.088  0.2462  0.3980  0.2427
 1820SOL    HW116922   3.195   3.051   9.109  0.1167 -2.7841 -0.1370
 1820SOL    HW216923   3.335   3.047   9.172  0.6358  0.9183  0.0450
 1821SOL     OW16924   4.441   0.199  15.975  0.1459  0.0721 -0.0537
 1821SOL    HW116925   4.481   0.138  15.914  1.0596 -0.2044  0.8219
 1821SOL    HW216926   4.471   0.281  15.935  1.2447  0.2091  1.0432
 1822SOL     OW16927   0.923   1.217   3.556 -0.5504 -0.3807 -0.2129
 1822SOL    HW116928   0.884   1.198   3.641 -2.2006 -1.7560 -1.2480
 1822SOL    HW216929   0.852   1.263   3.512  0.1060  0.4388 -0.4030
 1823SOL     OW16930   2.441   2.169   6.798 -0.3942  0.3281 -0.3527
 1823SOL    HW116931   2.455   2.183   6.705  0.0980  3.0877  0.1262
 1823SOL    HW216932   2.465   2.077   6.807 -1.3297  0.0854 -0.3297
 1824SOL     OW16933   1.606   1.155   7.791 -0.1638 -0.2022  0.0265
 1824SOL    HW116934   1.669   1.176   7.722  2.1058  2.7341  2.9378
 1824SOL    HW216935   1.581   1.064   7.776 -1.0462  0.2785 -1.3780
 1825SOL     OW16936   3.238   3.367   6.875 -0.2516 -0.7457  0.3962
 1825SOL    HW116937   3.155   3.389   6.917 -1.1674 -3.4374  0.0154
 1825SOL    HW216938   3.226   3.275   6.851 -0.6355 -0.7753  0.6936
 1826SOL     OW16939   2.672   2.460   6.255 -0.4445  0.3054  0.1683
 1826SOL    HW116940   2.651   2.367   6.255  1.6458 -0.1603  0.8108
 1826SOL    HW216941   2.652   2.481   6.346 -3.2961 -0.9409 -0.1679
 1827SOL     OW16942   1.015   2.984  10.377 -0.9387  0.0788 -0.1013
 1827SOL    HW116943   0.924   2.957  10.389 -0.5678 -0.4677  1.4738
 1827SOL    HW216944   1.016   3.036  10.458 -0.9651  0.4255 -0.3192
 1828SOL     OW16945   3.028   1.822   4.404  0.8882  0.2047  0.2535
 1828SOL    HW116946   3.121   1.802   4.389  0.9648  0.7955 -0.0548
 1828SOL    HW216947   3.010   1.895   4.345  1.6747 -0.5013 -0.8686
 1829SOL     OW16948   2.844   3.313  16.521 -0.5625  0.3000 -0.2538
 1829SOL    HW116949   2.845   3.226  16.480 -1.0716 -0.0677  0.5058
 1829SOL    HW216950   2.756   3.352  16.518 -2.0718 -2.9533  1.2121
 1830SOL     OW16951   2.992   3.339   8.129  0.3780  0.2042  0.0030
 1830SOL    HW116952   2.996   3.418   8.183 -2.0238  0.5694 -0.3410
 1830SOL    HW216953   3.021   3.269   8.187 -0.7306 -1.8282 -1.8693
 1831SOL     OW16954   3.618   1.431   4.018 -0.2773  0.0952  0.0737
 1831SOL    HW116955   3.564   1.385   4.083  1.3007 -0.3438  1.0706
 1831SOL    HW216956   3.600   1.519   4.050 -1.3691 -0.7748  1.8627
 1832SOL     OW16957   1.736   1.387   5.406  0.2418  0.6188 -0.4036
 1832SOL    HW116958   1.738   1.404   5.501 -0.0546 -0.3680 -0.2224
 1832SOL    HW216959   1.812   1.444   5.389  1.4695 -0.5987  0.9443
 1833SOL     OW16960   4.485   3.680   3.003  0.2368 -0.1716  0.5764
 1833SOL    HW116961   4.423   3.753   2.995  1.1387  0.3007 -1.9284
 1833SOL    HW216962   4.446   3.636   3.079 -0.8551 -1.3661 -0.6907
 1834SOL     OW16963   1.928   4.568   9.097 -0.1235  0.1692 -0.3253
 1834SOL    HW116964   1.900   4.510   9.027 -0.5005  0.0048 -0.0384
 1834SOL    HW216965   1.970   4.508   9.158 -0.0684  1.1220  0.5860
 1835SOL     OW16966   2.431   4.515   5.768  0.4023 -0.1417 -0.0282
 1835SOL    HW116967   2.422   4.425   5.736  0.3895 -0.5882  1.2200
 1835SOL    HW216968   2.398   4.505   5.858  2.4189  0.6354  0.8045
 1836SOL     OW16969   3.209   4.188   2.464 -0.2962 -0.0215 -0.1546
 1836SOL    HW116970   3.166   4.115   2.419  0.3738 -0.0160 -0.8122
 1836SOL    HW216971   3.273   4.138   2.515 -3.7369 -0.8714  3.2549
 1837SOL     OW16972   1.170   0.761   6.614 -0.1783  0.1083  0.1480
 1837SOL    HW116973   1.238   0.743   6.549 -1.1380 -0.2969 -0.7215
 1837SOL    HW216974   1.104   0.795   6.554  2.0295  1.0502 -1.7554
 1838SOL     OW16975   0.049   4.098   5.347 -0.8440 -0.3698 -0.2399
 1838SOL    HW116976   0.120   4.116   5.409  0.5987 -0.1887 -1.9541
 1838SOL    HW216977   0.094   4.093   5.263 -1.5455 -0.6156 -0.5977
 1839SOL     OW16978   0.057   1.139   3.841  0.2523  0.3938  0.1805
 1839SOL    HW116979   4.712   1.073   3.842 -0.4609  1.1190 -2.2649
 1839SOL    HW216980   0.007   1.209   3.800 -0.2720 -0.0960 -0.0263
 1840SOL     OW16981   0.592   1.166   4.318  1.0860 -0.3116  0.2060
 1840SOL    HW116982   0.536   1.221   4.373 -1.9097 -1.2960 -1.8614
 1840SOL    HW216983   0.576   1.077   4.351  0.1856 -0.2144  0.0345
 1841SOL     OW16984   2.995   0.405  11.300  0.6534  0.3518  0.1205
 1841SOL    HW116985   2.977   0.324  11.347  3.6874  1.4874  3.2391
 1841SOL    HW216986   2.908   0.444  11.310 -0.6926 -1.8959 -3.0160
 1842SOL     OW16987   4.601   3.410   6.603  0.2925 -0.1185  0.4697
 1842SOL    HW116988   4.640   3.447   6.524  0.6072 -0.0836  0.6411
 1842SOL    HW216989   4.623   3.487   6.657  0.2865  1.5607 -1.9206
 1843SOL     OW16990   2.517   3.108   6.719  0.0572  0.0791 -0.0372
 1843SOL    HW116991   2.482   3.153   6.641 -2.1362  1.9053  1.9985
 1843SOL    HW216992   2.598   3.072   6.684  0.4867  0.6313  0.3997
 1844SOL     OW16993   3.664   3.719  15.447  0.0644 -0.2367  0.1191
 1844SOL    HW116994   3.672   3.668  15.528 -0.3156 -1.2368 -0.4691
 1844SOL    HW216995   3.751   3.711  15.408  0.2450  3.6714 -0.2498
 1845SOL     OW16996   1.502   3.082   7.608 -0.3887  0.3331  0.5637
 1845SOL    HW116997   1.551   3.165   7.609  1.5374 -0.8407  3.3549
 1845SOL    HW216998   1.553   3.024   7.665  0.9909  1.8333  0.8763
 1846SOL     OW16999   2.208   0.445  15.494  0.5486  0.2542 -0.2923
 1846SOL    HW117000   2.200   0.362  15.448  1.7688 -1.7756  3.1970
 1846SOL    HW217001   2.130   0.453  15.549  0.3545 -0.1974 -0.5029
 1847SOL     OW17002   2.953   1.766   4.691 -0.5671  0.3314 -0.4714
 1847SOL    HW117003   2.954   1.775   4.596 -0.5986  0.0679 -0.4948
 1847SOL    HW217004   3.047   1.772   4.709 -0.8189 -1.1317  1.2541
 1848SOL     OW17005   4.576   0.829   5.098 -0.7256  0.4279  0.0538
 1848SOL    HW117006   4.657   0.846   5.050  0.7480 -2.3442  1.5592
 1848SOL    HW217007   4.521   0.880   5.037  0.6600  0.4235 -1.1853
 1849SOL     OW17008   4.696   3.412   4.933  0.3348 -0.1411  0.0707
 1849SOL    HW117009   0.016   3.343   4.982  2.0621 -0.0329 -1.3682
 1849SOL    HW217010   0.020   3.494   4.948 -1.0455  0.5301  0.8441
 1850SOL     OW17011   0.374   3.426  13.596  0.0930 -0.1821 -0.3428
 1850SOL    HW117012   0.315   3.434  13.671  0.6542  3.4758 -0.2945
 1850SOL    HW217013   0.393   3.519  13.598  1.5482 -0.4892 -0.0241
 1851SOL     OW17014   4.541   0.568   4.133  0.2211 -0.2236  0.1789
 1851SOL    HW117015   4.580   0.643   4.088  1.2287  0.3724  2.0512
 1851SOL    HW217016   4.522   0.514   4.056 -0.7281 -0.5349  0.6319
 1852SOL     OW17017   3.625   3.772  14.514 -0.1313 -0.1463 -0.5776
 1852SOL    HW117018   3.666   3.686  14.504 -0.1468 -0.1866 -0.2945
 1852SOL    HW217019   3.696   3.829  14.542  0.0752 -0.8712  0.3834
 1853SOL     OW17020   1.439   1.794  15.405  0.8058  0.7123 -1.0340
 1853SOL    HW117021   1.413   1.719  15.351 -1.2353 -0.0713  1.0023
 1853SOL    HW217022   1.513   1.817  15.349  2.2249 -0.6506  0.2758
 1854SOL     OW17023   0.061   3.347   0.809  0.0254  0.2434  0.2083
 1854SOL    HW117024   0.118   3.400   0.753  0.1308  0.7507  0.7856
 1854SOL    HW217025   0.041   3.293   0.734  1.1230  3.0944 -2.1467
 1855SOL     OW17026   3.535   2.874  12.944  0.3557 -0.4383  0.5079
 1855SOL    HW117027   3.497   2.827  12.870  1.9613  1.9049 -1.8000
 1855SOL    HW217028   3.574   2.947  12.895 -1.9992 -0.3678 -1.2454
 1856SOL     OW17029   3.938   2.851   7.386  0.6981 -0.3220 -0.0434
 1856SOL    HW117030   3.972   2.866   7.475 -2.4293 -1.1883  1.3126
 1856SOL    HW217031   3.939   2.755   7.393 -0.7788 -0.1752  2.4072
 1857SOL     OW17032   0.754   3.496   2.985  0.4658  0.4140  0.2589
 1857SOL    HW117033   0.682   3.472   2.926  0.0591  1.0766  0.4762
 1857SOL    HW217034   0.771   3.410   3.022 -1.1817 -0.4050 -0.8715
 1858SOL     OW17035   1.728   1.426   2.048 -0.0005 -0.0749  0.2078
 1858SOL    HW117036   1.803   1.448   1.993  0.8435  0.2729  1.5105
 1858SOL    HW217037   1.662   1.454   1.984 -0.4743  1.0637  1.1885
 1859SOL     OW17038   4.479   4.129   4.166 -0.9380  0.5347 -0.1327
 1859SOL    HW117039   4.520   4.065   4.107  0.7513  1.9786 -0.5350
 1859SOL    HW217040   4.557   4.157   4.213 -0.1774 -2.7841  0.5927
 1860SOL     OW17041   2.748   4.344   1.034 -0.2388  0.1130 -0.4955
 1860SOL    HW117042   2.829   4.300   1.007  1.2080  3.2595 -1.1591
 1860SOL    HW217043   2.692   4.341   0.957 -3.5799 -0.1082  1.9453
 1861SOL     OW17044   0.022   0.466   4.567  0.4391  0.0406  0.2775
 1861SOL    HW117045   4.680   0.398   4.567  1.2518 -0.7414 -1.8391
 1861SOL    HW217046   4.722   0.524   4.639 -1.9706  0.2532 -0.7315
 1862SOL     OW17047   4.236   1.816   3.878  0.2024  0.5644 -0.5668
 1862SOL    HW117048   4.186   1.743   3.841  1.1987 -1.0612  1.2999
 1862SOL    HW217049   4.277   1.770   3.951 -0.5145  0.9540  0.0800
 1863SOL     OW17050   1.938   2.515  10.283  0.7342  0.0784 -0.3096
 1863SOL    HW117051   1.962   2.426  10.259 -2.8923 -1.0358  0.0888
 1863SOL    HW217052   1.906   2.548  10.199  1.1844  0.3258 -0.3798
 1864SOL     OW17053   0.948   0.928  13.843  0.2380 -0.3252 -0.6405
 1864SOL    HW117054   0.887   0.854  13.851 -3.8815  3.3241  1.7332
 1864SOL    HW217055   0.962   0.928  13.748 -1.0187  0.7472 -0.8256
 1865SOL     OW17056   1.697   0.851   7.912 -0.5026 -0.3767 -0.4569
 1865SOL    HW117057   1.641   0.876   7.985  1.1595 -1.2703  1.1103
 1865SOL    HW217058   1.645   0.874   7.835 -1.3700 -1.9988 -0.3547
 1866SOL     OW17059   3.607   4.260   4.814  0.5571 -0.4967  0.0689
 1866SOL    HW117060   3.611   4.179   4.763  0.4755 -0.4166 -0.0643
 1866SOL    HW217061   3.701   4.264   4.829  0.6736 -0.4056 -0.6783
 1867SOL     OW17062   1.926   4.070   8.387  0.3503 -0.5178 -0.0664
 1867SOL    HW117063   1.954   4.049   8.476  0.2254 -1.5715 -0.2851
 1867SOL    HW217064   1.981   4.148   8.383  0.0928 -0.2392  1.7343
 1868SOL     OW17065   4.543   3.636   2.389  0.4234 -0.3358 -0.4114
 1868SOL    HW117066   4.478   3.705   2.374  0.0979 -0.2909  1.2433
 1868SOL    HW217067   4.525   3.581   2.312 -0.7711 -0.4728 -0.0174
 1869SOL     OW17068   3.013   4.315   3.116  0.0229 -0.0478 -0.7508
 1869SOL    HW117069   3.020   4.335   3.023  1.6696  1.8935 -0.2027
 1869SOL    HW217070   3.104   4.290   3.126  0.6946  2.3008 -0.9615
 1870SOL     OW17071   3.055   0.450   7.206 -0.1966 -0.2305 -0.3584
 1870SOL    HW117072   2.966   0.458   7.173 -0.2040 -0.8900 -0.5031
 1870SOL    HW217073   3.065   0.522   7.268  0.2001 -1.4648  1.0239
 1871SOL     OW17074   0.193   1.513   5.263  0.7932 -0.2801  0.6626
 1871SOL    HW117075   0.259   1.461   5.218  1.7391 -0.0215  1.7329
 1871SOL    HW217076   0.245   1.594   5.266  2.5694 -1.4093  0.2371
 1872SOL     OW17077   3.880   0.339   9.964 -0.3860 -0.2138  0.2140
 1872SOL    HW117078   3.818   0.326  10.036  0.6075  0.1561  1.1332
 1872SOL    HW217079   3.821   0.340   9.888 -1.2563 -0.0003  0.8813
 1873SOL     OW17080   2.032   1.310   3.144 -0.7714 -0.0081 -0.1234
 1873SOL    HW117081   1.966   1.370   3.109  1.1681  0.5139 -2.9211
 1873SOL    HW217082   1.974   1.241   3.175 -1.2091 -0.9668 -3.0598
 1874SOL     OW17083   0.086   3.792   4.134  0.1384  0.2073  0.1551
 1874SOL    HW117084   0.159   3.762   4.079  0.8229 -0.8371  1.6141
 1874SOL    HW217085   0.133   3.867   4.171 -0.4178  0.4877  0.2874
 1875SOL     OW17086   2.392   0.146   7.144  0.6767 -0.3107  0.6348
 1875SOL    HW117087   2.471   0.095   7.125 -1.1121 -1.6685 -3.1741
 1875SOL    HW217088   2.430   0.223   7.186  0.9769  0.7225 -1.5286
 1876SOL     OW17089   0.604   1.549  14.648 -0.4719 -0.0765  0.7278
 1876SOL    HW117090   0.606   1.642  14.669  0.6905  0.4257 -1.6273
 1876SOL    HW217091   0.589   1.544  14.554 -1.3678 -0.0557  0.8690
 1877SOL     OW17092   1.243   2.412   8.617 -0.6025  0.6043 -0.3759
 1877SOL    HW117093   1.279   2.445   8.699 -3.2352  1.2318  0.5213
 1877SOL    HW217094   1.215   2.494   8.577 -0.1792  1.2240  0.6111
 1878SOL     OW17095   0.420   0.736   7.554  0.3623 -0.3804  0.2534
 1878SOL    HW117096   0.441   0.826   7.528  2.0930 -0.7882  0.2006
 1878SOL    HW217097   0.376   0.696   7.480 -2.4804  0.3185  1.5839
 1879SOL     OW17098   4.208   3.934   6.244 -0.3371  0.3022 -0.6027
 1879SOL    HW117099   4.301   3.916   6.227  0.4449  2.9908  0.6936
 1879SOL    HW217100   4.202   4.022   6.207  0.0609 -0.2324 -1.9134
 1880SOL     OW17101   4.453   2.893  12.379 -0.3258 -0.2535 -0.4040
 1880SOL    HW117102   4.447   2.814  12.432 -3.7961  0.6573  0.5451
 1880SOL    HW217103   4.466   2.862  12.289 -0.8927 -0.5073 -0.3999
 1881SOL     OW17104   3.282   4.150   7.792  0.4234  0.3991 -0.2832
 1881SOL    HW117105   3.246   4.067   7.823 -0.5322  1.6904  2.0463
 1881SOL    HW217106   3.287   4.203   7.872 -0.4636  2.1549 -1.3926
 1882SOL     OW17107   0.264   2.672   5.109  0.2218  0.1333  0.1793
 1882SOL    HW117108   0.309   2.725   5.043  0.7067  2.2355  2.1995
 1882SOL    HW217109   0.203   2.629   5.050 -1.4987  1.8987  0.6543
 1883SOL     OW17110   1.654   2.308  14.713 -0.0652  0.0698  0.1861
 1883SOL    HW117111   1.728   2.370  14.719  0.7158 -0.9068  0.7403
 1883SOL    HW217112   1.663   2.257  14.633  2.5263  0.1329  0.4295
 1884SOL     OW17113   1.650   4.519  12.370 -0.2811 -0.5244 -0.7371
 1884SOL    HW117114   1.598   4.579  12.316 -0.3002  1.3189  1.3338
 1884SOL    HW217115   1.739   4.536  12.339 -0.8276  2.2738 -0.8096
 1885SOL     OW17116   0.962   2.413   7.603 -0.3183 -0.1948 -0.3010
 1885SOL    HW117117   0.867   2.419   7.611 -0.6171 -0.6737 -3.1901
 1885SOL    HW217118   0.995   2.454   7.683 -1.6366 -1.4918  0.9014
 1886SOL     OW17119   3.977   3.123   0.188  0.0453 -0.4024 -0.0006
 1886SOL    HW117120   4.053   3.121   0.246  0.4552 -1.6853 -0.5799
 1886SOL    HW217121   3.958   3.030   0.176  1.9881 -0.7845 -0.1572
 1887SOL     OW17122   2.256   3.025   4.914  0.1518  0.7573 -0.4363
 1887SOL    HW117123   2.179   3.003   4.966 -0.0654  2.0923 -0.1965
 1887SOL    HW217124   2.223   3.004   4.827  0.8782  1.6365 -0.9219
 1888SOL     OW17125   1.387   2.763  10.759 -0.3155 -0.1331  0.2385
 1888SOL    HW117126   1.478   2.734  10.757 -0.9937 -2.3213  0.9867
 1888SOL    HW217127   1.366   2.758  10.853 -1.5850 -0.9470 -0.0938
 1889SOL     OW17128   0.631   4.477  11.222  0.3572 -0.0902  0.2278
 1889SOL    HW117129   0.725   4.489  11.220  0.2496  0.5352 -1.4821
 1889SOL    HW217130   0.606   4.569  11.215  0.9117 -0.0468 -1.2939
 1890SOL     OW17131   4.396   0.166  11.892  0.3672 -0.0948  0.3187
 1890SOL    HW117132   4.429   0.250  11.861 -0.7745  1.0585  2.2330
 1890SOL    HW217133   4.412   0.180  11.985 -3.8238  1.3366  0.8249
 1891SOL     OW17134   2.707   1.165  12.925  0.3198 -0.7822  0.3169
 1891SOL    HW117135   2.751   1.202  12.849 -1.5861  1.6333  0.3846
 1891SOL    HW217136   2.743   1.076  12.926  0.2303 -0.8062  2.0317
 1892SOL     OW17137   1.172   3.519   6.000  0.3322 -0.3862  0.1583
 1892SOL    HW117138   1.159   3.551   5.910 -2.3545 -2.3197 -0.1517
 1892SOL    HW217139   1.126   3.436   5.984  1.1196 -0.7400 -0.3254
 1893SOL     OW17140   4.326   0.959   3.559 -0.0816 -0.5089 -0.1411
 1893SOL    HW117141   4.306   0.927   3.471 -1.3778  2.4812 -0.9423
 1893SOL    HW217142   4.269   0.901   3.610  1.3676 -2.8725 -1.2306
 1894SOL     OW17143   3.644   1.906  13.772 -0.5323  0.4896 -0.0376
 1894SOL    HW117144   3.633   1.966  13.698  0.0591  0.1964 -0.3670
 1894SOL    HW217145   3.725   1.937  13.812 -2.4416  1.2130  3.2520
 1895SOL     OW17146   3.570   2.447   9.244  0.0503  0.3452  0.1756
 1895SOL    HW117147   3.529   2.530   9.266 -0.6035  0.2735 -0.7596
 1895SOL    HW217148   3.624   2.439   9.323  1.1854 -0.3220 -0.6671
 1896SOL     OW17149   2.795   1.196   5.133  0.0434 -0.0709 -0.0712
 1896SOL    HW117150   2.709   1.167   5.104 -0.0734 -0.6267  0.8587
 1896SOL    HW217151   2.809   1.257   5.060  0.1264 -0.2885 -0.2363
 1897SOL     OW17152   1.295   3.305  10.196 -0.3893 -0.5762 -0.1024
 1897SOL    HW117153   1.206   3.334  10.176  0.6903  3.4780  0.8653
 1897SOL    HW217154   1.262   3.248  10.265  0.3022  1.0471  1.5749
 1898SOL     OW17155   2.191   1.353  10.375 -0.4089 -0.1665  0.0000
 1898SOL    HW117156   2.247   1.304  10.315 -0.4297 -1.0589  0.7128
 1898SOL    HW217157   2.187   1.298  10.452  3.1424  0.9091  0.9393
 1899SOL     OW17158   3.847   4.286   3.702 -0.2058 -0.2032 -0.4688
 1899SOL    HW117159   3.827   4.199   3.737  1.1759 -0.1564  0.4495
 1899SOL    HW217160   3.788   4.277   3.627  0.0722 -0.6259 -0.6376
 1900SOL     OW17161   2.392   0.115   1.540  0.0950 -0.0957  0.2322
 1900SOL    HW117162   2.473   0.139   1.584 -0.1863  2.2334 -0.5048
 1900SOL    HW217163   2.393   0.022   1.562  1.1798 -0.0705  0.2680
 1901SOL     OW17164   3.096   4.102  16.046 -0.2106 -0.4338 -0.3499
 1901SOL    HW117165   3.191   4.113  16.040 -0.2181  0.7695  1.7910
 1901SOL    HW217166   3.097   4.128  16.138 -1.0915 -1.0062 -0.1773
 1902SOL     OW17167   2.247   4.516   4.853  0.7403  0.2866  0.1644
 1902SOL    HW117168   2.242   4.437   4.907 -0.1742 -0.7347 -1.4175
 1902SOL    HW217169   2.298   4.491   4.775 -1.7346 -2.0512 -0.6938
 1903SOL     OW17170   4.469   2.503   8.961 -0.3214  0.9163  0.1740
 1903SOL    HW117171   4.519   2.459   9.030 -0.8630  0.5392  0.3286
 1903SOL    HW217172   4.536   2.491   8.894 -0.9197 -2.4559  0.1527
 1904SOL     OW17173   2.957   2.601   6.683 -0.5058  0.1366 -0.2748
 1904SOL    HW117174   3.028   2.629   6.741 -2.0234  0.6291  1.3425
 1904SOL    HW217175   2.913   2.679   6.647 -0.0793  0.9746  1.0253
 1905SOL     OW17176   2.276   0.221  16.117  0.0295  0.2292  0.7734
 1905SOL    HW117177   2.210   0.288  16.097 -0.0596  0.7072  2.6850
 1905SOL    HW217178   2.325   0.221  16.035  0.7150 -0.2458  1.1895
 1906SOL     OW17179   0.478   1.521   2.331  0.0804  0.2901 -0.1106
 1906SOL    HW117180   0.546   1.540   2.395  0.8452  0.9635 -1.1097
 1906SOL    HW217181   0.525   1.452   2.283  0.0166 -0.3486  0.7587
 1907SOL     OW17182   4.723   3.179  16.279  0.1416 -0.4015 -0.0196
 1907SOL    HW117183   4.701   3.171  16.186  0.6905  1.0957 -0.2675
 1907SOL    HW217184   0.078   3.126  16.283 -0.3087 -1.1050 -0.4614
 1908SOL     OW17185   3.991   4.293   6.679 -0.0656 -0.2351  0.2089
 1908SOL    HW117186   4.026   4.219   6.629 -0.6641 -0.4691  0.1333
 1908SOL    HW217187   4.071   4.346   6.677 -1.1837  1.5230  1.2950
 1909SOL     OW17188   3.271   0.828   8.681 -0.3582  0.4117 -0.2235
 1909SOL    HW117189   3.306   0.767   8.745  0.1862 -0.1996 -1.0970
 1909SOL    HW217190   3.326   0.905   8.698  0.7635 -0.5025  0.2556
 1910SOL     OW17191   1.018   2.568  10.140  0.1525 -0.7762 -0.2049
 1910SOL    HW117192   0.963   2.559  10.218 -1.3541  3.5086 -0.7788
 1910SOL    HW217193   0.969   2.633  10.089  0.2458 -1.1577 -0.7702
 1911SOL     OW17194   1.372   2.222  14.307  0.1144  0.0797  0.4358
 1911SOL    HW117195   1.317   2.269  14.370 -0.4013  1.3479 -0.9833
 1911SOL    HW217196   1.355   2.130  14.328  3.0115 -0.8049 -1.0786
 1912SOL     OW17197   1.333   3.311   9.563 -0.2348 -0.3727  0.7934
 1912SOL    HW117198   1.308   3.252   9.634  2.6945  0.8122  2.8143
 1912SOL    HW217199   1.411   3.345   9.605  0.6013  0.4646 -1.4648
 1913SOL     OW17200   2.798   3.989  13.259  0.3057 -0.1553  0.7551
 1913SOL    HW117201   2.830   4.067  13.303  1.8048 -0.6782  0.5698
 1913SOL    HW217202   2.865   3.930  13.294  0.7807 -0.2278 -0.2715
 1914SOL     OW17203   2.189   3.855   2.284  0.0980 -0.2938 -0.3177
 1914SOL    HW117204   2.226   3.833   2.370  0.7591 -0.0695 -0.5409
 1914SOL    HW217205   2.138   3.934   2.299  0.7196  0.3955 -1.7877
 1915SOL     OW17206   4.711   0.614   0.861  0.0182 -0.1646 -0.1498
 1915SOL    HW117207   4.654   0.538   0.872  0.7787 -0.9086 -1.2881
 1915SOL    HW217208   0.043   0.581   0.791 -0.7092  0.9644 -1.2623
 1916SOL     OW17209   4.547   1.263   8.227  0.0859 -0.9711 -0.2252
 1916SOL    HW117210   4.582   1.177   8.250 -0.1312 -0.6001  1.4445
 1916SOL    HW217211   4.550   1.312   8.309 -0.8532  0.9391 -1.3213
 1917SOL     OW17212   0.599   1.889   1.034  0.4053  0.1741  0.3411
 1917SOL    HW117213   0.673   1.830   1.045 -0.2489 -0.1852  2.8366
 1917SOL    HW217214   0.629   1.960   1.090 -3.5050  3.4978 -1.7251
 1918SOL     OW17215   2.605   0.316   2.565 -0.4698  0.0943 -0.4318
 1918SOL    HW117216   2.535   0.378   2.545 -0.0296  0.9359  0.6241
 1918SOL    HW217217   2.626   0.325   2.658  2.7111  0.2593 -1.1742
 1919SOL     OW17218   2.411   2.795   3.659 -0.4140 -0.4210  0.4590
 1919SOL    HW117219   2.468   2.857   3.704  0.6749  0.3049 -1.8991
 1919SOL    HW217220   2.421   2.824   3.568 -0.3093 -3.2158 -0.4133
 1920SOL     OW17221   3.202   1.246  13.690  0.1526 -0.6770  0.7819
 1920SOL    HW117222   3.245   1.242  13.775  1.0180  0.5362  0.3980
 1920SOL    HW217223   3.159   1.331  13.681  3.6656  0.8412 -1.5842
 1921SOL     OW17224   4.545   3.435   0.877 -0.2619  0.2486  0.3534
 1921SOL    HW117225   4.576   3.523   0.857  2.0028 -0.9011 -1.2682
 1921SOL    HW217226   4.631   3.394   0.867 -0.1761  0.7421 -1.0174
 1922SOL     OW17227   2.477   2.885  11.012 -0.1914  0.2810 -0.6803
 1922SOL    HW117228   2.502   2.953  11.075  0.6157 -0.5349 -0.1244
 1922SOL    HW217229   2.552   2.827  11.004 -1.0758 -0.9254 -0.1421
 1923SOL     OW17230   2.542   4.241   4.111  0.2407  0.5106  0.6163
 1923SOL    HW117231   2.585   4.323   4.133  1.4718 -0.0161  0.1515
 1923SOL    HW217232   2.476   4.264   4.046  0.9295 -0.5958 -0.4643
 1924SOL     OW17233   2.707   4.227   5.921 -0.1264  0.7077  0.2284
 1924SOL    HW117234   2.634   4.191   5.870  0.5297  1.3882 -1.1994
 1924SOL    HW217235   2.748   4.154   5.967  2.0166 -0.7092 -3.9658
 1925SOL     OW17236   4.163   3.648   3.428  0.6029  0.4303  0.0604
 1925SOL    HW117237   4.079   3.680   3.396  1.0118 -1.0451 -2.4912
 1925SOL    HW217238   4.155   3.555   3.407  1.1178  0.3524  0.2049
 1926SOL     OW17239   1.295   2.219   4.254 -0.3647  0.0683 -0.8252
 1926SOL    HW117240   1.282   2.155   4.184 -2.0082 -0.9075  0.3708
 1926SOL    HW217241   1.365   2.274   4.219  0.5341 -1.1958 -0.9804
 1927SOL     OW17242   0.267   1.787   4.222 -0.5526 -0.4523  0.5801
 1927SOL    HW117243   0.283   1.821   4.134 -0.7213  0.1268  0.7698
 1927SOL    HW217244   0.305   1.850   4.283  0.2624  1.6249 -2.1044
 1928SOL     OW17245   3.165   1.296   5.896  0.5825  0.0088  0.1504
 1928SOL    HW117246   3.247   1.289   5.946  0.4234  0.6377  0.4997
 1928SOL    HW217247   3.199   1.284   5.807  1.4639 -0.3621  0.5388
 1929SOL     OW17248   1.978   3.204   5.286  0.0882  0.3682 -0.1694
 1929SOL    HW117249   1.963   3.143   5.358 -2.1636  2.1596  0.9069
 1929SOL    HW217250   1.919   3.276   5.309  1.6115  1.0479  1.5886
 1930SOL     OW17251   0.243   0.659   4.218  0.2547 -0.1238 -0.0415
 1930SOL    HW117252   0.248   0.580   4.272 -1.6796  0.6449  1.2760
 1930SOL    HW217253   0.164   0.634   4.170 -0.8743  0.6138  1.4374
 1931SOL     OW17254   1.130   1.249   5.733 -0.0885  0.1428 -0.4555
 1931SOL    HW117255   1.209   1.284   5.691 -1.7915  3.1566 -1.1032
 1931SOL    HW217256   1.182   1.181   5.777  1.1208  1.5318  0.2447
 1932SOL     OW17257   4.666   3.574  16.095  0.1883  0.0373 -0.9928
 1932SOL    HW117258   0.003   3.624  16.148  0.5965 -0.7157 -0.7570
 1932SOL    HW217259   4.650   3.498  16.151  1.4042  1.2090  0.9392
 1933SOL     OW17260   2.245   3.740   1.306 -0.3893 -0.0445  0.0177
 1933SOL    HW117261   2.294   3.766   1.384 -2.4815  1.0658  0.9700
 1933SOL    HW217262   2.186   3.815   1.302  0.0321  0.1984 -1.5904
 1934SOL     OW17263   1.394   4.229   2.608  0.0297  0.3102  0.1378
 1934SOL    HW117264   1.439   4.174   2.544  0.4491  2.2215 -1.2004
 1934SOL    HW217265   1.312   4.233   2.559 -0.4233  1.9320  1.0314
 1935SOL     OW17266   2.785   0.340  10.296 -0.4182  0.1108  0.2472
 1935SOL    HW117267   2.773   0.423  10.250  0.9433  2.2956  3.8208
 1935SOL    HW217268   2.708   0.338  10.353 -0.5016 -0.1556  0.1217
 1936SOL     OW17269   3.815   1.842  12.458  0.6050 -0.1490  0.0081
 1936SOL    HW117270   3.858   1.902  12.397 -0.7664 -0.7679 -1.5844
 1936SOL    HW217271   3.817   1.885  12.543  0.9519 -2.3319  1.1224
 1937SOL     OW17272   4.362   2.895   7.106 -0.0326 -0.1285  0.2205
 1937SOL    HW117273   4.377   2.806   7.073 -1.4699 -0.9920  1.9415
 1937SOL    HW217274   4.360   2.940   7.021  0.2815  2.1821  1.4498
 1938SOL     OW17275   3.184   0.097   5.244  0.0134  0.3317  0.2007
 1938SOL    HW117276   3.189   0.002   5.252 -0.0690  0.4185  1.4281
 1938SOL    HW217277   3.257   0.109   5.184 -1.5911  1.7517 -1.4665
 1939SOL     OW17278   0.363   3.998   3.809 -0.4617 -0.0190  0.6975
 1939SOL    HW117279   0.389   4.089   3.822 -0.6166  0.1932 -0.4225
 1939SOL    HW217280   0.419   3.959   3.742 -0.3314 -0.3342  0.9953
 1940SOL     OW17281   4.456   4.163   6.640  0.1539 -0.8837 -0.3105
 1940SOL    HW117282   4.501   4.234   6.595 -0.0972  0.4948  1.6273
 1940SOL    HW217283   4.370   4.187   6.605  0.3901 -1.2038 -1.1110
 1941SOL     OW17284   3.571   2.519   7.616  0.0655  0.1315  0.3520
 1941SOL    HW117285   3.605   2.455   7.678 -1.7288 -0.5893  0.5898
 1941SOL    HW217286   3.481   2.487   7.605  0.5634 -0.8438 -0.9240
 1942SOL     OW17287   1.825   3.760  17.385 -0.4224  0.0636 -0.6814
 1942SOL    HW117288   1.856   3.798  17.467 -1.8247  2.1363 -1.1296
 1942SOL    HW217289   1.733   3.784  17.389 -0.2986  0.1013  1.7582
 1943SOL     OW17290   0.831   3.239   4.633  0.0053  0.1708 -0.0913
 1943SOL    HW117291   0.786   3.270   4.554 -2.1100  1.1929  1.5153
 1943SOL    HW217292   0.832   3.143   4.632  1.7291  0.1897  1.8521
 1944SOL     OW17293   2.790   0.739   5.256  0.0205 -0.4514 -0.0991
 1944SOL    HW117294   2.869   0.693   5.227 -1.0033 -0.6884 -2.5661
 1944SOL    HW217295   2.815   0.825   5.288  3.0362 -1.2127 -0.3322
 1945SOL     OW17296   0.498   4.328   1.801  0.0608  0.3729  0.0443
 1945SOL    HW117297   0.461   4.353   1.715 -0.0877  0.6155  0.1763
 1945SOL    HW217298   0.425   4.335   1.863  0.7048  2.0654  0.6269
 1946SOL     OW17299   3.637   1.216   7.240  0.6246 -0.4984 -0.3675
 1946SOL    HW117300   3.621   1.127   7.209  1.4421 -0.5362 -0.6880
 1946SOL    HW217301   3.665   1.250   7.155  1.4699  0.6025  0.3529
 1947SOL     OW17302   2.239   0.881   5.455  0.8511  0.3770 -0.3342
 1947SOL    HW117303   2.256   0.955   5.396  0.5211  0.2500 -0.5845
 1947SOL    HW217304   2.234   0.924   5.540  0.5630 -4.3658  1.9944
 1948SOL     OW17305   2.132   1.681   5.827 -0.0841 -0.0636 -0.6708
 1948SOL    HW117306   2.155   1.764   5.784  1.3366 -0.2515 -0.2768
 1948SOL    HW217307   2.198   1.624   5.787  0.3440 -0.9478  1.2852
 1949SOL     OW17308   1.751   4.285   3.926 -0.0992 -0.1080  0.0715
 1949SOL    HW117309   1.799   4.356   3.884 -1.8349  0.9193 -0.1584
 1949SOL    HW217310   1.665   4.327   3.922  0.3884  1.0235  1.5503
 1950SOL     OW17311   3.106   3.708   4.405 -0.0682 -0.3705  0.7045
 1950SOL    HW117312   3.115   3.634   4.344 -2.6312  1.0160 -1.3321
 1950SOL    HW217313   3.153   3.681   4.484  2.6753  0.5992 -0.6086
 1951SOL     OW17314   2.092   3.426   4.635  0.0553 -0.0781 -0.3638
 1951SOL    HW117315   2.074   3.373   4.713  1.5626 -0.0702 -0.0215
 1951SOL    HW217316   2.122   3.355   4.579  2.3539  0.5116  0.1229
 1952SOL     OW17317   4.114   1.760   3.581  0.1165 -0.4704 -0.4310
 1952SOL    HW117318   4.125   1.856   3.580  0.8418 -0.6095 -3.7838
 1952SOL    HW217319   4.025   1.762   3.614 -0.8345 -0.8444 -3.0392
 1953SOL     OW17320   1.960   4.194  11.669 -0.3778  0.4917 -0.0247
 1953SOL    HW117321   1.891   4.233  11.722 -0.0256 -0.2991  1.0115
 1953SOL    HW217322   2.029   4.260  11.659  1.0455 -0.8640  0.8608
 1954SOL     OW17323   1.547   2.523   2.910 -0.1070 -0.5176 -0.4684
 1954SOL    HW117324   1.639   2.550   2.914 -0.2619 -0.0340 -0.1672
 1954SOL    HW217325   1.549   2.428   2.908 -4.0511 -0.5945 -0.7764
 1955SOL     OW17326   1.517   3.102   7.976 -0.1702 -0.0145 -0.5994
 1955SOL    HW117327   1.503   3.018   7.933  0.3601 -0.0194 -0.7569
 1955SOL    HW217328   1.605   3.094   8.014 -0.0670 -0.4197 -0.9292
 1956SOL     OW17329   3.190   3.995   1.711 -0.4020 -0.3259  0.0844
 1956SOL    HW117330   3.242   4.014   1.789 -0.1651 -2.6789  0.5079
 1956SOL    HW217331   3.260   3.999   1.646 -2.7060  1.6172 -2.3071
 1957SOL     OW17332   1.956   4.378  17.239 -0.1139  0.2335  0.2381
 1957SOL    HW117333   1.941   4.458  17.289 -0.5882  1.2188 -1.4912
 1957SOL    HW217334   1.868   4.343  17.229  0.4696 -0.5201 -2.2892
 1958SOL     OW17335   4.612   2.297  15.840  0.2268  0.1778  0.6824
 1958SOL    HW117336   4.634   2.371  15.782 -1.7645  0.8161  0.7395
 1958SOL    HW217337   4.570   2.241  15.775 -1.1483 -0.5934  2.2415
 1959SOL     OW17338   2.347   4.161   0.822  0.0114 -0.0554 -0.4699
 1959SOL    HW117339   2.311   4.162   0.733  0.4595  1.7066 -0.6195
 1959SOL    HW217340   2.271   4.119   0.863  1.9635 -1.5831  1.5892
 1960SOL     OW17341   4.153   4.565   9.589 -0.0692  0.4933  0.0520
 1960SOL    HW117342   4.090   4.575   9.661 -2.2731 -1.0864 -1.6812
 1960SOL    HW217343   4.122   4.479   9.560  0.4782  0.0685  0.7131
 1961SOL     OW17344   2.480   0.264  12.704 -0.4445 -0.4096 -0.5202
 1961SOL    HW117345   2.544   0.321  12.747  1.6672 -2.5495 -0.8135
 1961SOL    HW217346   2.433   0.228  12.779  1.5092  0.8191  1.2966
 1962SOL     OW17347   2.940   0.864  15.679 -0.0938  0.3652  0.3569
 1962SOL    HW117348   2.858   0.900  15.645 -0.2692  0.7703  1.2206
 1962SOL    HW217349   2.953   0.901  15.767  0.3697 -1.8336  1.2009
 1963SOL     OW17350   2.203   3.924   8.537 -0.4497 -0.1365  0.0515
 1963SOL    HW117351   2.189   3.846   8.483 -0.5597 -0.2401  0.2299
 1963SOL    HW217352   2.297   3.924   8.553 -0.6647 -0.4425  1.2549
 1964SOL     OW17353   2.901   2.812   3.196 -0.4435  0.2019  0.3755
 1964SOL    HW117354   2.926   2.878   3.261 -1.3575  0.9636 -0.0452
 1964SOL    HW217355   2.812   2.838   3.171 -0.5888 -1.4517 -0.7639
 1965SOL     OW17356   4.368   1.733   2.510  0.3911  0.1706 -0.2496
 1965SOL    HW117357   4.283   1.720   2.470 -1.1397  1.5049  2.5286
 1965SOL    HW217358   4.422   1.685   2.447  0.0219 -0.7393  0.1287
 1966SOL     OW17359   1.824   2.956  11.080  0.2476  0.1934  0.0718
 1966SOL    HW117360   1.905   2.954  11.131 -0.3210  0.3555  0.9829
 1966SOL    HW217361   1.856   2.935  10.992  0.1235 -0.1078  0.0980
 1967SOL     OW17362   2.531   3.560   6.215  0.3553  0.6632  0.1159
 1967SOL    HW117363   2.535   3.550   6.310  0.9330 -0.1199  0.0058
 1967SOL    HW217364   2.509   3.471   6.188 -1.8611  0.9902  0.8130
 1968SOL     OW17365   0.783   3.540   5.845  0.3565 -0.6127 -0.4897
 1968SOL    HW117366   0.723   3.503   5.910 -0.5906  0.6563 -0.6310
 1968SOL    HW217367   0.850   3.581   5.900 -0.0158 -0.3310 -0.2452
 1969SOL     OW17368   2.494   2.739   7.062 -0.1751 -0.5411 -0.4717
 1969SOL    HW117369   2.528   2.738   7.152  0.1106 -1.7454 -0.6032
 1969SOL    HW217370   2.401   2.757   7.080 -1.2615 -4.2504 -2.3500
 1970SOL     OW17371   0.524   3.296   6.497 -0.2496  0.1950 -0.5516
 1970SOL    HW117372   0.487   3.229   6.439  1.9917 -0.2072 -1.5214
 1970SOL    HW217373   0.479   3.377   6.474  3.5053  1.9654 -1.7209
 1971SOL     OW17374   4.565   0.204  10.150  0.3905  0.2814  0.3085
 1971SOL    HW117375   4.581   0.110  10.152  1.7477  0.5306  1.7696
 1971SOL    HW217376   4.655   0.227  10.125  0.2539 -0.1063 -0.5446
 1972SOL     OW17377   0.048   3.626   3.481  0.1097  0.5325 -0.2263
 1972SOL    HW117378   4.694   3.592   3.523  0.9531  0.8477  1.6348
 1972SOL    HW217379   0.061   3.566   3.408 -1.2805  0.3209 -0.3028
 1973SOL     OW17380   3.493   3.900   4.270 -0.1569  0.7118  0.1106
 1973SOL    HW117381   3.430   3.927   4.337 -0.5018  0.9500 -0.3110
 1973SOL    HW217382   3.435   3.916   4.196  0.0884 -0.5542 -0.3444
 1974SOL     OW17383   3.073   0.844   3.139  0.4137 -0.4542 -0.0091
 1974SOL    HW117384   3.086   0.787   3.063  0.3325 -0.2306 -0.1896
 1974SOL    HW217385   3.075   0.779   3.209  1.1671  0.9229  1.2449
 1975SOL     OW17386   3.554   1.326  10.782 -0.5426 -0.1440 -0.0606
 1975SOL    HW117387   3.554   1.232  10.760  3.5645  0.5196 -2.9442
 1975SOL    HW217388   3.544   1.364  10.695  0.0829 -0.7061 -0.3802
 1976SOL     OW17389   1.562   2.414   5.350  0.1189 -0.7987 -0.2057
 1976SOL    HW117390   1.521   2.360   5.418 -1.7897 -0.4929 -1.1226
 1976SOL    HW217391   1.505   2.490   5.340 -0.8860 -1.1194  3.1932
 1977SOL     OW17392   2.562   1.328   8.967 -0.2069 -0.5198 -0.0684
 1977SOL    HW117393   2.494   1.395   8.977  0.5902  0.4919 -1.3936
 1977SOL    HW217394   2.583   1.295   9.055  0.7279  0.8824  0.2397
 1978SOL     OW17395   3.413   3.761   5.283 -0.2299  0.1713  0.0853
 1978SOL    HW117396   3.504   3.780   5.308  0.1652  0.4204 -1.5810
 1978SOL    HW217397   3.381   3.851   5.278 -0.4159  0.0342 -1.0163
 1979SOL     OW17398   1.436   4.323   9.634 -0.4981  0.0065  0.0267
 1979SOL    HW117399   1.361   4.295   9.581  0.2257 -1.6405 -0.1139
 1979SOL    HW217400   1.482   4.370   9.564 -1.0446 -0.0705 -0.3904
 1980SOL     OW17401   2.374   3.864   5.699 -0.4326  0.1627  0.1086
 1980SOL    HW117402   2.333   3.874   5.613  0.3668 -3.1184 -0.6665
 1980SOL    HW217403   2.443   3.799   5.691 -1.0947 -0.5249 -0.0515
 1981SOL     OW17404   0.779   0.838   3.063  0.0382 -0.1564  0.1241
 1981SOL    HW117405   0.762   0.779   2.989 -0.4491 -2.2778  1.9220
 1981SOL    HW217406   0.856   0.876   3.022 -0.5902  2.7841  1.7061
 1982SOL     OW17407   1.714   4.349   3.170  0.2567 -0.4049  0.1321
 1982SOL    HW117408   1.623   4.369   3.192  0.5140 -1.3498  2.0646
 1982SOL    HW217409   1.725   4.262   3.209  0.8227 -0.6109 -0.4828
 1983SOL     OW17410   1.314   3.748  13.457 -0.3280 -0.0783  0.1249
 1983SOL    HW117411   1.246   3.692  13.495 -0.4198  0.4724  0.7686
 1983SOL    HW217412   1.388   3.751  13.518  2.1093  0.2650 -2.8772
 1984SOL     OW17413   3.263   2.549   4.634 -0.1091 -0.3464  0.0241
 1984SOL    HW117414   3.309   2.561   4.717 -1.0707  0.6420  0.4157
 1984SOL    HW217415   3.177   2.550   4.676 -0.0636 -2.1304  0.1358
 1985SOL     OW17416   4.313   2.481  10.320  0.0002  0.4400  0.1527
 1985SOL    HW117417   4.371   2.492  10.395 -0.0970 -0.9622  0.4263
 1985SOL    HW217418   4.256   2.408  10.344  0.5675 -0.3761 -1.0083
 1986SOL     OW17419   0.500   0.694   0.505 -0.3511  0.1412 -0.6500
 1986SOL    HW117420   0.516   0.603   0.531  0.1861  0.4027 -0.0627
 1986SOL    HW217421   0.526   0.701   0.413 -0.9593 -0.3110 -0.8534
 1987SOL     OW17422   4.039   2.803   6.313  0.2992  0.4711 -0.7776
 1987SOL    HW117423   4.117   2.857   6.325 -0.4072  1.6053 -1.2418
 1987SOL    HW217424   4.083   2.732   6.360 -2.7544  0.2336  1.7178
 1988SOL     OW17425   2.765   3.658   0.454 -0.2049 -0.3512  0.0849
 1988SOL    HW117426   2.710   3.614   0.519 -1.6209  1.1007 -0.1385
 1988SOL    HW217427   2.698   3.696   0.398 -0.3518  0.6859  0.9554
 1989SOL     OW17428   0.244   1.158   1.147  0.0816 -0.2051 -0.6271
 1989SOL    HW117429   0.251   1.143   1.053 -0.4899  2.4769 -1.0784
 1989SOL    HW217430   0.247   1.254   1.149  0.7454 -0.1821 -3.1223
 1990SOL     OW17431   3.571   4.028  15.313  0.1208 -0.0054 -0.3679
 1990SOL    HW117432   3.580   4.039  15.408 -0.2874  0.7242 -0.4058
 1990SOL    HW217433   3.498   3.967  15.318 -0.7089  1.0027 -0.0236
 1991SOL     OW17434   1.886   0.472   8.494  0.2367 -0.2241 -0.2853
 1991SOL    HW117435   1.927   0.414   8.558  0.1542 -1.3590 -1.2635
 1991SOL    HW217436   1.950   0.462   8.424 -0.4371 -0.3587 -0.8870
 1992SOL     OW17437   3.632   4.611   6.106 -0.0471 -0.6421 -0.6906
 1992SOL    HW117438   3.700   4.665   6.066  1.3904 -0.2882  2.2400
 1992SOL    HW217439   3.555   4.649   6.063  0.6721 -1.3843 -2.6239
 1993SOL     OW17440   4.362   1.158   0.343 -0.0253 -0.0520 -0.0938
 1993SOL    HW117441   4.295   1.090   0.335  0.7187 -0.5648 -1.9637
 1993SOL    HW217442   4.334   1.211   0.268 -2.9291  0.4115  1.3295
 1994SOL     OW17443   0.494   1.053   6.528  0.7972 -0.5521  0.0151
 1994SOL    HW117444   0.467   0.973   6.483  0.1778  0.2472 -1.0595
 1994SOL    HW217445   0.533   1.026   6.611 -0.1668 -1.5426  0.1379
 1995SOL     OW17446   3.680   1.277   9.816 -0.1516 -0.9487  0.6200
 1995SOL    HW117447   3.599   1.236   9.784 -1.5172  1.0276  1.4957
 1995SOL    HW217448   3.716   1.320   9.739 -1.2241 -1.1980 -0.0280
 1996SOL     OW17449   0.480   1.431   1.130  0.0521  0.0607 -0.3074
 1996SOL    HW117450   0.527   1.428   1.046 -0.2989 -0.0812 -0.4992
 1996SOL    HW217451   0.524   1.374   1.191 -0.8652  1.3420  1.5579
 1997SOL     OW17452   4.447   4.082   3.375  0.5816  0.2200 -0.4626
 1997SOL    HW117453   4.364   4.036   3.383  0.7772  0.1864  1.2693
 1997SOL    HW217454   4.431   4.149   3.308 -1.1724  0.2753  0.0337
 1998SOL     OW17455   2.032   1.897   6.113  0.4121 -0.1821  0.3028
 1998SOL    HW117456   1.997   1.951   6.184  0.7779  1.0411 -0.4626
 1998SOL    HW217457   2.108   1.850   6.146 -0.5336 -0.4354  2.1680
 1999SOL     OW17458   3.962   4.239   5.123  0.1889 -0.2182 -0.1351
 1999SOL    HW117459   3.954   4.218   5.030  1.6014  3.2661 -1.0324
 1999SOL    HW217460   4.030   4.306   5.119 -1.1699  1.1911  0.6402
 2000SOL     OW17461   0.228   3.503   4.696  0.0760 -0.1987 -0.2870
 2000SOL    HW117462   0.294   3.482   4.763 -2.2022  0.9026  2.3327
 2000SOL    HW217463   0.272   3.477   4.616  1.0644  2.5916 -0.6512
 2001SOL     OW17464   3.462   0.837  10.302  0.4128  0.3017  0.0705
 2001SOL    HW117465   3.418   0.760  10.337 -2.1418  1.6113 -0.2763
 2001SOL    HW217466   3.414   0.866  10.225 -0.1282  0.1292  0.3425
 2002SOL     OW17467   4.478   0.688   6.538  0.0607 -0.7492 -0.1618
 2002SOL    HW117468   4.443   0.690   6.627  0.9704 -2.2162  0.2182
 2002SOL    HW217469   4.420   0.631   6.489 -0.8901 -1.8776  2.2838
 2003SOL     OW17470   1.837   0.463   3.245  0.3925 -0.1209 -0.0861
 2003SOL    HW117471   1.907   0.528   3.251 -2.2095  2.3740  3.0821
 2003SOL    HW217472   1.840   0.424   3.332 -0.2018 -0.0275 -0.0188
 2004SOL     OW17473   3.533   3.202   3.506 -0.2281 -0.1348  0.6787
 2004SOL    HW117474   3.569   3.114   3.499  1.5803  0.5047  1.7629
 2004SOL    HW217475   3.448   3.195   3.463  0.0797  2.0677 -0.2820
 2005SOL     OW17476   4.354   2.928   1.295 -0.0813 -0.0322 -0.4517
 2005SOL    HW117477   4.440   2.903   1.329 -0.7570  0.2263  1.4706
 2005SOL    HW217478   4.335   2.855   1.236  1.0612  1.5218 -2.7097
 2006SOL     OW17479   4.371   2.209  16.474  0.0297  0.1127  0.4441
 2006SOL    HW117480   4.418   2.271  16.529  1.9034 -1.2580  0.4015
 2006SOL    HW217481   4.412   2.228  16.389  0.5282  0.9576  0.8731
 2007SOL     OW17482   4.466   2.352   7.348 -0.1413  0.3734 -0.0930
 2007SOL    HW117483   4.483   2.301   7.427  0.2001  1.6606  0.6720
 2007SOL    HW217484   4.556   2.363   7.317  0.0161  0.7584  0.5049
 2008SOL     OW17485   1.680   0.566  10.961 -0.0144  0.1410 -0.0445
 2008SOL    HW117486   1.717   0.619  11.031  0.6223  1.2615 -1.2274
 2008SOL    HW217487   1.696   0.620  10.884 -0.4940  0.6648  0.2302
 2009SOL     OW17488   3.344   1.311  13.911  0.0144  0.4743 -0.0943
 2009SOL    HW117489   3.353   1.406  13.899  0.2673  0.2930 -1.3456
 2009SOL    HW217490   3.359   1.297  14.005 -2.5038  0.8809  0.3640
 2010SOL     OW17491   0.348   1.563   8.508  0.0917 -0.2019  0.8853
 2010SOL    HW117492   0.303   1.555   8.592  2.4985 -2.3336  1.9490
 2010SOL    HW217493   0.275   1.533   8.453 -0.2139 -0.0441  1.2053
 2011SOL     OW17494   2.100   3.580   3.062 -0.0374 -0.0208 -0.3125
 2011SOL    HW117495   2.136   3.647   3.004  0.3451 -1.0304 -1.2358
 2011SOL    HW217496   2.060   3.524   2.996  0.1847 -0.8741  0.2762
 2012SOL     OW17497   1.446   2.403   7.220 -0.0077  0.0994 -0.5731
 2012SOL    HW117498   1.395   2.419   7.300  0.8989  1.0661 -0.2021
 2012SOL    HW217499   1.490   2.320   7.238 -1.8483 -1.0915 -1.4994
 2013SOL     OW17500   2.802   0.897  16.398 -0.0157 -0.0690  0.0239
 2013SOL    HW117501   2.772   0.927  16.313 -2.5025 -1.3082  0.4703
 2013SOL    HW217502   2.721   0.879  16.446 -0.5269  1.1578 -0.3848
 2014SOL     OW17503   0.117   0.211   3.501  0.5878  0.1187  0.7238
 2014SOL    HW117504   0.151   0.191   3.414  2.1430 -0.2478  1.4290
 2014SOL    HW217505   0.137   0.305   3.508  0.3416  0.3418 -1.6148
 2015SOL     OW17506   3.666   2.509   3.806 -0.4405  0.1491 -0.1653
 2015SOL    HW117507   3.580   2.525   3.766 -0.6225  0.0452  0.1880
 2015SOL    HW217508   3.661   2.551   3.892  0.7168  0.3935 -0.2224
 2016SOL     OW17509   0.157   3.942   2.397  0.0207 -0.2090 -0.2184
 2016SOL    HW117510   0.156   4.034   2.424  1.2921 -0.3596  0.3244
 2016SOL    HW217511   0.080   3.912   2.445  1.4164 -2.0104  0.8488
 2017SOL     OW17512   3.456   0.736   6.416 -0.8166  0.0154  0.0361
 2017SOL    HW117513   3.422   0.806   6.360 -0.9482  0.5377  0.7689
 2017SOL    HW217514   3.387   0.737   6.483 -0.0471  1.9016  0.7913
 2018SOL     OW17515   1.295   3.587   4.472 -0.2118  0.0651 -0.4850
 2018SOL    HW117516   1.301   3.644   4.395  0.7541  0.2279 -0.2788
 2018SOL    HW217517   1.383   3.551   4.466 -0.2431 -0.6168  2.9070
 2019SOL     OW17518   2.376   3.690   9.537  0.1379 -0.1626  0.2706
 2019SOL    HW117519   2.371   3.601   9.572 -0.7143  0.0676  0.7340
 2019SOL    HW217520   2.456   3.694   9.484  1.5872 -0.6164  2.4555
 2020SOL     OW17521   1.101   3.764   5.151  0.2592  0.1414 -0.4491
 2020SOL    HW117522   1.064   3.833   5.096  2.5955  1.4902 -0.3463
 2020SOL    HW217523   1.074   3.678   5.117  1.2544  0.0767 -1.0763
 2021SOL     OW17524   3.411   1.851  10.286 -0.2046 -0.1449  0.1305
 2021SOL    HW117525   3.426   1.926  10.344 -0.6648 -0.5125  0.7278
 2021SOL    HW217526   3.491   1.841  10.234  0.6965 -0.5024  1.5864
 2022SOL     OW17527   0.117   0.372  10.217  0.1025  0.4866 -0.3402
 2022SOL    HW117528   0.157   0.386  10.303 -0.3959 -0.9792  0.1209
 2022SOL    HW217529   0.151   0.285  10.196 -0.7507  0.3746 -1.2446
 2023SOL     OW17530   4.141   3.706   3.713  0.1701 -0.2809 -0.3885
 2023SOL    HW117531   4.226   3.704   3.669  0.0124  0.7426 -0.7274
 2023SOL    HW217532   4.092   3.631   3.678 -0.3095 -0.0159 -0.2880
 2024SOL     OW17533   0.464   1.948   2.005 -0.8541  0.2278 -0.0943
 2024SOL    HW117534   0.388   1.938   1.947 -2.0148  0.0771  1.4365
 2024SOL    HW217535   0.530   1.943   1.935  1.3694  1.1798  1.9426
 2025SOL     OW17536   0.769   0.247   1.549 -0.0591  0.1295  0.1314
 2025SOL    HW117537   0.795   0.156   1.532  3.9803  0.6569  3.3867
 2025SOL    HW217538   0.767   0.251   1.645 -0.3872 -1.0916  0.1815
 2026SOL     OW17539   0.816   0.079  10.247 -0.3546  1.0637 -0.2172
 2026SOL    HW117540   0.899   0.127  10.244 -0.0238  0.4821 -0.4287
 2026SOL    HW217541   0.757   0.150  10.220  0.6363  0.8396 -3.0094
 2027SOL     OW17542   3.233   0.574  11.439 -0.3981  0.3685  0.0983
 2027SOL    HW117543   3.284   0.572  11.358 -1.9532  1.1736 -0.8856
 2027SOL    HW217544   3.143   0.581  11.409 -0.8119 -2.2607  0.7257
 2028SOL     OW17545   3.222   4.346   3.777  0.3315  0.5505 -0.0286
 2028SOL    HW117546   3.130   4.339   3.752 -0.0637  1.8923  1.0219
 2028SOL    HW217547   3.266   4.363   3.694 -0.0177 -2.2304 -0.7826
 2029SOL     OW17548   2.794   1.550   8.957  0.1079  0.6571  0.7915
 2029SOL    HW117549   2.731   1.478   8.951  1.1015 -0.2944  1.7142
 2029SOL    HW217550   2.736   1.622   8.979 -0.5603  0.1835  0.5893
 2030SOL     OW17551   1.441   1.880  15.653  0.0446  0.9200  0.4328
 2030SOL    HW117552   1.465   1.969  15.626  0.2425  0.7688  0.1139
 2030SOL    HW217553   1.449   1.840  15.566  2.6058  1.6772  0.3233
 2031SOL     OW17554   2.019   3.740  13.988  0.0339 -0.0506 -0.5789
 2031SOL    HW117555   1.997   3.812  14.048 -0.7329  0.8837 -1.9668
 2031SOL    HW217556   2.115   3.745  13.989  0.0545 -0.8398  0.3466
 2032SOL     OW17557   4.229   1.184  13.449  0.4732 -0.7770 -0.4649
 2032SOL    HW117558   4.314   1.181  13.492 -0.8267 -1.5872  2.0424
 2032SOL    HW217559   4.186   1.250  13.503  3.1133 -0.0241  0.6975
 2033SOL     OW17560   0.037   3.220  13.603  0.3173 -0.1882  0.1498
 2033SOL    HW117561   0.083   3.195  13.684  0.6447 -0.1270 -0.0158
 2033SOL    HW217562   4.707   3.295  13.626 -1.3060 -1.1536 -0.5459
 2034SOL     OW17563   1.753   4.323   4.823 -0.0315  0.3714  0.1707
 2034SOL    HW117564   1.822   4.260   4.803 -0.8008 -0.6459  0.7046
 2034SOL    HW217565   1.792   4.395   4.773  0.8021 -0.6694 -0.6564
 2035SOL     OW17566   1.050   4.469   5.638 -0.0944 -0.1810  0.0341
 2035SOL    HW117567   1.097   4.394   5.674 -0.5857 -0.3971  0.2271
 2035SOL    HW217568   1.059   4.453   5.544  3.9357  0.6664  0.2825
 2036SOL     OW17569   1.036   2.190   2.227  0.0967  0.1657 -0.3339
 2036SOL    HW117570   1.129   2.164   2.228 -0.4329 -1.6152  1.7310
 2036SOL    HW217571   1.036   2.286   2.221  1.3042  0.1672 -0.4536
 2037SOL     OW17572   0.186   2.387   1.026  0.7461 -0.0446  0.3248
 2037SOL    HW117573   0.214   2.395   1.117  0.2802  0.5902  0.4172
 2037SOL    HW217574   0.239   2.446   0.972  0.5704  0.3413  0.5710
 2038SOL     OW17575   4.416   2.023  13.222  0.4217 -0.5333 -0.7521
 2038SOL    HW117576   4.337   2.075  13.232 -0.2031 -1.8521  1.0584
 2038SOL    HW217577   4.447   2.043  13.134  0.4074  2.4442 -0.0711
 2039SOL     OW17578   1.096   0.213   3.186  0.3706 -0.0039 -0.4051
 2039SOL    HW117579   1.186   0.233   3.157 -0.4945  0.9283 -2.4645
 2039SOL    HW217580   1.104   0.162   3.267  0.4667  0.6005 -0.0372
 2040SOL     OW17581   0.206   4.276  13.341 -0.1084 -0.5727  0.5522
 2040SOL    HW117582   0.205   4.182  13.322 -2.7585 -0.2029 -1.0489
 2040SOL    HW217583   0.119   4.288  13.380 -0.5056  1.2066 -0.9323
 2041SOL     OW17584   3.209   2.167   6.790 -0.0967 -0.1660 -0.3736
 2041SOL    HW117585   3.240   2.251   6.757  2.4662 -0.4164  1.4254
 2041SOL    HW217586   3.134   2.199   6.840 -2.4584 -3.1531 -2.0334
 2042SOL     OW17587   1.265   1.142  17.156 -0.1096 -0.0415 -0.4594
 2042SOL    HW117588   1.239   1.075  17.093  1.4066  0.8631 -2.0122
 2042SOL    HW217589   1.192   1.205  17.149  0.3183  0.3408 -1.4550
 2043SOL     OW17590   3.871   0.475   8.478  0.0452 -0.6621 -1.1123
 2043SOL    HW117591   3.837   0.559   8.446  0.3775 -0.0773  0.0654
 2043SOL    HW217592   3.963   0.497   8.494 -0.5976  0.1936  1.3307
 2044SOL     OW17593   1.804   1.098   3.194  0.3037 -0.3417  0.3432
 2044SOL    HW117594   1.744   1.024   3.184 -1.8793  1.4691  0.1050
 2044SOL    HW217595   1.738   1.167   3.191 -0.0089 -0.6214  0.7038
 2045SOL     OW17596   0.232   2.656   5.531 -0.3852 -0.1045 -0.2557
 2045SOL    HW117597   0.237   2.709   5.610 -0.0382  0.0721 -0.3939
 2045SOL    HW217598   0.260   2.719   5.464  1.0356 -1.6666 -1.1311
 2046SOL     OW17599   0.983   2.919   7.849 -0.2317 -0.1021 -0.3202
 2046SOL    HW117600   1.012   2.847   7.905 -1.9362 -0.1177  0.5484
 2046SOL    HW217601   0.969   2.981   7.921  2.9603  0.5425 -0.2609
 2047SOL     OW17602   3.504   3.087   6.806 -0.3837 -0.1948  0.3251
 2047SOL    HW117603   3.562   3.050   6.873 -0.2645 -2.7183 -1.1743
 2047SOL    HW217604   3.565   3.068   6.735 -0.3942 -1.4687  0.6464
 2048SOL     OW17605   3.661   4.652   3.819 -0.2446 -0.1913 -0.1762
 2048SOL    HW117606   3.630   4.643   3.909 -1.4615 -0.0323 -0.5794
 2048SOL    HW217607   3.741   4.704   3.826 -0.4542 -0.2728  2.5205
 2049SOL     OW17608   0.829   2.193   6.869  0.0025 -0.8355  0.0882
 2049SOL    HW117609   0.803   2.191   6.961  0.1076  0.7231  0.1653
 2049SOL    HW217610   0.791   2.277   6.841  1.2124 -0.5884 -0.8258
 2050SOL     OW17611   4.508   4.306  15.802  0.4399  0.5555 -0.0248
 2050SOL    HW117612   4.514   4.267  15.889 -0.9108  0.8342  0.1967
 2050SOL    HW217613   4.468   4.390  15.823  1.0154  0.4754  1.4046
 2051SOL     OW17614   3.561   4.302   6.933  0.1051 -0.3124 -0.5120
 2051SOL    HW117615   3.562   4.328   7.026 -1.5555 -0.0761 -0.5643
 2051SOL    HW217616   3.646   4.259   6.927  1.1014  1.5859 -0.0783
 2052SOL     OW17617   4.474   0.726  14.576 -0.0239 -0.4475  0.1369
 2052SOL    HW117618   4.560   0.765  14.591  0.1526 -1.7541  2.5519
 2052SOL    HW217619   4.486   0.712  14.482  0.0780  1.7758 -0.1934
 2053SOL     OW17620   3.597   0.667   2.942  0.0423  0.9265  0.2564
 2053SOL    HW117621   3.639   0.617   3.011  0.5889 -0.9681 -1.4520
 2053SOL    HW217622   3.662   0.694   2.877  0.4613 -0.5032  0.0864
 2054SOL     OW17623   0.189   1.624  17.285  0.3314  0.1663 -0.0346
 2054SOL    HW117624   0.184   1.550  17.224  1.6379 -1.0668  1.3681
 2054SOL    HW217625   0.104   1.661  17.262 -0.2279 -0.6148  0.7822
 2055SOL     OW17626   3.471   0.068  12.425 -0.2292  0.0277  0.2725
 2055SOL    HW117627   3.467   0.151  12.472 -1.2428  0.4549 -0.5536
 2055SOL    HW217628   3.521   0.019  12.490  1.7516  2.1800  0.3853
 2056SOL     OW17629   3.055   0.599   1.109  0.4438  0.3339 -0.3406
 2056SOL    HW117630   3.034   0.634   1.023 -0.7777  2.3112  0.7636
 2056SOL    HW217631   3.123   0.538   1.082  1.6492  1.4642  0.1125
 2057SOL     OW17632   1.143   3.095   7.389 -0.6020  0.2729  0.0647
 2057SOL    HW117633   1.076   3.088   7.321  0.6417 -1.0574 -1.0212
 2057SOL    HW217634   1.116   3.174   7.437  0.3979 -0.1117  1.2666
 2058SOL     OW17635   0.728   1.142  11.432  0.3125 -0.1525 -0.0241
 2058SOL    HW117636   0.813   1.174  11.404  0.5061 -1.4641 -0.9415
 2058SOL    HW217637   0.744   1.143  11.527 -0.1855  1.9647  0.0246
 2059SOL     OW17638   1.258   4.034   1.200  0.5211 -0.3976  0.0483
 2059SOL    HW117639   1.167   4.013   1.178  0.6406 -0.0496 -0.7974
 2059SOL    HW217640   1.299   3.947   1.201 -0.3459 -0.8398 -1.8071
 2060SOL     OW17641   0.581   2.843   5.448  0.1969 -0.1920  0.2316
 2060SOL    HW117642   0.635   2.783   5.499  2.2984  2.4412  1.0796
 2060SOL    HW217643   0.531   2.781   5.394 -2.5054 -0.0539  2.5701
 2061SOL     OW17644   1.926   3.955   5.550 -0.5290 -0.0831 -0.0210
 2061SOL    HW117645   1.965   3.892   5.489  2.8478 -0.0783  2.1035
 2061SOL    HW217646   1.884   4.017   5.491 -0.5226 -0.5540 -0.5192
 2062SOL     OW17647   1.999   2.275  17.208 -0.4174 -0.0006 -0.6415
 2062SOL    HW117648   2.040   2.300  17.125 -0.5912  1.2867 -0.3343
 2062SOL    HW217649   1.915   2.249  17.171 -0.8786  0.8789 -0.1940
 2063SOL     OW17650   3.304   2.053  15.403 -0.2065  0.1052 -0.5744
 2063SOL    HW117651   3.287   2.139  15.442  1.2800  0.2117 -0.1455
 2063SOL    HW217652   3.281   2.072  15.312 -3.3290  1.2657  0.4733
 2064SOL     OW17653   4.416   1.668   4.351  0.0089  0.3273  0.0207
 2064SOL    HW117654   4.391   1.713   4.432 -1.0586  0.8939 -0.6236
 2064SOL    HW217655   4.509   1.687   4.355  0.0243  0.9445 -3.2005
 2065SOL     OW17656   2.871   1.347   3.355  0.0029 -0.4092 -0.1456
 2065SOL    HW117657   2.893   1.321   3.445  1.0809 -1.2246 -0.6531
 2065SOL    HW217658   2.954   1.384   3.325  1.5816 -3.8401  0.0201
 2066SOL     OW17659   1.496   4.392  17.015 -0.7991  0.0804  0.1480
 2066SOL    HW117660   1.514   4.478  17.051  1.7924  0.1613 -1.3719
 2066SOL    HW217661   1.543   4.395  16.932  0.1112  2.0263  0.7480
 2067SOL     OW17662   3.603   0.915   2.271  0.3527 -0.3776  0.3824
 2067SOL    HW117663   3.583   0.988   2.329 -1.7464 -0.8472  0.2450
 2067SOL    HW217664   3.691   0.935   2.239 -0.4140  2.6138  0.2262
 2068SOL     OW17665   0.343   4.658   1.954  0.5848 -0.4678 -0.5758
 2068SOL    HW117666   0.298   4.613   2.025 -2.3452  0.3025 -1.9440
 2068SOL    HW217667   0.265   4.693   1.911  0.2971 -1.1161 -0.5794
 2069SOL     OW17668   4.523   3.190   4.743 -0.1000 -0.9368  0.0555
 2069SOL    HW117669   4.567   3.253   4.685  2.9642 -2.4410  0.7435
 2069SOL    HW217670   4.514   3.237   4.825 -2.4294 -0.6777 -0.3363
 2070SOL     OW17671   2.581   1.788   1.872  0.5158  0.4475  0.3541
 2070SOL    HW117672   2.648   1.798   1.803 -1.4990 -0.9203 -1.7978
 2070SOL    HW217673   2.518   1.738   1.821 -0.3242  0.0332  1.8173
 2071SOL     OW17674   1.371   0.550   1.492  0.6715  0.3366 -0.2444
 2071SOL    HW117675   1.377   0.637   1.453  0.0463  1.0966  1.3781
 2071SOL    HW217676   1.366   0.574   1.584 -1.3131  0.0573 -0.2795
 2072SOL     OW17677   4.676   2.868  16.602  0.0896 -0.3669  0.3534
 2072SOL    HW117678   4.718   2.937  16.550 -0.3229  0.2804  0.8674
 2072SOL    HW217679   4.597   2.847  16.552  0.6053 -0.1267 -0.5612
 2073SOL     OW17680   1.722   1.794   1.622 -0.2906 -0.1986 -0.1356
 2073SOL    HW117681   1.714   1.700   1.606 -0.3890 -0.1122 -0.6081
 2073SOL    HW217682   1.639   1.833   1.594  0.4935  1.4158 -0.2520
 2074SOL     OW17683   4.024   1.884  10.745 -0.3678  0.4922  0.2980
 2074SOL    HW117684   4.097   1.946  10.745  1.4366 -1.6395  0.1862
 2074SOL    HW217685   4.050   1.841  10.827  0.9808  0.6748 -0.0397
 2075SOL     OW17686   0.275   4.515  11.165 -0.4050  0.1732  0.6836
 2075SOL    HW117687   0.282   4.484  11.075 -0.4217 -0.2318  0.8194
 2075SOL    HW217688   0.180   4.517  11.168 -0.4247  1.0635 -0.4857
 2076SOL     OW17689   3.728   4.655   1.631 -0.5846  0.2638  0.3183
 2076SOL    HW117690   3.718   4.648   1.726 -4.4908  1.3005  0.0009
 2076SOL    HW217691   3.725   4.561   1.614  0.7281  0.4321 -0.8445
 2077SOL     OW17692   3.605   4.688   3.575  0.2486 -0.3044 -0.5054
 2077SOL    HW117693   3.684   4.674   3.522 -0.6022  0.0662 -1.8627
 2077SOL    HW217694   3.628   4.676   3.667  0.1136 -4.1037 -0.9717
 2078SOL     OW17695   3.682   3.739   7.633  0.2768 -0.1518  0.0619
 2078SOL    HW117696   3.592   3.710   7.617  0.2013  0.5198 -0.7424
 2078SOL    HW217697   3.739   3.671   7.599  2.1013  1.2728  0.2699
 2079SOL     OW17698   2.408   3.773   9.817  0.7629  0.3871  0.4847
 2079SOL    HW117699   2.406   3.719   9.738 -1.1036 -0.5590  1.1787
 2079SOL    HW217700   2.452   3.722   9.885  1.9132  0.2803 -0.3492
 2080SOL     OW17701   3.457   2.498  10.222 -0.2225  0.0848  0.0468
 2080SOL    HW117702   3.435   2.558  10.151  0.4873 -0.0334 -0.2750
 2080SOL    HW217703   3.500   2.437  10.163 -0.2813 -1.1096  1.2379
 2081SOL     OW17704   0.065   1.123   7.992 -0.0337 -0.2588 -0.4131
 2081SOL    HW117705   0.140   1.091   7.942 -0.9327 -1.6310 -0.8652
 2081SOL    HW217706   0.036   1.205   7.951 -0.2579  0.0075  0.2753
 2082SOL     OW17707   0.004   3.476   1.766 -0.2462  0.3034  0.2471
 2082SOL    HW117708   0.053   3.421   1.704 -0.1952  0.3420  0.2533
 2082SOL    HW217709   0.071   3.504   1.828 -1.2245 -0.7761  1.7684
 2083SOL     OW17710   2.828   0.059  14.214  0.2438 -0.3037  0.0919
 2083SOL    HW117711   2.742   0.098  14.227  0.8190  0.8200  0.5933
 2083SOL    HW217712   2.853   0.110  14.137 -0.1698 -0.4920 -0.1659
 2084SOL     OW17713   4.109   0.205  10.061  0.1025  0.1843  0.0018
 2084SOL    HW117714   4.038   0.253  10.018 -0.1305 -0.1448  0.0217
 2084SOL    HW217715   4.067   0.200  10.147  0.3235 -0.2713  0.0794
 2085SOL     OW17716   2.613   4.344   2.127  0.4332  0.3279  0.0523
 2085SOL    HW117717   2.672   4.385   2.190 -0.7523  2.2325 -0.0848
 2085SOL    HW217718   2.527   4.368   2.162  0.5204  2.4131 -1.1377
 2086SOL     OW17719   4.278   3.740   4.801 -0.2379  0.2164 -0.3034
 2086SOL    HW117720   4.306   3.713   4.888 -1.1521  0.2981  0.0126
 2086SOL    HW217721   4.266   3.659   4.751 -0.3123  1.2112 -1.9254
 2087SOL     OW17722   3.655   4.221   2.762 -0.5165  0.3239  0.0791
 2087SOL    HW117723   3.702   4.151   2.809  1.3275  1.3065 -0.2924
 2087SOL    HW217724   3.588   4.165   2.723 -3.2536  2.5785  1.5900
 2088SOL     OW17725   4.606   2.985   6.753 -0.3299 -0.2298 -0.1603
 2088SOL    HW117726   4.587   3.052   6.819 -0.1836 -1.5592  1.2314
 2088SOL    HW217727   4.619   2.902   6.798 -2.8131 -1.2735 -1.3732
 2089SOL     OW17728   1.731   3.594  15.438 -0.9271  0.7295  0.3629
 2089SOL    HW117729   1.786   3.525  15.475  0.8865  1.8746 -0.1628
 2089SOL    HW217730   1.793   3.628  15.373  0.1349  0.2217  1.0998
 2090SOL     OW17731   3.136   1.499  10.997 -0.4385  0.6055  0.1545
 2090SOL    HW117732   3.130   1.557  11.073  2.9467  1.7320 -0.4277
 2090SOL    HW217733   3.126   1.414  11.039  0.5183 -0.2126 -1.2968
 2091SOL     OW17734   4.498   4.326   2.698  0.3733 -0.1333  0.2570
 2091SOL    HW117735   4.463   4.249   2.653 -0.1806  1.3632 -1.8857
 2091SOL    HW217736   4.593   4.314   2.699  0.3211 -0.6000 -0.0384
 2092SOL     OW17737   1.379   0.807   3.912  0.3360 -0.2021  0.6219
 2092SOL    HW117738   1.330   0.795   3.830 -2.7390  2.1587  2.0971
 2092SOL    HW217739   1.399   0.714   3.922  0.3384 -0.2777 -0.0287
 2093SOL     OW17740   0.556   0.699  10.789 -0.0636  0.4513 -0.3908
 2093SOL    HW117741   0.461   0.685  10.787 -0.4070  2.3471  2.8377
 2093SOL    HW217742   0.548   0.776  10.733  1.2173 -0.6298 -2.0465
 2094SOL     OW17743   0.318   1.086   1.446  0.6560 -0.1156 -0.0530
 2094SOL    HW117744   0.357   1.079   1.533 -2.6292  0.2775  1.4794
 2094SOL    HW217745   0.340   0.999   1.413  3.5027  0.2344  0.9864
 2095SOL     OW17746   4.331   4.651   3.208 -0.8505  0.0044  0.2802
 2095SOL    HW117747   4.290   4.601   3.279  1.0249 -1.0413  0.6073
 2095SOL    HW217748   4.424   4.642   3.228 -0.3635 -0.1255 -2.1472
 2096SOL     OW17749   1.866   2.873   9.094  0.7360 -0.0701  0.1593
 2096SOL    HW117750   1.834   2.811   9.029  2.6092 -0.6735 -0.1853
 2096SOL    HW217751   1.860   2.953   9.043  2.0787 -1.2895 -1.9122
 2097SOL     OW17752   2.778   2.241   1.242 -0.2137 -0.0995  0.3903
 2097SOL    HW117753   2.700   2.291   1.217  1.5369  3.2525  1.5968
 2097SOL    HW217754   2.846   2.290   1.195  0.6840 -0.6241  1.1453
 2098SOL     OW17755   4.261   0.838  17.290 -0.1603  0.2930  0.5256
 2098SOL    HW117756   4.233   0.803  17.206  0.1764 -1.1883  1.0289
 2098SOL    HW217757   4.211   0.775  17.342 -1.6956  1.3920  0.3776
 2099SOL     OW17758   4.318   3.852   7.659 -0.0422  0.1008  0.3104
 2099SOL    HW117759   4.229   3.835   7.626 -0.8482  1.8798  1.6120
 2099SOL    HW217760   4.286   3.911   7.727 -2.8995 -1.0878  0.0308
 2100SOL     OW17761   4.600   2.736   4.838  0.0020 -0.6520  0.2410
 2100SOL    HW117762   4.573   2.814   4.790  0.3335 -0.5415  0.2320
 2100SOL    HW217763   4.693   2.733   4.814  0.4559  0.2245  1.9304
 2101SOL     OW17764   4.621   1.169   1.764 -0.0913 -0.2713  0.3725
 2101SOL    HW117765   4.571   1.094   1.732 -2.5932  0.5669  2.2664
 2101SOL    HW217766   4.571   1.195   1.842 -0.5443  0.8546 -0.2946
 2102SOL     OW17767   1.383   4.179   2.091 -0.0921  0.3417  0.3826
 2102SOL    HW117768   1.348   4.090   2.090  1.5058 -0.2804 -0.5790
 2102SOL    HW217769   1.438   4.189   2.013  0.2161 -1.3588  0.3710
 2103SOL     OW17770   1.534   1.447   1.521  0.2557  0.4499  0.0253
 2103SOL    HW117771   1.476   1.519   1.494 -1.2242 -0.5845  0.4631
 2103SOL    HW217772   1.500   1.373   1.471 -0.6063  0.4518  0.6021
 2104SOL     OW17773   0.677   2.571   6.200  0.2467 -0.1010  0.2382
 2104SOL    HW117774   0.651   2.566   6.108 -0.7105 -1.3527  0.5778
 2104SOL    HW217775   0.749   2.634   6.195 -1.7384  1.9819 -1.8263
 2105SOL     OW17776   1.020   0.693   3.337 -0.3770  0.0497  0.2283
 2105SOL    HW117777   0.952   0.630   3.363  0.1147 -0.5911 -0.0386
 2105SOL    HW217778   1.005   0.710   3.244 -2.9024 -0.6395  0.5017
 2106SOL     OW17779   1.149   1.899   7.279 -0.1347 -0.2746 -0.0696
 2106SOL    HW117780   1.106   1.864   7.357 -0.5240 -2.0498 -1.0719
 2106SOL    HW217781   1.075   1.938   7.232 -1.4239 -2.4890  0.0864
 2107SOL     OW17782   3.264   4.467   2.817  0.6596  0.3313 -0.4055
 2107SOL    HW117783   3.255   4.560   2.836 -1.7986 -0.1968  1.0049
 2107SOL    HW217784   3.339   4.466   2.758  1.3385 -2.1074  0.5034
 2108SOL     OW17785   3.347   3.629   1.703  0.2541  0.1201  0.6566
 2108SOL    HW117786   3.251   3.632   1.710  0.1662 -2.8239  1.1519
 2108SOL    HW217787   3.364   3.542   1.739 -1.8164 -0.9859 -1.0257
 2109SOL     OW17788   3.828   0.196   4.300 -0.1009  0.4556 -0.6491
 2109SOL    HW117789   3.858   0.115   4.258 -1.5750  1.1701 -3.0892
 2109SOL    HW217790   3.840   0.167   4.390  0.9780 -0.2314 -1.0089
 2110SOL     OW17791   4.487   3.033   3.647  0.3647  0.1332 -0.2098
 2110SOL    HW117792   4.491   3.089   3.724  3.2925  0.1186 -0.3485
 2110SOL    HW217793   4.401   3.065   3.618  1.2906  0.5359 -2.5348
 2111SOL     OW17794   3.093   1.008   2.904 -0.1474  0.5918 -0.2424
 2111SOL    HW117795   3.075   0.945   2.974 -0.5732  1.0669  0.0794
 2111SOL    HW217796   3.047   1.090   2.925  0.2945  0.7133  0.2485
 2112SOL     OW17797   0.653   1.364   2.201  0.5197  0.2469 -0.6009
 2112SOL    HW117798   0.686   1.330   2.118 -0.3307  2.4736 -1.8417
 2112SOL    HW217799   0.736   1.370   2.249 -0.2589 -0.5443  0.8327
 2113SOL     OW17800   1.155   1.937   6.919 -0.6731  0.0453 -0.1789
 2113SOL    HW117801   1.162   2.033   6.918  0.7291 -0.0710 -1.2867
 2113SOL    HW217802   1.088   1.926   6.986  0.2819  0.0305  0.7828
 2114SOL     OW17803   2.259   0.068   4.999  0.3927  0.5551 -0.3209
 2114SOL    HW117804   2.285   4.707   5.032 -0.6091 -0.3532 -1.8957
 2114SOL    HW217805   2.333   0.120   5.029  0.3770  0.5735 -0.3137
 2115SOL     OW17806   3.129   2.013  17.067 -0.6948 -0.6314 -0.1144
 2115SOL    HW117807   3.189   2.083  17.045 -0.3772 -0.4194  1.3790
 2115SOL    HW217808   3.189   1.939  17.066  0.1320  0.0138  1.5552
 2116SOL     OW17809   0.774   4.141   6.655 -0.0511 -0.3273 -0.2370
 2116SOL    HW117810   0.796   4.106   6.741 -0.0402  2.2977  0.8283
 2116SOL    HW217811   0.679   4.127   6.654 -0.1427  0.3317 -1.6886
 2117SOL     OW17812   0.846   4.516   8.674  0.1868 -0.5578 -0.5568
 2117SOL    HW117813   0.799   4.599   8.686  0.4981 -0.4093 -0.3676
 2117SOL    HW217814   0.792   4.478   8.604 -0.6019 -2.4159  1.0518
 2118SOL     OW17815   3.839   3.753   3.843  0.1560  0.1107  0.1491
 2118SOL    HW117816   3.880   3.797   3.768  0.1394  1.4227  0.8966
 2118SOL    HW217817   3.758   3.722   3.802  0.3295  1.2041 -1.0191
 2119SOL     OW17818   4.359   2.209   9.213 -0.1974  0.1495  0.1571
 2119SOL    HW117819   4.444   2.225   9.172 -0.1516  0.0449  0.2104
 2119SOL    HW217820   4.345   2.117   9.192 -1.5118  0.8437 -1.9560
 2120SOL     OW17821   3.239   1.209   6.350  0.5526 -0.4890 -0.3611
 2120SOL    HW117822   3.309   1.187   6.411  0.1668  1.1773  0.6787
 2120SOL    HW217823   3.218   1.116   6.340 -0.7154  0.0562 -2.6671
 2121SOL     OW17824   0.577   1.883   0.182 -0.1292 -0.5216 -0.4295
 2121SOL    HW117825   0.631   1.812   0.217 -0.5759  0.2735  1.8880
 2121SOL    HW217826   0.517   1.899   0.255 -1.2877  1.7987 -1.8722
 2122SOL     OW17827   2.986   4.282   6.649  0.1941 -0.3137  0.2251
 2122SOL    HW117828   2.951   4.287   6.738  2.0546 -0.1116  0.9481
 2122SOL    HW217829   3.065   4.232   6.668 -0.5612 -1.4235  0.4236
 2123SOL     OW17830   4.114   3.394   5.212 -0.1701  0.5862 -0.3874
 2123SOL    HW117831   4.107   3.457   5.284 -1.0808  1.4395 -1.2249
 2123SOL    HW217832   4.209   3.389   5.206 -0.0973  2.2378 -0.4681
 2124SOL     OW17833   3.407   3.554  15.478 -0.5389 -0.3833 -0.0189
 2124SOL    HW117834   3.386   3.461  15.476  0.0022 -0.5069 -0.0520
 2124SOL    HW217835   3.481   3.547  15.538  0.1850 -3.9689 -1.3454
 2125SOL     OW17836   3.228   2.746   8.446  0.3073  0.0274  0.3110
 2125SOL    HW117837   3.185   2.818   8.493  1.5972  0.2826  1.0963
 2125SOL    HW217838   3.181   2.667   8.475  2.1233 -1.0117  0.3951
 2126SOL     OW17839   2.293   2.471  10.153 -0.0440  0.1341 -0.7511
 2126SOL    HW117840   2.343   2.390  10.139  0.3477  0.2861 -0.2367
 2126SOL    HW217841   2.285   2.497  10.061 -0.3731  0.9135 -0.4958
 2127SOL     OW17842   1.321   0.825   4.963 -0.1312 -0.6562  0.3709
 2127SOL    HW117843   1.394   0.850   5.020  0.4404 -0.1948 -0.5661
 2127SOL    HW217844   1.355   0.817   4.874  0.8240 -0.9062  0.7527
 2128SOL     OW17845   1.882   2.009   0.856  0.6512 -0.2316  0.0918
 2128SOL    HW117846   1.793   2.037   0.875  0.3140 -1.4582  0.3111
 2128SOL    HW217847   1.919   2.004   0.944 -0.5630  0.6981  0.6588
 2129SOL     OW17848   2.957   3.228   4.397  0.3766 -0.1553 -0.1351
 2129SOL    HW117849   2.901   3.163   4.439  0.3082  0.6435  1.0103
 2129SOL    HW217850   2.905   3.308   4.403  0.7613 -0.0189  1.5476
 2130SOL     OW17851   2.829   1.107   0.911  0.2014  0.0979  0.7909
 2130SOL    HW117852   2.870   1.189   0.884 -0.8999 -0.2152 -1.8057
 2130SOL    HW217853   2.859   1.051   0.840 -3.8250 -1.1937  0.1061
 2131SOL     OW17854   4.153   1.791   6.985 -0.2199 -0.6045 -0.0440
 2131SOL    HW117855   4.178   1.701   6.966  0.3006 -0.6223  0.6965
 2131SOL    HW217856   4.236   1.838   6.996  0.5347 -1.5464 -1.7133
 2132SOL     OW17857   0.868   0.900   9.428  0.2808 -0.1688 -0.1842
 2132SOL    HW117858   0.854   0.805   9.435  1.4653 -0.1401  2.5854
 2132SOL    HW217859   0.853   0.925   9.519 -0.5732 -2.2534  0.2597
 2133SOL     OW17860   2.231   1.444   1.627 -0.0061 -0.2902 -0.7035
 2133SOL    HW117861   2.207   1.409   1.713  2.0265  2.1850  0.9003
 2133SOL    HW217862   2.270   1.361   1.599 -1.9191 -1.3886 -0.0487
 2134SOL     OW17863   0.243   4.376  12.273  0.3787 -0.1654 -0.3528
 2134SOL    HW117864   0.195   4.447  12.231  0.2479  1.3171  2.3026
 2134SOL    HW217865   0.274   4.427  12.348  1.1081 -1.2836  0.1063
 2135SOL     OW17866   4.687   1.739   4.328  0.0006  0.5235 -0.3047
 2135SOL    HW117867   4.719   1.657   4.289 -0.7629  1.1377 -2.1867
 2135SOL    HW217868   0.022   1.745   4.403 -0.4212  1.4258 -0.0468
 2136SOL     OW17869   1.604   1.020   7.444  0.3863  0.7318 -0.0782
 2136SOL    HW117870   1.618   1.026   7.349  3.2831 -3.1296  0.1590
 2136SOL    HW217871   1.533   1.085   7.447 -0.1380  0.1672 -0.2275
 2137SOL     OW17872   1.436   0.383   8.970 -0.2517  0.7317 -0.3848
 2137SOL    HW117873   1.468   0.293   8.976 -1.2119  0.4203 -0.0671
 2137SOL    HW217874   1.367   0.372   8.904 -0.2171 -0.0207 -0.2861
 2138SOL     OW17875   2.018   1.632   2.980  0.3912  0.2726 -0.0587
 2138SOL    HW117876   2.100   1.616   3.026  0.8065  0.8793 -0.5914
 2138SOL    HW217877   2.034   1.719   2.944 -1.0005  0.3231 -0.5791
 2139SOL     OW17878   3.017   3.107   9.100 -0.0806 -0.5223  0.1626
 2139SOL    HW117879   2.936   3.111   9.049  0.2831 -0.0464 -0.3949
 2139SOL    HW217880   2.985   3.057   9.174  0.0627  1.0029  1.2585
 2140SOL     OW17881   2.264   2.672   8.943  0.6317 -0.3928  0.5082
 2140SOL    HW117882   2.231   2.672   8.853  0.9619 -0.2784  0.3881
 2140SOL    HW217883   2.249   2.579   8.962 -0.5588 -0.2269  0.3459
 2141SOL     OW17884   1.068   2.057   8.329  0.2958 -0.1019 -0.0881
 2141SOL    HW117885   1.115   2.093   8.405 -3.5277 -2.9274  3.6393
 2141SOL    HW217886   1.128   2.002   8.279 -0.9969 -2.3959  0.8871
 2142SOL     OW17887   4.499   0.463   1.747  0.0852  0.3494 -0.3517
 2142SOL    HW117888   4.470   0.520   1.818  0.6237 -0.3619  0.4462
 2142SOL    HW217889   4.420   0.423   1.712 -0.7357  1.1249  0.6291
 2143SOL     OW17890   1.790   4.052  13.811  0.0274  0.4330 -0.0233
 2143SOL    HW117891   1.864   4.069  13.869 -1.9787  0.7811  2.4108
 2143SOL    HW217892   1.800   4.116  13.741  1.2212  0.9154  0.5936
 2144SOL     OW17893   2.570   3.736   2.415 -0.0042 -1.1306 -0.3285
 2144SOL    HW117894   2.513   3.676   2.367 -1.7489  0.5613 -0.3558
 2144SOL    HW217895   2.505   3.800   2.444  1.0582 -0.4562  0.5485
 2145SOL     OW17896   1.333   0.265  15.223  1.1017 -0.2065 -0.5549
 2145SOL    HW117897   1.384   0.216  15.158 -0.8877 -1.7694 -0.9595
 2145SOL    HW217898   1.273   0.320  15.172 -1.5662  0.6382  3.4864
 2146SOL     OW17899   2.436   3.659  10.233  0.0783  0.0571  0.0921
 2146SOL    HW117900   2.397   3.573  10.225 -0.3473  0.3898 -1.4191
 2146SOL    HW217901   2.525   3.633  10.209 -0.5114 -0.0956 -1.9326
 2147SOL     OW17902   0.052   0.517   9.325 -0.1574 -0.3204 -0.2196
 2147SOL    HW117903   0.088   0.461   9.394  0.7327 -0.4199 -0.7748
 2147SOL    HW217904   4.691   0.472   9.323 -1.2493  1.6879  1.8706
 2148SOL     OW17905   2.525   2.517   8.463  0.0009  0.7039  0.0999
 2148SOL    HW117906   2.581   2.559   8.528 -1.7645  0.5872  1.7075
 2148SOL    HW217907   2.555   2.571   8.390 -1.0851  2.0248  0.6439
 2149SOL     OW17908   2.765   0.524   3.492 -0.9256 -0.0472 -0.1411
 2149SOL    HW117909   2.772   0.430   3.508  1.9330  0.0987 -0.5430
 2149SOL    HW217910   2.775   0.522   3.397 -0.5121 -0.2755 -0.0907
 2150SOL     OW17911   4.537   3.844  11.991 -0.0400 -0.2298  0.0803
 2150SOL    HW117912   4.528   3.893  11.909 -0.9588  0.0843  0.3701
 2150SOL    HW217913   4.447   3.816  12.005  0.1107 -0.5596  0.3949
 2151SOL     OW17914   4.298   4.351   1.284  0.1471 -0.2005 -0.5863
 2151SOL    HW117915   4.270   4.442   1.276 -0.4043 -0.3328 -0.1028
 2151SOL    HW217916   4.383   4.372   1.324 -0.7455 -0.1122  1.2620
 2152SOL     OW17917   4.569   1.516   4.788  0.6021 -0.1374  0.4591
 2152SOL    HW117918   4.606   1.517   4.877 -0.8160 -0.1302  1.0507
 2152SOL    HW217919   4.488   1.466   4.792  1.2621 -1.0782  2.0908
 2153SOL     OW17920   0.337   1.580   1.949 -0.3542  0.2153  0.1840
 2153SOL    HW117921   0.292   1.616   1.872 -0.8427 -2.8509 -0.9559
 2153SOL    HW217922   0.423   1.622   1.949  0.0295 -0.5980  2.0282
 2154SOL     OW17923   3.992   3.790   3.277 -0.3718 -0.1247  0.0172
 2154SOL    HW117924   4.011   3.747   3.194  1.0892 -2.4070  1.5670
 2154SOL    HW217925   3.898   3.773   3.281 -0.2443 -0.7375  0.3917
 2155SOL     OW17926   1.760   4.552   5.176 -0.2905 -0.0475 -0.3427
 2155SOL    HW117927   1.681   4.531   5.127 -1.4214  2.4526  0.4107
 2155SOL    HW217928   1.721   4.622   5.228 -1.0203 -1.4349  1.0105
 2156SOL     OW17929   4.321   1.492   1.817 -0.1290  0.1523 -0.1436
 2156SOL    HW117930   4.226   1.498   1.833  0.2568 -0.6087  2.4731
 2156SOL    HW217931   4.324   1.464   1.726 -0.3569 -0.5547  0.0694
 2157SOL     OW17932   3.669   0.381   7.505  0.2903 -0.0402  0.3671
 2157SOL    HW117933   3.656   0.405   7.597  3.4682  1.2782  0.4846
 2157SOL    HW217934   3.611   0.306   7.497 -0.7337  1.1751 -3.4986
 2158SOL     OW17935   1.391   0.529  15.389  0.5882  0.0225  0.2552
 2158SOL    HW117936   1.344   0.460  15.343 -0.5183  1.3573 -0.6263
 2158SOL    HW217937   1.319   0.569  15.438  1.3979  0.5365  1.0093
 2159SOL     OW17938   3.075   3.169  16.645 -0.3494  0.2554  0.0476
 2159SOL    HW117939   3.147   3.231  16.645 -0.4244  0.3332 -0.9388
 2159SOL    HW217940   3.006   3.229  16.615  0.3206  1.1569  0.3251
 2160SOL     OW17941   1.386   1.028   4.101 -0.2722  0.1647  0.5993
 2160SOL    HW117942   1.337   0.975   4.039 -0.3823  0.0238  0.8065
 2160SOL    HW217943   1.352   1.115   4.082 -2.0965 -0.2476  1.9980
 2161SOL     OW17944   2.092   4.705   8.730  0.1818 -0.3326  0.1362
 2161SOL    HW117945   2.160   4.643   8.757  0.4715  0.6793  1.7405
 2161SOL    HW217946   2.062   0.008   8.817 -0.0813  0.3652 -0.1778
 2162SOL     OW17947   2.400   1.861   4.723  0.3513 -0.2287 -0.0836
 2162SOL    HW117948   2.401   1.904   4.809 -1.0602  0.8839 -0.6152
 2162SOL    HW217949   2.474   1.805   4.744  1.4023  1.4577  0.7779
 2163SOL     OW17950   3.848   1.563   3.350 -0.0026 -0.3642 -0.3082
 2163SOL    HW117951   3.834   1.520   3.265  0.6368  2.2045 -1.7159
 2163SOL    HW217952   3.800   1.503   3.407 -0.3636 -0.2454 -0.4891
 2164SOL     OW17953   1.879   4.236   5.708 -0.2861 -0.5491 -0.1150
 2164SOL    HW117954   1.857   4.209   5.619 -0.9317  1.8888 -0.6742
 2164SOL    HW217955   1.971   4.209   5.707  0.2641  1.3712 -0.8834
 2165SOL     OW17956   2.148   1.467   6.764 -0.0265 -0.7992 -0.1275
 2165SOL    HW117957   2.167   1.396   6.703 -2.0032 -1.3264 -0.1450
 2165SOL    HW217958   2.156   1.548   6.714  2.0729  0.2290  1.8870
 2166SOL     OW17959   0.639   1.027  15.664  0.1051  0.1564 -0.5111
 2166SOL    HW117960   0.673   0.944  15.632  1.0986  0.9105 -1.4071
 2166SOL    HW217961   0.550   0.996  15.680  1.3051 -2.5647  0.9069
 2167SOL     OW17962   2.373   1.834  15.622  0.0479 -0.0732  0.0355
 2167SOL    HW117963   2.425   1.798  15.694  0.5918 -0.9652 -0.8046
 2167SOL    HW217964   2.322   1.754  15.607  1.6078 -1.3493  1.5469
 2168SOL     OW17965   0.742   0.920  11.884 -0.0237  0.1421 -0.1715
 2168SOL    HW117966   0.681   0.991  11.904 -1.7562 -1.0340 -1.2586
 2168SOL    HW217967   0.694   0.847  11.845  1.7338 -1.6898  1.0511
 2169SOL     OW17968   1.151   3.869  17.173  0.1505 -0.1521  0.3287
 2169SOL    HW117969   1.166   3.863  17.268 -0.3394  0.8104  0.4665
 2169SOL    HW217970   1.234   3.831  17.144  0.7678  0.2096  1.6016
 2170SOL     OW17971   2.764   4.166   2.512 -0.3524  0.0304 -0.0059
 2170SOL    HW117972   2.722   4.121   2.438 -1.3082  0.1028  0.5053
 2170SOL    HW217973   2.698   4.232   2.533 -0.5809  0.1638 -1.1047
 2171SOL     OW17974   0.468   3.638   0.740  0.2395 -0.3721 -0.1874
 2171SOL    HW117975   0.493   3.717   0.693  0.7891 -1.8395 -2.3997
 2171SOL    HW217976   0.508   3.578   0.676  1.7376 -0.1284  0.5131
 2172SOL     OW17977   3.827   0.825   4.302 -0.1606  0.1883 -0.8872
 2172SOL    HW117978   3.877   0.745   4.313  0.6397  0.5472 -1.9031
 2172SOL    HW217979   3.778   0.794   4.226  0.7713 -1.2305 -0.9086
 2173SOL     OW17980   3.306   4.001   6.935 -0.6764  0.7426 -0.1460
 2173SOL    HW117981   3.393   3.995   6.895 -0.0383  1.0999  1.1693
 2173SOL    HW217982   3.304   4.084   6.983  1.7593  0.0807  1.1254
 2174SOL     OW17983   3.841   4.421   7.811  0.2028  0.7279 -0.4109
 2174SOL    HW117984   3.832   4.494   7.872  2.9237  0.2288  0.5723
 2174SOL    HW217985   3.815   4.462   7.729 -2.3993  0.0946  0.0778
 2175SOL     OW17986   2.845   3.413   4.134  0.1969 -0.0325  0.3904
 2175SOL    HW117987   2.912   3.433   4.199 -1.4825  0.6286  1.9160
 2175SOL    HW217988   2.893   3.337   4.102 -0.6096 -0.6243  0.6024
 2176SOL     OW17989   0.355   2.995  10.284 -0.0427  0.1187 -0.0247
 2176SOL    HW117990   0.383   2.993  10.376 -3.2736 -2.2440  0.9130
 2176SOL    HW217991   0.438   2.977  10.240 -1.3932 -0.6404 -2.2404
 2177SOL     OW17992   3.136   4.183   9.067 -0.0126 -0.0427 -0.4713
 2177SOL    HW117993   3.152   4.183   9.161  1.6457  2.0883 -0.7799
 2177SOL    HW217994   3.141   4.276   9.048  0.2412  0.6420  3.0749
 2178SOL     OW17995   3.862   1.667  14.363  0.2800  0.4077  0.1675
 2178SOL    HW117996   3.945   1.712  14.376  0.1211  0.1830  1.9978
 2178SOL    HW217997   3.824   1.689  14.448  2.5231 -0.6937  1.4493
 2179SOL     OW17998   3.549   2.036   2.786 -0.0993  0.3258  0.3217
 2179SOL    HW117999   3.531   2.093   2.861  1.2792 -0.4206  1.2145
 2179SOL    HW218000   3.627   1.990   2.818 -0.8879 -0.8096  0.6038
 2180SOL     OW18001   4.054   4.393   8.113 -0.0150  0.3011 -0.1663
 2180SOL    HW118002   4.066   4.456   8.184  0.4871 -0.0700  0.0777
 2180SOL    HW218003   4.008   4.325   8.163  1.9855 -0.3142  0.8196
 2181SOL     OW18004   2.693   3.282   1.278  0.4408 -0.5910 -0.3413
 2181SOL    HW118005   2.621   3.305   1.337  1.1563 -1.5206  0.8912
 2181SOL    HW218006   2.661   3.285   1.187 -1.1771  0.9230  0.2794
 2182SOL     OW18007   4.166   4.504   4.480 -0.2519  0.0656 -0.1044
 2182SOL    HW118008   4.221   4.540   4.410  0.6645 -2.7658 -0.8618
 2182SOL    HW218009   4.079   4.494   4.440 -1.2538  0.2359  2.0505
 2183SOL     OW18010   1.333   0.876  12.362  0.2367 -0.1284  0.4041
 2183SOL    HW118011   1.295   0.860  12.276  2.2105 -0.1970 -0.4497
 2183SOL    HW218012   1.261   0.922  12.405 -0.4107  1.0563 -1.9358
 2184SOL     OW18013   1.809   0.720   8.819  0.6175  0.1754  0.2111
 2184SOL    HW118014   1.867   0.785   8.860 -0.9816  1.7643 -0.0086
 2184SOL    HW218015   1.829   0.642   8.870 -1.6540 -1.9405 -2.1371
 2185SOL     OW18016   1.087   4.411  12.621 -0.5457 -0.0025  0.7735
 2185SOL    HW118017   1.024   4.467  12.666  0.1942  1.5991 -0.1329
 2185SOL    HW218018   1.121   4.375  12.702  0.4722 -2.9102 -0.9442
 2186SOL     OW18019   1.028   2.076   5.220 -0.1624  0.1812 -0.1675
 2186SOL    HW118020   0.937   2.097   5.196  0.4239  0.7788 -1.9010
 2186SOL    HW218021   1.053   2.168   5.210 -1.6070  0.6164  0.1387
 2187SOL     OW18022   2.579   1.438  17.123 -0.2882 -0.0678 -0.5055
 2187SOL    HW118023   2.611   1.444  17.213 -1.2547 -0.7305 -0.1194
 2187SOL    HW218024   2.500   1.384  17.126 -0.2787  0.0167  0.8767
 2188SOL     OW18025   3.609   2.530   1.003 -0.2729 -0.4642 -0.3293
 2188SOL    HW118026   3.588   2.437   0.999  0.2402 -0.6100  0.3195
 2188SOL    HW218027   3.593   2.554   1.094  0.8258  2.1032 -0.8051
 2189SOL     OW18028   3.128   4.647   1.357  0.3853 -0.6037 -0.1805
 2189SOL    HW118029   3.145   4.591   1.281 -0.8815 -1.8259  0.4275
 2189SOL    HW218030   3.044   4.614   1.388  1.0654  0.9928  3.3579
 2190SOL     OW18031   4.425   0.135   9.815  0.0399 -1.0726 -0.2198
 2190SOL    HW118032   4.436   0.101   9.726 -1.4226 -0.0768 -0.7886
 2190SOL    HW218033   4.488   0.077   9.858 -0.4227 -0.4592  1.2841
 2191SOL     OW18034   2.343   1.048  13.192  0.1020 -0.1370  0.0455
 2191SOL    HW118035   2.250   1.044  13.170  1.0675 -1.7527 -3.7038
 2191SOL    HW218036   2.343   0.995  13.272  1.9982  0.0907  0.1997
 2192SOL     OW18037   1.188   0.156   6.208 -0.2493 -0.5609  0.3181
 2192SOL    HW118038   1.207   0.067   6.178 -1.9610 -0.8612  0.1281
 2192SOL    HW218039   1.257   0.171   6.272  1.9510 -2.4409 -1.6100
 2193SOL     OW18040   0.774   4.095   6.233  0.1924 -0.0135  0.1630
 2193SOL    HW118041   0.742   4.183   6.255  0.0138 -0.3554  1.2853
 2193SOL    HW218042   0.820   4.113   6.151  2.4765  1.9004  1.8703
 2194SOL     OW18043   0.223   1.247   0.847  0.5761 -0.8425  0.2371
 2194SOL    HW118044   0.290   1.311   0.868  1.4810 -1.5377 -0.5273
 2194SOL    HW218045   0.197   1.296   0.769 -1.7217 -0.1064  1.4515
 2195SOL     OW18046   2.450   3.647   4.816  0.2296 -0.2107 -0.3287
 2195SOL    HW118047   2.360   3.640   4.847  0.3897 -0.0024  0.1950
 2195SOL    HW218048   2.436   3.612   4.728 -1.7546  0.6004 -0.3439
 2196SOL     OW18049   4.004   4.665  13.449  0.5761  0.0739  0.0774
 2196SOL    HW118050   3.962   4.613  13.381 -1.3729  1.0337  0.5534
 2196SOL    HW218051   4.058   4.721  13.393 -1.3847 -0.1609 -2.0411
 2197SOL     OW18052   4.363   2.818   2.701  0.6995 -0.6975  0.0882
 2197SOL    HW118053   4.343   2.888   2.638 -1.5144 -0.5362  0.9776
 2197SOL    HW218054   4.273   2.809   2.731  0.5811 -1.0245 -0.3600
 2198SOL     OW18055   4.114   3.952   6.753  0.4516  0.0403 -0.9437
 2198SOL    HW118056   4.041   3.915   6.704 -0.9740 -1.0386  2.0006
 2198SOL    HW218057   4.143   4.019   6.691 -0.8552 -0.4074 -2.0410
 2199SOL     OW18058   3.513   1.109   3.819  0.2800 -0.6102  0.2114
 2199SOL    HW118059   3.541   1.035   3.764  2.8157  1.7166 -1.6680
 2199SOL    HW218060   3.599   1.150   3.818  1.1559 -2.4573 -1.1775
 2200SOL     OW18061   1.411   0.318  11.051 -0.2097 -0.1831  0.0538
 2200SOL    HW118062   1.487   0.259  11.048  1.4962  2.1189 -1.8249
 2200SOL    HW218063   1.343   0.258  11.082 -0.8393  1.1321  1.2063
 2201SOL     OW18064   1.125   2.722  11.104  0.1448 -0.0465  0.1932
 2201SOL    HW118065   1.218   2.740  11.090  0.2881 -1.8127 -1.1161
 2201SOL    HW218066   1.118   2.630  11.132  0.7395 -0.2814 -0.4206
 2202SOL     OW18067   2.458   0.914   6.024  0.0586  0.0297 -0.2831
 2202SOL    HW118068   2.544   0.956   6.021 -0.9932  2.0480 -1.6926
 2202SOL    HW218069   2.413   0.976   6.080 -0.5911 -0.3189 -0.4201
 2203SOL     OW18070   0.265   2.401  15.466  0.2649  0.1161 -0.6304
 2203SOL    HW118071   0.343   2.362  15.426 -0.2462  0.4347 -1.9496
 2203SOL    HW218072   0.281   2.496  15.467 -0.4852  0.2123  1.3668
 2204SOL     OW18073   1.915   1.568   1.869  0.2275 -0.5734 -0.2434
 2204SOL    HW118074   1.912   1.539   1.777  1.1580 -4.8973  1.0731
 2204SOL    HW218075   1.977   1.640   1.866 -0.2150 -0.1302  1.5881
 2205SOL     OW18076   1.707   3.861   1.192  0.9831 -0.0129 -0.1563
 2205SOL    HW118077   1.717   3.933   1.254  0.2160 -2.3474  2.6857
 2205SOL    HW218078   1.625   3.883   1.149  1.0288 -0.2283 -0.3541
 2206SOL     OW18079   2.498   0.483   1.697  0.0432 -0.5311 -0.1839
 2206SOL    HW118080   2.565   0.485   1.628  3.5465  2.2386  3.2343
 2206SOL    HW218081   2.548   0.427   1.756  2.1216  0.9495 -0.4948
 2207SOL     OW18082   1.063   0.702   1.423  0.5447 -0.2309 -0.2793
 2207SOL    HW118083   1.140   0.758   1.420  0.0851  0.4744  0.8693
 2207SOL    HW218084   1.049   0.692   1.329 -0.9648  0.3993 -0.1191
 2208SOL     OW18085   3.657   1.148   0.245  0.0852  0.3194  0.2779
 2208SOL    HW118086   3.614   1.214   0.299 -0.6651  0.8519 -1.0004
 2208SOL    HW218087   3.596   1.142   0.173  0.1959 -0.9318  0.2828
 2209SOL     OW18088   3.773   1.192   3.818  0.1975  0.6946 -0.1165
 2209SOL    HW118089   3.820   1.206   3.900 -0.7949 -1.7282  0.8536
 2209SOL    HW218090   3.849   1.205   3.761  0.7700 -0.4767  0.3901
 2210SOL     OW18091   0.518   0.390   0.535  0.3832 -0.1765 -0.2178
 2210SOL    HW118092   0.598   0.407   0.585  1.6076 -1.3389 -1.8202
 2210SOL    HW218093   0.479   0.317   0.583  0.2954  0.0951  0.1305
 2211SOL     OW18094   3.218   4.617   5.576 -0.8282  0.7108  0.3512
 2211SOL    HW118095   3.186   4.533   5.545 -0.1666 -0.4924  2.9529
 2211SOL    HW218096   3.227   4.613   5.671  0.8980 -0.4438  0.1499
 2212SOL     OW18097   3.360   2.467   5.168 -0.1412  0.4957  0.0576
 2212SOL    HW118098   3.314   2.405   5.224 -2.3389  1.1314 -1.0537
 2212SOL    HW218099   3.447   2.459   5.208 -0.4713 -1.4281  0.4125
 2213SOL     OW18100   0.136   4.276   6.352 -0.1284 -0.4325 -0.1503
 2213SOL    HW118101   0.143   4.365   6.316  1.5632  0.1390  1.6152
 2213SOL    HW218102   0.041   4.267   6.354 -0.0598 -0.9413  0.6177
 2214SOL     OW18103   0.798   0.712  10.557 -0.1346 -0.1535 -0.2194
 2214SOL    HW118104   0.773   0.802  10.537 -1.4532 -0.4110  0.2428
 2214SOL    HW218105   0.805   0.712  10.653  0.6967  1.9287 -0.2818
 2215SOL     OW18106   4.203   4.615   6.895  0.7856  0.2436 -1.0867
 2215SOL    HW118107   4.235   4.576   6.976  0.0043 -0.5185 -1.1463
 2215SOL    HW218108   4.135   4.678   6.923  0.5554 -0.3355 -0.3500
 2216SOL     OW18109   2.667   3.795   4.865 -0.0091  0.1945  0.5728
 2216SOL    HW118110   2.710   3.744   4.933  0.2318  2.7682  2.3648
 2216SOL    HW218111   2.602   3.736   4.829  1.8196 -1.5677  0.1759
 2217SOL     OW18112   2.592   3.829   6.398 -0.1830  0.3978 -0.2122
 2217SOL    HW118113   2.564   3.837   6.307 -1.6401  0.0648  0.1989
 2217SOL    HW218114   2.537   3.898   6.437  2.6514  1.6476  1.6248
 2218SOL     OW18115   1.796   2.595   5.016 -0.0565 -0.1545 -0.0165
 2218SOL    HW118116   1.809   2.525   5.080 -2.8024 -0.5547  0.1236
 2218SOL    HW218117   1.730   2.547   4.965  0.5632 -1.1907  0.1626
 2219SOL     OW18118   0.436   0.452   8.885 -0.4390 -0.0312  0.3588
 2219SOL    HW118119   0.388   0.524   8.926  0.9411  1.1623 -0.1137
 2219SOL    HW218120   0.367   0.395   8.852 -0.2432 -0.4564  0.6936
 2220SOL     OW18121   2.354   2.169   3.074 -0.0442 -0.4956 -0.3749
 2220SOL    HW118122   2.358   2.191   2.981  1.7790  2.2735  0.3556
 2220SOL    HW218123   2.313   2.083   3.071 -2.4540  0.7883 -4.2424
 2221SOL     OW18124   2.387   3.464   6.490 -0.0789 -0.4187  0.0604
 2221SOL    HW118125   2.320   3.533   6.492  2.7067  2.2773  0.7412
 2221SOL    HW218126   2.460   3.517   6.524 -2.8401  2.5897  1.3585
 2222SOL     OW18127   0.833   0.267   3.192  0.0545 -0.8633 -0.2734
 2222SOL    HW118128   0.827   0.310   3.107 -0.7635  0.6547  0.5538
 2222SOL    HW218129   0.927   0.286   3.196  0.2189 -1.8666  0.6899
 2223SOL     OW18130   3.764   1.497   0.602 -0.2523  0.3981  0.1273
 2223SOL    HW118131   3.789   1.551   0.677 -0.2521 -0.9430  1.0955
 2223SOL    HW218132   3.676   1.479   0.635 -0.0470 -1.2735 -0.2778
 2224SOL     OW18133   3.002   1.128  12.322  0.1415  0.4138  0.4584
 2224SOL    HW118134   2.974   1.053  12.374  0.9106 -1.1684 -1.4032
 2224SOL    HW218135   3.087   1.104  12.284 -1.2055 -0.5917 -1.8832
 2225SOL     OW18136   1.129   3.729   7.848  0.2278 -0.4244  0.4059
 2225SOL    HW118137   1.193   3.668   7.884  1.1719 -0.6081 -1.5585
 2225SOL    HW218138   1.093   3.761   7.930 -0.6870  0.3233 -0.2870
 2226SOL     OW18139   4.227   4.457   6.667 -0.0591 -0.4977 -0.1680
 2226SOL    HW118140   4.217   4.512   6.745 -1.2537  0.1470 -0.7671
 2226SOL    HW218141   4.321   4.463   6.654 -0.2173  1.7460 -0.2990
 2227SOL     OW18142   3.656   3.757   5.031 -0.2958 -0.0972 -0.2764
 2227SOL    HW118143   3.747   3.788   5.023 -0.2932  0.2709  1.1633
 2227SOL    HW218144   3.653   3.770   5.126 -3.2118  2.5683 -0.7684
 2228SOL     OW18145   0.557   4.253   8.823 -0.1058  0.0695 -0.5295
 2228SOL    HW118146   0.513   4.264   8.739 -0.7457  0.7017 -0.1044
 2228SOL    HW218147   0.486   4.264   8.887 -0.5290  1.7071 -1.2717
 2229SOL     OW18148   2.828   2.052   1.573 -0.3702 -0.0508 -0.0532
 2229SOL    HW118149   2.890   2.033   1.502  0.1239  1.2708  0.0249
 2229SOL    HW218150   2.882   2.117   1.618 -1.3707  1.3918 -0.9708
 2230SOL     OW18151   0.252   0.657   7.322 -0.1583  0.4548  0.0111
 2230SOL    HW118152   0.336   0.689   7.288 -0.2560  0.4376 -0.2478
 2230SOL    HW218153   0.193   0.653   7.247  2.4595 -0.0634 -2.0531
 2231SOL     OW18154   2.525   2.352   9.500  0.0973  0.2395 -0.0542
 2231SOL    HW118155   2.435   2.320   9.504  0.3427 -0.5978 -1.0324
 2231SOL    HW218156   2.555   2.266   9.531 -0.5935  0.2938  0.7601
 2232SOL     OW18157   1.153   0.142   8.610  0.0263  0.0968  0.1919
 2232SOL    HW118158   1.195   0.139   8.524 -0.3301  1.8362 -0.0325
 2232SOL    HW218159   1.062   0.157   8.585 -0.1733 -1.3235  0.0846
 2233SOL     OW18160   4.109   1.181   1.589 -0.4579 -0.6896  0.2485
 2233SOL    HW118161   4.083   1.090   1.572 -0.4442 -0.4501 -1.0141
 2233SOL    HW218162   4.051   1.239   1.542 -0.7942 -0.9490  0.3459
 2234SOL     OW18163   3.251   0.464   5.672  0.5934 -0.1587 -0.3974
 2234SOL    HW118164   3.183   0.470   5.605 -0.8838 -0.4198  1.0887
 2234SOL    HW218165   3.260   0.369   5.667 -0.4197 -0.2593 -0.1704
 2235SOL     OW18166   4.230   0.296  12.094  0.3178 -0.1642  0.0050
 2235SOL    HW118167   4.296   0.265  12.156  0.2922 -0.6449 -0.2117
 2235SOL    HW218168   4.200   0.217  12.048 -1.5517  0.3779  0.2985
 2236SOL     OW18169   4.288   4.178   7.320 -0.2229 -0.2263 -0.0482
 2236SOL    HW118170   4.314   4.193   7.411  0.6087 -0.3664 -0.2638
 2236SOL    HW218171   4.342   4.101   7.302  0.8782  0.6795 -0.6470
 2237SOL     OW18172   2.196   0.301   6.784  0.1331 -0.5890 -0.2397
 2237SOL    HW118173   2.201   0.260   6.698  0.6708  1.6432 -1.2927
 2237SOL    HW218174   2.194   0.225   6.842 -0.4741  0.3136  0.9341
 2238SOL     OW18175   1.157   2.297   4.675  0.3293 -0.1094 -0.4986
 2238SOL    HW118176   1.221   2.366   4.693  0.6276  0.0695 -2.2322
 2238SOL    HW218177   1.213   2.234   4.630  0.0690  0.1765 -1.2319
 2239SOL     OW18178   4.559   4.028   2.287  0.2727  0.4228  0.5692
 2239SOL    HW118179   4.616   4.084   2.340  0.9285  0.3926 -0.1130
 2239SOL    HW218180   4.513   4.098   2.242 -0.0805  0.6952  1.3547
 2240SOL     OW18181   3.038   2.139  15.361 -0.4571  0.4257 -0.3752
 2240SOL    HW118182   3.052   2.231  15.386 -0.8332  0.5378 -0.5711
 2240SOL    HW218183   3.036   2.155  15.267 -2.1034  0.9724 -0.2525
 2241SOL     OW18184   3.862   0.703  15.212 -0.0183 -0.1339  0.2643
 2241SOL    HW118185   3.939   0.707  15.269 -0.0503 -1.6954  0.4227
 2241SOL    HW218186   3.902   0.663  15.135  0.2795  0.1082  0.2935
 2242SOL     OW18187   3.248   2.034   7.391  0.6727 -0.0797  0.7103
 2242SOL    HW118188   3.260   1.941   7.375  2.4457  0.2880 -0.1613
 2242SOL    HW218189   3.156   2.045   7.370  0.2856  0.4459  2.7001
 2243SOL     OW18190   4.206   1.554   8.043 -0.0016  0.5233  0.4720
 2243SOL    HW118191   4.115   1.582   8.040 -0.5139 -1.0637  0.7608
 2243SOL    HW218192   4.211   1.493   8.117 -0.8860 -1.1656 -0.8323
 2244SOL     OW18193   1.667   3.529   4.717  0.6001  0.3469  0.3487
 2244SOL    HW118194   1.689   3.472   4.791  1.7831 -0.1544 -0.3974
 2244SOL    HW218195   1.610   3.597   4.754  1.9055  0.8897  1.3657
 2245SOL     OW18196   2.636   0.945  13.128 -0.1117 -0.3627  0.5472
 2245SOL    HW118197   2.682   0.908  13.204  0.5859  0.2861  0.4527
 2245SOL    HW218198   2.696   0.924  13.057 -0.2768 -0.3115  0.3945
 2246SOL     OW18199   1.027   2.884   3.829  0.0948 -0.0339 -0.6347
 2246SOL    HW118200   1.092   2.931   3.775 -1.6755  1.0568 -1.8353
 2246SOL    HW218201   1.064   2.894   3.916 -0.4549  0.3849 -0.4494
 2247SOL     OW18202   2.964   2.038   1.327 -0.2490  0.0209 -0.1209
 2247SOL    HW118203   3.033   2.103   1.319 -0.7980  0.8368  1.7134
 2247SOL    HW218204   2.888   2.090   1.301 -0.4648 -0.6363 -0.8038
 2248SOL     OW18205   1.287   3.759   8.992 -0.5828  0.1659 -0.6681
 2248SOL    HW118206   1.222   3.689   8.992 -0.2626 -0.1385  1.9919
 2248SOL    HW218207   1.311   3.768   8.900 -0.7857 -3.2844 -1.0731
 2249SOL     OW18208   0.752   3.336   5.298  0.3775  0.5164  0.4097
 2249SOL    HW118209   0.721   3.421   5.329 -1.3767 -0.5111  1.5183
 2249SOL    HW218210   0.846   3.353   5.303 -0.4085  4.6804  0.7004
 2250SOL     OW18211   2.667   3.287  16.776  0.0842  0.1410  0.2394
 2250SOL    HW118212   2.654   3.360  16.837 -1.6682  1.7014 -1.9883
 2250SOL    HW218213   2.759   3.306  16.759  0.0971 -0.7673 -0.6891
 2251SOL     OW18214   2.109   1.144  14.705 -0.2336  0.2325  0.1036
 2251SOL    HW118215   2.169   1.210  14.668 -0.9666  0.9543  0.2210
 2251SOL    HW218216   2.058   1.198  14.765 -2.4216 -1.6298 -0.0980
 2252SOL     OW18217   0.062   3.969  12.095  0.6052  0.1869  0.2615
 2252SOL    HW118218   4.696   3.978  12.065  0.5531 -2.8744 -0.5916
 2252SOL    HW218219   0.064   4.031  12.168 -1.0025  0.6945 -0.1194
 2253SOL     OW18220   0.718   3.978  16.717  0.3912 -0.1497 -0.0445
 2253SOL    HW118221   0.681   4.064  16.738 -2.0351 -1.0267 -0.6870
 2253SOL    HW218222   0.729   3.997  16.624  1.0145  2.7079  0.6000
 2254SOL     OW18223   3.782   0.251  10.234 -0.2068 -0.0353 -0.0330
 2254SOL    HW118224   3.732   0.182  10.189 -0.0626 -0.1160 -0.0695
 2254SOL    HW218225   3.721   0.303  10.286 -0.1932 -0.2555  0.2049
 2255SOL     OW18226   1.082   1.665  13.682 -0.9254  0.2203  0.1274
 2255SOL    HW118227   1.053   1.738  13.735 -1.2037 -0.4874  0.9432
 2255SOL    HW218228   1.145   1.699  13.618 -4.2710 -1.2766 -3.9355
 2256SOL     OW18229   3.156   3.637   6.355  0.0537 -0.5462 -0.3309
 2256SOL    HW118230   3.103   3.624   6.276 -2.7326 -2.3814  1.8447
 2256SOL    HW218231   3.151   3.555   6.403 -0.0390 -0.4766 -0.2217
 2257SOL     OW18232   0.977   4.039  10.260 -0.1533 -0.0177 -0.1243
 2257SOL    HW118233   0.943   3.958  10.296  1.4198 -1.0077 -0.8727
 2257SOL    HW218234   1.037   4.010  10.191  0.3922  0.9993 -0.0934
 2258SOL     OW18235   4.053   2.381   3.229  0.4326 -0.1720  0.3105
 2258SOL    HW118236   4.138   2.398   3.268 -0.4367 -1.0746  2.6148
 2258SOL    HW218237   4.076   2.384   3.136  1.2827 -2.7427  0.4202
 2259SOL     OW18238   0.252   4.231   3.590  0.1583 -0.0842 -0.4129
 2259SOL    HW118239   0.196   4.301   3.623 -0.4044 -0.3429 -0.8067
 2259SOL    HW218240   0.305   4.201   3.664 -1.8776 -1.7195  0.4075
 2260SOL     OW18241   0.709   3.877  12.673  0.2688 -0.2519 -0.0473
 2260SOL    HW118242   0.750   3.811  12.617 -0.8852 -1.6408  0.7425
 2260SOL    HW218243   0.630   3.892  12.620  0.8551 -1.2591 -1.2122
 2261SOL     OW18244   0.430   0.435   7.884  0.6496  0.6200 -0.0834
 2261SOL    HW118245   0.381   0.511   7.856 -0.5527  0.2815  1.1323
 2261SOL    HW218246   0.516   0.425   7.843  0.9167 -1.5099  0.9867
 2262SOL     OW18247   3.831   0.365   0.398  0.3918 -0.5345 -0.0216
 2262SOL    HW118248   3.785   0.443   0.429 -0.2336 -0.5395 -0.9399
 2262SOL    HW218249   3.763   0.317   0.350  0.6023 -0.9223  0.0706
 2263SOL     OW18250   0.666   1.057   7.576 -0.1030 -0.4931  0.7663
 2263SOL    HW118251   0.690   1.131   7.520 -0.2078 -0.4649  0.7601
 2263SOL    HW218252   0.593   1.020   7.526  0.5426 -0.2158 -0.3867
 2264SOL     OW18253   3.875   4.588  15.019  0.5057 -0.9035  0.1490
 2264SOL    HW118254   3.797   4.537  15.040 -0.6230  0.4826 -0.6639
 2264SOL    HW218255   3.895   4.553  14.932 -0.2841  1.6370 -1.0526
 2265SOL     OW18256   3.813   0.555  13.354 -0.4483 -0.0362 -0.1926
 2265SOL    HW118257   3.730   0.516  13.327 -0.5317  1.5309 -2.1893
 2265SOL    HW218258   3.832   0.615  13.281 -2.1665  1.2668  0.4438
 2266SOL     OW18259   2.822   3.617   5.825  0.3245  0.2511  0.1145
 2266SOL    HW118260   2.865   3.539   5.790 -3.6497 -3.1123  2.6172
 2266SOL    HW218261   2.891   3.655   5.879 -0.3979  1.6983  0.0168
 2267SOL     OW18262   3.929   2.038   3.332  0.0491  0.3531  0.4575
 2267SOL    HW118263   3.885   1.953   3.323  0.4684  0.3960 -2.1054
 2267SOL    HW218264   3.957   2.055   3.242 -0.5898 -2.2438 -0.2368
 2268SOL     OW18265   1.788   3.131  14.108 -0.5965 -0.3100  0.1398
 2268SOL    HW118266   1.710   3.130  14.053 -1.9401 -0.6856  2.0590
 2268SOL    HW218267   1.739   3.111  14.188  0.8271 -0.8514  0.8869
 2269SOL     OW18268   0.445   4.661  12.675  0.3773  0.1317 -0.3069
 2269SOL    HW118269   0.495   4.581  12.657 -1.1786 -0.9077 -0.1036
 2269SOL    HW218270   0.433   4.660  12.770  0.2961  1.1674 -0.3052
 2270SOL     OW18271   1.184   0.212   5.413  0.0815  0.3305  0.1713
 2270SOL    HW118272   1.163   0.277   5.480  0.7188 -0.4066  1.0704
 2270SOL    HW218273   1.279   0.223   5.419  0.3700 -1.1046 -1.7555
 2271SOL     OW18274   1.195   4.190   2.935 -0.2717  0.2408  0.2839
 2271SOL    HW118275   1.271   4.249   2.939 -2.6158  3.2931 -0.1329
 2271SOL    HW218276   1.155   4.215   2.852  0.9646  0.6640 -0.1784
 2272SOL     OW18277   2.540   4.472   4.963  0.1394  0.5532  0.4849
 2272SOL    HW118278   2.538   4.409   5.034  0.6769  1.3351  1.1976
 2272SOL    HW218279   2.486   4.544   4.996 -0.3774  1.2090 -1.8196
 2273SOL     OW18280   2.554   1.702   2.567 -0.7382 -0.0231  0.6876
 2273SOL    HW118281   2.534   1.650   2.489  2.0242  0.4376 -0.3282
 2273SOL    HW218282   2.464   1.715   2.594 -1.9121 -4.0936 -1.2762
 2274SOL     OW18283   3.744   1.817   3.330 -0.3346  0.3075 -0.1270
 2274SOL    HW118284   3.764   1.724   3.328 -0.2587  0.2969  1.6803
 2274SOL    HW218285   3.670   1.823   3.390 -0.9826 -0.2095 -0.8622
 2275SOL     OW18286   2.745   3.159   0.396  0.0452  0.2336  0.0919
 2275SOL    HW118287   2.660   3.194   0.424  0.5441 -0.7261  2.7982
 2275SOL    HW218288   2.770   3.218   0.326 -0.7344 -0.5805 -0.8743
 2276SOL     OW18289   3.492   0.161   4.021  0.4604  0.2933  0.1768
 2276SOL    HW118290   3.540   0.193   3.944 -0.2156  1.3414  0.1959
 2276SOL    HW218291   3.408   0.205   4.008  0.6135  0.0094 -1.7589
 2277SOL     OW18292   2.729   1.808  10.916 -0.0043  0.3525  0.1550
 2277SOL    HW118293   2.657   1.854  10.960  0.2664  0.3896  0.5622
 2277SOL    HW218294   2.802   1.836  10.971  0.7884 -0.8623 -0.2784
 2278SOL     OW18295   3.437   3.531   0.723  0.1591  0.6200  0.0473
 2278SOL    HW118296   3.489   3.585   0.783  0.5631 -2.3010  2.3312
 2278SOL    HW218297   3.494   3.559   0.651 -1.3611 -1.2916 -1.8816
 2279SOL     OW18298   3.105   3.352   7.726 -0.5102 -0.4237 -0.1597
 2279SOL    HW118299   3.114   3.444   7.703  2.4509 -0.5042  0.6247
 2279SOL    HW218300   3.194   3.326   7.703 -0.3427  1.2271 -1.2985
 2280SOL     OW18301   4.714   2.802   1.866 -0.1958 -0.1852  0.5451
 2280SOL    HW118302   0.013   2.882   1.820  0.3609 -1.3436 -1.2038
 2280SOL    HW218303   0.005   2.830   1.956 -2.8817  2.1805  0.2545
 2281SOL     OW18304   4.225   0.243   8.607  0.0327 -0.0949  0.2714
 2281SOL    HW118305   4.158   0.229   8.674  3.4656 -1.6526  3.3807
 2281SOL    HW218306   4.191   0.323   8.566 -0.8135 -0.3479  0.4822
 2282SOL     OW18307   3.564   1.813  14.063 -0.1517 -0.5834  0.2551
 2282SOL    HW118308   3.555   1.761  13.983 -1.2184 -1.1255  0.7188
 2282SOL    HW218309   3.490   1.871  14.046  1.4911  1.2109 -0.8123
 2283SOL     OW18310   4.687   2.711   5.362  0.4468  0.0457  0.3737
 2283SOL    HW118311   4.642   2.687   5.280 -1.0931 -2.3507  1.9301
 2283SOL    HW218312   4.610   2.736   5.413  1.3130  4.3467 -0.4475
 2284SOL     OW18313   1.756   2.989   7.465 -0.6262  0.2619 -0.0632
 2284SOL    HW118314   1.851   2.982   7.456 -0.6148 -0.9052  0.8532
 2284SOL    HW218315   1.732   2.977   7.373  0.9849 -3.2480 -0.0214
 2285SOL     OW18316   2.173   4.293   6.966 -0.5113  0.1716 -0.4732
 2285SOL    HW118317   2.113   4.314   7.037  1.2392 -0.5978  1.2403
 2285SOL    HW218318   2.122   4.325   6.892 -3.6505 -2.1727  0.6751
 2286SOL     OW18319   1.265   3.533  14.140  0.0620  0.9087 -0.7221
 2286SOL    HW118320   1.235   3.592  14.209  1.6624  0.3831  0.4178
 2286SOL    HW218321   1.358   3.529  14.160  0.1094 -2.0171 -1.5361
 2287SOL     OW18322   3.964   4.132  16.568 -0.2060 -0.1315 -0.5879
 2287SOL    HW118323   3.899   4.169  16.628 -0.8713 -0.3673 -1.1611
 2287SOL    HW218324   4.007   4.211  16.536 -0.3279  0.5886  1.0004
 2288SOL     OW18325   4.065   4.041   5.321  0.4955 -0.2740 -0.3335
 2288SOL    HW118326   4.027   3.953   5.331 -0.8358  0.3867  0.4967
 2288SOL    HW218327   3.996   4.097   5.285  0.7917 -0.6557 -1.4654
 2289SOL     OW18328   2.948   1.011   2.654  0.1587 -0.5437 -0.4523
 2289SOL    HW118329   3.009   0.940   2.637  0.7255 -0.3598  0.7825
 2289SOL    HW218330   2.990   1.053   2.730  2.6527  0.2807 -2.2520
 2290SOL     OW18331   2.142   3.551  12.505 -0.3293  0.7759 -0.0160
 2290SOL    HW118332   2.066   3.539  12.447  0.3879 -1.2912 -0.5202
 2290SOL    HW218333   2.101   3.601  12.576 -0.5379 -0.4820  0.7364
 2291SOL     OW18334   4.148   3.372   4.246 -0.1691 -0.5351  0.6712
 2291SOL    HW118335   4.084   3.440   4.225 -0.0962 -1.0218 -1.0919
 2291SOL    HW218336   4.220   3.426   4.279  0.3160 -0.3777 -0.6523
 2292SOL     OW18337   4.583   3.921  15.722  0.3663 -0.1015  0.4258
 2292SOL    HW118338   4.569   3.970  15.641 -0.6779 -2.9166 -1.1268
 2292SOL    HW218339   4.531   3.842  15.711  0.5532 -0.1256 -0.2867
 2293SOL     OW18340   4.185   4.528  10.880  0.8490  0.2458  0.2425
 2293SOL    HW118341   4.266   4.577  10.875 -0.5040  2.5041  0.5712
 2293SOL    HW218342   4.204   4.437  10.903  0.3086 -0.2931 -1.4437
 2294SOL     OW18343   3.455   3.038   4.839 -0.5472 -0.1993  0.1968
 2294SOL    HW118344   3.456   2.978   4.764 -0.9978 -0.2357  0.2215
 2294SOL    HW218345   3.434   2.976   4.908  2.6933 -1.8436 -0.2841
 2295SOL     OW18346   4.538   2.852  12.133  0.8672 -0.2636 -0.4150
 2295SOL    HW118347   4.525   2.812  12.047  1.2994 -0.1229 -0.5480
 2295SOL    HW218348   4.550   2.942  12.102  0.2729 -0.8837 -2.4016
 2296SOL     OW18349   3.602   0.706   5.965  0.6269  0.7412  0.5407
 2296SOL    HW118350   3.569   0.616   5.959 -0.2459  1.1980 -1.6011
 2296SOL    HW218351   3.518   0.751   5.974  1.0805  1.4457  1.2426
 2297SOL     OW18352   1.260   3.303  13.569 -0.3711 -0.3755 -0.2530
 2297SOL    HW118353   1.320   3.291  13.495  1.0868 -1.0163  1.0235
 2297SOL    HW218354   1.318   3.343  13.634 -1.2473  1.3565 -0.5321
 2298SOL     OW18355   4.309   3.321   2.288  0.4321 -0.0856  0.5141
 2298SOL    HW118356   4.357   3.356   2.213  0.0578  2.8736  1.6604
 2298SOL    HW218357   4.380   3.294   2.346  1.2066  2.9425  0.9785
 2299SOL     OW18358   1.238   2.524  14.715  0.2752  0.0757  0.3583
 2299SOL    HW118359   1.258   2.603  14.664 -0.5419  1.7426  2.6238
 2299SOL    HW218360   1.291   2.538  14.794 -0.8636 -2.0400  1.4939
 2300SOL     OW18361   1.363   2.150   8.078  0.1593 -0.7851 -0.2419
 2300SOL    HW118362   1.396   2.148   8.168 -1.2693  2.9606  0.3735
 2300SOL    HW218363   1.351   2.058   8.054  0.2900 -0.8737  0.0340
 2301SOL     OW18364   4.634   2.044  16.282 -0.2648 -0.1349  0.0831
 2301SOL    HW118365   4.664   1.954  16.275 -1.4618 -0.4448 -0.9324
 2301SOL    HW218366   4.625   2.061  16.188 -0.1391  0.7983  0.2414
 2302SOL     OW18367   3.590   1.306  14.218 -0.2761 -0.4121  0.2989
 2302SOL    HW118368   3.497   1.283  14.216 -0.7562  1.7791 -1.9253
 2302SOL    HW218369   3.606   1.338  14.307 -0.5260 -0.0739  0.2238
 2303SOL     OW18370   0.223   4.255   3.311 -0.1460 -0.5290 -0.1676
 2303SOL    HW118371   0.296   4.302   3.271  0.5854 -1.5398 -0.0155
 2303SOL    HW218372   0.251   4.251   3.402  0.9972 -1.0736 -0.5412
 2304SOL     OW18373   0.705   3.574   5.581  0.2872 -0.1480 -0.6196
 2304SOL    HW118374   0.782   3.613   5.541  0.3845  0.0638 -0.2253
 2304SOL    HW218375   0.746   3.530   5.656 -1.4754 -0.3819  0.2330
 2305SOL     OW18376   4.216   3.252  16.274  0.1601  0.3860  0.2177
 2305SOL    HW118377   4.241   3.344  16.268  3.1026 -0.5296 -1.5029
 2305SOL    HW218378   4.301   3.214  16.296 -0.3354 -0.6424  0.3446
 2306SOL     OW18379   0.845   2.925  14.746 -0.0601  0.1817  0.1553
 2306SOL    HW118380   0.752   2.922  14.728  0.0926  2.0807 -0.9285
 2306SOL    HW218381   0.875   2.862  14.681  1.2850 -1.1211  1.9972
 2307SOL     OW18382   4.296   3.296   0.823 -0.0989  0.4312 -0.4588
 2307SOL    HW118383   4.374   3.346   0.849  0.8909 -3.5656  4.2298
 2307SOL    HW218384   4.252   3.368   0.777  1.8636  2.0520  0.1739
 2308SOL     OW18385   2.377   0.008   5.613  0.0817 -0.0154 -0.5468
 2308SOL    HW118386   2.355   4.711   5.523 -0.0313 -0.7861 -0.3322
 2308SOL    HW218387   2.412   4.653   5.653 -0.4081 -0.5547 -1.1933
 2309SOL     OW18388   3.730   0.635  13.865  0.0349  0.0468 -0.1329
 2309SOL    HW118389   3.755   0.557  13.915  0.0493  1.0164  1.3798
 2309SOL    HW218390   3.721   0.608  13.774  2.0684 -0.7843 -0.0953
 2310SOL     OW18391   3.970   0.937   6.792  0.0853  0.4755 -0.2244
 2310SOL    HW118392   4.058   0.935   6.829  0.9065  1.3191 -2.1368
 2310SOL    HW218393   3.921   0.957   6.872 -0.2279 -0.9749 -0.0522
 2311SOL     OW18394   2.728   0.452   5.574 -0.6036  0.2768  0.6349
 2311SOL    HW118395   2.722   0.370   5.624  1.9321 -0.3517 -0.0571
 2311SOL    HW218396   2.700   0.425   5.486 -0.2909 -0.0317  0.6284
 2312SOL     OW18397   1.407   3.157   8.354 -0.5013  0.1840 -0.1186
 2312SOL    HW118398   1.423   3.204   8.436 -0.6170  1.3805 -0.7891
 2312SOL    HW218399   1.394   3.073   8.399  1.9605 -0.1001  0.0170
 2313SOL     OW18400   4.057   1.549  14.896 -0.1724  0.1784  0.4923
 2313SOL    HW118401   4.005   1.489  14.951  0.1198  0.1552  0.7427
 2313SOL    HW218402   4.103   1.483  14.844  0.3337 -0.0531  1.2297
 2314SOL     OW18403   1.258   2.210   9.326 -0.7251 -0.8494  0.2651
 2314SOL    HW118404   1.330   2.158   9.361  0.2693  2.4824  3.1678
 2314SOL    HW218405   1.277   2.209   9.232  3.1503  0.3388  1.0468
 2315SOL     OW18406   4.207   3.344   3.804 -0.0188  0.3183  0.2841
 2315SOL    HW118407   4.214   3.318   3.712  0.3141  0.8909  0.1499
 2315SOL    HW218408   4.124   3.389   3.815  0.1121  0.7233 -0.4078
 2316SOL     OW18409   1.743   4.186   2.195 -0.3289  0.4594  0.9184
 2316SOL    HW118410   1.746   4.277   2.225 -3.2196  1.0406 -0.4917
 2316SOL    HW218411   1.706   4.152   2.276 -0.9203 -1.6760 -0.2539
 2317SOL     OW18412   1.973   4.696   4.946 -0.3650  0.2039 -0.2590
 2317SOL    HW118413   2.050   0.015   4.985  0.5507 -0.1837 -1.6261
 2317SOL    HW218414   2.009   4.609   4.960  0.2437  0.3903 -0.6332
 2318SOL     OW18415   1.002   0.022   6.614 -0.0701 -0.5303 -0.0874
 2318SOL    HW118416   1.033   4.657   6.629  2.5496  0.3744 -0.1109
 2318SOL    HW218417   0.910   0.008   6.590 -0.0218 -0.3431 -0.3822
 2319SOL     OW18418   3.982   3.552   2.534 -0.2919 -0.3240  0.7419
 2319SOL    HW118419   4.036   3.529   2.458  1.3307  2.9754  0.9028
 2319SOL    HW218420   4.006   3.495   2.607  2.5754 -0.5546 -0.3626
 2320SOL     OW18421   0.596   1.623   3.589  0.3482 -0.2520 -0.0867
 2320SOL    HW118422   0.629   1.539   3.556  0.6519 -0.4472  0.7246
 2320SOL    HW218423   0.503   1.625   3.568 -0.2112 -0.1571  2.4945
 2321SOL     OW18424   4.515   1.970   4.314  0.2056  0.0837 -0.5430
 2321SOL    HW118425   4.572   1.893   4.314  1.2299  0.8394 -0.6364
 2321SOL    HW218426   4.578   2.032   4.276  0.6972  0.3181  0.6506
 2322SOL     OW18427   3.894   3.411   5.657  0.2218 -0.7005 -0.0972
 2322SOL    HW118428   3.885   3.401   5.752 -2.2536  0.0330 -0.2609
 2322SOL    HW218429   3.839   3.486   5.634 -0.3481 -0.9433  0.4522
 2323SOL     OW18430   1.339   2.574   8.089  0.0170  0.1817 -0.2456
 2323SOL    HW118431   1.315   2.493   8.133 -0.0756  1.6831  2.4141
 2323SOL    HW218432   1.393   2.529   8.023 -1.1146  0.1272 -1.1304
 2324SOL     OW18433   1.578   3.731   5.144 -0.7445 -0.2574 -0.0102
 2324SOL    HW118434   1.641   3.780   5.197 -0.3904 -0.9998  0.2513
 2324SOL    HW218435   1.501   3.781   5.171 -0.3872  1.2235 -1.6989
 2325SOL     OW18436   2.125   0.530   3.664  0.0375 -0.3320 -0.1894
 2325SOL    HW118437   2.150   0.563   3.750 -2.0100  0.3542  0.1351
 2325SOL    HW218438   2.144   0.436   3.673 -0.3805 -0.3613  0.3809
 2326SOL     OW18439   3.217   3.688   0.405 -0.2801  0.0839 -0.2768
 2326SOL    HW118440   3.201   3.746   0.478  2.8992  1.1808 -0.4525
 2326SOL    HW218441   3.249   3.605   0.442 -0.3252  0.8885  1.5222
 2327SOL     OW18442   1.791   1.281  17.194  0.0473  0.0456  0.3720
 2327SOL    HW118443   1.798   1.337  17.271 -0.3290 -0.7687  0.9909
 2327SOL    HW218444   1.750   1.336  17.127 -0.1666 -0.0167  0.4524
 2328SOL     OW18445   0.864   2.585   4.825 -0.4514 -0.0733  0.3477
 2328SOL    HW118446   0.850   2.641   4.748 -2.7731 -0.5710  0.4176
 2328SOL    HW218447   0.827   2.500   4.802 -1.3356  0.5486 -0.4950
 2329SOL     OW18448   1.922   3.516   4.181  0.1643 -0.2735 -0.1982
 2329SOL    HW118449   1.968   3.445   4.137 -2.0406 -0.9007 -1.5145
 2329SOL    HW218450   1.876   3.562   4.112  1.1292  0.8438 -0.0961
 2330SOL     OW18451   2.687   0.206  15.249 -0.4349 -0.0600  0.5177
 2330SOL    HW118452   2.708   0.293  15.285 -3.8759 -0.6071  3.8818
 2330SOL    HW218453   2.596   0.198  15.279 -0.5836 -1.3622 -0.3188
 2331SOL     OW18454   3.518   4.528   2.029 -0.3311 -0.0499  0.5416
 2331SOL    HW118455   3.481   4.445   2.058  2.1052 -1.7419 -1.1422
 2331SOL    HW218456   3.437   4.563   1.993 -0.5631 -1.1643 -0.0094
 2332SOL     OW18457   2.260   0.691   8.553  0.3268 -0.3476 -0.1240
 2332SOL    HW118458   2.250   0.624   8.620 -0.0651  2.2880  2.4988
 2332SOL    HW218459   2.355   0.702   8.554  0.1446  1.3708 -2.7970
 2333SOL     OW18460   0.744   3.633  10.601 -0.3322 -0.6609  0.3959
 2333SOL    HW118461   0.821   3.637  10.659  0.8223 -1.6874 -1.0589
 2333SOL    HW218462   0.725   3.722  10.570  2.0200 -1.4605 -3.3368
 2334SOL     OW18463   3.791   4.388   6.530 -0.0026 -0.4075  0.0657
 2334SOL    HW118464   3.811   4.331   6.455  0.7737 -0.1515  0.0716
 2334SOL    HW218465   3.859   4.362   6.592  1.2944  0.6112 -0.9086
 2335SOL     OW18466   1.227   4.128   7.914  0.3280 -0.2316 -0.1113
 2335SOL    HW118467   1.147   4.120   7.862 -0.6040 -0.3892  1.3593
 2335SOL    HW218468   1.288   4.067   7.872 -1.7163 -1.4345 -1.3537
 2336SOL     OW18469   1.902   1.756   3.536  0.6338  0.5843 -0.2337
 2336SOL    HW118470   1.968   1.794   3.594  1.0127 -1.4512  0.6786
 2336SOL    HW218471   1.945   1.752   3.451  0.8920 -0.1893 -0.0668
 2337SOL     OW18472   1.852   3.480   5.224  0.2171 -0.5886  0.2391
 2337SOL    HW118473   1.818   3.527   5.300 -1.7497 -3.3527  1.0964
 2337SOL    HW218474   1.771   3.486   5.173 -0.3190 -2.9789  0.8264
 2338SOL     OW18475   2.407   2.243  13.159 -0.7799  0.2134 -0.0922
 2338SOL    HW118476   2.417   2.294  13.239  0.6291 -1.4108  0.7684
 2338SOL    HW218477   2.442   2.158  13.183 -1.1199  0.0137 -0.3018
 2339SOL     OW18478   2.523   2.286   7.758  0.2107 -0.8683  0.1410
 2339SOL    HW118479   2.544   2.297   7.851  0.9899  0.0286 -0.1327
 2339SOL    HW218480   2.456   2.221   7.775 -0.7259  0.4772  1.5446
 2340SOL     OW18481   2.027   4.150   1.697 -0.2627  0.3357 -0.0227
 2340SOL    HW118482   1.979   4.147   1.780 -2.2304 -0.0874 -1.1911
 2340SOL    HW218483   2.067   4.236   1.710 -0.2023  0.1288  1.1612
 2341SOL     OW18484   1.214   2.105  11.208 -0.0883 -0.0512 -0.2929
 2341SOL    HW118485   1.243   2.190  11.242 -0.9168  0.6159 -1.2451
 2341SOL    HW218486   1.132   2.126  11.164  0.4245 -0.4721 -1.4757
 2342SOL     OW18487   4.695   1.786  16.211  0.4037  0.3976  0.5291
 2342SOL    HW118488   0.062   1.789  16.183  1.2241 -2.5319  2.8791
 2342SOL    HW218489   4.659   1.718  16.154  0.0870  0.3170  0.8218
 2343SOL     OW18490   4.116   4.376   2.714  0.3909 -0.6141  0.1366
 2343SOL    HW118491   4.116   4.280   2.705 -0.1845 -0.7949  1.9633
 2343SOL    HW218492   4.145   4.400   2.626 -2.5374  2.7791  0.1256
 2344SOL     OW18493   4.278   0.398   3.378  0.0028 -0.5867 -0.5512
 2344SOL    HW118494   4.217   0.407   3.451 -0.2601  0.4630 -0.9053
 2344SOL    HW218495   4.357   0.355   3.412  1.2284  4.0147  2.3681
 2345SOL     OW18496   0.474   4.447  15.509 -0.4413 -0.5127  0.4408
 2345SOL    HW118497   0.546   4.430  15.447  0.5390  1.5437  0.9758
 2345SOL    HW218498   0.507   4.429  15.597 -0.4917 -4.0644 -0.2877
 2346SOL     OW18499   1.531   1.019   6.889  0.9009  0.3124  0.0668
 2346SOL    HW118500   1.563   1.088   6.831  0.7624  0.3485  0.0333
 2346SOL    HW218501   1.437   1.035   6.877  1.1606  1.7596 -0.0632
 2347SOL     OW18502   1.680   0.538   1.440 -0.0106  0.4561  0.4176
 2347SOL    HW118503   1.605   0.480   1.449 -0.0208  0.2756 -0.7437
 2347SOL    HW218504   1.684   0.578   1.526  1.1906 -0.3740  0.7564
 2348SOL     OW18505   2.457   0.067   3.664  0.4233 -0.6067 -0.4155
 2348SOL    HW118506   2.533   0.023   3.702  0.7305 -0.9238 -1.4017
 2348SOL    HW218507   2.452   0.023   3.580  0.5619 -1.7780  0.1834
 2349SOL     OW18508   4.110   0.412   7.616 -0.2895  0.0527 -0.5038
 2349SOL    HW118509   4.054   0.406   7.692  0.0853  1.7598 -0.0995
 2349SOL    HW218510   4.135   0.322   7.594 -0.2609 -0.4911  1.8390
 2350SOL     OW18511   0.256   1.352   1.424  0.0542 -0.3328 -0.4624
 2350SOL    HW118512   0.273   1.261   1.449 -2.1027 -0.3385  0.9865
 2350SOL    HW218513   0.242   1.357   1.329 -0.0522 -1.4363 -0.5050
 2351SOL     OW18514   4.288   4.071   1.287  0.2559  0.2888 -0.6630
 2351SOL    HW118515   4.380   4.045   1.275  0.2039 -0.7153  1.1063
 2351SOL    HW218516   4.288   4.167   1.288 -2.9593  0.2762 -0.1623
 2352SOL     OW18517   1.447   2.076   8.914  0.3061 -0.0693 -0.1095
 2352SOL    HW118518   1.356   2.090   8.940  1.6898  1.5641  3.6852
 2352SOL    HW218519   1.496   2.093   8.994  1.6237 -0.2455 -0.8645
 2353SOL     OW18520   2.709   4.188   1.780 -0.7394 -0.2974  0.2212
 2353SOL    HW118521   2.786   4.133   1.793 -1.1810 -0.7762  0.8471
 2353SOL    HW218522   2.705   4.214   1.688  2.7931  0.1170  0.2084
 2354SOL     OW18523   3.764   4.565   4.614  0.0798  0.0386 -0.4173
 2354SOL    HW118524   3.790   4.577   4.705 -0.8007  0.0116 -0.1663
 2354SOL    HW218525   3.784   4.652   4.581 -1.5065  0.4575 -0.2687
 2355SOL     OW18526   0.326   1.332   7.218  1.1036 -0.0660 -0.1719
 2355SOL    HW118527   0.410   1.367   7.248 -0.9376  2.9476  1.9686
 2355SOL    HW218528   0.347   1.336   7.125  1.3521 -1.5449 -0.1824
 2356SOL     OW18529   1.092   0.892   8.391 -0.0314  0.7592 -0.3284
 2356SOL    HW118530   1.085   0.974   8.342  1.9088  1.2438  0.2082
 2356SOL    HW218531   1.066   0.835   8.319 -1.0817  0.4484  0.2921
 2357SOL     OW18532   0.185   1.392   4.009  0.2100  0.2787 -0.2358
 2357SOL    HW118533   0.233   1.311   3.994 -0.8299 -0.0355 -1.8368
 2357SOL    HW218534   0.178   1.427   3.921  2.8607  1.7439  0.1340
 2358SOL     OW18535   3.440   1.237   6.888 -0.0596  0.8649 -0.5752
 2358SOL    HW118536   3.440   1.328   6.856 -1.1430  0.4283 -1.8095
 2358SOL    HW218537   3.527   1.238   6.928  0.7086  1.0736 -2.2206
 2359SOL     OW18538   0.178   1.951   7.950  0.1460 -0.1455  0.1529
 2359SOL    HW118539   0.183   1.863   7.988 -0.8509  0.7013  2.2735
 2359SOL    HW218540   0.157   1.924   7.861 -0.0030 -1.7662  0.6862
 2360SOL     OW18541   0.504   3.381   7.174  0.8758 -0.2907  0.7910
 2360SOL    HW118542   0.461   3.296   7.183 -0.3593  0.1791 -0.7785
 2360SOL    HW218543   0.440   3.435   7.126  0.2072 -2.0465 -0.2930
 2361SOL     OW18544   3.744   3.361   2.082 -0.1965  0.2572 -0.3301
 2361SOL    HW118545   3.701   3.277   2.064 -0.4783  0.4111 -0.3826
 2361SOL    HW218546   3.724   3.362   2.176  3.2987  0.1037  0.4145
 2362SOL     OW18547   1.248   0.118  11.289  0.7563  0.2133  0.1853
 2362SOL    HW118548   1.319   0.124  11.353  0.6919  0.0466  0.2735
 2362SOL    HW218549   1.190   0.191  11.311  0.2661  0.6409 -2.6310
 2363SOL     OW18550   3.397   2.129   9.877  0.0525  0.1972  0.1498
 2363SOL    HW118551   3.330   2.186   9.838 -1.0401  0.1217  1.9080
 2363SOL    HW218552   3.472   2.185   9.858  1.1882 -0.2230  3.3780
 2364SOL     OW18553   0.705   1.596   7.005  0.3445  0.3051 -0.2991
 2364SOL    HW118554   0.664   1.534   6.944 -1.0328  1.7735 -0.8708
 2364SOL    HW218555   0.789   1.598   6.960  0.1625  2.1854 -0.5446
 2365SOL     OW18556   2.509   2.888  15.596  0.0989 -0.5659 -0.0280
 2365SOL    HW118557   2.508   2.852  15.685 -1.7187 -0.6625 -0.0721
 2365SOL    HW218558   2.601   2.902  15.576 -0.0651 -2.2108 -1.9226
 2366SOL     OW18559   4.253   4.009   3.129 -0.0737 -0.1337 -0.0734
 2366SOL    HW118560   4.326   4.059   3.094 -0.6118  0.5941 -0.1679
 2366SOL    HW218561   4.179   4.015   3.068 -1.4939 -1.5183  1.5209
 2367SOL     OW18562   3.863   0.757   0.318 -0.0303  0.2250  0.7092
 2367SOL    HW118563   3.933   0.714   0.268 -0.4104  0.8842 -0.4034
 2367SOL    HW218564   3.910   0.805   0.386 -1.0569  0.0398  1.5443
 2368SOL     OW18565   1.647   3.875  15.350  0.3161 -0.4709  0.3369
 2368SOL    HW118566   1.633   3.789  15.390 -0.2297 -0.7471 -0.4570
 2368SOL    HW218567   1.569   3.889  15.296 -0.8239 -1.1692  1.8015
 2369SOL     OW18568   2.371   1.460   6.256  0.4260  0.2987 -0.5692
 2369SOL    HW118569   2.402   1.503   6.176  1.8107 -1.1059 -0.7654
 2369SOL    HW218570   2.278   1.482   6.251 -0.1322 -1.3174  2.2135
 2370SOL     OW18571   2.082   2.739  10.345  0.1167 -0.5630  0.3934
 2370SOL    HW118572   2.110   2.714  10.433 -0.7404  1.1328  1.1431
 2370SOL    HW218573   2.022   2.668  10.322 -2.9253  2.4417 -0.9823
 2371SOL     OW18574   1.413   1.263   7.966  0.1455  0.7351  0.0317
 2371SOL    HW118575   1.374   1.176   7.973 -1.5550  1.3389 -2.2063
 2371SOL    HW218576   1.464   1.250   7.887  0.4023  1.6463  0.0468
 2372SOL     OW18577   1.265   3.244   4.221 -0.2563 -0.1373 -0.4175
 2372SOL    HW118578   1.243   3.279   4.307 -3.0305 -1.2985 -0.6360
 2372SOL    HW218579   1.290   3.331   4.189 -0.3159  0.4563  1.1848
 2373SOL     OW18580   0.133   0.144   4.614  0.1718  0.0608 -0.2390
 2373SOL    HW118581   0.156   0.172   4.702 -1.7401 -2.2444  1.0081
 2373SOL    HW218582   0.205   0.181   4.562 -0.9919 -0.9827 -2.6223
 2374SOL     OW18583   1.227   0.906  12.827  0.0015 -0.0500  0.2312
 2374SOL    HW118584   1.287   0.979  12.807 -1.0545  0.5024 -0.9298
 2374SOL    HW218585   1.184   0.934  12.908 -0.7375 -2.2369  0.5731
 2375SOL     OW18586   2.258   0.819   2.594 -0.4836  0.0423 -0.1302
 2375SOL    HW118587   2.211   0.768   2.528 -1.1835  0.6344 -0.0922
 2375SOL    HW218588   2.307   0.889   2.552 -2.0752  0.8984 -0.5461
 2376SOL     OW18589   0.096   0.013   0.783  0.0359 -0.0556 -0.3758
 2376SOL    HW118590   0.100   0.097   0.737  2.9465  0.4934  0.9273
 2376SOL    HW218591   0.002   4.723   0.795 -0.3423  1.5845 -1.3855
 2377SOL     OW18592   2.841   1.612   8.249 -0.0720  0.0458 -0.1739
 2377SOL    HW118593   2.787   1.539   8.218  2.0024 -1.3271 -0.5779
 2377SOL    HW218594   2.790   1.692   8.258 -0.4823 -0.3179  0.7892
 2378SOL     OW18595   0.654   3.870   3.423 -0.2413  0.3960 -0.3216
 2378SOL    HW118596   0.678   3.791   3.374 -0.7988  0.1234 -0.1521
 2378SOL    HW218597   0.579   3.908   3.376 -1.1173 -0.3441  0.4881
 2379SOL     OW18598   2.003   3.108  14.892  0.8702 -0.3344  0.3138
 2379SOL    HW118599   2.020   3.199  14.915  0.3667 -0.6244  1.8780
 2379SOL    HW218600   1.932   3.114  14.827  0.8118  2.1150  0.5970
 2380SOL     OW18601   2.904   2.329  12.470 -0.4515  0.1840 -0.1564
 2380SOL    HW118602   2.945   2.298  12.390 -0.6537  2.0748 -0.9861
 2380SOL    HW218603   2.885   2.417  12.438 -2.7547  0.4975  2.0553
 2381SOL     OW18604   1.588   2.657   4.178 -0.3953  0.0670  0.6125
 2381SOL    HW118605   1.540   2.730   4.217 -1.8065  0.0520 -1.1085
 2381SOL    HW218606   1.644   2.710   4.122  0.0753  0.1025  1.1224
 2382SOL     OW18607   0.674   0.120   7.476 -0.2626 -0.1385 -0.0416
 2382SOL    HW118608   0.720   0.168   7.407  1.3177 -0.7892  0.5651
 2382SOL    HW218609   0.611   0.076   7.419 -0.4747 -0.2287  0.2662
 2383SOL     OW18610   2.802   1.219  16.257  0.3187 -0.3110 -0.6343
 2383SOL    HW118611   2.897   1.218  16.246  0.8824  3.5506  3.7489
 2383SOL    HW218612   2.769   1.150  16.199  1.0096  0.0227 -1.4132
 2384SOL     OW18613   0.704   2.086  16.029  0.1830  0.1794  0.1015
 2384SOL    HW118614   0.672   2.132  15.952 -2.1636 -1.1377  0.2761
 2384SOL    HW218615   0.619   2.052  16.057 -0.6209  1.5616 -0.6843
 2385SOL     OW18616   0.479   0.898   5.522  0.1729  0.2704  0.9827
 2385SOL    HW118617   0.549   0.941   5.571 -2.1886  1.0282  3.7236
 2385SOL    HW218618   0.468   0.818   5.573 -3.0696 -1.0197 -1.7615
 2386SOL     OW18619   4.309   2.234  11.865 -0.8154  0.8024 -0.2699
 2386SOL    HW118620   4.344   2.152  11.901  1.9892  1.3052 -1.8748
 2386SOL    HW218621   4.217   2.228  11.892 -2.2073  0.7010 -5.0269
 2387SOL     OW18622   4.537   2.810  16.944  0.0822 -0.1053 -0.3147
 2387SOL    HW118623   4.471   2.784  17.008  0.7027 -4.0295 -1.3149
 2387SOL    HW218624   4.518   2.904  16.949  1.4339  0.1069  0.9686
 2388SOL     OW18625   1.924   2.700   3.485 -0.2851  0.6386  0.4490
 2388SOL    HW118626   1.955   2.766   3.423  0.4054 -0.4861 -0.3994
 2388SOL    HW218627   1.871   2.754   3.544 -0.3576  0.1950  0.7890
 2389SOL     OW18628   0.185   1.934   7.023 -0.7017 -0.2439  0.9324
 2389SOL    HW118629   0.135   1.993   6.967 -1.0738 -0.1001  1.4251
 2389SOL    HW218630   0.217   1.871   6.957  1.8519  1.5455  0.4361
 2390SOL     OW18631   4.126   4.119   2.701  0.1172  0.3423  0.6314
 2390SOL    HW118632   4.216   4.105   2.674 -0.6517 -0.1140 -1.6749
 2390SOL    HW218633   4.077   4.071   2.635  0.1028 -0.5061  1.2625
 2391SOL     OW18634   2.652   2.136   3.053 -0.3431  0.3524 -0.2399
 2391SOL    HW118635   2.567   2.130   3.095  0.8145  0.6344  2.1275
 2391SOL    HW218636   2.630   2.211   2.997  0.6366  1.5334  0.9262
 2392SOL     OW18637   0.506   1.477   4.146  0.7155  0.0262 -0.2081
 2392SOL    HW118638   0.508   1.529   4.065 -1.7489  0.1617 -0.1700
 2392SOL    HW218639   0.492   1.392   4.104  1.7457 -0.4231  0.3261
 2393SOL     OW18640   2.984   3.431   8.658  0.2085 -0.5067  0.6514
 2393SOL    HW118641   3.051   3.367   8.634 -0.2667  0.1468 -2.4847
 2393SOL    HW218642   3.013   3.511   8.613  2.4690 -0.9938  1.2447
 2394SOL     OW18643   2.018   4.391   9.297  0.6599 -0.4943 -0.2433
 2394SOL    HW118644   1.933   4.382   9.339  0.7394 -2.0732 -0.4280
 2394SOL    HW218645   2.084   4.378   9.365  1.8754 -0.6838 -1.4497
 2395SOL     OW18646   1.927   2.542   8.757  0.3401 -0.0125  0.3068
 2395SOL    HW118647   1.877   2.555   8.837 -0.9057 -0.7414 -0.3648
 2395SOL    HW218648   2.018   2.557   8.785  0.1826  2.5788 -0.5749
 2396SOL     OW18649   0.636   2.622   8.872 -0.1554  0.7286 -0.2420
 2396SOL    HW118650   0.722   2.624   8.913 -0.2856 -1.6879  0.1652
 2396SOL    HW218651   0.643   2.713   8.843  2.4893  1.0669  1.4978
 2397SOL     OW18652   1.555   0.838  12.171  0.0011 -0.4461  0.5971
 2397SOL    HW118653   1.471   0.855  12.214 -1.5231  0.3834 -2.7409
 2397SOL    HW218654   1.583   0.754  12.208 -0.0769 -1.0629 -0.7396
 2398SOL     OW18655   0.797   4.270   2.885 -0.7291  0.0348  0.1200
 2398SOL    HW118656   0.890   4.291   2.877 -0.6425 -0.6986 -0.7687
 2398SOL    HW218657   0.816   4.176   2.893  1.7437  0.6682  1.6374
 2399SOL     OW18658   1.341   4.287   6.397  0.2141  0.0491  0.1719
 2399SOL    HW118659   1.433   4.314   6.390  0.5565 -0.8205  1.1868
 2399SOL    HW218660   1.315   4.273   6.306  1.1295 -1.5363  0.1564
 2400SOL     OW18661   2.882   4.068  15.492  0.0808  0.5773  0.6087
 2400SOL    HW118662   2.888   3.975  15.470 -0.0620  0.3470  1.5314
 2400SOL    HW218663   2.975   4.086  15.505  0.0679  2.9146 -2.5870
 2401SOL     OW18664   4.655   2.997   5.452 -0.0372 -0.2427  0.4138
 2401SOL    HW118665   4.688   2.953   5.530  1.4300 -1.0177 -0.6732
 2401SOL    HW218666   4.594   2.930   5.422  0.0498 -1.5130  3.1186
 2402SOL     OW18667   0.009   0.742  14.665 -0.0160  0.3994 -0.5247
 2402SOL    HW118668   0.076   0.674  14.676  0.7969  1.2299 -0.2928
 2402SOL    HW218669   4.714   0.753  14.758 -1.7224  1.9118 -1.0567
 2403SOL     OW18670   2.160   3.343  16.906 -0.5426 -0.0836  0.6686
 2403SOL    HW118671   2.225   3.286  16.865 -1.7416 -0.7579 -0.3388
 2403SOL    HW218672   2.129   3.278  16.969 -2.0573 -1.3682 -1.3689
 2404SOL     OW18673   4.580   4.284  12.458  0.1699 -0.2640 -0.0747
 2404SOL    HW118674   4.645   4.331  12.509 -0.8251  3.5662 -2.3270
 2404SOL    HW218675   4.551   4.216  12.518 -3.9431  0.2302 -1.5201
 2405SOL     OW18676   0.322   2.481   1.246 -0.0717 -0.0379 -0.7866
 2405SOL    HW118677   0.362   2.473   1.332 -0.7549 -1.1941 -0.5774
 2405SOL    HW218678   0.392   2.514   1.189 -0.0814  0.1790 -0.6706
 2406SOL     OW18679   0.431   3.576   9.702 -0.2386  0.1743 -0.1490
 2406SOL    HW118680   0.364   3.544   9.763  1.5802 -0.8718  1.2987
 2406SOL    HW218681   0.437   3.667   9.733  0.1333 -0.1458  0.7260
 2407SOL     OW18682   4.180   4.287  15.905 -0.3606 -0.6941 -0.5618
 2407SOL    HW118683   4.098   4.241  15.893 -0.3704 -0.7390 -0.3311
 2407SOL    HW218684   4.161   4.365  15.853 -1.1105 -0.5191 -0.0246
 2408SOL     OW18685   4.562   2.072  12.999 -0.0499 -0.0547 -0.4800
 2408SOL    HW118686   4.576   2.111  12.912  2.5038 -0.0924 -0.0945
 2408SOL    HW218687   4.634   2.014  13.022 -0.1927 -0.3776 -0.8547
 2409SOL     OW18688   2.834   2.016   6.827 -0.2302 -0.1959 -0.2403
 2409SOL    HW118689   2.785   1.978   6.754 -0.4959 -0.4020  0.0492
 2409SOL    HW218690   2.849   2.107   6.799  2.8485 -0.1199  1.6912
 2410SOL     OW18691   3.329   2.526   3.453 -0.0676 -0.0041 -0.1366
 2410SOL    HW118692   3.293   2.437   3.456 -0.2763  0.1579  2.9523
 2410SOL    HW218693   3.412   2.509   3.409  0.2170 -0.0171  0.4019
 2411SOL     OW18694   4.408   3.693   9.089  0.1783  0.2577 -0.1025
 2411SOL    HW118695   4.500   3.676   9.106 -0.3384 -2.4113  0.1306
 2411SOL    HW218696   4.367   3.606   9.082  0.4292  0.1399 -0.1089
 2412SOL     OW18697   1.116   0.491   4.368  0.1489 -0.3092 -0.0870
 2412SOL    HW118698   1.201   0.497   4.324 -0.0469 -0.5064 -0.4893
 2412SOL    HW218699   1.064   0.507   4.289 -0.3628  0.6618  0.4424
 2413SOL     OW18700   2.203   4.707   1.757 -0.4108  0.3024 -0.5123
 2413SOL    HW118701   2.286   4.672   1.726  0.5036  0.7468  1.4710
 2413SOL    HW218702   2.192   0.067   1.714  0.2069  0.6051 -0.0799
 2414SOL     OW18703   1.975   3.260  12.814 -0.1650  0.5318 -0.1009
 2414SOL    HW118704   1.912   3.302  12.755  2.0892  1.1974 -2.0575
 2414SOL    HW218705   2.047   3.239  12.754 -1.2832  1.1862 -1.6780
 2415SOL     OW18706   1.218   0.430   7.045  0.1719  0.1331  0.0185
 2415SOL    HW118707   1.162   0.352   7.048  0.9982 -0.6508 -4.1780
 2415SOL    HW218708   1.201   0.453   6.953  1.2082 -1.0427 -0.4799
 2416SOL     OW18709   4.075   4.561   8.307  0.3663 -0.3286 -0.2016
 2416SOL    HW118710   4.106   4.651   8.308  0.7763 -0.4725  0.4149
 2416SOL    HW218711   4.081   4.540   8.401  0.0647  0.3477 -0.0314
 2417SOL     OW18712   4.278   3.253   8.807 -0.0471  0.2220 -0.3782
 2417SOL    HW118713   4.350   3.195   8.833 -0.1924  1.0551  1.9031
 2417SOL    HW218714   4.303   3.280   8.719  1.4480 -0.9027 -0.3051
 2418SOL     OW18715   3.876   4.043   6.065  0.3442 -0.0899 -0.2883
 2418SOL    HW118716   3.845   4.132   6.049 -1.0362 -0.8510 -1.9168
 2418SOL    HW218717   3.818   3.995   6.005  0.3798  0.2987 -0.6292
 2419SOL     OW18718   2.508   3.855  14.854  0.1194  0.1502 -0.0922
 2419SOL    HW118719   2.448   3.805  14.799 -1.0556  0.7114  0.6756
 2419SOL    HW218720   2.585   3.861  14.797 -0.8046 -4.0618 -1.7857
 2420SOL     OW18721   1.281   3.489   4.855  0.2635 -0.1929  0.1238
 2420SOL    HW118722   1.327   3.424   4.801  0.7234  0.3390 -0.1256
 2420SOL    HW218723   1.360   3.532   4.887 -0.7148  0.5012  1.5750
 2421SOL     OW18724   1.658   0.375   1.874  0.4211  0.0473  0.4128
 2421SOL    HW118725   1.619   0.386   1.788 -0.2616  3.7558  1.1996
 2421SOL    HW218726   1.702   0.293   1.852 -1.8763 -1.2774  0.7906
 2422SOL     OW18727   0.214   1.434   1.167 -0.1773  0.4475  0.3561
 2422SOL    HW118728   0.186   1.515   1.124 -1.1349  0.6010  1.2816
 2422SOL    HW218729   0.309   1.437   1.170 -0.1373  1.1116 -1.5454
 2423SOL     OW18730   0.239   3.484   5.235 -0.1013  0.1887  0.0264
 2423SOL    HW118731   0.180   3.557   5.257  0.4760  1.2687 -1.9649
 2423SOL    HW218732   0.312   3.532   5.194  0.0256 -0.0047  0.0294
 2424SOL     OW18733   1.813   2.409   4.580 -0.1391 -0.0871 -0.5975
 2424SOL    HW118734   1.745   2.369   4.525 -1.0201  1.2002 -0.4414
 2424SOL    HW218735   1.859   2.331   4.612 -0.2382 -0.0593 -0.3829
 2425SOL     OW18736   2.139   2.403  14.438  0.9192  0.0332  0.2029
 2425SOL    HW118737   2.187   2.435  14.362  0.3300  0.9739  0.2332
 2425SOL    HW218738   2.143   2.480  14.494  0.9987  0.6634 -0.6778
 2426SOL     OW18739   1.344   1.525  17.364 -0.1912  0.1406  0.2242
 2426SOL    HW118740   1.264   1.478  17.388 -0.5455 -0.4267 -2.0345
 2426SOL    HW218741   1.308   1.611  17.340 -0.1302  0.3125  0.7588
 2427SOL     OW18742   0.184   0.501   9.033  0.0063  0.1487 -0.1950
 2427SOL    HW118743   0.134   0.419   9.034 -1.6535  1.1880  1.1126
 2427SOL    HW218744   0.177   0.530   8.942 -1.9978 -0.6265 -0.2950
 2428SOL     OW18745   0.003   4.337  13.655  1.0055  0.2568 -1.6968
 2428SOL    HW118746   0.054   4.257  13.645  0.5237 -0.2993  0.5076
 2428SOL    HW218747   0.064   4.384  13.712 -0.7935  1.2772 -0.6162
 2429SOL     OW18748   3.077   1.603   2.921  0.0669  0.0773 -0.7101
 2429SOL    HW118749   3.015   1.545   2.876  1.2422 -0.8754 -1.1000
 2429SOL    HW218750   3.035   1.611   3.007  1.2812  0.5046 -0.1604
 2430SOL     OW18751   3.068   1.840   3.611  0.1277 -0.2259  0.3492
 2430SOL    HW118752   3.089   1.930   3.637 -1.0330 -0.1229  0.9047
 2430SOL    HW218753   3.156   1.801   3.610 -0.0800 -0.6079 -2.1996
 2431SOL     OW18754   1.571   1.546   7.915 -0.0141 -0.5246 -0.1662
 2431SOL    HW118755   1.663   1.556   7.890  0.0487  2.6230  1.3962
 2431SOL    HW218756   1.538   1.535   7.826  0.2012  1.6043 -0.5101
 2432SOL     OW18757   1.806   4.009   5.294  0.0647  0.0977 -0.4972
 2432SOL    HW118758   1.735   4.008   5.359  0.5858  1.2514  0.0999
 2432SOL    HW218759   1.766   4.038   5.212  0.2940 -1.1628 -1.0464
 2433SOL     OW18760   2.042   3.428   0.510  0.3952 -0.1306  0.2248
 2433SOL    HW118761   2.025   3.450   0.601 -2.8946 -1.7907  0.0266
 2433SOL    HW218762   1.961   3.457   0.468 -0.0847 -1.4282  0.2331
 2434SOL     OW18763   4.597   1.554   2.008 -0.4322 -0.2465  0.0105
 2434SOL    HW118764   4.578   1.647   2.012  0.9888 -0.0236  1.5894
 2434SOL    HW218765   4.654   1.531   2.082 -0.0898  0.2538 -0.0964
 2435SOL     OW18766   1.336   0.356   3.119 -0.5190 -0.1663  0.2573
 2435SOL    HW118767   1.354   0.346   3.212  1.4995 -1.0054 -0.2424
 2435SOL    HW218768   1.369   0.445   3.110  0.1641 -0.2584  1.8173
 2436SOL     OW18769   2.011   4.639  15.261  0.6909  0.3155 -0.0438
 2436SOL    HW118770   2.020   4.555  15.306  1.3810  0.6783  0.5019
 2436SOL    HW218771   1.918   4.661  15.265  1.3013  2.8693 -0.2047
 2437SOL     OW18772   4.693   3.427  14.800 -0.6232 -0.2242  0.4308
 2437SOL    HW118773   4.632   3.356  14.821 -0.7857  0.5497  2.6229
 2437SOL    HW218774   0.014   3.388  14.726 -0.8547  3.0017 -1.3948
 2438SOL     OW18775   1.779   3.929  14.511 -0.0169 -0.5185  0.7357
 2438SOL    HW118776   1.822   3.864  14.456 -2.5233 -0.5238 -1.2106
 2438SOL    HW218777   1.801   4.003  14.455 -0.2485 -0.5897  0.5503
 2439SOL     OW18778   1.876   0.846   6.524  0.2000 -0.1266  0.1549
 2439SOL    HW118779   1.807   0.819   6.463 -2.6070  0.9996  2.8328
 2439SOL    HW218780   1.944   0.778   6.518 -0.9811 -1.5450  2.9209
 2440SOL     OW18781   1.800   2.923   1.597 -0.7578 -0.6910 -0.9769
 2440SOL    HW118782   1.718   2.961   1.629 -0.2165  0.4455 -0.9060
 2440SOL    HW218783   1.817   2.866   1.672 -1.1668  0.3315 -0.0979
 2441SOL     OW18784   2.212   4.210   3.450 -0.2833  0.1022  0.3996
 2441SOL    HW118785   2.136   4.157   3.475  1.9873 -3.1251  0.4975
 2441SOL    HW218786   2.159   4.276   3.405 -0.4268 -0.1809  0.1542
 2442SOL     OW18787   1.436   0.543  13.207  0.0442 -0.1737  0.6982
 2442SOL    HW118788   1.343   0.553  13.183  0.9279 -0.2614 -2.6940
 2442SOL    HW218789   1.457   0.468  13.151  0.2279 -1.2732  2.2445
 2443SOL     OW18790   2.804   3.325   1.849  0.6125 -0.0046  0.1350
 2443SOL    HW118791   2.781   3.406   1.894  3.0388  0.0851  1.2158
 2443SOL    HW218792   2.779   3.342   1.759 -0.5917  0.4775  0.5573
 2444SOL     OW18793   1.822   0.581  17.044 -0.4064  0.3186  0.8051
 2444SOL    HW118794   1.794   0.547  16.959  0.1769  1.9226 -0.0381
 2444SOL    HW218795   1.746   0.638  17.062 -0.8192  0.6805 -2.0356
 2445SOL     OW18796   1.401   3.539  11.631 -0.3296  0.5901 -0.3791
 2445SOL    HW118797   1.472   3.516  11.691 -1.8252  2.2349  2.0080
 2445SOL    HW218798   1.320   3.539  11.681 -2.0534 -1.5531 -3.0913
 2446SOL     OW18799   0.725   0.617   5.481  0.4080 -0.1142 -0.0038
 2446SOL    HW118800   0.747   0.710   5.492 -0.3502  0.1772 -0.9373
 2446SOL    HW218801   0.814   0.589   5.463 -0.1488 -0.9388 -1.4738
 2447SOL     OW18802   0.130   3.563   2.669 -0.5596  0.1186  0.3304
 2447SOL    HW118803   0.099   3.589   2.756 -0.3482 -1.1630  0.7891
 2447SOL    HW218804   0.196   3.624   2.636 -0.5282  1.5518  3.0693
 2448SOL     OW18805   1.363   3.488   7.123 -0.3375  0.0418 -0.1102
 2448SOL    HW118806   1.344   3.438   7.043  0.8558 -0.2159 -0.2363
 2448SOL    HW218807   1.404   3.569   7.093 -1.0004  0.5477  0.3445
 2449SOL     OW18808   4.497   2.802   8.387 -0.2717 -0.0701 -0.0881
 2449SOL    HW118809   4.508   2.711   8.361  1.1312 -0.4687  1.9678
 2449SOL    HW218810   4.575   2.833   8.343  1.3017 -0.7269  2.2482
 2450SOL     OW18811   2.166   0.122  15.365  0.4252  0.6616  0.1623
 2450SOL    HW118812   2.125   0.045  15.326  1.1126 -1.6392  4.0082
 2450SOL    HW218813   2.087   0.174  15.354 -0.5160 -0.1232  3.3818
 2451SOL     OW18814   3.858   2.055   5.553 -0.0959  0.3363 -0.2630
 2451SOL    HW118815   3.942   2.083   5.590 -0.3458 -0.7706  1.1693
 2451SOL    HW218816   3.843   2.118   5.483 -0.6021  2.1115  1.4377
 2452SOL     OW18817   0.474   4.612   8.382  0.2173 -0.5230  0.2795
 2452SOL    HW118818   0.533   4.687   8.389  0.5048 -0.5434 -2.0929
 2452SOL    HW218819   0.443   4.615   8.292 -0.8019  2.8525  0.7427
 2453SOL     OW18820   3.733   1.862   6.688 -0.2897  0.1651  0.3011
 2453SOL    HW118821   3.802   1.897   6.633 -0.6597 -1.2729 -1.0711
 2453SOL    HW218822   3.762   1.858   6.779  1.2892 -0.8797 -0.2587
 2454SOL     OW18823   2.784   4.399  15.475 -0.3129  0.3595  0.1064
 2454SOL    HW118824   2.690   4.413  15.486 -0.6516 -0.2262 -2.0388
 2454SOL    HW218825   2.813   4.476  15.424 -0.6419  0.9818  0.8694
 2455SOL     OW18826   1.408   0.446   7.836  0.3362 -0.3813 -0.0924
 2455SOL    HW118827   1.392   0.356   7.808 -2.5990  0.7281 -2.0411
 2455SOL    HW218828   1.335   0.459   7.896  0.8145  0.0662  0.3937
 2456SOL     OW18829   2.933   4.199   7.889  0.0532 -0.1498 -0.7629
 2456SOL    HW118830   2.975   4.285   7.892 -1.4752  0.5262  1.1902
 2456SOL    HW218831   2.877   4.203   7.812 -2.4657 -2.2119  0.9527
 2457SOL     OW18832   3.512   0.082   2.730 -0.0034  0.0238  0.2076
 2457SOL    HW118833   3.578   0.145   2.704  0.5038 -0.4833  0.2723
 2457SOL    HW218834   3.537   0.050   2.816 -1.6479 -1.5376  0.1111
 2458SOL     OW18835   2.351   2.927  12.357  0.4904  0.9085  0.2008
 2458SOL    HW118836   2.350   2.897  12.448 -2.1277 -1.6011 -0.6569
 2458SOL    HW218837   2.263   2.963  12.356  0.7643  1.5816  0.4625
 2459SOL     OW18838   0.886   4.083   5.938  0.4729  0.2914 -0.2886
 2459SOL    HW118839   0.843   3.997   5.934  0.4617  0.4443 -3.6732
 2459SOL    HW218840   0.902   4.092   5.844  0.8364  0.5407 -0.2027
 2460SOL     OW18841   1.186   4.662   9.073  0.3512  0.2370  0.6331
 2460SOL    HW118842   1.204   4.572   9.045 -0.6351 -1.0200  4.0317
 2460SOL    HW218843   1.248   4.718   9.025 -0.0682 -1.9642 -2.4755
 2461SOL     OW18844   0.005   0.417   4.920  0.0850  0.2798  0.5914
 2461SOL    HW118845   0.032   0.369   4.999 -0.4354 -1.3555 -0.2219
 2461SOL    HW218846   4.642   0.385   4.902  0.2175 -0.1361  0.6688
 2462SOL     OW18847   1.552   2.509  16.707  0.1058  0.4503 -0.5664
 2462SOL    HW118848   1.625   2.480  16.762 -2.4745 -1.9803  1.5789
 2462SOL    HW218849   1.552   2.448  16.633  0.8299 -0.2066 -0.0383
 2463SOL     OW18850   1.126   4.672  17.646 -0.0357  0.1001 -0.4344
 2463SOL    HW118851   1.064   4.612  17.687  0.7827 -1.2107 -1.1069
 2463SOL    HW218852   1.158   4.715   0.025  1.5774  0.9092 -1.5292
 2464SOL     OW18853   4.567   3.115  16.022  0.8659  0.1151  0.3312
 2464SOL    HW118854   4.531   3.203  16.013  0.3368  0.2087  3.1241
 2464SOL    HW218855   4.495   3.054  16.006  0.9219  0.3829 -0.9450
 2465SOL     OW18856   0.735   3.680   2.284 -0.2107  0.2871 -0.9837
 2465SOL    HW118857   0.745   3.774   2.296 -0.9755  0.2284  0.1074
 2465SOL    HW218858   0.799   3.658   2.216 -0.0412  0.5285 -0.8976
 2466SOL     OW18859   3.141   0.654   4.122  0.2692  0.2675 -0.1774
 2466SOL    HW118860   3.061   0.652   4.174  1.1081  0.5314  1.1490
 2466SOL    HW218861   3.158   0.560   4.109 -1.1813  0.2489 -1.9109
 2467SOL     OW18862   4.085   0.572   2.999  0.0325  0.0967 -0.4151
 2467SOL    HW118863   4.139   0.494   2.985 -0.2620  0.1766 -1.9836
 2467SOL    HW218864   4.138   0.642   2.962 -0.2272  0.4269 -0.1629
 2468SOL     OW18865   3.971   2.374   7.987 -0.2678  0.6300  0.2812
 2468SOL    HW118866   3.918   2.449   8.010 -2.1308 -0.9766  1.1991
 2468SOL    HW218867   3.917   2.322   7.928 -2.3755  2.8041  0.3279
 2469SOL     OW18868   0.859   3.197   6.865  0.0368 -0.1575  0.2307
 2469SOL    HW118869   0.828   3.224   6.952  0.1204  1.2424 -0.1751
 2469SOL    HW218870   0.774   3.185   6.823 -0.1755  0.7764  0.3849
 2470SOL     OW18871   3.888   0.052   0.226  0.4109  0.4606 -0.7863
 2470SOL    HW118872   3.823   4.719   0.268  0.2812  1.2940  0.1631
 2470SOL    HW218873   3.847   0.138   0.217  1.6797  0.9905 -1.5227
 2471SOL     OW18874   1.060   2.024  12.594 -0.2233  0.3286 -0.0359
 2471SOL    HW118875   1.107   1.946  12.623  2.2153  1.0358 -2.0246
 2471SOL    HW218876   0.979   2.016  12.644 -1.0435  0.0612 -1.4108
 2472SOL     OW18877   4.147   1.189   4.860 -0.1854 -0.1267 -0.4343
 2472SOL    HW118878   4.157   1.248   4.785  1.3615  2.5498  1.9022
 2472SOL    HW218879   4.165   1.106   4.816 -0.6400 -0.3513 -0.2074
 2473SOL     OW18880   0.413   4.220   5.232  0.2500  0.2994  0.3535
 2473SOL    HW118881   0.497   4.254   5.264 -0.4238 -0.5419  3.0211
 2473SOL    HW218882   0.374   4.209   5.318  0.3422  1.9696  0.6128
 2474SOL     OW18883   1.602   0.520   4.693 -0.7931  0.1297 -0.1703
 2474SOL    HW118884   1.651   0.448   4.654 -0.3357  0.0824  0.4936
 2474SOL    HW218885   1.661   0.595   4.689  0.6841 -0.9735  0.8164
 2475SOL     OW18886   4.203   3.899   8.688 -0.4423  0.2620 -0.6562
 2475SOL    HW118887   4.273   3.958   8.717 -0.0864  0.5145 -2.0095
 2475SOL    HW218888   4.184   3.847   8.766 -0.6284  2.4797  0.7649
 2476SOL     OW18889   0.906   4.477  15.875  0.1804 -0.0148  0.5816
 2476SOL    HW118890   0.830   4.519  15.834  1.5527  0.3105 -1.5974
 2476SOL    HW218891   0.948   4.549  15.923  0.4626 -1.3862  2.4256
 2477SOL     OW18892   4.472   1.531  16.247 -0.0684 -0.0261  0.0482
 2477SOL    HW118893   4.427   1.446  16.249 -2.4167  1.1361 -3.7122
 2477SOL    HW218894   4.521   1.519  16.166  1.6242  1.8332  0.8047
 2478SOL     OW18895   1.806   1.680   8.085 -0.0180  0.0128  0.0704
 2478SOL    HW118896   1.760   1.757   8.118  0.3457 -0.2988  1.3354
 2478SOL    HW218897   1.804   1.610   8.151 -0.6969 -0.7419 -0.7565
 2479SOL     OW18898   3.662   0.262   3.616 -0.0291  0.0926  0.3591
 2479SOL    HW118899   3.640   0.169   3.616  0.8311 -0.1098  0.2553
 2479SOL    HW218900   3.736   0.282   3.559  0.9225 -3.7187  0.2476
 2480SOL     OW18901   3.395   1.610   4.783  0.4171  0.9959 -0.0844
 2480SOL    HW118902   3.341   1.676   4.740 -0.2923  0.5263  0.0961
 2480SOL    HW218903   3.449   1.574   4.712  0.4881  0.0940  0.4253
 2481SOL     OW18904   2.774   3.541   7.776 -0.7501 -0.2568  0.0409
 2481SOL    HW118905   2.849   3.592   7.747 -0.2663 -0.1103  1.5274
 2481SOL    HW218906   2.814   3.456   7.796 -1.6731 -0.7509 -0.2317
 2482SOL     OW18907   0.743   3.086   9.508 -0.3585  0.2422  0.7314
 2482SOL    HW118908   0.709   3.073   9.420 -0.6838  1.7587  0.6241
 2482SOL    HW218909   0.817   3.029   9.488 -0.1820  0.6137  0.3153
 2483SOL     OW18910   1.653   1.102   8.513 -0.6377  0.2276 -0.3330
 2483SOL    HW118911   1.583   1.157   8.479  0.5249  1.7788 -0.2135
 2483SOL    HW218912   1.628   1.091   8.604  1.1527 -2.5582 -0.1525
 2484SOL     OW18913   1.242   2.800  14.976  0.3362  0.0657  0.0851
 2484SOL    HW118914   1.246   2.845  15.060 -0.8256  0.1770  0.0841
 2484SOL    HW218915   1.164   2.843  14.941  1.1378  0.2190 -1.4979
 2485SOL     OW18916   1.499   1.811  13.385  0.4606  0.3361  0.5544
 2485SOL    HW118917   1.566   1.809  13.316 -1.3751 -1.0294 -1.1903
 2485SOL    HW218918   1.544   1.865  13.450  1.8438 -0.1521  0.0082
 2486SOL     OW18919   1.830   0.385   9.524 -0.2651  0.7072  0.3020
 2486SOL    HW118920   1.883   0.305   9.526 -3.0381 -1.1561 -1.2948
 2486SOL    HW218921   1.899   0.442   9.556 -0.4115  0.9804  0.1290
 2487SOL     OW18922   3.829   1.180  13.704 -0.0864  0.0215  0.2980
 2487SOL    HW118923   3.736   1.162  13.713 -0.2137  0.6219  0.1210
 2487SOL    HW218924   3.856   1.094  13.738  0.1689  0.0903  0.2753
 2488SOL     OW18925   1.018   3.918   4.218 -0.3499 -0.0963  0.4645
 2488SOL    HW118926   1.049   4.000   4.180  0.7414 -1.5355 -1.7986
 2488SOL    HW218927   0.982   3.958   4.296  1.4580  0.3863  1.0533
 2489SOL     OW18928   2.841   2.594   9.605 -0.2168 -0.5849 -0.2034
 2489SOL    HW118929   2.888   2.662   9.652  0.8275 -1.9406  0.7364
 2489SOL    HW218930   2.845   2.611   9.511 -1.4866  1.9770  0.2072
 2490SOL     OW18931   4.686   3.977   4.750 -0.0195  0.2374  0.0715
 2490SOL    HW118932   4.622   3.925   4.701 -0.9272  1.9807 -0.6137
 2490SOL    HW218933   0.022   3.908   4.777  1.1910  1.8181  1.3647
 2491SOL     OW18934   3.883   4.529   3.113  0.1831  1.0149 -0.2312
 2491SOL    HW118935   3.942   4.466   3.070 -1.1685 -0.8385  0.6114
 2491SOL    HW218936   3.846   4.584   3.045 -0.1825 -0.0373 -0.8940
 2492SOL     OW18937   1.431   4.489   5.684 -0.0971 -0.0343  0.1568
 2492SOL    HW118938   1.518   4.525   5.667 -0.0429 -0.7070 -1.0187
 2492SOL    HW218939   1.392   4.481   5.597 -0.7748  0.7371  0.3882
 2493SOL     OW18940   4.714   4.623   3.018  0.1584  0.2490  0.5078
 2493SOL    HW118941   0.059   4.567   2.984 -0.3318 -0.4946  0.7346
 2493SOL    HW218942   4.675   4.558   3.076  1.2976 -0.9099 -0.0222
 2494SOL     OW18943   1.119   1.984   9.480  0.0307  0.9938  0.2331
 2494SOL    HW118944   1.134   1.971   9.574  1.3787  0.4494 -0.0583
 2494SOL    HW218945   1.167   2.066   9.470 -0.8403  1.3368 -1.0982
 2495SOL     OW18946   1.719   2.710  16.276  0.3670 -0.4107  0.2122
 2495SOL    HW118947   1.725   2.731  16.369 -1.6779  0.5635  0.1244
 2495SOL    HW218948   1.810   2.728  16.252 -0.3364 -1.1417 -2.9890
 2496SOL     OW18949   0.414   1.846   5.454  0.1921  0.7914  0.1310
 2496SOL    HW118950   0.418   1.798   5.536 -0.5267  0.8312  0.1890
 2496SOL    HW218951   0.503   1.879   5.440  0.0579  1.3229  0.5238
 2497SOL     OW18952   3.435   0.876   9.115 -0.2738  0.3811  0.6699
 2497SOL    HW118953   3.483   0.944   9.067  0.8896  0.1448  1.5149
 2497SOL    HW218954   3.385   0.930   9.177  0.6895  3.1011 -0.9354
 2498SOL     OW18955   3.753   0.098   9.101 -0.1369 -0.9293 -0.8174
 2498SOL    HW118956   3.718   0.186   9.118 -0.7979 -1.5255  0.8373
 2498SOL    HW218957   3.705   0.091   9.019 -0.4885 -0.5143 -0.6479
 2499SOL     OW18958   2.534   1.329  16.612 -0.1941  0.1688  0.0670
 2499SOL    HW118959   2.569   1.250  16.653  1.6609  0.2836 -1.3006
 2499SOL    HW218960   2.534   1.391  16.685  2.9044 -0.2673  0.4291
 2500SOL     OW18961   2.031   4.049   0.596  0.3971  0.2541 -0.0023
 2500SOL    HW118962   2.016   4.016   0.684 -1.3179 -0.4627 -0.5503
 2500SOL    HW218963   2.113   4.097   0.599  0.1828  0.6784 -1.0290
 2501SOL     OW18964   3.562   3.587   9.354 -0.2357  0.3140 -0.0422
 2501SOL    HW118965   3.539   3.672   9.316  0.7458  1.0845  1.1069
 2501SOL    HW218966   3.478   3.572   9.397  0.6575 -1.7556  0.9901
 2502SOL     OW18967   3.869   1.777   4.631  0.1052  0.2432  0.1292
 2502SOL    HW118968   3.916   1.840   4.685 -0.7423 -0.4066  1.6352
 2502SOL    HW218969   3.858   1.826   4.550 -0.5376 -1.9183 -1.0918
 2503SOL     OW18970   0.144   1.495   7.321 -0.1743  0.1999  0.1790
 2503SOL    HW118971   0.080   1.468   7.255  0.3336  1.1018 -0.6824
 2503SOL    HW218972   0.219   1.442   7.293  0.2434  0.1424  1.3986
 2504SOL     OW18973   0.116   3.129  13.862 -0.0792  0.0365  0.0467
 2504SOL    HW118974   0.102   3.054  13.920 -0.9301  0.5848  0.5405
 2504SOL    HW218975   0.085   3.202  13.915  1.4550  2.2210 -2.0367
 2505SOL     OW18976   1.216   1.721   7.797 -0.1403  0.3622  0.2212
 2505SOL    HW118977   1.275   1.766   7.736  0.5721  2.4933  2.4674
 2505SOL    HW218978   1.250   1.632   7.789  2.8327  1.3370  1.7682
 2506SOL     OW18979   3.942   0.109   3.222 -0.1118 -0.4268 -0.6860
 2506SOL    HW118980   3.917   0.191   3.179 -0.4273 -0.5478 -0.7316
 2506SOL    HW218981   3.998   0.069   3.155  0.0847 -0.5385 -0.4537
 2507SOL     OW18982   4.719   4.003   6.260 -0.5588  0.6299 -0.5292
 2507SOL    HW118983   0.030   4.015   6.348  0.4671 -3.5966 -0.3950
 2507SOL    HW218984   0.065   3.992   6.197 -0.9008 -0.0951 -0.7822
 2508SOL     OW18985   0.599   4.623   9.274  0.2737  0.1487  0.3413
 2508SOL    HW118986   0.584   4.709   9.235 -2.5867 -0.5650 -0.1299
 2508SOL    HW218987   0.574   4.562   9.205 -0.4032 -0.1861  0.8833
 2509SOL     OW18988   4.151   4.438   9.229  0.1733  0.5702  0.0261
 2509SOL    HW118989   4.069   4.481   9.255  0.1019  0.6110 -0.2670
 2509SOL    HW218990   4.137   4.372   9.162  1.5234  0.1376  0.1730
 2510SOL     OW18991   2.400   0.110   6.362 -0.0203  0.4204 -0.0528
 2510SOL    HW118992   2.446   0.162   6.296 -0.0890  2.3908  1.4535
 2510SOL    HW218993   2.469   0.052   6.395 -1.9085 -1.6075  0.3260
 2511SOL     OW18994   4.621   1.946   0.500  0.4441 -0.6544 -0.6198
 2511SOL    HW118995   4.696   1.937   0.442  1.8249  0.4269  0.9853
 2511SOL    HW218996   4.560   2.006   0.456  0.9916  1.1794  1.1156
 2512SOL     OW18997   0.546   1.975   7.449  0.0583  0.2119 -0.3571
 2512SOL    HW118998   0.453   1.974   7.426 -0.0278  0.9044 -0.0536
 2512SOL    HW218999   0.538   1.983   7.544  3.5644  3.4457 -0.3326
 2513SOL     OW19000   0.297   2.802   9.131 -0.1787  0.6974  0.2652
 2513SOL    HW119001   0.318   2.894   9.114  0.5786  1.0462  3.0766
 2513SOL    HW219002   0.361   2.785   9.200  1.0611  1.5533 -0.6798
 2514SOL     OW19003   2.914   3.692   0.214 -0.7208 -0.1763 -0.2189
 2514SOL    HW119004   2.890   3.784   0.222  0.2566 -0.0130  0.9012
 2514SOL    HW219005   2.869   3.652   0.289  1.9242 -3.7147 -0.5296
 2515SOL     OW19006   0.076   0.258   1.236 -0.1882  0.4372  0.2323
 2515SOL    HW119007   0.163   0.291   1.213  0.5620 -1.0586  0.9345
 2515SOL    HW219008   0.044   0.226   1.152  0.5117  0.2462  0.0336
 2516SOL     OW19009   2.459   3.644   7.902 -0.5011  0.2434 -0.6008
 2516SOL    HW119010   2.429   3.564   7.859 -2.1658  1.4488 -1.6542
 2516SOL    HW219011   2.551   3.650   7.877 -0.8301  1.0183 -1.6043
 2517SOL     OW19012   2.492   2.391  13.718  0.1191 -0.0747 -0.6075
 2517SOL    HW119013   2.440   2.427  13.646 -2.8676  0.6234  1.8679
 2517SOL    HW219014   2.561   2.456  13.728 -1.1735  1.0162  1.2894
 2518SOL     OW19015   1.866   2.033   1.671 -0.3849 -0.5474 -0.5710
 2518SOL    HW119016   1.848   2.053   1.579 -3.0160  0.3689  0.1211
 2518SOL    HW219017   1.832   1.944   1.670  0.0635 -0.7446  0.9943
 2519SOL     OW19018   3.415   2.186   1.167  0.2037  0.1230 -0.3312
 2519SOL    HW119019   3.485   2.226   1.117  0.8098 -1.2456 -0.5901
 2519SOL    HW219020   3.442   2.094   1.158 -0.3910  0.2017 -3.1973
 2520SOL     OW19021   4.112   4.326   3.003 -0.0035  0.2886 -0.2396
 2520SOL    HW119022   4.130   4.312   2.910  0.2753 -0.6861 -0.0334
 2520SOL    HW219023   4.190   4.377   3.025  0.2767  0.0547 -0.6976
 2521SOL     OW19024   2.056   1.022  16.322 -0.4582 -0.0744 -0.1930
 2521SOL    HW119025   2.042   0.990  16.411  0.4794  0.7630  0.2595
 2521SOL    HW219026   2.016   1.109  16.322 -2.0306 -0.7972 -0.4746
 2522SOL     OW19027   4.406   3.153   5.467  0.0322  0.0086  0.1033
 2522SOL    HW119028   4.468   3.084   5.491  1.4670  1.6953  1.2211
 2522SOL    HW219029   4.421   3.180   5.377  1.2145 -1.3820 -0.1139
 2523SOL     OW19030   3.540   4.296   8.828  0.1529 -0.1383 -0.2467
 2523SOL    HW119031   3.471   4.233   8.851 -1.5428  1.7952 -0.0658
 2523SOL    HW219032   3.601   4.235   8.786 -2.4732 -2.2127 -1.0645
 2524SOL     OW19033   1.234   0.828  13.488  0.3625  0.2321  0.3686
 2524SOL    HW119034   1.289   0.862  13.416 -0.4814  0.1803 -0.2983
 2524SOL    HW219035   1.270   0.742  13.506  1.5498  0.6064 -0.1520
 2525SOL     OW19036   1.392   0.802   1.374 -0.7026  0.5671  0.2782
 2525SOL    HW119037   1.461   0.830   1.314  1.8754  0.8530  3.3339
 2525SOL    HW219038   1.399   0.878   1.432 -1.4785  0.5310  0.4230
 2526SOL     OW19039   2.055   0.790  16.580 -0.3107 -0.4035 -0.3969
 2526SOL    HW119040   1.961   0.770  16.576 -0.0610 -1.2761 -1.8950
 2526SOL    HW219041   2.073   0.725  16.512 -1.5105 -1.4577  0.2930
 2527SOL     OW19042   0.957   4.724  11.271 -0.2198 -0.7265 -0.0749
 2527SOL    HW119043   1.017   4.650  11.263  1.7861  1.1883 -2.3969
 2527SOL    HW219044   0.943   0.038  11.185  1.0917 -3.2741 -1.4406
 2528SOL     OW19045   2.402   3.660   9.239 -0.2354 -0.0436  0.3226
 2528SOL    HW119046   2.490   3.630   9.216 -0.2175  1.0388 -1.0427
 2528SOL    HW219047   2.366   3.572   9.253  1.2823 -0.3244  2.4524
 2529SOL     OW19048   4.173   2.350   8.150  0.4171 -0.3964 -0.4131
 2529SOL    HW119049   4.140   2.408   8.220  0.8918 -1.6995  0.8989
 2529SOL    HW219050   4.092   2.347   8.099  0.4256  0.8405 -0.5041
 2530SOL     OW19051   1.449   3.200  16.714 -0.1682  0.7297 -1.0164
 2530SOL    HW119052   1.448   3.123  16.770 -2.9674 -0.9258 -3.3374
 2530SOL    HW219053   1.423   3.273  16.769 -1.7575  0.1325 -0.9759
 2531SOL     OW19054   0.122   3.660   1.523 -0.2245  0.2661 -0.6890
 2531SOL    HW119055   0.137   3.614   1.605 -0.8072 -0.3984 -0.9609
 2531SOL    HW219056   0.125   3.587   1.462  0.3899 -3.5080  3.8695
 2532SOL     OW19057   2.003   2.270   3.972  0.0658  0.7449 -0.7746
 2532SOL    HW119058   2.025   2.340   3.910 -0.4097 -0.2261 -2.0596
 2532SOL    HW219059   2.055   2.195   3.946 -0.8083 -0.1839  0.1722
 2533SOL     OW19060   1.117   0.264   6.568 -0.2719 -1.0855 -0.8581
 2533SOL    HW119061   1.086   0.174   6.573 -0.5845 -0.9309  0.0695
 2533SOL    HW219062   1.196   0.262   6.514  0.7023  0.2867  0.4994
 2534SOL     OW19063   3.775   1.305   2.234  0.4863 -0.1944  0.0150
 2534SOL    HW119064   3.796   1.286   2.142  0.4849  0.8824 -0.2122
 2534SOL    HW219065   3.732   1.389   2.219  0.3058 -0.2757  0.0778
 2535SOL     OW19066   0.530   2.507   8.433  0.1773 -0.5945  0.0121
 2535SOL    HW119067   0.548   2.413   8.431 -0.2018 -0.6761  0.3906
 2535SOL    HW219068   0.463   2.523   8.367  0.4642 -0.3405 -0.2156
 2536SOL     OW19069   4.155   2.971   5.542 -0.3292 -0.5826  0.3917
 2536SOL    HW119070   4.156   2.991   5.636  0.7937  0.0471  0.2537
 2536SOL    HW219071   4.209   3.039   5.501 -1.0408  1.5900  3.0691
 2537SOL     OW19072   0.606   2.474   0.348  0.1154  0.0463 -0.2863
 2537SOL    HW119073   0.676   2.458   0.411 -1.2927  1.6470  1.6384
 2537SOL    HW219074   0.645   2.534   0.284  0.4226  0.2365  0.0799
 2538SOL     OW19075   1.804   1.903   5.680  0.0703 -0.3282 -0.3617
 2538SOL    HW119076   1.803   1.971   5.614  1.0573 -2.2907 -2.4077
 2538SOL    HW219077   1.863   1.947   5.742  0.6225 -2.5669  0.7316
 2539SOL     OW19078   0.031   2.684  16.824 -0.3294 -0.3051  0.1000
 2539SOL    HW119079   0.040   2.745  16.751 -2.1686  3.1910  2.7974
 2539SOL    HW219080   4.686   2.725  16.875 -0.3151  1.0471 -0.9977
 2540SOL     OW19081   3.220   0.973  11.114  0.3185 -0.2946  0.3240
 2540SOL    HW119082   3.167   0.943  11.188  1.2039 -1.4001  0.5129
 2540SOL    HW219083   3.184   0.920  11.043  1.5197 -0.1961 -0.3745
 2541SOL     OW19084   3.246   1.409   0.314  0.2080 -0.1748  0.3302
 2541SOL    HW119085   3.162   1.366   0.298  0.3948  0.4579 -2.3637
 2541SOL    HW219086   3.225   1.490   0.267 -4.1998 -0.7320  1.3645
 2542SOL     OW19087   1.332   4.346   6.089 -0.1100 -0.2952  0.4077
 2542SOL    HW119088   1.302   4.432   6.119  0.0251 -0.2268  0.3491
 2542SOL    HW219089   1.252   4.295   6.100  0.5746 -1.6176 -0.7364
 2543SOL     OW19090   4.621   2.848   1.346  0.2518  0.6875  0.0161
 2543SOL    HW119091   4.670   2.922   1.311  1.4454  0.1874  0.6567
 2543SOL    HW219092   4.692   2.784   1.345 -0.0598  0.3736 -1.9388
 2544SOL     OW19093   3.272   1.243  16.498  0.1673 -0.0445  0.2697
 2544SOL    HW119094   3.299   1.334  16.484  1.1239 -0.3874 -0.1042
 2544SOL    HW219095   3.191   1.255  16.548 -0.7918  0.4862 -1.4276
 2545SOL     OW19096   3.650   3.077  10.582 -0.2344 -0.0186  0.2946
 2545SOL    HW119097   3.632   3.073  10.488  1.6781 -1.2900 -0.0200
 2545SOL    HW219098   3.563   3.101  10.614 -0.5382 -3.5570  2.0929
 2546SOL     OW19099   4.721   4.096  15.935 -0.0018  0.7445  0.1120
 2546SOL    HW119100   0.071   4.039  15.916 -0.8651 -0.8157  1.4146
 2546SOL    HW219101   4.666   4.069  15.862 -0.1794 -1.2825  0.9877
 2547SOL     OW19102   0.231   3.022  16.299  0.3500 -0.4649  0.1778
 2547SOL    HW119103   0.258   2.931  16.286 -2.3719 -1.1760 -0.4418
 2547SOL    HW219104   0.283   3.071  16.235  1.4630  0.0805  1.4966
 2548SOL     OW19105   2.480   3.216  12.371  0.1621 -0.7155  0.1645
 2548SOL    HW119106   2.449   3.155  12.438  0.6867 -2.2098 -0.9596
 2548SOL    HW219107   2.528   3.286  12.417 -0.1287 -1.7768  2.0589
 2549SOL     OW19108   4.443   1.110   0.038 -0.2689 -0.1110 -0.2907
 2549SOL    HW119109   4.446   1.204   0.058 -2.8417 -0.1027  0.1492
 2549SOL    HW219110   4.353   1.092   0.010  0.1127 -1.2143 -0.8237
 2550SOL     OW19111   1.607   1.806  15.188 -0.4333  0.2747  0.1926
 2550SOL    HW119112   1.685   1.852  15.222 -0.9938  1.5642 -0.2634
 2550SOL    HW219113   1.644   1.768  15.109 -0.1431 -0.0800  0.4975
 2551SOL     OW19114   0.362   2.010   6.574  0.3187  0.1421  0.2455
 2551SOL    HW119115   0.350   1.917   6.595 -0.2990 -0.7641 -3.9612
 2551SOL    HW219116   0.418   2.039   6.646 -0.6085 -0.2898  1.1312
 2552SOL     OW19117   1.741   0.891   8.340  0.0220  0.3790  0.6641
 2552SOL    HW119118   1.698   0.955   8.397  1.5094  0.4285  1.7230
 2552SOL    HW219119   1.761   0.818   8.398 -1.7191 -1.5447 -1.1708
 2553SOL     OW19120   1.576   0.763   9.273  0.2873  0.1611 -0.0803
 2553SOL    HW119121   1.505   0.823   9.298  0.9548  1.1136 -0.4604
 2553SOL    HW219122   1.545   0.714   9.197  0.7096  0.4949 -0.4690
 2554SOL     OW19123   1.618   1.882   4.571  0.1931  0.3526  0.2681
 2554SOL    HW119124   1.528   1.864   4.544  0.2078 -0.8148  1.0120
 2554SOL    HW219125   1.591   1.872   4.662  0.4921  2.6120  0.6202
 2555SOL     OW19126   0.289   3.821   3.460 -0.3283  0.7701  0.4880
 2555SOL    HW119127   0.260   3.821   3.551  0.5197  0.7461  0.7573
 2555SOL    HW219128   0.236   3.752   3.421  1.6267 -0.1688 -0.5393
 2556SOL     OW19129   4.323   2.285   7.126  0.5359 -0.2200  0.2795
 2556SOL    HW119130   4.382   2.293   7.202 -2.7311  3.5440  2.4029
 2556SOL    HW219131   4.268   2.362   7.131  1.7875  0.7395 -0.8138
 2557SOL     OW19132   3.818   1.026   7.021 -0.1162  0.5617 -0.0318
 2557SOL    HW119133   3.747   0.998   7.080  0.4938  0.6612  0.7597
 2557SOL    HW219134   3.879   1.083   7.069 -0.2056 -0.7452  1.6363
 2558SOL     OW19135   1.090   1.329   8.368  0.1760 -0.2321 -0.0134
 2558SOL    HW119136   1.027   1.309   8.437 -1.3488 -1.6646 -1.8377
 2558SOL    HW219137   1.121   1.412   8.405  0.6895 -0.6448  0.4721
 2559SOL     OW19138   3.699   0.008   7.101  0.0539 -0.2918  0.1532
 2559SOL    HW119139   3.711   4.670   7.029 -2.1592  0.1941 -0.6571
 2559SOL    HW219140   3.626   4.695   7.150 -0.8736 -0.0283 -1.0114
 2560SOL     OW19141   2.993   0.544   2.648  0.1506  0.2296  0.1590
 2560SOL    HW119142   3.004   0.473   2.585 -3.4023 -0.3465  0.1499
 2560SOL    HW219143   2.919   0.503   2.694  0.1863 -0.3293 -0.2866
 2561SOL     OW19144   0.308   2.782  11.948  0.1915  0.1628  0.0785
 2561SOL    HW119145   0.246   2.853  11.929  1.6133  1.5323  0.5127
 2561SOL    HW219146   0.282   2.712  11.888 -1.2933  1.8354 -1.2321
 2562SOL     OW19147   3.935   3.253   3.584 -0.0627  0.1291  0.0493
 2562SOL    HW119148   4.022   3.274   3.551  0.6207 -2.1926  0.3262
 2562SOL    HW219149   3.918   3.337   3.627  0.5973 -0.1799  0.9236
 2563SOL     OW19150   1.338   4.659   1.532 -0.2791  0.1412 -0.0763
 2563SOL    HW119151   1.310   4.632   1.619 -1.4591  1.0113 -0.1878
 2563SOL    HW219152   1.254   4.683   1.494 -1.1890 -3.7661 -0.5583
 2564SOL     OW19153   2.441   2.792   9.250  0.1936 -0.6931 -0.3443
 2564SOL    HW119154   2.361   2.795   9.302  0.7850 -0.8877  0.5850
 2564SOL    HW219155   2.455   2.698   9.262  2.1501 -0.4573 -0.7287
 2565SOL     OW19156   4.085   4.302   4.672 -0.0765 -0.0554  0.1659
 2565SOL    HW119157   4.116   4.382   4.630 -2.7500  0.3310 -1.0624
 2565SOL    HW219158   4.146   4.306   4.746 -0.4023 -1.1188  0.4981
 2566SOL     OW19159   1.479   4.279   8.368  0.2319 -0.0783  0.0030
 2566SOL    HW119160   1.519   4.351   8.417  2.0109 -1.8575  1.1505
 2566SOL    HW219161   1.522   4.208   8.416  0.6466  0.0896 -0.1199
 2567SOL     OW19162   0.787   1.741   2.967  0.0120 -0.3620 -0.0638
 2567SOL    HW119163   0.811   1.753   3.059 -1.4121  2.2434 -0.0431
 2567SOL    HW219164   0.869   1.709   2.928  1.0173  0.6129  1.2640
 2568SOL     OW19165   4.004   0.097   4.830 -0.1157 -0.4611 -0.0609
 2568SOL    HW119166   4.091   0.136   4.817 -0.5922  0.4314 -0.5962
 2568SOL    HW219167   3.971   0.152   4.901 -0.2536  0.0420 -0.5115
 2569SOL     OW19168   4.721   3.015  13.109  0.1452  0.0902 -0.0311
 2569SOL    HW119169   4.688   3.035  13.196 -0.0087 -0.4953  0.0432
 2569SOL    HW219170   0.090   3.016  13.130 -0.4518  0.0680  2.5214
 2570SOL     OW19171   2.279   3.183  17.494 -0.0822  0.4508  0.1569
 2570SOL    HW119172   2.309   3.253  17.552  1.2728 -2.1749  2.6480
 2570SOL    HW219173   2.188   3.184  17.522 -0.6755 -2.1004 -1.6879
 2571SOL     OW19174   3.727   4.109  11.427 -0.8031  0.2805 -0.4832
 2571SOL    HW119175   3.770   4.131  11.345  1.5639 -0.5164  0.5470
 2571SOL    HW219176   3.650   4.059  11.399 -0.5630 -0.4528  0.1411
 2572SOL     OW19177   3.314   3.961   8.572  0.1007  0.3574  0.0135
 2572SOL    HW119178   3.241   3.996   8.522  0.1056 -0.0049 -0.2420
 2572SOL    HW219179   3.364   3.913   8.506 -2.0322 -2.3469  0.3960
 2573SOL     OW19180   1.851   0.455   3.778  0.0794 -0.1298  0.1445
 2573SOL    HW119181   1.877   0.475   3.868 -2.7695  2.6186  0.3493
 2573SOL    HW219182   1.838   0.539   3.735  0.1981 -0.7735 -1.1383
 2574SOL     OW19183   1.775   4.029   1.755 -0.7099 -0.1162  0.0571
 2574SOL    HW119184   1.820   3.946   1.771  2.1053  1.6267  1.1470
 2574SOL    HW219185   1.797   4.067   1.840  0.2734 -0.5871  0.0120
 2575SOL     OW19186   1.974   2.266   6.923 -0.5231  0.0267  0.4519
 2575SOL    HW119187   1.959   2.333   6.857  1.4971 -1.2382 -1.2901
 2575SOL    HW219188   2.029   2.207   6.871  2.2368  1.3564  1.8336
 2576SOL     OW19189   0.229   2.534  11.827  0.2353  0.2708  0.2303
 2576SOL    HW119190   0.163   2.477  11.865  1.1241 -0.6774  0.3505
 2576SOL    HW219191   0.186   2.571  11.749  1.6110  0.5836 -0.3895
 2577SOL     OW19192   3.355   0.716   8.905  0.2785 -0.1400  0.4150
 2577SOL    HW119193   3.395   0.770   8.973  1.2317 -0.9750  0.5058
 2577SOL    HW219194   3.303   0.660   8.962  1.0488 -0.0096  1.2421
 2578SOL     OW19195   3.554   2.495  11.237  0.2758 -0.4998  0.2833
 2578SOL    HW119196   3.545   2.506  11.143 -2.4348  2.3007  0.8672
 2578SOL    HW219197   3.465   2.512  11.267  0.2644 -1.8078  0.9975
 2579SOL     OW19198   3.738   1.617  16.402 -0.0059 -0.3787 -0.2646
 2579SOL    HW119199   3.694   1.565  16.334 -0.6725 -1.7657  1.2490
 2579SOL    HW219200   3.677   1.686  16.429 -0.2541 -0.6989 -0.0182
 2580SOL     OW19201   3.406   3.556   6.544 -0.1157  0.2170  0.1687
 2580SOL    HW119202   3.404   3.620   6.615  1.0983 -0.0966  0.4824
 2580SOL    HW219203   3.314   3.532   6.553 -0.3058  1.1754  0.7677
 2581SOL     OW19204   4.389   4.086   4.532 -0.3743  0.1345  0.5601
 2581SOL    HW119205   4.459   4.037   4.574 -1.0589 -1.6756 -0.3985
 2581SOL    HW219206   4.329   4.014   4.512 -0.4023 -0.0514  1.3228
 2582SOL     OW19207   0.439   0.039  14.587 -0.1553  0.1722  0.9221
 2582SOL    HW119208   0.414   0.004  14.672 -1.0959  0.1239  0.6287
 2582SOL    HW219209   0.347   0.045  14.562  0.2406 -0.1539 -0.6601
 2583SOL     OW19210   1.773   2.769   0.703  0.4473  0.0363  0.0264
 2583SOL    HW119211   1.721   2.815   0.637 -1.2172  0.0870  1.3576
 2583SOL    HW219212   1.709   2.749   0.772 -0.4817 -0.2313 -0.9098
 2584SOL     OW19213   1.350   0.601   4.774 -0.2014 -0.5745 -0.1401
 2584SOL    HW119214   1.359   0.591   4.869 -2.3283 -0.2818  0.0833
 2584SOL    HW219215   1.435   0.571   4.741  0.1589 -0.1973  0.4484
 2585SOL     OW19216   0.526   3.894   8.170 -0.1520 -0.7997 -0.1434
 2585SOL    HW119217   0.522   3.798   8.163 -3.1826 -0.6108 -1.0036
 2585SOL    HW219218   0.548   3.897   8.263 -0.2859  1.7233 -0.2073
 2586SOL     OW19219   0.436   3.644   2.054  0.4720 -0.5708  0.4919
 2586SOL    HW119220   0.389   3.575   2.008  0.2196  0.9704 -1.5490
 2586SOL    HW219221   0.523   3.613   2.027  0.5321  1.1533 -1.3001
 2587SOL     OW19222   2.951   2.271  17.106  0.1556 -0.9819 -0.4522
 2587SOL    HW119223   3.040   2.273  17.140 -0.1728 -0.8763  0.4001
 2587SOL    HW219224   2.933   2.177  17.103 -2.5197 -0.5986  2.4149
 2588SOL     OW19225   1.716   0.250   3.941 -0.1800  0.3777 -0.6682
 2588SOL    HW119226   1.729   0.326   3.883  0.2667  0.8477  0.0487
 2588SOL    HW219227   1.793   0.264   3.996  0.3599 -1.8146 -0.8981
 2589SOL     OW19228   1.425   3.776   5.997  0.4785 -0.1986  0.4230
 2589SOL    HW119229   1.362   3.776   5.925 -0.3867  0.4339  1.2019
 2589SOL    HW219230   1.505   3.771   5.943  0.7330  3.1488  0.5127
 2590SOL     OW19231   0.056   4.569   2.371  0.5528  0.4077  0.6995
 2590SOL    HW119232   0.127   4.565   2.434  0.0714 -1.0552  1.1394
 2590SOL    HW219233   0.049   4.664   2.360 -3.8870  0.3184  2.6523
 2591SOL     OW19234   2.435   0.654   1.954 -0.1408 -0.3988 -0.1706
 2591SOL    HW119235   2.408   0.645   1.862 -2.0507  0.3104  0.3295
 2591SOL    HW219236   2.530   0.658   1.941 -0.1452 -0.3443 -0.1867
 2592SOL     OW19237   1.568   3.223   6.780  0.6090  0.0680  0.1836
 2592SOL    HW119238   1.602   3.309   6.806 -2.6718  0.8639  1.8490
 2592SOL    HW219239   1.493   3.208   6.838 -2.1677  3.5540 -2.4285
 2593SOL     OW19240   0.845   0.692   3.978 -0.3779  0.3095  0.1992
 2593SOL    HW119241   0.773   0.753   3.995 -0.3935  0.1912  0.5483
 2593SOL    HW219242   0.877   0.743   3.903 -2.6545  2.4636  0.6607
 2594SOL     OW19243   3.706   3.978   4.144  0.0785  1.0673  0.5552
 2594SOL    HW119244   3.631   3.935   4.186  0.1658  1.4155  1.0715
 2594SOL    HW219245   3.770   3.908   4.153 -0.0264  1.0374  1.1008
 2595SOL     OW19246   0.327   3.354  14.821 -0.0173 -0.1782 -0.0453
 2595SOL    HW119247   0.303   3.397  14.739 -1.7337  1.0886  1.1374
 2595SOL    HW219248   0.307   3.423  14.883 -1.1763 -1.2952  0.8284
 2596SOL     OW19249   1.905   4.692   3.205  0.2553  0.2967  0.1336
 2596SOL    HW119250   1.968   4.679   3.135  0.2021 -0.3364  0.2017
 2596SOL    HW219251   1.958   0.022   3.262  0.7627  0.1910 -0.2375
 2597SOL     OW19252   2.609   0.888   1.324 -0.4624 -0.5332 -0.1278
 2597SOL    HW119253   2.649   0.901   1.238 -0.1775  1.9252  0.3858
 2597SOL    HW219254   2.686   0.861   1.374 -0.5724 -0.9821 -0.2000
 2598SOL     OW19255   2.144   1.163  15.667  0.7862 -0.1581  0.2098
 2598SOL    HW119256   2.144   1.074  15.633  1.4182 -0.3147  0.6283
 2598SOL    HW219257   2.238   1.173  15.679  0.7993  0.6760 -0.5489
 2599SOL     OW19258   2.514   1.632   5.337 -0.0633  0.2802  0.3676
 2599SOL    HW119259   2.606   1.635   5.313 -0.0435  1.2417  0.5816
 2599SOL    HW219260   2.472   1.648   5.253  1.3995  1.8727 -0.0425
 2600SOL     OW19261   1.841   0.730   8.547  0.3568  0.3113 -0.0054
 2600SOL    HW119262   1.834   0.733   8.643  0.1311 -0.7526  0.0083
 2600SOL    HW219263   1.853   0.635   8.541  0.8486  0.4551 -1.3001
 2601SOL     OW19264   0.694   2.502   7.136  0.0177 -0.0615  0.1681
 2601SOL    HW119265   0.777   2.488   7.180 -0.4455 -1.7279  0.5102
 2601SOL    HW219266   0.689   2.596   7.154 -1.5968 -0.4418  1.6471
 2602SOL     OW19267   3.395   3.120   4.025 -0.0057  0.5262 -0.2117
 2602SOL    HW119268   3.308   3.123   3.987  0.0246 -0.1038 -0.3342
 2602SOL    HW219269   3.446   3.140   3.947 -1.7667  1.0583 -1.2147
 2603SOL     OW19270   2.067   0.420  13.812  0.1834 -0.7371  0.0592
 2603SOL    HW119271   2.149   0.450  13.773 -0.6319  0.4901 -0.6891
 2603SOL    HW219272   2.016   0.500  13.804 -0.3236 -0.9562  1.1649
 2604SOL     OW19273   4.115   0.430  11.479  0.1511 -0.5316  0.0671
 2604SOL    HW119274   4.172   0.507  11.482  1.4008 -1.4701  0.6374
 2604SOL    HW219275   4.072   0.440  11.564  2.3280 -1.2192  1.2624
 2605SOL     OW19276   0.638   1.554   7.665  0.5292  0.5338  1.1566
 2605SOL    HW119277   0.662   1.629   7.611  1.2947  0.6277  1.6228
 2605SOL    HW219278   0.562   1.518   7.619 -0.1153  0.6088  2.1418
 2606SOL     OW19279   4.281   3.036   6.308  0.6406 -0.3642  0.1010
 2606SOL    HW119280   4.326   2.955   6.330  0.9332 -0.4505 -0.8066
 2606SOL    HW219281   4.305   3.058   6.217 -2.2181  0.4709 -0.4446
 2607SOL     OW19282   2.491   1.821   9.677  0.1899 -0.0511  0.3566
 2607SOL    HW119283   2.586   1.806   9.672  0.2022 -0.7395  2.5813
 2607SOL    HW219284   2.481   1.911   9.707  1.6225  0.5992 -1.0964
 2608SOL     OW19285   4.100   1.543   4.071 -0.0768 -0.1322 -0.8013
 2608SOL    HW119286   4.014   1.581   4.053 -0.0884  0.4740  0.5448
 2608SOL    HW219287   4.113   1.584   4.156 -0.0730 -0.4465 -0.6533
 2609SOL     OW19288   1.966   1.002   2.951  0.2771 -0.3784 -0.3569
 2609SOL    HW119289   1.893   1.046   2.995  0.0664 -1.0281 -0.0580
 2609SOL    HW219290   1.933   1.007   2.861 -1.8387  3.6695  0.6442
 2610SOL     OW19291   3.623   0.881   5.116  0.3799  0.1112 -0.9770
 2610SOL    HW119292   3.585   0.922   5.038  0.3318  2.5006  0.2980
 2610SOL    HW219293   3.716   0.899   5.103  0.4203  1.4257  1.1470
 2611SOL     OW19294   1.330   1.617  12.788  0.4537 -0.2690 -0.1573
 2611SOL    HW119295   1.330   1.539  12.733  0.9322 -0.1071 -0.3856
 2611SOL    HW219296   1.415   1.621  12.832  0.3300  0.7195  0.0004
 2612SOL     OW19297   3.935   0.089   1.531 -0.2992  0.6752  0.0017
 2612SOL    HW119298   3.877   0.013   1.544  1.1173 -0.1169  1.5973
 2612SOL    HW219299   3.935   0.104   1.436  1.1282  3.0819  0.3921
 2613SOL     OW19300   4.697   3.002  10.493 -0.5689 -0.3117 -0.1861
 2613SOL    HW119301   0.067   3.011  10.486 -0.5454 -0.7197 -0.4213
 2613SOL    HW219302   4.670   3.056  10.419  0.8966 -1.8110 -1.8070
 2614SOL     OW19303   1.933   4.378  12.499 -0.0257 -0.1477 -0.1551
 2614SOL    HW119304   1.935   4.387  12.403  0.9149 -0.0663 -0.1279
 2614SOL    HW219305   2.022   4.402  12.524 -0.9459  0.8902  2.0845
 2615SOL     OW19306   4.236   1.540   6.932 -0.3657  0.3310 -0.0522
 2615SOL    HW119307   4.286   1.486   6.870  0.4839  2.3551 -1.1107
 2615SOL    HW219308   4.149   1.499   6.930 -0.5877  0.8032  0.0423
 2616SOL     OW19309   2.582   1.451  16.843  0.3632  0.1989  0.0733
 2616SOL    HW119310   2.579   1.440  16.938 -1.6079 -0.0225 -0.0177
 2616SOL    HW219311   2.570   1.546  16.836  0.3856  0.3820  2.5724
 2617SOL     OW19312   3.272   3.346   2.765 -0.5497  0.1521 -0.7316
 2617SOL    HW119313   3.319   3.278   2.812  0.5209  1.2542 -0.2001
 2617SOL    HW219314   3.238   3.290   2.695 -1.8423  0.2063 -0.1506
 2618SOL     OW19315   0.620   1.496   9.084  0.0763 -0.4810  0.4047
 2618SOL    HW119316   0.666   1.422   9.044 -0.2666 -0.7000  0.4148
 2618SOL    HW219317   0.541   1.478   9.033 -1.2066  1.0077  1.8702
 2619SOL     OW19318   4.685   2.790   6.918  0.2196 -0.6840 -0.0459
 2619SOL    HW119319   4.710   2.698   6.917 -0.2030 -0.8295  2.3105
 2619SOL    HW219320   4.681   2.807   7.012  1.6838  3.3789 -0.7224
 2620SOL     OW19321   3.692   4.221   8.431 -0.1422 -0.4944  0.0049
 2620SOL    HW119322   3.603   4.199   8.457 -0.8096  0.5811 -1.4376
 2620SOL    HW219323   3.732   4.204   8.517 -0.6565 -1.1288  0.1206
 2621SOL     OW19324   2.020   3.786   5.356 -0.4317 -0.1393  0.1421
 2621SOL    HW119325   1.986   3.839   5.284  1.0925  0.0469 -0.4512
 2621SOL    HW219326   2.061   3.717   5.305 -2.0823 -2.3642  1.8264
 2622SOL     OW19327   2.262   1.421   7.593 -0.4709  0.0217  0.2254
 2622SOL    HW119328   2.183   1.374   7.567 -0.2454 -0.7079  0.8540
 2622SOL    HW219329   2.251   1.423   7.688 -1.6752 -0.8667  0.1139
 2623SOL     OW19330   0.854   3.162  12.985 -0.6881  0.5086 -0.3606
 2623SOL    HW119331   0.844   3.245  12.938  0.5769  0.7099 -0.2655
 2623SOL    HW219332   0.807   3.105  12.925 -2.6687  1.3898  0.3549
 2624SOL     OW19333   4.591   0.142   5.942  0.2335 -0.0407 -0.4198
 2624SOL    HW119334   4.560   0.076   5.880 -0.3480 -1.8843  1.8155
 2624SOL    HW219335   4.552   0.223   5.908  0.9721 -0.8864 -3.2230
 2625SOL     OW19336   3.388   1.501  16.529  0.1147 -0.2416  0.0214
 2625SOL    HW119337   3.426   1.578  16.571 -1.5646 -0.5822  2.1651
 2625SOL    HW219338   3.302   1.535  16.505 -1.3920 -2.1175  2.7689
 2626SOL     OW19339   0.878   2.746   6.215  0.0045 -0.1139 -0.3563
 2626SOL    HW119340   0.928   2.771   6.137 -1.1618  0.0933 -1.0254
 2626SOL    HW219341   0.937   2.784   6.280  0.0520 -0.3989 -0.2314
 2627SOL     OW19342   2.368   2.373   0.806 -0.0155 -0.6388 -0.5231
 2627SOL    HW119343   2.443   2.386   0.865 -0.0217 -1.5707 -0.3099
 2627SOL    HW219344   2.408   2.334   0.729 -1.2026 -0.6578 -1.1208
 2628SOL     OW19345   0.877   3.327   7.634  0.0682 -0.2444 -0.4998
 2628SOL    HW119346   0.852   3.418   7.618 -1.2206 -0.6781 -0.9298
 2628SOL    HW219347   0.963   3.331   7.591  1.1341 -0.6936  1.5712
 2629SOL     OW19348   0.701   4.341   2.661 -0.6973  0.2049  0.5466
 2629SOL    HW119349   0.734   4.312   2.746 -0.0160 -0.5850  0.0102
 2629SOL    HW219350   0.756   4.304   2.592 -0.6743 -0.7039  1.0534
 2630SOL     OW19351   4.244   4.676  10.247  0.3215 -0.0593  0.2552
 2630SOL    HW119352   4.231   0.001  10.166 -3.1017  0.3575  1.0271
 2630SOL    HW219353   4.315   4.621  10.215 -0.3302  0.4020 -1.9923
 2631SOL     OW19354   3.450   4.509  12.269 -0.3121 -0.1361 -0.0905
 2631SOL    HW119355   3.474   4.419  12.246 -1.8725 -0.2046 -1.3857
 2631SOL    HW219356   3.451   4.508  12.365  3.7505 -0.2024 -0.1340
 2632SOL     OW19357   0.549   4.073  10.589 -0.2337 -0.5950  0.9993
 2632SOL    HW119358   0.487   4.045  10.522  0.2967  0.2785  0.1461
 2632SOL    HW219359   0.584   4.153  10.551 -1.2710 -0.1909  0.8839
 2633SOL     OW19360   1.763   4.620   7.431  0.0005  0.1066 -0.2793
 2633SOL    HW119361   1.831   4.569   7.476  2.3577  1.1450 -2.6464
 2633SOL    HW219362   1.744   4.552   7.366 -0.4427  1.8282 -1.9352
 2634SOL     OW19363   1.295   2.382   3.728 -0.0073  0.0292  0.3097
 2634SOL    HW119364   1.219   2.331   3.700  0.5948  0.5728 -2.3615
 2634SOL    HW219365   1.279   2.404   3.820  0.2562 -0.8621  0.5626
 2635SOL     OW19366   2.070   2.551   5.496  0.2439 -0.2392 -0.1718
 2635SOL    HW119367   2.047   2.621   5.435 -1.0517 -1.7721 -1.4379
 2635SOL    HW219368   2.123   2.495   5.438  1.2433 -1.1076  1.5814
 2636SOL     OW19369   0.711   0.990   5.284 -0.8282 -0.1219  0.3427
 2636SOL    HW119370   0.629   0.954   5.250 -1.4506  1.9634 -0.3801
 2636SOL    HW219371   0.744   0.936   5.355  1.0401  1.1232  0.4119
 2637SOL     OW19372   4.494   4.136   5.581  0.0413  0.1093 -0.0245
 2637SOL    HW119373   4.524   4.045   5.585 -1.1321 -0.1736  2.1848
 2637SOL    HW219374   4.405   4.123   5.550 -0.3167 -1.1432  1.5322
 2638SOL     OW19375   0.907   3.451   1.991 -0.4882 -0.5541 -0.5292
 2638SOL    HW119376   0.824   3.424   2.032 -1.8844  2.1364 -1.5557
 2638SOL    HW219377   0.908   3.534   2.040 -0.7247 -0.4734 -0.6621
 2639SOL     OW19378   4.301   0.800   1.751 -0.1603 -0.9648 -0.8824
 2639SOL    HW119379   4.357   0.874   1.727  0.5054 -1.1762  0.0361
 2639SOL    HW219380   4.259   0.773   1.669  0.7905 -0.6221 -1.4848
 2640SOL     OW19381   4.325   0.138   2.020 -0.2903 -0.2073 -0.1347
 2640SOL    HW119382   4.334   0.121   1.927  2.5269 -0.6400  0.2248
 2640SOL    HW219383   4.235   0.110   2.036 -0.1006 -0.6043  0.2259
 2641SOL     OW19384   1.935   0.714   8.001 -0.4974 -0.0178 -0.2920
 2641SOL    HW119385   1.863   0.773   7.977  0.7035  1.3284 -0.5807
 2641SOL    HW219386   1.971   0.774   8.067  1.6421 -0.3642 -1.1420
 2642SOL     OW19387   4.054   1.766  16.974 -0.0650  0.4312 -0.5919
 2642SOL    HW119388   4.048   1.678  16.935  0.0089 -0.7619  2.0688
 2642SOL    HW219389   4.057   1.761  17.070 -0.5460 -0.0116 -0.5954
 2643SOL     OW19390   3.836   1.792  15.109  0.0747  0.3918  0.2365
 2643SOL    HW119391   3.772   1.733  15.148 -0.7909  0.7363 -0.6666
 2643SOL    HW219392   3.897   1.796  15.183 -0.4645 -0.6164  0.7324
 2644SOL     OW19393   1.474   0.256   7.098  0.3625 -0.2570 -0.0463
 2644SOL    HW119394   1.551   0.205   7.122  0.3239 -0.6406 -0.6992
 2644SOL    HW219395   1.486   0.330   7.156  0.8878 -1.1381  0.9676
 2645SOL     OW19396   1.810   1.146   6.192  0.3910 -0.3318  0.2345
 2645SOL    HW119397   1.743   1.126   6.258  0.0598  0.1092  0.0344
 2645SOL    HW219398   1.783   1.102   6.111 -0.7358 -1.2519  1.1078
 2646SOL     OW19399   4.278   2.879   9.793  0.0386 -0.5073  0.8145
 2646SOL    HW119400   4.328   2.960   9.791 -0.7971  0.0257  1.2215
 2646SOL    HW219401   4.216   2.889   9.865  0.7989  0.7725  1.2825
 2647SOL     OW19402   2.787   2.283   8.385 -0.4515  0.0700 -0.0264
 2647SOL    HW119403   2.878   2.253   8.384 -0.0437  1.2582  1.8191
 2647SOL    HW219404   2.790   2.318   8.474 -1.7120 -2.3618  0.9663
 2648SOL     OW19405   4.343   1.573   7.820 -0.1922 -0.2327 -0.9393
 2648SOL    HW119406   4.430   1.608   7.839 -1.1029  1.9801 -0.9170
 2648SOL    HW219407   4.303   1.569   7.907  3.1824 -0.4673  0.6033
 2649SOL     OW19408   3.373   0.051   6.006 -0.5649 -0.2008  0.0118
 2649SOL    HW119409   3.306   0.117   5.985 -0.4505 -0.4571 -1.1725
 2649SOL    HW219410   3.350   0.023   6.094 -0.4105 -2.9439 -0.8110
 2650SOL     OW19411   1.822   0.018   5.952  0.0940  0.0641  0.4431
 2650SOL    HW119412   1.741   4.712   5.993  0.7563  0.7326  2.2445
 2650SOL    HW219413   1.845   0.086   6.016  0.9492 -1.7155  2.0223
 2651SOL     OW19414   1.608   4.304   1.909 -0.2061  0.5475  0.1287
 2651SOL    HW119415   1.654   4.288   1.992 -2.4476 -2.9927  0.7168
 2651SOL    HW219416   1.645   4.386   1.878 -1.1851  1.2285  0.7446
 2652SOL     OW19417   1.379   1.859   4.435  0.3122 -0.2333  0.1180
 2652SOL    HW119418   1.287   1.834   4.423  0.7063 -1.2365 -0.8401
 2652SOL    HW219419   1.407   1.870   4.344  1.4595  2.5792  0.8095
 2653SOL     OW19420   3.116   3.558  12.349 -0.0692 -0.6939  0.0062
 2653SOL    HW119421   3.098   3.651  12.335  2.6108 -0.3296 -1.0356
 2653SOL    HW219422   3.146   3.544  12.259  0.4110  0.0841  0.0471
 2654SOL     OW19423   3.031   0.660   5.997 -0.2821 -0.3623  0.1726
 2654SOL    HW119424   3.092   0.712   5.944  1.1547  0.7876  2.9623
 2654SOL    HW219425   2.991   0.735   6.040  0.1390 -0.0646  0.0546
 2655SOL     OW19426   1.439   3.057   5.806 -0.3183  0.4790  0.5755
 2655SOL    HW119427   1.530   3.084   5.811  0.1775 -1.2843  1.3332
 2655SOL    HW219428   1.439   3.018   5.718 -0.8516 -0.8582  1.1655
 2656SOL     OW19429   4.311   2.935   1.883  0.5729 -0.1194 -0.5454
 2656SOL    HW119430   4.378   2.949   1.816  3.3107  0.4854  2.3077
 2656SOL    HW219431   4.361   2.900   1.957 -0.2750 -2.1665 -0.9470
 2657SOL     OW19432   4.038   0.467   6.529 -0.4597  0.2674  0.2239
 2657SOL    HW119433   3.962   0.413   6.552  0.3994 -0.4491  1.3230
 2657SOL    HW219434   4.023   0.505   6.442  0.3095  0.5903  0.2396
 2658SOL     OW19435   4.620   0.748   9.212  0.4794  0.0146  0.2006
 2658SOL    HW119436   4.571   0.673   9.177  1.0146 -0.8382  1.2952
 2658SOL    HW219437   4.659   0.770   9.127 -0.9857 -1.3008 -0.8331
 2659SOL     OW19438   0.631   4.512  16.989  0.2335 -0.1517 -0.2486
 2659SOL    HW119439   0.541   4.542  16.973 -0.2864 -0.7272  1.5609
 2659SOL    HW219440   0.674   4.532  16.906  1.4658 -1.9565 -0.0377
 2660SOL     OW19441   1.497   0.124   2.020 -0.0643  0.2227  0.0303
 2660SOL    HW119442   1.435   0.063   1.980 -0.3260  0.4409  0.1055
 2660SOL    HW219443   1.522   0.174   1.942 -0.1903  0.2429  0.0023
 2661SOL     OW19444   2.809   0.276   5.101 -0.3056  0.7537  0.0475
 2661SOL    HW119445   2.746   0.221   5.149 -0.1283  1.0169  0.5812
 2661SOL    HW219446   2.810   0.227   5.019  0.5234 -0.3470  0.7062
 2662SOL     OW19447   3.729   2.515   6.204 -0.4513 -0.6664 -0.2317
 2662SOL    HW119448   3.703   2.428   6.176 -0.9737 -0.5848  0.0038
 2662SOL    HW219449   3.680   2.514   6.287  0.5117  0.6370  0.3560
 2663SOL     OW19450   3.578   2.634   5.662 -0.9911 -0.8699  0.0844
 2663SOL    HW119451   3.585   2.598   5.751  1.3372 -0.5448  0.0326
 2663SOL    HW219452   3.624   2.717   5.678  0.7349 -1.5700 -1.2754
 2664SOL     OW19453   0.715   0.307   2.889 -0.1208 -0.0763  0.1270
 2664SOL    HW119454   0.761   0.334   2.809 -1.2824 -1.8443 -1.1365
 2664SOL    HW219455   0.664   0.386   2.908  0.4903  0.8300 -2.0284
 2665SOL     OW19456   2.890   1.936   5.471  0.1558  0.0724 -0.6701
 2665SOL    HW119457   2.861   1.915   5.560  0.6308  2.2749  0.0168
 2665SOL    HW219458   2.813   1.954   5.418 -0.4613  1.7431  0.7946
 2666SOL     OW19459   2.895   3.836   1.921  0.1713 -0.1237 -0.0997
 2666SOL    HW119460   2.961   3.776   1.887 -0.5820  0.4711 -2.5718
 2666SOL    HW219461   2.882   3.816   2.014 -4.4419 -0.1917 -0.7634
 2667SOL     OW19462   2.307   1.065  16.400 -0.5267 -0.2480 -0.2284
 2667SOL    HW119463   2.248   1.098  16.468 -0.5443  0.5363 -0.6182
 2667SOL    HW219464   2.250   1.018  16.339 -0.4900  1.2550 -1.4250
 2668SOL     OW19465   4.538   0.396   9.424 -0.3963 -0.6152  0.3174
 2668SOL    HW119466   4.576   0.367   9.507  1.1261  2.5444  0.7429
 2668SOL    HW219467   4.473   0.461   9.451 -1.2138 -1.9461  1.5797
 2669SOL     OW19468   4.580   4.309   3.463 -0.3529 -0.0533 -0.2266
 2669SOL    HW119469   4.508   4.271   3.513  0.9369 -0.1460  1.5566
 2669SOL    HW219470   4.534   4.320   3.380 -1.4097 -1.1895  0.2122
 2670SOL     OW19471   2.632   2.489   1.202  0.2884 -0.1061 -0.0137
 2670SOL    HW119472   2.713   2.514   1.247 -0.1914  3.6790 -1.2402
 2670SOL    HW219473   2.561   2.542   1.240  1.2572  1.9690 -1.1020
 2671SOL     OW19474   2.076   1.587  13.170  0.1116 -0.4068 -0.1530
 2671SOL    HW119475   2.108   1.498  13.179  0.8627  0.0956  1.9999
 2671SOL    HW219476   2.052   1.614  13.258 -1.4657 -1.0066 -0.4004
 2672SOL     OW19477   0.614   4.575   6.073  0.1846 -0.0965 -0.3299
 2672SOL    HW119478   0.603   4.567   5.978  2.4053  0.5316 -0.6331
 2672SOL    HW219479   0.657   4.493   6.098  1.2589  0.9728  1.2622
 2673SOL     OW19480   3.728   2.261   3.918 -0.2198  0.6831  0.1321
 2673SOL    HW119481   3.652   2.202   3.919  0.0382  0.3397 -0.5686
 2673SOL    HW219482   3.700   2.350   3.899 -0.5211  0.9453  1.8117
 2674SOL     OW19483   1.207   3.137   8.657  0.2195 -0.4065  0.3750
 2674SOL    HW119484   1.266   3.211   8.667  0.8383 -1.0714  1.6688
 2674SOL    HW219485   1.275   3.073   8.633  0.3028  0.2236 -1.0479
 2675SOL     OW19486   0.847   1.716   0.492  0.1281 -0.5723 -0.9427
 2675SOL    HW119487   0.813   1.716   0.403 -1.2322  1.6642 -0.4205
 2675SOL    HW219488   0.926   1.769   0.476 -0.9219  0.0044 -4.1569
 2676SOL     OW19489   0.775   3.597   7.451 -0.2928 -0.4998 -0.2392
 2676SOL    HW119490   0.778   3.617   7.544  1.1368 -1.6788 -0.0233
 2676SOL    HW219491   0.860   3.637   7.433 -1.1420  1.1846 -0.4948
 2677SOL     OW19492   4.697   3.836  15.328 -0.0442 -0.4966 -0.1911
 2677SOL    HW119493   0.048   3.818  15.272 -0.8783 -4.0034 -0.2167
 2677SOL    HW219494   4.687   3.749  15.366  0.4485  0.0851  1.2528
 2678SOL     OW19495   3.946   4.423  14.793 -0.4989 -0.4652 -0.1728
 2678SOL    HW119496   3.869   4.402  14.742 -2.3226  0.5573  2.1599
 2678SOL    HW219497   4.011   4.424  14.723 -1.9552  0.6651 -1.4972
 2679SOL     OW19498   0.148   2.319   7.054  0.2433  0.3628  0.0726
 2679SOL    HW119499   0.096   2.241   7.033  1.2102 -0.3714  0.4207
 2679SOL    HW219500   0.229   2.296   7.008  0.1981 -0.0998  0.2289
 2680SOL     OW19501   4.162   3.175   4.484 -0.1598  0.2325 -0.1650
 2680SOL    HW119502   4.090   3.118   4.510 -0.5040  0.7022 -0.0919
 2680SOL    HW219503   4.130   3.242   4.423  2.3050  0.6830 -0.9610
 2681SOL     OW19504   3.898   4.335   0.797  0.3626 -0.2118  0.4175
 2681SOL    HW119505   3.832   4.267   0.809 -1.7335  1.8862  0.8072
 2681SOL    HW219506   3.907   4.372   0.885 -0.4369  1.8463 -0.3547
 2682SOL     OW19507   3.817   2.457  10.929 -0.1626  0.2819  0.4056
 2682SOL    HW119508   3.735   2.506  10.917 -2.0107 -2.9390 -0.3309
 2682SOL    HW219509   3.811   2.418  11.016 -1.4749 -0.2564  0.0774
 2683SOL     OW19510   3.564   2.024  15.305  0.2322 -0.6316  0.5057
 2683SOL    HW119511   3.490   2.034  15.244  0.8745  0.9031 -0.0017
 2683SOL    HW219512   3.519   2.047  15.386 -0.3338  0.8197 -0.2269
 2684SOL     OW19513   1.087   3.056   4.461 -0.4120  0.1417 -0.1914
 2684SOL    HW119514   1.172   3.035   4.502 -0.6359 -1.2381 -0.4327
 2684SOL    HW219515   1.094   3.147   4.434 -1.0669  0.2385 -0.0350
 2685SOL     OW19516   3.760   0.780   3.826  0.2448 -0.0928 -0.6026
 2685SOL    HW119517   3.729   0.774   3.916  2.0557  0.2705  0.0387
 2685SOL    HW219518   3.849   0.745   3.835 -0.0281 -1.0227 -1.5499
 2686SOL     OW19519   3.327   0.490  10.968 -0.9108 -0.3401 -0.1927
 2686SOL    HW119520   3.334   0.481  11.063  0.0201  0.0927 -0.2169
 2686SOL    HW219521   3.330   0.585  10.953  0.0126 -0.3469 -0.0194
 2687SOL     OW19522   1.312   1.579   2.988 -0.1689 -0.3942 -0.5187
 2687SOL    HW119523   1.308   1.656   2.931 -2.8511  0.1068  0.3540
 2687SOL    HW219524   1.314   1.504   2.930  2.5880 -0.0600 -0.8469
 2688SOL     OW19525   0.473   0.533  16.665  0.7296  0.0377 -0.0712
 2688SOL    HW119526   0.433   0.581  16.738  2.4459  0.3523  0.6710
 2688SOL    HW219527   0.564   0.559  16.681  0.5583  1.2108 -1.0129
 2689SOL     OW19528   3.591   1.591  14.289 -0.3067 -0.1021 -0.0271
 2689SOL    HW119529   3.613   1.536  14.364 -0.2851  2.9917  2.1945
 2689SOL    HW219530   3.613   1.533  14.216  1.2121 -1.7147  1.7086
 2690SOL     OW19531   4.287   2.588  10.936  0.2034  0.3721  0.3145
 2690SOL    HW119532   4.364   2.642  10.918 -1.2159  1.6135 -2.0950
 2690SOL    HW219533   4.297   2.545  10.851 -1.6491  0.9256 -0.1805
 2691SOL     OW19534   0.095   2.682   3.533 -0.1159 -0.9221 -0.0567
 2691SOL    HW119535   0.101   2.596   3.491  0.6196 -0.9068  0.0190
 2691SOL    HW219536   0.129   2.739   3.464 -1.0406  3.2402  2.9289
 2692SOL     OW19537   3.060   0.142   0.250  0.2627 -0.3583 -0.5411
 2692SOL    HW119538   3.142   0.117   0.208  0.5366 -1.1896  0.4990
 2692SOL    HW219539   3.012   0.146   0.167  0.1869  1.9317 -0.3906
 2693SOL     OW19540   1.855   3.379   3.109  0.4434  0.3583  0.5369
 2693SOL    HW119541   1.911   3.325   3.054  0.6620 -0.9200  1.9966
 2693SOL    HW219542   1.852   3.318   3.183  1.3299  1.0057  1.1073
 2694SOL     OW19543   1.593   4.724   7.197  0.1162  0.5803  0.5106
 2694SOL    HW119544   1.671   4.697   7.148 -0.0039 -0.3401  0.8281
 2694SOL    HW219545   1.632   0.018   7.282 -0.5598  1.5142  0.6059
 2695SOL     OW19546   1.743   0.756   5.583 -0.1436 -0.5893 -0.3959
 2695SOL    HW119547   1.720   0.665   5.563 -2.8826  0.2913 -1.2448
 2695SOL    HW219548   1.839   0.751   5.585 -0.1771  0.3314  2.2070
 2696SOL     OW19549   0.532   4.107   6.418 -0.3703 -0.1916 -0.3915
 2696SOL    HW119550   0.462   4.129   6.479 -0.5009  0.7007 -0.8529
 2696SOL    HW219551   0.491   4.113   6.332  1.1569  1.2921 -1.0024
 2697SOL     OW19552   2.837   1.236   8.201  0.0101 -0.0239  0.5970
 2697SOL    HW119553   2.778   1.274   8.137  0.3937  0.8263  0.7512
 2697SOL    HW219554   2.814   1.143   8.193 -0.4898  0.2247 -0.7882
 2698SOL     OW19555   4.066   0.393   0.270 -0.7508  1.1868 -0.0843
 2698SOL    HW119556   3.985   0.404   0.319 -0.3755 -0.8839  0.9710
 2698SOL    HW219557   4.112   0.339   0.333 -1.0790  0.4673 -0.4624
 2699SOL     OW19558   1.795   1.191  15.027  0.2858  0.7071  0.0057
 2699SOL    HW119559   1.707   1.217  15.053 -0.1853 -0.1734 -0.7073
 2699SOL    HW219560   1.831   1.164  15.112 -1.3259  1.3523  0.8932
 2700SOL     OW19561   1.098   0.628   6.373 -0.2408 -0.3859  0.2223
 2700SOL    HW119562   1.012   0.626   6.415 -0.7316 -2.2711 -0.8501
 2700SOL    HW219563   1.095   0.552   6.314 -0.5561 -0.1473 -0.0644
 2701SOL     OW19564   2.253   1.349  17.033  0.0782  0.0361 -0.5754
 2701SOL    HW119565   2.198   1.377  16.960 -1.4564  0.8360  0.8993
 2701SOL    HW219566   2.321   1.289  17.001 -0.4773 -0.4195 -0.9008
 2702SOL     OW19567   4.330   4.027   5.192 -0.6625 -0.3079  0.3424
 2702SOL    HW119568   4.344   4.074   5.110  0.5635 -2.2527 -0.5789
 2702SOL    HW219569   4.238   4.051   5.195 -0.3777  0.6378  1.8612
 2703SOL     OW19570   3.493   4.173   2.123 -0.8999 -0.7918 -0.0780
 2703SOL    HW119571   3.425   4.189   2.189 -1.1890  1.9114 -1.0449
 2703SOL    HW219572   3.576   4.189   2.169 -0.3901 -0.2902 -1.1968
 2704SOL     OW19573   0.611   1.599   7.926  0.0809  0.2226 -0.2446
 2704SOL    HW119574   0.687   1.651   7.953 -0.5061  0.5908  0.6930
 2704SOL    HW219575   0.630   1.600   7.833 -2.7210 -2.2194 -0.8330
 2705SOL     OW19576   0.477   3.410  11.452  0.3149  0.6812  0.1011
 2705SOL    HW119577   0.563   3.400  11.492 -1.7202 -3.1984  3.3809
 2705SOL    HW219578   0.460   3.503  11.472  1.1806  0.9037 -0.2125
 2706SOL     OW19579   0.499   2.143   3.729  0.2866 -0.6810 -0.6051
 2706SOL    HW119580   0.421   2.107   3.687  0.3569 -1.9293  0.3251
 2706SOL    HW219581   0.521   2.071   3.789 -1.0106 -1.7175 -1.3645
 2707SOL     OW19582   1.645   3.016   8.628 -0.0050  0.1033 -0.6048
 2707SOL    HW119583   1.701   2.938   8.622  1.3948  1.0322  0.2790
 2707SOL    HW219584   1.705   3.085   8.597  1.2220 -0.6109  0.1673
 2708SOL     OW19585   0.442   1.353   6.980  0.2385  0.2409  0.7550
 2708SOL    HW119586   0.484   1.426   7.026  3.2233 -1.2820  0.4050
 2708SOL    HW219587   0.498   1.357   6.903  0.6474 -1.9037  0.9392
 2709SOL     OW19588   1.994   1.291   6.325  0.2876 -0.6042  0.2304
 2709SOL    HW119589   2.040   1.214   6.358  1.0227 -0.2475  0.0347
 2709SOL    HW219590   1.923   1.248   6.278 -1.3106  0.0296  2.0434
 2710SOL     OW19591   2.567   1.259   6.208  0.0596 -0.1792 -0.3078
 2710SOL    HW119592   2.525   1.230   6.127  1.2873 -1.0904 -0.6059
 2710SOL    HW219593   2.526   1.342   6.234  1.3040  0.4722 -0.4311
 2711SOL     OW19594   2.140   4.282   7.986  0.2455  0.0752 -0.3220
 2711SOL    HW119595   2.095   4.198   7.996  2.1623 -1.0380 -1.1405
 2711SOL    HW219596   2.074   4.329   7.935 -1.2400 -1.2070  0.4237
 2712SOL     OW19597   3.697   2.677   7.116 -0.2982  0.3594 -0.3105
 2712SOL    HW119598   3.713   2.656   7.024 -0.4540 -0.4139 -0.1620
 2712SOL    HW219599   3.649   2.602   7.151 -1.1449 -0.0234 -2.2432
 2713SOL     OW19600   4.693   2.670   1.615  0.6221  0.7234 -0.7713
 2713SOL    HW119601   4.669   2.734   1.681  1.1698  0.7745 -0.6195
 2713SOL    HW219602   0.064   2.674   1.617  0.6496  0.2761 -1.3164
 2714SOL     OW19603   0.292   2.652   4.108 -0.1998 -0.5069  0.6409
 2714SOL    HW119604   0.270   2.718   4.042  0.7105  0.3418  1.1731
 2714SOL    HW219605   0.383   2.659   4.078 -0.7211  1.0415 -0.6076
 2715SOL     OW19606   2.545   2.662   4.201  0.3038 -0.2976 -0.0166
 2715SOL    HW119607   2.568   2.674   4.109 -0.5120 -0.1102 -0.1927
 2715SOL    HW219608   2.500   2.578   4.203 -0.6644  0.1678 -2.4402
 2716SOL     OW19609   1.932   3.281   2.657  0.2450 -0.0903 -0.2177
 2716SOL    HW119610   1.985   3.202   2.661 -1.3061 -1.0210  2.0212
 2716SOL    HW219611   2.000   3.345   2.634  3.1918 -3.2471 -0.2305
 2717SOL     OW19612   1.406   0.770  11.132  0.1149  0.2948 -0.4044
 2717SOL    HW119613   1.331   0.830  11.132 -0.3856 -0.3404 -0.8679
 2717SOL    HW219614   1.450   0.793  11.050  2.0038 -1.3252  0.1658
 2718SOL     OW19615   2.363   2.670   5.688  0.7640  0.0367  0.3181
 2718SOL    HW119616   2.415   2.740   5.726  0.4331  1.3544 -1.6745
 2718SOL    HW219617   2.326   2.721   5.616  1.7629 -0.6081 -0.6346
 2719SOL     OW19618   3.663   1.008   3.405  0.2083  0.4536  0.7116
 2719SOL    HW119619   3.745   1.057   3.416  1.8875 -2.0558 -0.7859
 2719SOL    HW219620   3.647   0.991   3.498 -0.2572  2.3687  0.9826
 2720SOL     OW19621   3.770   1.594   7.656 -0.1079 -0.1464  0.2599
 2720SOL    HW119622   3.816   1.537   7.717 -0.0457 -0.6150 -0.2190
 2720SOL    HW219623   3.782   1.679   7.697 -1.2779  0.2833 -0.2842
 2721SOL     OW19624   0.528   2.363   4.087 -0.4369 -0.0976  0.2155
 2721SOL    HW119625   0.514   2.358   3.992  1.9813 -0.8195 -0.0933
 2721SOL    HW219626   0.586   2.439   4.083 -1.1970  0.4521 -0.2312
 2722SOL     OW19627   0.717   4.272  15.738  0.3642 -0.1937  0.1928
 2722SOL    HW119628   0.808   4.300  15.734 -0.1294  1.7262  2.2281
 2722SOL    HW219629   0.674   4.356  15.757  0.5615  0.0464 -0.4529
 2723SOL     OW19630   0.745   0.899   2.108  0.0171  0.0320 -0.3195
 2723SOL    HW119631   0.702   0.848   2.039 -1.6392  1.4187 -0.3097
 2723SOL    HW219632   0.830   0.909   2.065 -1.9802  1.5208 -4.0306
 2724SOL     OW19633   2.277   1.066   7.035  0.0214  0.1345 -0.0237
 2724SOL    HW119634   2.332   0.993   7.005  0.5205  0.4371  0.1637
 2724SOL    HW219635   2.193   1.019   7.041 -1.9043  3.9709  2.9741
 2725SOL     OW19636   0.773   3.888   1.988  0.1961  0.3988 -0.3247
 2725SOL    HW119637   0.834   3.961   1.972  0.3744  0.0327 -1.3572
 2725SOL    HW219638   0.689   3.932   1.978  0.2220  0.6855  0.7705
 2726SOL     OW19639   0.956   2.465   6.317  0.4151 -0.0789 -0.3343
 2726SOL    HW119640   0.958   2.553   6.280 -0.5498  0.2897  0.4758
 2726SOL    HW219641   0.931   2.483   6.408  2.9281 -0.0991  0.3560
 2727SOL     OW19642   1.039   0.148  11.474  0.6437 -0.1480  0.3229
 2727SOL    HW119643   0.961   0.202  11.486  1.4537  1.0074  0.3250
 2727SOL    HW219644   1.018   0.091  11.400  0.3697 -0.9837  1.0307
 2728SOL     OW19645   3.855   2.904  15.852 -0.4129 -0.1310  0.0549
 2728SOL    HW119646   3.876   2.864  15.767 -0.1061  2.6564 -1.1644
 2728SOL    HW219647   3.763   2.876  15.855 -1.3003  2.7016 -0.9857
 2729SOL     OW19648   2.726   2.617   2.594  0.1002 -0.6271 -0.0854
 2729SOL    HW119649   2.777   2.571   2.527 -0.7048 -2.4752  0.5749
 2729SOL    HW219650   2.642   2.593   2.554  0.3609  0.1216 -1.0916
 2730SOL     OW19651   1.767   2.720   5.282  0.3288  0.2315 -0.3280
 2730SOL    HW119652   1.758   2.685   5.194 -2.4828  0.7893 -0.2653
 2730SOL    HW219653   1.681   2.701   5.319  0.2028  0.6186 -0.4158
 2731SOL     OW19654   4.528   3.003   8.653 -0.1437 -0.6039 -0.1576
 2731SOL    HW119655   4.515   3.055   8.732  0.3776  0.2891 -0.6483
 2731SOL    HW219656   4.555   2.917   8.685 -2.8537 -1.1730  0.5996
 2732SOL     OW19657   3.549   1.064   7.784  0.1226 -0.6940 -0.5370
 2732SOL    HW119658   3.624   1.117   7.809 -1.3818  1.6859 -1.1125
 2732SOL    HW219659   3.484   1.088   7.851 -0.5329 -0.5719 -1.2139
 2733SOL     OW19660   2.293   0.661   6.335 -0.0739 -0.4276  0.2948
 2733SOL    HW119661   2.286   0.576   6.378 -1.8706 -0.5462 -0.2409
 2733SOL    HW219662   2.248   0.635   6.255 -3.0735 -0.8330  2.1028
 2734SOL     OW19663   1.135   4.055   6.968  0.4693 -0.1058  0.7349
 2734SOL    HW119664   1.207   4.030   7.026  0.2241 -0.2810  0.9605
 2734SOL    HW219665   1.191   4.108   6.910 -0.2552 -0.8299 -0.6450
 2735SOL     OW19666   0.773   0.546  12.864  0.1448 -0.5971  0.3321
 2735SOL    HW119667   0.814   0.459  12.866 -0.8492 -1.1018 -1.2440
 2735SOL    HW219668   0.730   0.565  12.781 -0.3178 -1.1664  0.4413
 2736SOL     OW19669   3.506   3.967  13.029 -0.5031  0.2457 -0.5046
 2736SOL    HW119670   3.500   4.053  13.072 -3.1656  0.1387 -0.6437
 2736SOL    HW219671   3.426   3.924  13.059  0.0742  0.6560  1.5894
 2737SOL     OW19672   1.724   3.683   6.222 -0.4200 -0.6038  0.3277
 2737SOL    HW119673   1.810   3.661   6.256 -0.0874  0.2397  0.0529
 2737SOL    HW219674   1.734   3.777   6.202  0.9758 -0.8511 -0.1310
 2738SOL     OW19675   2.750   0.862   6.259  0.0265  0.9055 -0.0501
 2738SOL    HW119676   2.713   0.951   6.257 -0.9164  0.5554  1.1980
 2738SOL    HW219677   2.842   0.881   6.241  0.4697 -1.0508  0.1839
 2739SOL     OW19678   3.909   2.834   5.482 -0.8114 -0.1303 -0.3713
 2739SOL    HW119679   3.862   2.868   5.558  0.6301  2.7774 -0.8080
 2739SOL    HW219680   3.998   2.856   5.510 -1.1645 -2.0124  2.2633
 2740SOL     OW19681   3.555   2.547   5.397 -0.3748 -0.0879  0.5776
 2740SOL    HW119682   3.646   2.556   5.368 -0.4241 -1.9273 -0.2184
 2740SOL    HW219683   3.563   2.585   5.484 -1.3921  0.7638  0.2945
 2741SOL     OW19684   3.447   2.834   5.082  0.4453  0.1888  0.4978
 2741SOL    HW119685   3.485   2.765   5.028 -0.9598 -0.6411  0.5754
 2741SOL    HW219686   3.367   2.793   5.115 -0.3442  1.3054 -0.0424
 2742SOL     OW19687   4.585   0.250   4.597  0.0559  0.1096  0.1648
 2742SOL    HW119688   4.572   0.211   4.511  1.9596 -0.6687  0.2477
 2742SOL    HW219689   4.664   0.202   4.621  0.4297  1.3213  1.3640
 2743SOL     OW19690   1.568   0.466   2.750 -0.1195  0.2205 -0.0532
 2743SOL    HW119691   1.600   0.457   2.660 -0.7628 -0.8794 -0.1687
 2743SOL    HW219692   1.476   0.443   2.741  0.2169 -0.0370 -2.8133
 2744SOL     OW19693   2.031   1.027  12.308  0.1432  0.2245 -0.1030
 2744SOL    HW119694   2.053   1.024  12.401 -0.2889  0.3204  0.0025
 2744SOL    HW219695   1.936   1.018  12.314 -0.1558  1.6713 -2.6438
 2745SOL     OW19696   1.672   0.160  13.021  0.2335  0.2890  0.3277
 2745SOL    HW119697   1.594   0.200  13.058  0.5726 -0.4534  1.8098
 2745SOL    HW219698   1.656   0.170  12.927  0.3455  2.2554  0.5229
 2746SOL     OW19699   2.861   3.731   6.591 -0.1600 -0.0663  0.5908
 2746SOL    HW119700   2.790   3.790   6.617 -0.7664 -0.5918  0.1281
 2746SOL    HW219701   2.904   3.785   6.525  0.8792  1.7579  2.7617
 2747SOL     OW19702   2.621   3.451   4.992  0.4419  0.7265 -0.3024
 2747SOL    HW119703   2.622   3.382   4.926  0.3504 -0.4438  0.9259
 2747SOL    HW219704   2.549   3.502   4.953 -0.3006  2.4614  3.3748
 2748SOL     OW19705   1.214   3.737   4.200  0.3111 -0.4068  0.1614
 2748SOL    HW119706   1.261   3.788   4.134 -2.2793  0.3677 -1.0870
 2748SOL    HW219707   1.141   3.799   4.210  0.0936 -0.2906 -2.0149
 2749SOL     OW19708   1.527   0.578   5.356  0.6819  0.2537  0.5259
 2749SOL    HW119709   1.578   0.506   5.319  1.6228 -0.1346  2.6354
 2749SOL    HW219710   1.480   0.616   5.281 -2.2479  0.7725  2.6260
 2750SOL     OW19711   3.399   2.694   6.675  0.2709  0.2877 -0.3619
 2750SOL    HW119712   3.405   2.739   6.759  1.2263 -1.8593  0.7289
 2750SOL    HW219713   3.325   2.742   6.638 -0.0253  1.1353  1.3468
 2751SOL     OW19714   4.252   2.636   8.752  0.6267 -0.1759 -0.2131
 2751SOL    HW119715   4.327   2.600   8.799  0.2813 -0.9737 -0.2615
 2751SOL    HW219716   4.188   2.565   8.760  1.4610 -0.9526 -0.4528
 2752SOL     OW19717   3.448   0.798  13.949 -0.9307  0.2549 -0.0148
 2752SOL    HW119718   3.493   0.715  13.936 -2.2396 -0.8134  2.3946
 2752SOL    HW219719   3.389   0.801  13.873 -0.9148  0.8467 -0.0035
 2753SOL     OW19720   2.783   2.583   3.663 -0.0854  0.6454 -0.1215
 2753SOL    HW119721   2.761   2.650   3.599 -0.6273 -0.9825 -1.6530
 2753SOL    HW219722   2.828   2.637   3.728 -0.5609 -0.1628  0.8882
 2754SOL     OW19723   3.336   3.163   8.855 -0.1474 -0.4249 -0.1574
 2754SOL    HW119724   3.294   3.134   8.936 -0.7378  1.5223  0.2413
 2754SOL    HW219725   3.423   3.173   8.894 -0.9441 -1.0688  1.7863
 2755SOL     OW19726   3.403   0.318   3.625 -0.3660 -0.1760  0.5831
 2755SOL    HW119727   3.497   0.309   3.636 -0.0054  2.4055 -0.3018
 2755SOL    HW219728   3.379   0.242   3.678 -2.4238  0.5576  0.7070
 2756SOL     OW19729   0.205   2.661   7.835  0.5576  0.1036  0.1402
 2756SOL    HW119730   0.221   2.629   7.746 -0.8515  0.0434 -0.0921
 2756SOL    HW219731   0.153   2.591   7.876 -1.3091  1.5557  0.2364
 2757SOL     OW19732   3.193   2.839   4.565 -0.2963 -0.0841  0.6840
 2757SOL    HW119733   3.134   2.764   4.567 -0.2953 -0.1049  0.0024
 2757SOL    HW219734   3.140   2.913   4.535 -0.2761  0.0299  0.9356
 2758SOL     OW19735   0.025   2.027   5.805  0.0946  0.0670 -0.0702
 2758SOL    HW119736   4.689   2.061   5.739 -1.2941 -0.8716  0.7169
 2758SOL    HW219737   0.100   2.014   5.748  0.6244  3.0377 -0.0492
 2759SOL     OW19738   0.773   4.699  15.798  0.0527  0.0027 -0.1323
 2759SOL    HW119739   0.728   0.011  15.722  1.4199  2.5444  0.2668
 2759SOL    HW219740   0.805   0.059  15.831 -0.4329  0.0155  0.3226
 2760SOL     OW19741   4.310   1.878   1.613 -0.1477 -0.2103  0.6876
 2760SOL    HW119742   4.379   1.857   1.675 -1.3165 -0.4510  1.9216
 2760SOL    HW219743   4.340   1.823   1.541  1.3893 -0.2648  1.3766
 2761SOL     OW19744   0.066   0.752  14.949 -0.0264 -0.1355  0.2034
 2761SOL    HW119745   0.034   0.778  15.035 -0.1431 -0.8201  0.3701
 2761SOL    HW219746   0.098   0.837  14.921  0.9803 -0.6555 -0.2355
 2762SOL     OW19747   2.166   4.258   3.019  0.4007  0.0832  0.1319
 2762SOL    HW119748   2.208   4.184   3.063 -1.0649 -0.5246  0.5176
 2762SOL    HW219749   2.189   4.333   3.073  3.0777 -0.0878 -0.8059
 2763SOL     OW19750   1.412   2.157  14.717 -0.1990 -0.1085  0.4114
 2763SOL    HW119751   1.389   2.198  14.634  1.2272 -0.4579 -0.1661
 2763SOL    HW219752   1.493   2.204  14.737  1.6232 -3.3674  0.7083
 2764SOL     OW19753   0.398   4.502   2.287  0.4448  1.1829 -0.7035
 2764SOL    HW119754   0.431   4.524   2.374  0.5745  0.9261 -0.6859
 2764SOL    HW219755   0.438   4.416   2.275 -1.4089  0.4258 -1.4840
 2765SOL     OW19756   4.254   0.095   3.541  0.0296 -0.0448  0.3717
 2765SOL    HW119757   4.221   0.005   3.540 -1.2523  0.4246 -0.1243
 2765SOL    HW219758   4.206   0.133   3.615 -1.5226 -0.4017 -0.4403
 2766SOL     OW19759   2.590   2.685  13.244 -0.3955  0.0805 -0.0198
 2766SOL    HW119760   2.681   2.693  13.216 -0.3674  0.1574  0.0944
 2766SOL    HW219761   2.582   2.766  13.295 -3.8678  1.2721 -2.4884
 2767SOL     OW19762   2.876   1.694   0.766  0.3036  0.5411  0.2482
 2767SOL    HW119763   2.956   1.732   0.801 -0.3872  1.0036  1.3225
 2767SOL    HW219764   2.812   1.759   0.795  0.6931  0.9843  0.1047
 2768SOL     OW19765   2.733   3.994  13.994 -0.3918 -0.0990  0.0266
 2768SOL    HW119766   2.815   3.959  13.961 -1.0062 -0.5329 -1.0485
 2768SOL    HW219767   2.756   4.022  14.083  0.6755 -0.9400  0.0010
 2769SOL     OW19768   1.487   1.932  14.336  0.5080 -0.1581  0.2063
 2769SOL    HW119769   1.557   1.873  14.363  0.0054  0.0825  2.0309
 2769SOL    HW219770   1.425   1.917  14.407  2.0537 -2.4259  1.0730
 2770SOL     OW19771   0.213   0.526  16.558 -0.4162 -0.6906 -0.7664
 2770SOL    HW119772   0.225   0.572  16.474  1.5076 -1.1874 -0.7646
 2770SOL    HW219773   0.306   0.524  16.582 -0.2420 -1.9141 -1.5370
 2771SOL     OW19774   0.332   2.095  11.542  0.1735  0.0602 -0.0455
 2771SOL    HW119775   0.401   2.144  11.587 -0.9423  0.0998  1.6151
 2771SOL    HW219776   0.384   2.048  11.477  2.1196  0.6768  1.0776
 2772SOL     OW19777   1.304   2.689   3.706 -0.2073 -0.4509  0.5143
 2772SOL    HW119778   1.307   2.721   3.796 -1.5365 -0.5581  0.6043
 2772SOL    HW219779   1.279   2.597   3.715 -1.3970 -0.2053 -0.2052
 2773SOL     OW19780   1.948   1.209   5.542 -0.0686  0.0102 -0.2036
 2773SOL    HW119781   1.905   1.125   5.523 -0.6056  0.5381 -1.3397
 2773SOL    HW219782   1.873   1.267   5.551 -0.3197 -0.5085  1.0479
 2774SOL     OW19783   1.503   0.096   8.979  0.3019 -0.0913 -0.1708
 2774SOL    HW119784   1.587   0.051   8.976  0.2915  0.0228 -1.9985
 2774SOL    HW219785   1.488   0.101   9.074 -1.3938  2.5113 -0.5886
 2775SOL     OW19786   4.706   1.652   6.788 -0.0978 -0.3009  0.7043
 2775SOL    HW119787   4.618   1.687   6.795  0.4801  1.6598 -1.8099
 2775SOL    HW219788   4.699   1.604   6.705  1.6068 -0.7326  0.7977
 2776SOL     OW19789   1.306   0.165   5.810  0.6120  0.0886 -0.5532
 2776SOL    HW119790   1.266   0.079   5.796  1.1763 -0.3169  0.3113
 2776SOL    HW219791   1.223   0.212   5.809  0.2519 -0.5890 -1.5509
 2777SOL     OW19792   3.592   0.204  11.174 -0.6183  0.0646 -0.2028
 2777SOL    HW119793   3.669   0.199  11.118  0.1149  0.6998  0.7475
 2777SOL    HW219794   3.613   0.164  11.258  0.4054  1.8049  0.3649
 2778SOL     OW19795   1.158   1.890  15.269  0.6453 -0.4693 -0.4089
 2778SOL    HW119796   1.184   1.835  15.196  2.1331 -0.3564  0.0443
 2778SOL    HW219797   1.105   1.962  15.235  2.8592  3.0678  3.6316
 2779SOL     OW19798   0.305   4.357   4.508 -0.3000 -0.0339 -0.1683
 2779SOL    HW119799   0.359   4.382   4.583  3.1354 -1.0389 -2.2829
 2779SOL    HW219800   0.228   4.311   4.541 -0.7307  1.2847  0.6585
 2780SOL     OW19801   3.133   3.297  11.132 -0.2485  0.6549 -0.2736
 2780SOL    HW119802   3.069   3.349  11.083 -1.2819 -0.0704  0.3270
 2780SOL    HW219803   3.172   3.376  11.169  1.4415  0.6522 -1.9906
 2781SOL     OW19804   2.546   2.755   8.996  0.3002 -0.1239  0.4464
 2781SOL    HW119805   2.455   2.735   8.974 -0.5640  2.4899  1.6069
 2781SOL    HW219806   2.529   2.781   9.087 -1.8624  1.6401 -0.4397
 2782SOL     OW19807   4.130   3.921  10.559  0.0441 -0.0818  0.2284
 2782SOL    HW119808   4.087   3.966  10.633  1.6573  1.5961  0.1481
 2782SOL    HW219809   4.213   3.969  10.554 -0.6371  1.1932  0.9188
 2783SOL     OW19810   2.078   1.451  13.552 -0.2393  0.1902  0.6358
 2783SOL    HW119811   2.050   1.381  13.492 -1.0385 -0.0275  1.2710
 2783SOL    HW219812   2.020   1.432  13.625 -0.1147 -1.8562  0.1995
 2784SOL     OW19813   2.659   3.714   5.229 -0.4416 -0.5471 -0.1456
 2784SOL    HW119814   2.726   3.685   5.167 -0.2569 -1.9975  0.7363
 2784SOL    HW219815   2.676   3.669   5.312 -0.4142  0.1861  0.2523
 2785SOL     OW19816   2.649   1.018  16.135 -0.0007 -0.2565  0.1468
 2785SOL    HW119817   2.583   1.062  16.187 -1.5748  1.3040 -3.1620
 2785SOL    HW219818   2.597   0.940  16.115 -0.5566  0.2088 -0.2329
 2786SOL     OW19819   4.100   2.435   7.214  0.1562 -0.1994  0.0774
 2786SOL    HW119820   4.013   2.395   7.214 -0.3331  0.8809  3.2502
 2786SOL    HW219821   4.102   2.481   7.297 -1.9277 -0.3279  0.1999
 2787SOL     OW19822   1.172   3.513  17.175  0.3976 -0.2509 -0.6534
 2787SOL    HW119823   1.175   3.440  17.113 -0.4000 -1.9373  1.2828
 2787SOL    HW219824   1.092   3.498  17.227 -0.7673  0.0371 -2.3736
 2788SOL     OW19825   0.679   1.705  17.517 -0.6823 -0.7279  0.9885
 2788SOL    HW119826   0.669   1.766  17.590 -0.7959 -1.4075  1.5406
 2788SOL    HW219827   0.597   1.704  17.469 -0.9377  0.6433  1.4068
 2789SOL     OW19828   2.638   2.913   0.497  0.3536  0.0434  0.6425
 2789SOL    HW119829   2.707   2.847   0.493  0.5910  0.3123  0.2963
 2789SOL    HW219830   2.681   2.988   0.455  0.6876 -0.0908  0.7406
 2790SOL     OW19831   3.936   1.363   0.817  0.0367 -0.1208  0.2929
 2790SOL    HW119832   3.905   1.453   0.824  1.6955  0.2348  2.8421
 2790SOL    HW219833   3.853   1.314   0.816  0.7911 -1.3447 -2.2577
 2791SOL     OW19834   2.564   0.992   4.268  0.1738 -0.0170 -0.7279
 2791SOL    HW119835   2.563   0.954   4.180 -1.3646 -1.8902  0.0816
 2791SOL    HW219836   2.471   1.007   4.285 -0.2572 -0.7274 -2.4615
 2792SOL     OW19837   3.680   3.899   5.954 -0.3660 -0.0248 -0.7010
 2792SOL    HW119838   3.675   3.808   5.984  1.7015  0.1498  0.1664
 2792SOL    HW219839   3.628   3.888   5.875  1.6951  0.3693 -2.1143
 2793SOL     OW19840   4.673   1.953   7.446 -0.5626  0.0226  0.0622
 2793SOL    HW119841   4.634   1.905   7.373 -0.3049  1.4023 -0.9834
 2793SOL    HW219842   4.592   1.979   7.490  0.8282  0.8388  2.1288
 2794SOL     OW19843   4.367   4.663   0.128 -0.4491 -0.7676 -0.3054
 2794SOL    HW119844   4.365   4.573   0.163 -0.1568 -0.6047  0.1367
 2794SOL    HW219845   4.290   4.701   0.169  0.9315  2.1063 -0.4334
 2795SOL     OW19846   1.210   3.965   3.111  0.2617  0.0175  0.0921
 2795SOL    HW119847   1.302   3.938   3.104  0.6411  1.2737  0.2288
 2795SOL    HW219848   1.194   4.038   3.052 -0.4176  0.2848  0.6161
 2796SOL     OW19849   2.962   0.260   6.229 -0.0956  0.2056 -0.4158
 2796SOL    HW119850   2.923   0.340   6.264 -2.3147 -0.9002 -0.3641
 2796SOL    HW219851   3.036   0.246   6.288 -0.3579 -0.2116 -0.1914
 2797SOL     OW19852   3.649   4.658  12.657 -0.2028 -0.0244  0.9675
 2797SOL    HW119853   3.745   4.653  12.660 -0.1523  0.0483 -0.4706
 2797SOL    HW219854   3.625   4.568  12.636 -0.7075  0.3388  0.0284
 2798SOL     OW19855   1.689   1.763   3.267  0.1905  0.3608  0.3418
 2798SOL    HW119856   1.704   1.845   3.314  1.3986 -0.9721  2.2596
 2798SOL    HW219857   1.771   1.714   3.272 -0.2692 -0.3040  1.2333
 2799SOL     OW19858   0.987   2.757   2.687 -0.2147 -0.3843  0.3853
 2799SOL    HW119859   0.956   2.667   2.682 -0.0099 -0.4077 -0.4361
 2799SOL    HW219860   0.924   2.816   2.646  0.4694  0.5643  0.6796
 2800SOL     OW19861   1.753   3.777   7.855 -0.2981  0.3506  0.3120
 2800SOL    HW119862   1.744   3.783   7.950 -2.1921  0.0619  0.1504
 2800SOL    HW219863   1.838   3.820   7.845 -0.0629  0.3024  2.0279
 2801SOL     OW19864   1.425   3.746   9.397  0.0660  0.1355  0.2680
 2801SOL    HW119865   1.331   3.753   9.413 -0.1324  2.3280 -1.8803
 2801SOL    HW219866   1.457   3.765   9.486 -0.0170  1.0071  0.1034
 2802SOL     OW19867   1.403   1.841   4.165  0.0449 -0.1014 -1.3445
 2802SOL    HW119868   1.495   1.865   4.158 -0.1442  0.4615 -1.9631
 2802SOL    HW219869   1.365   1.907   4.107  1.0341  1.6187 -0.0230
 2803SOL     OW19870   4.068   1.681   4.286 -0.4371  0.0087 -0.6141
 2803SOL    HW119871   3.972   1.683   4.292 -0.4536  0.5503 -1.0566
 2803SOL    HW219872   4.098   1.700   4.375 -2.1106 -2.0765  0.3889
 2804SOL     OW19873   2.556   3.013   6.318 -0.1879  0.4823  0.0367
 2804SOL    HW119874   2.505   3.073   6.371 -3.0778 -2.2582  0.3306
 2804SOL    HW219875   2.486   2.983   6.260  0.9398  0.3818 -1.2861
 2805SOL     OW19876   0.070   2.375   8.587  0.1790  0.4042  0.2738
 2805SOL    HW119877   0.139   2.309   8.577 -1.8842 -1.4018 -2.2265
 2805SOL    HW219878   0.098   2.438   8.653  2.3097 -0.5728  0.2821
 2806SOL     OW19879   3.657   2.515   5.886 -0.0081  0.2033 -0.5512
 2806SOL    HW119880   3.703   2.450   5.833 -1.5486 -1.7146  0.4358
 2806SOL    HW219881   3.691   2.503   5.974 -1.0158 -1.7370 -0.4165
 2807SOL     OW19882   4.556   1.325   3.811 -0.1164  0.2110  0.0373
 2807SOL    HW119883   4.517   1.257   3.866 -1.3185 -1.6499 -3.0997
 2807SOL    HW219884   4.504   1.304   3.733 -0.2732 -0.4830  0.3389
 2808SOL     OW19885   0.190   3.304   2.689 -0.2274  0.1838 -0.5121
 2808SOL    HW119886   0.171   3.393   2.718 -0.4903 -0.2947  0.7698
 2808SOL    HW219887   0.110   3.281   2.643  0.7171 -0.6474 -1.7594
 2809SOL     OW19888   1.799   1.516   7.464  0.2868  0.4989  0.5842
 2809SOL    HW119889   1.708   1.498   7.439  0.8712 -1.9522  0.2389
 2809SOL    HW219890   1.843   1.460   7.400  0.6137  2.7281 -1.1994
 2810SOL     OW19891   1.424   0.728   4.458 -0.2383  0.2407 -0.1598
 2810SOL    HW119892   1.499   0.775   4.496  0.0884 -0.7545  0.4260
 2810SOL    HW219893   1.385   0.681   4.532 -0.6171  0.4344 -0.2385
 2811SOL     OW19894   2.946   4.067  13.582  0.0101  0.2636 -0.2771
 2811SOL    HW119895   2.959   4.066  13.676 -2.2741  0.8272  0.0378
 2811SOL    HW219896   2.873   4.128  13.574  0.6454  1.0961  0.4502
 2812SOL     OW19897   0.748   2.166   7.987 -0.2337  0.0819 -0.3806
 2812SOL    HW119898   0.833   2.189   7.948 -0.9018  1.3832 -1.0511
 2812SOL    HW219899   0.780   2.097   8.046 -1.9446 -0.5699 -0.2225
 2813SOL     OW19900   1.764   0.676   3.646  0.2108  0.1595 -0.2699
 2813SOL    HW119901   1.756   0.747   3.709  0.6123  0.4849 -0.5887
 2813SOL    HW219902   1.699   0.704   3.582  2.0608 -0.4103 -2.3948
 2814SOL     OW19903   2.985   3.403   9.195  0.5311  0.1403  0.5917
 2814SOL    HW119904   3.001   3.443   9.280  0.6284  0.8768  0.2348
 2814SOL    HW219905   2.988   3.312   9.222 -1.2144 -0.2231 -0.3968
 2815SOL     OW19906   0.629   0.446   3.594  0.2934 -0.3388  0.1109
 2815SOL    HW119907   0.545   0.471   3.634  0.2582 -0.6309  0.2240
 2815SOL    HW219908   0.640   0.362   3.639  0.4521  0.1784  1.0302
 2816SOL     OW19909   2.940   1.509   4.046 -0.2777 -0.4664  0.0236
 2816SOL    HW119910   2.904   1.429   4.084  1.7124 -0.7219  1.3967
 2816SOL    HW219911   2.858   1.549   4.016 -0.9898 -2.9272 -1.2452
 2817SOL     OW19912   3.107   0.699   0.851 -0.0818 -0.2174  0.1893
 2817SOL    HW119913   3.155   0.637   0.797  1.2664 -1.9190  3.3226
 2817SOL    HW219914   3.067   0.757   0.787 -0.0809  0.2500  0.6090
 2818SOL     OW19915   0.605   4.636   6.963 -0.8138  0.1822  0.7459
 2818SOL    HW119916   0.542   4.577   7.005  1.3013 -0.9977  2.2663
 2818SOL    HW219917   0.556   4.718   6.962 -0.9752  0.0517 -2.1716
 2819SOL     OW19918   1.438   1.100  14.603  0.2489 -0.8629  0.2594
 2819SOL    HW119919   1.384   1.075  14.678  0.8087  1.0950  1.3180
 2819SOL    HW219920   1.432   1.195  14.615 -0.4401 -1.0182  1.1569
 2820SOL     OW19921   1.021   0.937   4.694  0.0501  0.2681 -0.5943
 2820SOL    HW119922   1.110   0.973   4.697 -0.2228  0.8593  0.4529
 2820SOL    HW219923   1.018   0.896   4.607 -1.4646 -1.8557  0.4625
 2821SOL     OW19924   0.249   3.149   6.708 -0.0804  0.0823  0.5712
 2821SOL    HW119925   0.292   3.083   6.655 -0.4570  0.4604 -0.2026
 2821SOL    HW219926   0.241   3.105   6.793  1.0332 -0.1851  0.5414
 2822SOL     OW19927   4.628   0.414   9.685 -0.1691  0.1486 -0.2179
 2822SOL    HW119928   4.601   0.491   9.735 -2.7168 -1.7525  1.3009
 2822SOL    HW219929   4.583   0.341   9.728  1.5840  0.1046  1.5053
 2823SOL     OW19930   2.087   2.025   5.045 -0.2002  0.6676 -0.0727
 2823SOL    HW119931   2.068   1.989   5.131  1.2903 -1.8981 -0.7874
 2823SOL    HW219932   1.999   2.024   5.007  1.1256  2.5177 -3.2159
 2824SOL     OW19933   3.884   3.697  15.151 -0.1679 -0.0494  0.4224
 2824SOL    HW119934   3.867   3.781  15.194 -0.8125  0.2624 -0.4590
 2824SOL    HW219935   3.928   3.647  15.220 -0.1484  0.8635  1.0792
 2825SOL     OW19936   4.091   1.514   1.054 -0.4764 -0.1878  0.0223
 2825SOL    HW119937   4.157   1.517   0.985 -0.5174  2.2853  0.0992
 2825SOL    HW219938   4.034   1.586   1.030 -0.6526 -0.3701 -0.1087
 2826SOL     OW19939   4.333   4.709  12.331 -0.2462 -0.2319 -0.7355
 2826SOL    HW119940   4.423   4.706  12.301 -0.2946 -0.0634 -0.9008
 2826SOL    HW219941   4.298   4.644  12.270  0.9192 -0.9003 -0.6746
 2827SOL     OW19942   3.300   2.236   5.287  0.5688  0.1938 -0.7202
 2827SOL    HW119943   3.236   2.166   5.274  3.5664 -2.1450 -3.0330
 2827SOL    HW219944   3.376   2.179   5.301  0.4562  0.6364  1.5992
 2828SOL     OW19945   1.256   2.214   2.863 -0.3949  0.0062  0.0776
 2828SOL    HW119946   1.306   2.245   2.787 -1.8646 -1.8258 -1.6215
 2828SOL    HW219947   1.167   2.202   2.830 -1.4565  0.6958  2.6825
 2829SOL     OW19948   2.950   1.473   5.961 -0.1925  0.1717 -0.4418
 2829SOL    HW119949   2.966   1.463   6.055 -1.0922 -0.2453 -0.3346
 2829SOL    HW219950   3.016   1.411   5.930 -1.1037 -0.2273 -1.5776
 2830SOL     OW19951   3.785   1.673   3.650 -0.5508 -0.4306  0.2990
 2830SOL    HW119952   3.727   1.602   3.676 -0.2865 -1.5926 -2.2686
 2830SOL    HW219953   3.713   1.728   3.620 -1.6969 -0.8417  2.3294
 2831SOL     OW19954   1.744   1.930   3.720  0.1416 -0.1272  0.6544
 2831SOL    HW119955   1.829   1.973   3.714 -0.7718  1.4841 -0.5872
 2831SOL    HW219956   1.752   1.891   3.633 -0.7722 -0.6131  0.7879
 2832SOL     OW19957   3.917   3.246   2.613 -0.1289 -0.1992  0.0194
 2832SOL    HW119958   3.996   3.211   2.570  0.9462 -0.8645  2.5383
 2832SOL    HW219959   3.957   3.288   2.689  1.3898 -0.9195 -0.3668
 2833SOL     OW19960   3.516   1.547   7.584 -0.2147 -0.2251  0.6088
 2833SOL    HW119961   3.528   1.502   7.500  0.2123  0.5755  0.2453
 2833SOL    HW219962   3.609   1.571   7.593  0.6465 -3.3373  0.0583
 2834SOL     OW19963   3.259   3.608   8.924  0.0483  0.3026 -0.2577
 2834SOL    HW119964   3.260   3.520   8.961 -0.5626  1.1821  1.8964
 2834SOL    HW219965   3.181   3.642   8.968 -0.0031 -3.0484  2.2626
 2835SOL     OW19966   0.379   0.944   0.623  0.3144  0.2592  0.4711
 2835SOL    HW119967   0.441   0.876   0.597  1.2678  2.2039 -2.3154
 2835SOL    HW219968   0.433   1.000   0.679 -0.5700  2.3439 -0.7965
 2836SOL     OW19969   3.816   2.050  14.989 -0.2044  0.0253  0.1982
 2836SOL    HW119970   3.795   1.957  14.999 -1.4770  0.5693  2.7249
 2836SOL    HW219971   3.905   2.063  15.023 -0.9918  4.5064  0.5464
 2837SOL     OW19972   3.500   3.970  12.650  0.0088 -0.4561 -0.3916
 2837SOL    HW119973   3.423   3.933  12.693  0.8391 -0.8101  0.7903
 2837SOL    HW219974   3.572   3.924  12.692 -0.3849 -0.7632 -0.0533
 2838SOL     OW19975   2.357   2.551   9.892  0.5669 -0.1896  0.0691
 2838SOL    HW119976   2.450   2.535   9.872  0.1403 -2.1068 -0.3905
 2838SOL    HW219977   2.325   2.590   9.811  1.4617 -0.9267 -0.6361
 2839SOL     OW19978   1.795   2.664  11.007  0.2981 -0.0758 -0.3889
 2839SOL    HW119979   1.724   2.647  10.945  0.0763 -1.0811  0.1435
 2839SOL    HW219980   1.750   2.638  11.087 -1.1073  1.2326 -0.7550
 2840SOL     OW19981   1.618   0.357   5.636  0.1181  0.1387  0.0624
 2840SOL    HW119982   1.709   0.375   5.616 -0.9943  2.5021 -2.9096
 2840SOL    HW219983   1.636   0.286   5.698  0.6314  2.4173  2.5276
 2841SOL     OW19984   0.681   1.259   6.444  0.3571 -0.3915 -0.2501
 2841SOL    HW119985   0.619   1.210   6.498 -0.6780 -0.2518 -1.3037
 2841SOL    HW219986   0.623   1.327   6.411  0.3466 -0.5363 -0.5298
 2842SOL     OW19987   2.027   2.880   5.036 -0.3077  0.2801  0.0448
 2842SOL    HW119988   1.933   2.873   5.021 -0.4850  2.3250  0.1870
 2842SOL    HW219989   2.072   2.815   4.982 -0.9394  1.1901 -1.5682
 2843SOL     OW19990   4.452   4.725   2.249 -0.1661 -0.5164 -0.4574
 2843SOL    HW119991   4.381   0.039   2.198  0.1582  0.7933  0.1063
 2843SOL    HW219992   4.496   4.673   2.181 -1.7868  0.5239 -2.3274
 2844SOL     OW19993   2.156   2.057   1.951 -0.0572 -0.5323 -0.2455
 2844SOL    HW119994   2.146   2.059   2.046 -0.2543 -1.6812 -0.2423
 2844SOL    HW219995   2.245   2.092   1.954 -0.0407 -0.5244 -0.9487
 2845SOL     OW19996   2.483   4.590   9.000 -0.0904 -0.2643 -0.1012
 2845SOL    HW119997   2.464   4.506   9.041  0.1536 -0.3623 -0.1867
 2845SOL    HW219998   2.579   4.599   8.994 -0.4066  3.0509 -0.0502
 2846SOL     OW19999   0.021   2.714   9.377 -0.4346 -0.0614 -0.0717
 2846SOL    HW120000   4.698   2.791   9.346 -0.1814  0.2879  0.3966
 2846SOL    HW220001   0.001   2.724   9.470 -1.6535  0.3837 -0.3827
 2847SOL     OW20002   4.620   1.325   6.946 -0.1233 -0.2954  0.6623
 2847SOL    HW120003   4.638   1.419   6.949 -1.4304 -0.0372  0.5824
 2847SOL    HW220004   4.662   1.305   6.862 -0.0986 -0.4866  0.7209
 2848SOL     OW20005   2.012   0.734   5.677  0.1854  0.5495 -0.2199
 2848SOL    HW120006   2.075   0.670   5.710 -0.8282 -0.9454 -1.2092
 2848SOL    HW220007   1.989   0.783   5.757 -2.1636  0.6406 -0.9512
 2849SOL     OW20008   3.700   0.715   8.099  0.3735 -0.0304  0.3390
 2849SOL    HW120009   3.667   0.738   8.012  0.6563  0.9192  0.4798
 2849SOL    HW220010   3.658   0.630   8.113 -0.4170  0.0075 -1.7721
 2850SOL     OW20011   3.352   1.018   7.073  0.4174 -0.0833  0.3522
 2850SOL    HW120012   3.264   0.991   7.049 -0.5577  1.6003  2.0484
 2850SOL    HW220013   3.374   1.078   7.002 -2.6544 -1.9628 -2.1771
 2851SOL     OW20014   3.142   4.400   3.485 -0.0221  0.1577  0.1310
 2851SOL    HW120015   3.184   4.320   3.452  0.9121 -0.0980  1.9274
 2851SOL    HW220016   3.085   4.429   3.414 -0.7521  1.0784  1.1028
 2852SOL     OW20017   2.521   3.909   6.857  0.4468  0.0535  0.3016
 2852SOL    HW120018   2.486   3.820   6.852 -0.9638  0.5332  2.0047
 2852SOL    HW220019   2.457   3.959   6.907 -3.0224 -2.5463 -1.5507
 2853SOL     OW20020   3.938   3.661   6.824  0.5009 -0.2700 -0.2401
 2853SOL    HW120021   3.955   3.702   6.909  0.4446  1.1054 -0.8863
 2853SOL    HW220022   3.859   3.612   6.848 -0.6640  1.2174 -0.9643
 2854SOL     OW20023   3.640   1.027   1.023 -0.3706  0.1433 -0.0143
 2854SOL    HW120024   3.571   1.077   1.067 -1.6310  0.1120 -1.9762
 2854SOL    HW220025   3.622   0.935   1.041  0.3873  0.2453  1.2656
 2855SOL     OW20026   4.496   0.896   8.408 -0.0662 -0.2716 -0.0200
 2855SOL    HW120027   4.553   0.969   8.384 -2.5281  1.1482 -1.5532
 2855SOL    HW220028   4.494   0.856   8.321  0.6706  0.1953 -0.2549
 2856SOL     OW20029   3.809   2.005   2.865  0.4059  0.0860  0.0731
 2856SOL    HW120030   3.869   2.072   2.899  1.0862 -0.8216  0.6740
 2856SOL    HW220031   3.781   1.976   2.952 -1.2521 -1.9106 -1.1302
 2857SOL     OW20032   1.721   1.715   8.572  0.5718  0.0524 -0.2519
 2857SOL    HW120033   1.724   1.756   8.659  4.0043  0.1190 -0.3952
 2857SOL    HW220034   1.737   1.795   8.521  1.9877  1.2687  2.0466
 2858SOL     OW20035   2.437   2.082   4.549  0.1442  0.5185 -0.0126
 2858SOL    HW120036   2.388   2.101   4.469 -0.9481 -0.2400  0.4781
 2858SOL    HW220037   2.398   1.998   4.571 -1.0409  0.9870 -0.3520
 2859SOL     OW20038   0.423   2.187   7.867 -0.6321 -0.2882  0.1265
 2859SOL    HW120039   0.330   2.174   7.849 -0.8851  1.5207  0.0890
 2859SOL    HW220040   0.422   2.267   7.920 -1.0655 -0.8072  0.9026
 2860SOL     OW20041   1.008   1.069   5.555  0.7368  0.3317  0.9959
 2860SOL    HW120042   1.064   1.110   5.489 -0.2537  1.7881  1.0752
 2860SOL    HW220043   1.027   1.111   5.639 -0.3588  0.1149  1.3437
 2861SOL     OW20044   1.038   0.023   4.335 -0.2509 -0.0331 -0.9542
 2861SOL    HW120045   0.985   4.669   4.325 -1.6443  0.6737  0.6549
 2861SOL    HW220046   0.975   0.085   4.298 -0.7277  0.0739  0.0248
 2862SOL     OW20047   0.167   3.247   2.377 -0.3708 -0.1380  0.1331
 2862SOL    HW120048   0.102   3.317   2.371  0.9637  1.2816  2.0845
 2862SOL    HW220049   0.245   3.291   2.345  0.6074 -1.3891  0.8146
 2863SOL     OW20050   0.455   3.287   0.284 -0.3688  0.0592 -0.0220
 2863SOL    HW120051   0.436   3.231   0.209  1.4424 -1.1769  0.4253
 2863SOL    HW220052   0.477   3.222   0.351  1.0348 -1.1407 -1.6558
 2864SOL     OW20053   0.179   0.403   3.144  0.0308  0.7615 -0.0011
 2864SOL    HW120054   0.102   0.452   3.172  0.8593  0.7206  2.3628
 2864SOL    HW220055   0.237   0.472   3.113  0.4434  1.0839  1.4982
 2865SOL     OW20056   0.698   2.755   0.710  0.3563  0.0708  0.2177
 2865SOL    HW120057   0.747   2.837   0.706  0.2845  0.1542  1.1930
 2865SOL    HW220058   0.685   2.759   0.805 -4.6615  0.0005 -0.4496
 2866SOL     OW20059   4.432   1.245   5.723 -0.1844 -0.6517 -0.3153
 2866SOL    HW120060   4.445   1.179   5.791 -4.3095 -0.3044  0.7828
 2866SOL    HW220061   4.496   1.314   5.741  0.5617 -1.1115 -1.1804
 2867SOL     OW20062   3.428   1.244   2.054  0.3500  0.1396 -0.3543
 2867SOL    HW120063   3.492   1.309   2.082 -0.8102  0.6052  1.2287
 2867SOL    HW220064   3.345   1.279   2.084 -0.3212 -2.6222  1.0092
 2868SOL     OW20065   2.982   0.013   4.206 -0.2716  0.1089 -0.4221
 2868SOL    HW120066   2.934   4.673   4.257  0.3191  0.0152  0.0116
 2868SOL    HW220067   2.966   0.090   4.260  0.3767 -1.1469  1.5478
 2869SOL     OW20068   1.695   3.716   8.669  0.1547  0.7977 -0.0482
 2869SOL    HW120069   1.641   3.793   8.688 -0.8062 -0.0819  0.7631
 2869SOL    HW220070   1.780   3.744   8.703  1.0797 -2.9008  0.6485
 2870SOL     OW20071   1.924   0.545  15.224  0.4477 -0.1097 -0.0035
 2870SOL    HW120072   1.965   0.546  15.137  0.9220 -0.3447  0.2173
 2870SOL    HW220073   1.883   0.632  15.223 -1.7846 -1.1822 -1.9927
 2871SOL     OW20074   2.417   3.379   2.972  0.2067 -0.3905  0.1306
 2871SOL    HW120075   2.341   3.437   2.965 -0.7051 -1.6440 -0.2013
 2871SOL    HW220076   2.405   3.339   2.886  0.0486 -0.1423  0.0375
 2872SOL     OW20077   3.121   1.421   0.579  0.1040  0.2249 -0.2434
 2872SOL    HW120078   3.206   1.414   0.536 -0.3094  1.4456 -1.2479
 2872SOL    HW220079   3.113   1.517   0.578 -0.7100  0.1556 -0.5104
 2873SOL     OW20080   0.259   2.231   4.688  0.2450  0.3993 -0.8456
 2873SOL    HW120081   0.268   2.141   4.721 -0.8177  0.2641 -0.8987
 2873SOL    HW220082   0.230   2.205   4.600  0.0566 -1.2261 -0.3069
 2874SOL     OW20083   4.491   2.670   7.690  0.6509 -0.4879 -1.0617
 2874SOL    HW120084   4.467   2.586   7.649 -0.5340 -0.5533 -0.2419
 2874SOL    HW220085   4.410   2.721   7.682  1.5471  1.0596 -0.0579
 2875SOL     OW20086   0.183   4.111  17.569  0.1852  0.1871 -0.0781
 2875SOL    HW120087   0.232   4.171  17.514  0.2416  1.4575  1.3499
 2875SOL    HW220088   0.172   4.162  17.649 -0.6622  0.1334 -0.1614
 2876SOL     OW20089   4.071   2.324   4.898 -0.1923 -0.1403  0.3325
 2876SOL    HW120090   4.092   2.405   4.853  0.0719 -0.1785  0.3860
 2876SOL    HW220091   4.110   2.261   4.837 -0.6407 -1.0597  0.9836
 2877SOL     OW20092   1.967   2.050   1.326  0.1391  0.0090 -0.3468
 2877SOL    HW120093   1.888   2.059   1.379 -0.6471  0.9153 -1.6731
 2877SOL    HW220094   2.017   2.130   1.346 -0.7085  0.1140  1.3077
 2878SOL     OW20095   2.331   2.504  13.933 -0.1331  0.6050 -0.1970
 2878SOL    HW120096   2.397   2.470  13.873  0.2011 -0.3313  0.7128
 2878SOL    HW220097   2.382   2.573  13.977  1.5954 -1.6731  1.3876
 2879SOL     OW20098   0.077   2.234   8.873  0.3904  0.0179  0.0617
 2879SOL    HW120099   0.158   2.187   8.855  0.0684 -1.4779  2.5909
 2879SOL    HW220100   0.106   2.323   8.851  0.8940 -0.1061  0.2397
 2880SOL     OW20101   1.455   3.876   7.987  0.7184 -0.3949  0.3945
 2880SOL    HW120102   1.398   3.865   8.063 -0.7955 -1.4040 -0.8844
 2880SOL    HW220103   1.527   3.825   8.023  1.8176  0.8896  0.0184
 2881SOL     OW20104   0.872   3.265  16.321  0.4627 -0.5898 -0.3933
 2881SOL    HW120105   0.954   3.216  16.326 -0.3541 -1.7178  2.2685
 2881SOL    HW220106   0.889   3.318  16.243 -1.5840 -0.1075 -0.5246
 2882SOL     OW20107   1.758   1.962   7.423  0.4228  0.6238 -0.3450
 2882SOL    HW120108   1.850   1.965   7.395  0.2655  1.5196 -0.7871
 2882SOL    HW220109   1.767   1.965   7.518 -1.6486 -0.9269 -0.1022
 2883SOL     OW20110   0.983   4.370  16.419  0.7709 -0.5459  0.0783
 2883SOL    HW120111   1.077   4.388  16.422  0.7487 -0.4659  0.3668
 2883SOL    HW220112   0.948   4.448  16.376 -0.1361 -0.4094  1.0615
 2884SOL     OW20113   2.312   3.232   6.851  0.1229  0.1323 -0.4513
 2884SOL    HW120114   2.375   3.170   6.815 -1.5087 -0.9705 -1.4209
 2884SOL    HW220115   2.292   3.180   6.929 -1.3114 -0.2190 -1.0600
 2885SOL     OW20116   2.715   2.961  17.055  0.6323 -0.1714  0.7224
 2885SOL    HW120117   2.774   2.990  17.124  1.2800 -2.2982  1.0492
 2885SOL    HW220118   2.695   2.870  17.075 -1.9469  0.3211  0.4385
 2886SOL     OW20119   0.368   0.164   6.050 -0.0497  0.1216  0.0327
 2886SOL    HW120120   0.286   0.114   6.047  0.2840 -0.3105 -1.6728
 2886SOL    HW220121   0.360   0.215   6.131 -1.7260 -0.0055 -0.0550
 2887SOL     OW20122   4.297   0.191  14.336  0.6620  0.1041  0.1309
 2887SOL    HW120123   4.311   0.169  14.428  1.7037  2.1950  0.4681
 2887SOL    HW220124   4.364   0.259  14.334  2.9134 -2.1249  0.8052
 2888SOL     OW20125   3.662   0.555   4.641 -0.0462 -0.0121  0.0687
 2888SOL    HW120126   3.614   0.626   4.684 -2.8898 -1.1242 -1.3320
 2888SOL    HW220127   3.616   0.553   4.558  0.5585 -0.7926 -0.2465
 2889SOL     OW20128   1.639   0.330   2.509  0.2609  0.3606  0.1099
 2889SOL    HW120129   1.646   0.355   2.417  1.1291  0.8725  0.3115
 2889SOL    HW220130   1.560   0.278   2.498  0.9744 -0.1941 -2.4158
 2890SOL     OW20131   4.203   0.150  14.595 -0.3175  0.2314 -0.2599
 2890SOL    HW120132   4.176   0.240  14.575  2.4663  0.9033 -1.1152
 2890SOL    HW220133   4.171   0.139  14.684  2.2372 -0.0654  0.6338
 2891SOL     OW20134   4.407   3.274   6.687  0.5245 -0.6384 -0.1546
 2891SOL    HW120135   4.486   3.315   6.653 -0.9327  1.1154 -1.4519
 2891SOL    HW220136   4.432   3.247   6.775 -0.3901  2.3378  1.0057
 2892SOL     OW20137   4.529   0.802   2.015  0.1685  0.7907 -0.0828
 2892SOL    HW120138   4.497   0.761   2.095  1.4946  0.8333  0.4794
 2892SOL    HW220139   4.581   0.874   2.051  1.3267  0.1728 -0.5187
 2893SOL     OW20140   4.591   2.423   1.543 -0.2541  0.1028 -0.3488
 2893SOL    HW120141   4.591   2.518   1.546  1.7044  0.0948 -0.2839
 2893SOL    HW220142   4.589   2.388   1.632  0.6343 -1.2706 -0.8657
 2894SOL     OW20143   4.647   0.513   6.849  0.2997 -0.2376  0.0428
 2894SOL    HW120144   4.552   0.520   6.840  0.0560 -3.3713 -0.0621
 2894SOL    HW220145   4.669   0.605   6.842  1.5191 -0.6033 -0.8960
 2895SOL     OW20146   0.560   0.893   7.952 -0.6271 -0.6910 -0.2271
 2895SOL    HW120147   0.654   0.891   7.968 -0.5541 -1.4849 -0.7190
 2895SOL    HW220148   0.544   0.988   7.952  0.7441 -0.4642  0.3798
 2896SOL     OW20149   0.151   1.764   0.370  0.4869 -0.8563 -0.2513
 2896SOL    HW120150   0.232   1.714   0.380 -0.7692 -3.0241 -0.9337
 2896SOL    HW220151   0.127   1.731   0.284  1.1639  0.1488 -0.8298
 2897SOL     OW20152   2.820   0.682   1.307  0.4350 -0.3438  0.0797
 2897SOL    HW120153   2.870   0.752   1.349  2.0924 -0.6603 -1.3293
 2897SOL    HW220154   2.871   0.645   1.235 -0.0930 -1.3645  0.2257
 2898SOL     OW20155   0.763   4.536  16.749  0.3229  0.2275 -0.1008
 2898SOL    HW120156   0.812   4.612  16.717  0.3971 -0.2431 -1.1002
 2898SOL    HW220157   0.799   4.458  16.707  4.1747  1.3868  1.0171
 2899SOL     OW20158   2.353   4.457  14.501  0.1587  0.2358  0.9927
 2899SOL    HW120159   2.355   4.518  14.576  0.1892 -0.6405  1.7028
 2899SOL    HW220160   2.399   4.512  14.438  0.2442  2.4596  2.9528
 2900SOL     OW20161   3.411   2.215   4.930  0.2092 -0.4576  0.2595
 2900SOL    HW120162   3.485   2.262   4.890 -1.0031  1.2266  0.0281
 2900SOL    HW220163   3.374   2.276   4.994  0.1666 -1.3256  1.0599
 2901SOL     OW20164   0.674   0.018   4.305  0.2088 -0.2603 -0.2402
 2901SOL    HW120165   0.638   0.052   4.223  0.6511 -1.0992 -0.7770
 2901SOL    HW220166   0.679   4.649   4.287 -2.4108 -0.7143  1.4255
 2902SOL     OW20167   4.394   2.912  16.005  0.0269  0.2054 -0.5947
 2902SOL    HW120168   4.306   2.878  15.987 -0.0007  0.7685 -1.4933
 2902SOL    HW220169   4.423   2.859  16.080  1.2008 -2.4943 -2.9657
 2903SOL     OW20170   1.094   4.038   3.525 -0.0188  0.2574  0.4964
 2903SOL    HW120171   1.105   4.110   3.587  1.6135  0.9107 -0.5507
 2903SOL    HW220172   1.005   4.056   3.495  0.0847  0.8016  0.5137
 2904SOL     OW20173   4.108   4.182   0.533  0.3896  0.2548  0.1875
 2904SOL    HW120174   4.162   4.239   0.587 -0.6782  0.7713  0.7072
 2904SOL    HW220175   4.142   4.095   0.554  0.7794  0.4272  0.2663
 2905SOL     OW20176   2.672   4.493   5.978 -0.7082 -0.3194 -0.1124
 2905SOL    HW120177   2.690   4.400   5.990 -0.4965 -0.1587  0.8074
 2905SOL    HW220178   2.581   4.507   6.003 -1.3605  1.2007 -3.4139
 2906SOL     OW20179   3.489   3.293   6.480  0.4800  0.4982 -0.1075
 2906SOL    HW120180   3.550   3.301   6.554 -1.4676 -2.5163  1.7791
 2906SOL    HW220181   3.460   3.384   6.489 -1.0472 -0.0404  0.3313
 2907SOL     OW20182   3.774   0.111   9.378 -0.3790 -0.7475  0.3839
 2907SOL    HW120183   3.731   0.039   9.422  0.5990 -0.5514  1.6786
 2907SOL    HW220184   3.757   0.093   9.285  0.0388  1.1334 -0.0733
 2908SOL     OW20185   1.591   2.500  12.793 -0.6663 -0.4305  0.2749
 2908SOL    HW120186   1.554   2.574  12.842  1.2657  0.1531  0.8540
 2908SOL    HW220187   1.654   2.472  12.859 -0.6998 -1.8821 -0.3060
 2909SOL     OW20188   3.659   0.774   1.462  0.0163  0.0125  0.2366
 2909SOL    HW120189   3.710   0.700   1.495 -2.2891 -1.8835 -0.3821
 2909SOL    HW220190   3.618   0.734   1.385  0.1240 -0.5830  0.4850
 2910SOL     OW20191   3.591   1.762  15.266 -0.0893  0.1406  0.3833
 2910SOL    HW120192   3.566   1.748  15.357  0.9353 -0.0320  0.6453
 2910SOL    HW220193   3.614   1.855  15.274  0.8345 -0.1445  1.0012
 2911SOL     OW20194   2.618   1.513   6.615 -0.4402  0.0614 -0.0863
 2911SOL    HW120195   2.538   1.543   6.574  0.5590 -0.3656 -2.3192
 2911SOL    HW220196   2.590   1.467   6.694  4.0902 -2.1654  0.2265
 2912SOL     OW20197   4.587   3.405  16.281 -0.3709 -0.0179 -0.1114
 2912SOL    HW120198   4.631   3.322  16.298 -0.2128  0.3767  1.3685
 2912SOL    HW220199   4.590   3.446  16.367  0.0457 -0.3772  0.0471
 2913SOL     OW20200   3.122   4.153   1.188 -0.3211 -0.2454  0.1018
 2913SOL    HW120201   3.111   4.061   1.166  2.5205 -0.7138  0.5930
 2913SOL    HW220202   3.123   4.187   1.098  0.5305 -1.5776 -0.3917
 2914SOL     OW20203   3.909   4.252  15.838  0.0665  0.8477  0.0384
 2914SOL    HW120204   3.847   4.257  15.910 -0.6248  2.2841 -0.6615
 2914SOL    HW220205   3.860   4.189  15.785  0.4677 -0.9669  1.8171
 2915SOL     OW20206   3.794   1.325   1.434  0.2681  0.3552 -0.5058
 2915SOL    HW120207   3.867   1.342   1.374  0.6426 -0.0686 -0.1758
 2915SOL    HW220208   3.774   1.234   1.410  0.9992  0.0515  0.0354
 2916SOL     OW20209   2.046   0.830   6.909  0.7241 -0.4870  0.0979
 2916SOL    HW120210   2.093   0.754   6.876  0.3015 -1.6674  2.2067
 2916SOL    HW220211   1.983   0.829   6.837  0.1420 -1.6662  0.6160
 2917SOL     OW20212   2.155   2.136   0.921 -0.0910  0.5134  0.6025
 2917SOL    HW120213   2.184   2.084   0.846  1.6149  2.9085 -0.3899
 2917SOL    HW220214   2.131   2.062   0.977 -1.6838  0.8627  0.3716
 2918SOL     OW20215   1.083   4.230   3.172 -0.0129 -0.4486  0.2490
 2918SOL    HW120216   1.152   4.230   3.239  2.1099  1.9782 -1.9283
 2918SOL    HW220217   1.138   4.244   3.095 -0.8688  0.6435 -0.1636
 2919SOL     OW20218   2.830   2.653   7.576 -0.1443  0.4613 -0.1061
 2919SOL    HW120219   2.774   2.579   7.600  3.0375 -0.7528  3.5557
 2919SOL    HW220220   2.761   2.719   7.575 -0.8021 -0.2186 -0.5176
 2920SOL     OW20221   0.726   4.316   8.103 -0.1893  0.4836 -0.3965
 2920SOL    HW120222   0.769   4.326   8.019  0.9613  0.2673  0.1644
 2920SOL    HW220223   0.713   4.407   8.131 -2.0958  0.2606 -0.5151
 2921SOL     OW20224   3.505   1.645   3.139  0.1957  0.2602 -0.8335
 2921SOL    HW120225   3.543   1.557   3.131  2.5415  1.1709  0.2380
 2921SOL    HW220226   3.465   1.644   3.226  0.0093  0.4823 -0.9189
 2922SOL     OW20227   2.004   2.903   6.287 -0.2094  0.3483 -0.5243
 2922SOL    HW120228   1.995   2.812   6.314 -1.7485  0.8374  0.5852
 2922SOL    HW220229   1.914   2.935   6.289 -0.2481  0.1945  0.1985
 2923SOL     OW20230   0.052   0.785   1.488  0.5558  0.3146 -0.2290
 2923SOL    HW120231   0.039   0.849   1.558 -1.9199  0.4682 -0.8243
 2923SOL    HW220232   4.709   0.717   1.501  1.5344 -0.7188 -0.5249
 2924SOL     OW20233   0.130   2.803   3.270  0.0277  0.2914 -0.4156
 2924SOL    HW120234   0.083   2.755   3.203 -1.5123  1.5882 -0.2682
 2924SOL    HW220235   0.052   2.850   3.302 -1.2962  0.2048 -3.5821
 2925SOL     OW20236   0.144   3.068  10.122  0.2576 -0.1702 -0.4806
 2925SOL    HW120237   0.223   3.037  10.166  0.3181  1.8399  0.8147
 2925SOL    HW220238   0.163   3.064  10.029  1.3841 -2.8624 -0.1368
 2926SOL     OW20239   4.034   4.699   5.285 -0.2337 -0.8200  0.3218
 2926SOL    HW120240   3.952   0.023   5.290  0.1168 -0.1351 -0.6729
 2926SOL    HW220241   4.061   4.688   5.376 -4.1971 -1.1825  1.4760
 2927SOL     OW20242   0.569   3.268  14.710 -0.6503  0.5166  0.5011
 2927SOL    HW120243   0.625   3.231  14.777  0.0789  3.1890  1.3954
 2927SOL    HW220244   0.492   3.279  14.766 -1.0785  1.9147 -0.3504
 2928SOL     OW20245   4.473   1.216  13.557  0.1547  0.5300  0.6551
 2928SOL    HW120246   4.482   1.269  13.636 -2.7075 -0.7422  1.8613
 2928SOL    HW220247   4.485   1.133  13.604 -1.3188  0.1679  0.3899
 2929SOL     OW20248   4.396   4.299   9.368  0.1170  0.2884 -0.1300
 2929SOL    HW120249   4.321   4.342   9.326 -1.0053 -1.3554  0.1769
 2929SOL    HW220250   4.394   4.322   9.461 -1.5136 -0.1670 -0.0444
 2930SOL     OW20251   1.176   4.627   5.386 -0.7886  0.4409 -0.4473
 2930SOL    HW120252   1.095   4.651   5.340 -1.7673 -0.2141  0.9507
 2930SOL    HW220253   1.196   4.709   5.431  0.2405 -0.0166 -0.0757
 2931SOL     OW20254   3.870   2.494   3.501 -0.1293  0.3894  0.4030
 2931SOL    HW120255   3.878   2.485   3.596 -0.4496  1.4413  0.5252
 2931SOL    HW220256   3.959   2.507   3.467 -0.5080  0.0621 -0.7185
 2932SOL     OW20257   2.229   3.330  12.268  0.3792 -0.5148  0.1315
 2932SOL    HW120258   2.252   3.375  12.187  0.2036 -2.5429 -1.0369
 2932SOL    HW220259   2.312   3.306  12.311  0.6920  1.4688  0.6364
 2933SOL     OW20260   3.589   3.844   1.848 -0.9370 -0.4144  0.0242
 2933SOL    HW120261   3.668   3.896   1.860 -0.2441 -1.2180 -1.0714
 2933SOL    HW220262   3.606   3.762   1.894 -0.5121 -0.4395 -0.1790
 2934SOL     OW20263   0.028   2.176  15.221 -0.0823  0.0689  0.4444
 2934SOL    HW120264   4.663   2.153  15.197 -0.9200  0.5667  3.1470
 2934SOL    HW220265   0.021   2.235  15.296 -0.0475  0.8139 -0.1350
 2935SOL     OW20266   2.822   3.021   5.751  0.1066  0.4093  0.3091
 2935SOL    HW120267   2.908   3.021   5.792 -0.9700 -0.8285  2.5639
 2935SOL    HW220268   2.837   2.966   5.674  0.3804  0.4149  0.3599
 2936SOL     OW20269   1.100   0.819   2.254 -0.0229  0.3228 -0.3234
 2936SOL    HW120270   1.130   0.820   2.163 -0.9966  0.8547 -0.6350
 2936SOL    HW220271   1.044   0.742   2.267 -0.2392  1.1749  4.0518
 2937SOL     OW20272   4.702   1.025   8.227  1.0162  0.2360 -0.4977
 2937SOL    HW120273   0.016   1.057   8.145  1.3537 -0.0944 -0.4665
 2937SOL    HW220274   0.057   1.014   8.278  0.3851  0.8890  0.6275
 2938SOL     OW20275   4.633   3.501  17.278 -0.4796 -0.1382  0.0837
 2938SOL    HW120276   4.611   3.413  17.309 -0.0071  0.0772  1.0396
 2938SOL    HW220277   4.547   3.529  17.246  0.7255 -0.2199 -3.2281
 2939SOL     OW20278   4.419   4.037   8.801 -0.3756  0.2355  0.0195
 2939SOL    HW120279   4.448   4.121   8.836 -1.8926 -0.2331  2.3722
 2939SOL    HW220280   4.491   3.976   8.816 -1.4550 -0.4611  2.4445
 2940SOL     OW20281   2.690   1.944   2.507  0.0812  0.0707  0.0077
 2940SOL    HW120282   2.705   1.979   2.596 -1.0368 -0.2384  0.3109
 2940SOL    HW220283   2.650   1.861   2.531 -0.2012  0.3235  0.4218
 2941SOL     OW20284   3.803   1.450  14.971 -0.1229  0.1360 -0.6355
 2941SOL    HW120285   3.709   1.453  14.990 -0.0136  2.4083 -0.4721
 2941SOL    HW220286   3.840   1.457  15.059 -1.2784 -2.8256  0.0955
 2942SOL     OW20287   0.537   4.482  15.788  0.3163  0.0646  0.1910
 2942SOL    HW120288   0.475   4.472  15.860  1.5249  2.2016  1.5224
 2942SOL    HW220289   0.566   4.573  15.782  1.6301 -0.5826 -3.1373
 2943SOL     OW20290   2.381   3.012   4.070 -0.8216 -0.0860  0.0922
 2943SOL    HW120291   2.434   2.946   4.025 -0.8189  0.0720 -0.1367
 2943SOL    HW220292   2.386   3.085   4.009  0.5009  1.0781  1.5614
 2944SOL     OW20293   0.186   1.876   1.157  0.0888 -0.1694  0.0274
 2944SOL    HW120294   0.138   1.799   1.186 -0.5284 -0.2315 -1.1294
 2944SOL    HW220295   0.230   1.838   1.081 -2.9166 -0.1517 -1.7268
 2945SOL     OW20296   3.033   3.346   3.738  0.1356 -0.1243  0.5381
 2945SOL    HW120297   3.027   3.440   3.717 -1.4376  0.1996  2.3891
 2945SOL    HW220298   3.125   3.326   3.752  0.7589  2.3415  0.1170
 2946SOL     OW20299   2.596   3.895  16.550 -0.3248  0.1428 -0.7023
 2946SOL    HW120300   2.658   3.965  16.532 -2.1328  2.0817  0.5420
 2946SOL    HW220301   2.545   3.943  16.615  0.0147 -0.0549 -0.2909
 2947SOL     OW20302   3.312   0.546   4.955  0.3483  0.0449 -0.6496
 2947SOL    HW120303   3.368   0.475   4.986  0.4972 -1.1724 -3.7927
 2947SOL    HW220304   3.288   0.569   5.046 -0.1138  1.9412 -1.2442
 2948SOL     OW20305   3.371   2.505   2.610  0.0203 -0.0819 -0.1582
 2948SOL    HW120306   3.309   2.495   2.682 -0.4965  0.3323 -0.5440
 2948SOL    HW220307   3.419   2.422   2.604  0.2825  0.3340 -3.8017
 2949SOL     OW20308   3.167   2.471   1.497  0.0048  0.2405 -0.1115
 2949SOL    HW120309   3.144   2.494   1.586  2.4416  0.7760  0.3805
 2949SOL    HW220310   3.141   2.379   1.486  2.9741 -0.5503 -0.4669
 2950SOL     OW20311   3.971   4.685   7.155  0.7878 -0.1799  0.6154
 2950SOL    HW120312   4.001   4.648   7.238 -0.9539  0.7230  1.6591
 2950SOL    HW220313   3.882   4.713   7.177  0.6704  0.4626 -0.6755
 2951SOL     OW20314   4.436   2.116   6.952 -0.2612 -0.0143  0.3282
 2951SOL    HW120315   4.386   2.127   6.870  0.2860 -1.3639 -0.1814
 2951SOL    HW220316   4.398   2.170   7.021 -3.1849 -3.5442  1.4746
 2952SOL     OW20317   4.159   3.812   1.867 -0.3340 -0.2070  0.0667
 2952SOL    HW120318   4.099   3.876   1.829 -0.2872 -2.1304 -3.2035
 2952SOL    HW220319   4.181   3.762   1.789 -0.4634  2.9144 -1.9675
 2953SOL     OW20320   3.936   4.415   1.925  0.0509 -0.8926  0.4600
 2953SOL    HW120321   3.986   4.350   1.875  0.8029  1.1109 -1.3817
 2953SOL    HW220322   3.935   4.376   2.012  1.4562  2.6675  2.0805
 2954SOL     OW20323   2.471   0.260   2.815  0.6205  0.5712  0.4586
 2954SOL    HW120324   2.414   0.199   2.768  0.7356 -1.1084  2.4828
 2954SOL    HW220325   2.418   0.339   2.823 -1.2714 -0.5655 -0.9111
 2955SOL     OW20326   1.210   3.943   4.529  0.0377  0.2758 -0.5899
 2955SOL    HW120327   1.125   3.961   4.488 -0.7999  0.5287  1.2086
 2955SOL    HW220328   1.190   3.858   4.569  0.6140 -0.0759 -1.0548
 2956SOL     OW20329   0.073   0.376   2.881 -0.9968  0.6211  0.6130
 2956SOL    HW120330   4.713   0.385   2.925 -1.1426 -0.0004  0.4549
 2956SOL    HW220331   0.120   0.378   2.965  2.0411  2.0666 -1.1018
 2957SOL     OW20332   3.945   2.717   9.912  0.6619  0.1289 -0.1258
 2957SOL    HW120333   4.038   2.721   9.886 -0.1252 -0.9724 -3.1533
 2957SOL    HW220334   3.935   2.794   9.969 -1.3986  0.1324 -0.5078
 2958SOL     OW20335   0.220   2.872   5.332 -0.1770 -0.0370  0.3069
 2958SOL    HW120336   0.137   2.847   5.373 -1.4670  1.6218 -1.2904
 2958SOL    HW220337   0.212   2.828   5.247 -0.8686 -0.8530  0.7907
 2959SOL     OW20338   3.535   0.436   0.810  0.0537  0.3624 -0.1264
 2959SOL    HW120339   3.604   0.379   0.843  0.7054  1.3850  0.2793
 2959SOL    HW220340   3.575   0.523   0.808  1.4622 -0.2887 -0.4014
 2960SOL     OW20341   4.401   0.652   2.764 -0.3201 -0.5111  0.2644
 2960SOL    HW120342   4.344   0.659   2.687 -1.8221 -1.4127  1.2918
 2960SOL    HW220343   4.463   0.587   2.732 -0.4608  0.9127 -2.9043
 2961SOL     OW20344   2.198   3.991  16.099  0.1760  0.2666  0.5098
 2961SOL    HW120345   2.105   4.006  16.115 -0.3971  0.5550 -2.9463
 2961SOL    HW220346   2.192   3.980  16.004  2.2081  1.1877  0.2717
 2962SOL     OW20347   1.767   1.555  17.420 -0.0763  0.6885  0.1662
 2962SOL    HW120348   1.734   1.518  17.338  1.3696  0.4611 -0.3129
 2962SOL    HW220349   1.699   1.530  17.483 -1.0316  0.2531 -1.0426
 2963SOL     OW20350   3.225   3.107   6.784  0.1941  0.4899 -0.1065
 2963SOL    HW120351   3.162   3.077   6.719 -0.5541 -0.1924  0.9255
 2963SOL    HW220352   3.309   3.094   6.740  0.0077 -1.3729  0.0645
 2964SOL     OW20353   3.035   2.047   0.941 -0.1462  0.4354 -0.2110
 2964SOL    HW120354   2.997   2.135   0.942 -0.1638  0.4408 -1.9081
 2964SOL    HW220355   2.976   2.003   1.002 -0.0350 -0.2804 -0.6099
 2965SOL     OW20356   1.475   2.413  10.673 -0.0341  0.1176  0.1118
 2965SOL    HW120357   1.528   2.487  10.704 -1.0711  0.7229  0.4142
 2965SOL    HW220358   1.402   2.461  10.634 -2.2845 -2.7750  0.7909
 2966SOL     OW20359   2.367   4.501  14.067 -0.2712  0.0803  0.1494
 2966SOL    HW120360   2.313   4.578  14.085  0.8373  0.7042  0.7868
 2966SOL    HW220361   2.431   4.497  14.138 -1.6224 -0.3917  1.3552
 2967SOL     OW20362   2.275   2.060   4.324 -0.0008 -0.1882 -0.1042
 2967SOL    HW120363   2.184   2.080   4.303  0.6282  1.7357 -1.0613
 2967SOL    HW220364   2.303   2.027   4.239  3.8599 -1.7725  1.7537
 2968SOL     OW20365   4.157   1.609   8.823 -0.1952 -0.2020 -0.2326
 2968SOL    HW120366   4.237   1.659   8.807 -0.6541  0.5291 -0.2550
 2968SOL    HW220367   4.173   1.556   8.901 -0.1795  0.2891  0.1009
 2969SOL     OW20368   3.789   1.461   9.639  0.9978  0.3983  0.5052
 2969SOL    HW120369   3.883   1.445   9.639  0.7454 -1.0791 -1.4008
 2969SOL    HW220370   3.775   1.553   9.618 -1.4918 -0.0851  0.0395
 2970SOL     OW20371   1.455   0.997  17.440  0.5430  1.0547 -0.4347
 2970SOL    HW120372   1.451   0.914  17.392 -0.2831 -0.2737  1.9526
 2970SOL    HW220373   1.363   1.018  17.454  0.3591 -1.2899  1.7313
 2971SOL     OW20374   3.717   2.042   6.089 -0.1943 -0.2980 -0.0579
 2971SOL    HW120375   3.719   2.047   5.993  1.8672 -0.6383 -0.0215
 2971SOL    HW220376   3.658   1.967   6.086 -0.2807 -0.2445  0.4067
 2972SOL     OW20377   3.695   1.192   2.726  0.5182  0.0818 -0.1325
 2972SOL    HW120378   3.671   1.107   2.763 -0.6252 -0.0902 -1.2765
 2972SOL    HW220379   3.710   1.178   2.633  1.5396 -2.0360  0.3621
 2973SOL     OW20380   4.722   2.398   7.284 -0.0111  0.4775  0.0907
 2973SOL    HW120381   0.049   2.364   7.211 -0.3148  2.3859 -0.9952
 2973SOL    HW220382   0.060   2.372   7.352 -1.2118  0.3402  1.1508
 2974SOL     OW20383   2.024   3.566   9.538 -0.5505  0.2733  0.1388
 2974SOL    HW120384   1.964   3.495   9.558  0.1061 -0.7217 -1.4565
 2974SOL    HW220385   1.968   3.633   9.579  0.6626  1.9401 -0.9413
 2975SOL     OW20386   1.958   4.448   4.081  0.2099  0.2818  0.1334
 2975SOL    HW120387   1.949   4.353   4.076 -1.1795  0.3804  0.8868
 2975SOL    HW220388   1.869   4.469   4.109 -0.3883 -0.9881 -0.8127
 2976SOL     OW20389   0.140   2.769   4.757  0.0217 -0.7951 -0.4646
 2976SOL    HW120390   0.140   2.861   4.729 -1.2819  0.0261  2.1615
 2976SOL    HW220391   0.227   2.743   4.728 -0.6977 -1.1111 -2.3223
 2977SOL     OW20392   1.596   3.953  13.328  0.3702  0.3144 -0.0495
 2977SOL    HW120393   1.603   3.989  13.417 -0.2329  0.3038  0.0022
 2977SOL    HW220394   1.654   3.877  13.324 -1.9825 -1.3287 -2.8893
 2978SOL     OW20395   1.851   4.144   2.463  0.0970 -0.7738  0.3089
 2978SOL    HW120396   1.799   4.090   2.522 -3.6647  0.0406 -2.3291
 2978SOL    HW220397   1.863   4.223   2.517 -2.3129 -0.8628  0.9762
 2979SOL     OW20398   2.762   3.964   5.252 -0.2043 -0.0843 -0.1585
 2979SOL    HW120399   2.739   3.960   5.159  3.5627 -2.4174 -0.9953
 2979SOL    HW220400   2.726   3.879   5.277  0.4753 -0.9520 -2.1476
 2980SOL     OW20401   2.110   3.758   4.102 -0.5082 -0.4275 -0.0676
 2980SOL    HW120402   2.106   3.718   4.188  0.5909 -0.3323  0.0280
 2980SOL    HW220403   2.129   3.681   4.048 -2.7205 -0.9504 -0.0853
 2981SOL     OW20404   3.493   2.990  14.592  0.0803 -0.6344 -0.3476
 2981SOL    HW120405   3.470   2.898  14.594 -1.1576 -0.2576  3.8499
 2981SOL    HW220406   3.519   3.012  14.503 -0.0745 -1.6869 -0.6511
 2982SOL     OW20407   0.915   0.419   9.001 -0.2564  0.0888  0.2731
 2982SOL    HW120408   0.935   0.485   9.067 -1.0359 -1.2403  1.8187
 2982SOL    HW220409   0.822   0.404   9.022 -0.7079  2.0322 -0.2952
 2983SOL     OW20410   2.281   1.530   4.590  0.9641  0.2413  0.3422
 2983SOL    HW120411   2.363   1.481   4.581 -0.3645 -1.8460 -0.3527
 2983SOL    HW220412   2.302   1.612   4.545 -2.6082  1.0769  0.2016
 2984SOL     OW20413   1.859   2.221   6.130 -0.4829  0.2746  0.3453
 2984SOL    HW120414   1.790   2.287   6.123 -1.3138 -0.7776 -1.5529
 2984SOL    HW220415   1.889   2.234   6.220  1.1352 -0.9260 -0.0262
 2985SOL     OW20416   2.517   4.651   6.913  0.2786 -0.2073 -0.3287
 2985SOL    HW120417   2.536   4.614   6.999 -0.0332  2.7550  1.0301
 2985SOL    HW220418   2.485   4.571   6.872 -1.9854  1.3943 -1.6666
 2986SOL     OW20419   4.128   3.722  10.366 -0.5386 -0.0434 -0.5950
 2986SOL    HW120420   4.115   3.788  10.434 -0.9304  0.5750 -1.2681
 2986SOL    HW220421   4.150   3.778  10.291 -0.8828 -0.9404 -1.3614
 2987SOL     OW20422   4.407   4.203  16.027  0.0263  0.1984  0.3678
 2987SOL    HW120423   4.381   4.227  16.116 -1.9716 -1.4271  0.2146
 2987SOL    HW220424   4.330   4.228  15.975  0.7808  0.8914 -0.4334
 2988SOL     OW20425   2.513   1.414  13.446  0.5934  0.3040 -0.5266
 2988SOL    HW120426   2.549   1.473  13.512 -1.0795 -0.7064  1.2937
 2988SOL    HW220427   2.454   1.356  13.494  1.0351 -1.0337 -1.5743
 2989SOL     OW20428   1.578   0.097   8.653 -0.3715 -0.1358 -0.5070
 2989SOL    HW120429   1.491   0.066   8.678 -0.2983  0.9446  1.0398
 2989SOL    HW220430   1.555   0.183   8.617  0.9506  1.3756  2.3275
 2990SOL     OW20431   2.981   2.272  13.865 -0.2792  0.1376 -0.0568
 2990SOL    HW120432   2.918   2.321  13.918  0.0070 -1.0080  1.3437
 2990SOL    HW220433   2.925   2.204  13.828  1.7633 -2.0321  0.8138
 2991SOL     OW20434   4.242   4.152   5.512 -0.4967 -0.0554  0.8217
 2991SOL    HW120435   4.171   4.207   5.546 -0.5720  1.7648 -2.2682
 2991SOL    HW220436   4.201   4.110   5.437 -0.1347 -0.3753  0.8027
 2992SOL     OW20437   0.877   2.892  11.446  0.6114  0.3110  0.2842
 2992SOL    HW120438   0.827   2.966  11.412 -1.0088 -0.5791  0.7361
 2992SOL    HW220439   0.957   2.893  11.393  0.3889  1.9107 -0.0397
 2993SOL     OW20440   4.594   3.709   8.137 -0.4312  0.3193  0.4218
 2993SOL    HW120441   4.587   3.803   8.155  1.4639  0.4356  0.4876
 2993SOL    HW220442   4.687   3.694   8.151 -0.6526 -1.8239 -0.3779
 2994SOL     OW20443   1.919   3.863   9.275  0.3507 -0.4057  0.5066
 2994SOL    HW120444   1.861   3.898   9.343 -1.4153 -0.3510 -1.0254
 2994SOL    HW220445   1.986   3.806   9.312  1.7138 -0.9833 -2.8532
 2995SOL     OW20446   3.723   0.460   6.203  0.3687 -0.2870  0.1012
 2995SOL    HW120447   3.694   0.451   6.294 -0.1961 -2.1795 -0.2525
 2995SOL    HW220448   3.645   0.441   6.150  0.8899  0.2958 -0.8754
 2996SOL     OW20449   4.329   2.211   3.432 -0.4838 -0.3364  0.5784
 2996SOL    HW120450   4.300   2.271   3.363  1.6534  0.7794  0.6737
 2996SOL    HW220451   4.373   2.263   3.500  2.4167 -1.3026 -0.5827
 2997SOL     OW20452   1.918   0.772   4.480  0.3505  0.3000  0.1903
 2997SOL    HW120453   1.904   0.715   4.404  0.9389 -2.0740  1.8553
 2997SOL    HW220454   1.909   0.707   4.550  0.0111 -0.1795 -0.2994
 2998SOL     OW20455   3.247   0.933   6.274 -0.2669 -0.5354  0.1570
 2998SOL    HW120456   3.289   0.860   6.229  0.3551  0.9936 -1.7476
 2998SOL    HW220457   3.162   0.935   6.231 -0.9983 -3.6001  1.5141
 2999SOL     OW20458   4.486   0.361  16.494 -0.3235 -0.8189  0.2368
 2999SOL    HW120459   4.542   0.346  16.571  1.8706 -0.1993 -1.2224
 2999SOL    HW220460   4.402   0.343  16.536 -0.0645 -1.7053  0.3804
 3000SOL     OW20461   3.267   3.023   3.315  0.1813  0.4986  0.4461
 3000SOL    HW120462   3.303   2.943   3.278 -0.8881 -0.1219  0.7534
 3000SOL    HW220463   3.296   3.084   3.247 -0.5668  0.4480  0.0767
 3001SOL     OW20464   0.279   2.241  16.926  0.1871 -0.2725  0.0635
 3001SOL    HW120465   0.356   2.296  16.910  0.4619 -0.5759  0.3588
 3001SOL    HW220466   0.214   2.300  16.887  0.7223 -0.5488 -1.2312
 3002SOL     OW20467   0.441   0.347   2.382 -0.0788 -0.1689 -0.6760
 3002SOL    HW120468   0.401   0.261   2.369 -0.0656 -0.1536 -0.8244
 3002SOL    HW220469   0.436   0.359   2.477  0.0381 -0.4863 -0.6293
 3003SOL     OW20470   1.119   1.201   5.320 -0.1453 -0.2305  0.0751
 3003SOL    HW120471   1.163   1.142   5.258  0.6000  1.1285 -0.6992
 3003SOL    HW220472   1.121   1.288   5.279 -1.1744 -0.9442 -1.4792
 3004SOL     OW20473   2.652   3.644   9.464 -0.3934 -0.2077 -0.1439
 3004SOL    HW120474   2.676   3.732   9.435  1.3617  0.4881  3.3535
 3004SOL    HW220475   2.724   3.626   9.524 -0.5878  1.0352  0.4549
 3005SOL     OW20476   0.038   1.871   6.196  0.6185  0.1441 -0.3537
 3005SOL    HW120477   0.093   1.944   6.221 -0.2904  0.1030  1.7447
 3005SOL    HW220478   4.671   1.901   6.196  1.5890  3.1117  1.7248
 3006SOL     OW20479   0.044   3.834   1.957  0.3499  0.0645 -0.5601
 3006SOL    HW120480   0.074   3.825   2.047 -1.8631  0.0944  0.1769
 3006SOL    HW220481   0.127   3.837   1.911  0.0591  1.4434 -0.9959
 3007SOL     OW20482   4.352   1.223   0.971  0.3236  0.6954  0.1148
 3007SOL    HW120483   4.281   1.243   0.910  1.8870  2.0414 -1.2933
 3007SOL    HW220484   4.415   1.290   0.942  1.7860  0.0324  1.7812
 3008SOL     OW20485   1.626   3.027  16.197 -0.1028  0.0127  0.5150
 3008SOL    HW120486   1.643   2.938  16.227  1.0967 -0.2233 -0.8382
 3008SOL    HW220487   1.604   3.017  16.105  0.0926  1.9149  0.2460
 3009SOL     OW20488   2.963   1.100   5.954 -0.2092  0.2286 -0.1007
 3009SOL    HW120489   3.013   1.182   5.947 -0.2652  0.4157  1.7380
 3009SOL    HW220490   2.995   1.051   5.879 -0.5508 -1.0040  0.5592
 3010SOL     OW20491   4.095   4.696   8.032 -0.3198 -0.3046 -0.0657
 3010SOL    HW120492   4.134   0.021   8.103  0.6141  0.5772 -1.1915
 3010SOL    HW220493   4.083   4.611   8.075 -1.1882  0.2312  0.7527
 3011SOL     OW20494   3.584   0.984   2.974  0.1108 -0.6841 -0.3986
 3011SOL    HW120495   3.519   0.953   2.911  0.3463 -2.3894  0.1989
 3011SOL    HW220496   3.588   0.918   3.044  2.4371  0.4372  0.5116
 3012SOL     OW20497   3.553   4.686   8.310 -0.0879 -0.3423 -0.0539
 3012SOL    HW120498   3.591   4.667   8.224 -2.5352 -0.2798 -1.1539
 3012SOL    HW220499   3.539   4.600   8.349 -1.2874  0.5131  1.3694
 3013SOL     OW20500   1.257   2.358  16.659  0.2544 -0.0931  0.7384
 3013SOL    HW120501   1.276   2.291  16.724  1.0992  3.0602  3.7789
 3013SOL    HW220502   1.346   2.383  16.634 -0.1126  0.8776  0.4004
 3014SOL     OW20503   2.930   3.772  13.364 -0.0023 -0.2559 -0.6332
 3014SOL    HW120504   2.887   3.687  13.374 -2.5544  1.2553  1.2753
 3014SOL    HW220505   2.897   3.816  13.443  0.5953 -1.5677  0.3476
 3015SOL     OW20506   3.840   3.090   4.571 -0.0903 -0.3913  0.3881
 3015SOL    HW120507   3.900   3.015   4.575  1.3396  0.6765 -0.8501
 3015SOL    HW220508   3.796   3.096   4.655 -1.5993 -0.8667 -0.3781
 3016SOL     OW20509   2.000   1.227   7.560  0.1024  0.2834  0.3375
 3016SOL    HW120510   2.018   1.134   7.573  1.3785  0.6780  1.3854
 3016SOL    HW220511   2.023   1.237   7.467  1.9148 -2.6868  0.4799
 3017SOL     OW20512   1.817   1.947   6.295 -0.3235 -0.4433 -0.6239
 3017SOL    HW120513   1.790   1.885   6.227 -1.7350 -2.2474  1.6044
 3017SOL    HW220514   1.730   1.973   6.326 -0.2123  0.2586 -0.9065
 3018SOL     OW20515   3.612   2.842   8.237 -0.5346 -0.5926 -0.6689
 3018SOL    HW120516   3.537   2.889   8.274 -2.4914 -1.8975 -3.0233
 3018SOL    HW220517   3.678   2.845   8.306 -0.1050  1.6497 -1.1604
 3019SOL     OW20518   3.738   4.035   5.430 -0.1478 -0.2719  0.3023
 3019SOL    HW120519   3.776   4.044   5.517 -1.3657  1.5535  0.6367
 3019SOL    HW220520   3.704   4.123   5.414 -1.1687 -0.5690  0.7962
 3020SOL     OW20521   2.095   4.691  16.045  0.6281  0.1365  0.0933
 3020SOL    HW120522   2.051   4.695  15.960  1.1068 -0.3110 -0.1797
 3020SOL    HW220523   2.046   4.628  16.098  1.0907  1.0879  1.6449
 3021SOL     OW20524   4.453   0.854  16.957  0.4565 -0.3778 -0.4043
 3021SOL    HW120525   4.481   0.945  16.947 -0.6267 -0.1617 -1.4489
 3021SOL    HW220526   4.358   0.865  16.966  0.5501  0.6243 -0.5800
 3022SOL     OW20527   3.015   2.469   6.440  0.2126 -0.5122 -0.3838
 3022SOL    HW120528   3.105   2.496   6.421 -0.1668  0.6956 -0.4868
 3022SOL    HW220529   2.998   2.507   6.526  0.7611 -1.5409  0.1826
 3023SOL     OW20530   2.880   3.770   7.954  0.1229 -0.1991 -0.0160
 3023SOL    HW120531   2.940   3.712   7.908 -0.7976  0.7183 -2.3854
 3023SOL    HW220532   2.844   3.810   7.874 -1.7399  1.5497  1.6899
 3024SOL     OW20533   0.321   1.380  14.153 -0.3951 -0.2612  0.2062
 3024SOL    HW120534   0.262   1.379  14.229 -0.6757  0.6053  0.0011
 3024SOL    HW220535   0.350   1.470  14.165  0.2185 -0.3788 -0.4391
 3025SOL     OW20536   2.593   1.567   4.480  0.4541  0.5018  0.3669
 3025SOL    HW120537   2.582   1.516   4.400  1.8289  0.7512  0.0211
 3025SOL    HW220538   2.682   1.595   4.461  1.6066 -0.7488  3.8872
 3026SOL     OW20539   0.216   4.545   2.576 -0.7540  0.1451  0.4351
 3026SOL    HW120540   0.172   4.628   2.594 -0.1198  0.0797  2.3118
 3026SOL    HW220541   0.308   4.565   2.596 -0.4610 -3.5714  2.7377
 3027SOL     OW20542   3.281   2.230   8.473 -0.1635 -0.3040  0.2361
 3027SOL    HW120543   3.224   2.153   8.480 -1.5230  0.7183  0.4205
 3027SOL    HW220544   3.275   2.261   8.382 -2.4174 -0.7604  0.2403
 3028SOL     OW20545   4.557   4.372   6.510  0.5848 -0.1128 -0.3350
 3028SOL    HW120546   4.610   4.451   6.497  0.6257 -0.2414 -0.9579
 3028SOL    HW220547   4.560   4.334   6.422  0.3676 -2.8590  0.8400
 3029SOL     OW20548   4.663   3.044   2.634  0.3301 -0.1767 -0.1716
 3029SOL    HW120549   4.661   2.961   2.587 -0.8336  1.0246 -2.2484
 3029SOL    HW220550   4.693   3.032   2.724  3.3205 -0.1645 -1.1618
 3030SOL     OW20551   2.294   3.405   9.258  0.0796  0.3510  0.2012
 3030SOL    HW120552   2.306   3.313   9.235  0.4537  0.7377 -1.1308
 3030SOL    HW220553   2.262   3.399   9.348  1.2346 -2.4628  0.3886
 3031SOL     OW20554   4.307   0.153   4.729  0.6489 -0.0390 -0.6110
 3031SOL    HW120555   4.243   0.192   4.670  2.3146  1.2952 -1.5616
 3031SOL    HW220556   4.361   0.101   4.670  1.5915  0.8760 -0.5624
 3032SOL     OW20557   3.993   0.719   3.984 -0.5943 -0.4681  0.0213
 3032SOL    HW120558   4.070   0.752   4.029 -1.4177  3.4914 -1.4722
 3032SOL    HW220559   3.931   0.712   4.057 -3.9380  1.1902 -2.6443
 3033SOL     OW20560   1.507   2.790   2.792 -0.5558  0.5953 -0.4048
 3033SOL    HW120561   1.553   2.708   2.809 -0.1851  0.8481 -0.1628
 3033SOL    HW220562   1.414   2.771   2.783  0.2859 -2.3969 -2.5432
 3034SOL     OW20563   0.478   0.412   7.527 -0.5721  0.0849  0.0330
 3034SOL    HW120564   0.564   0.382   7.556 -0.6974  0.2693  0.5940
 3034SOL    HW220565   0.469   0.485   7.588  2.3530 -0.7500  1.4900
 3035SOL     OW20566   0.447   2.498   9.038 -0.1590 -0.4562  0.5349
 3035SOL    HW120567   0.514   2.550   8.993 -0.1001  0.1907  1.3700
 3035SOL    HW220568   0.428   2.430   8.974  0.2258 -0.5807  0.5532
 3036SOL     OW20569   1.227   1.741   4.821  0.1605  0.1533 -0.0900
 3036SOL    HW120570   1.194   1.770   4.906 -1.9606 -1.4909 -0.3592
 3036SOL    HW220571   1.241   1.828   4.783 -1.5820  1.5198  2.3836
 3037SOL     OW20572   3.538   0.889   5.624 -0.5111  0.4995 -0.4060
 3037SOL    HW120573   3.590   0.843   5.689 -0.2796 -0.8239 -1.5231
 3037SOL    HW220574   3.606   0.905   5.558  0.3917  0.0115  0.4119
 3038SOL     OW20575   1.835   4.648   6.650  0.9239  0.1932 -0.4410
 3038SOL    HW120576   1.795   4.719   6.701 -1.2708 -0.4618 -1.2598
 3038SOL    HW220577   1.770   4.637   6.581  2.2014  1.9082 -1.8957
 3039SOL     OW20578   4.111   2.294  10.394 -0.1714  0.0754 -0.2099
 3039SOL    HW120579   4.129   2.243  10.473 -0.1833 -0.1602 -0.3577
 3039SOL    HW220580   4.142   2.233  10.327 -2.4322 -1.5577  0.2445
 3040SOL     OW20581   0.283   3.885   1.836  0.1538  0.0989  0.0737
 3040SOL    HW120582   0.317   3.943   1.767 -0.8695  0.5236 -0.0774
 3040SOL    HW220583   0.352   3.916   1.895  1.1519 -0.7889 -0.6174
 3041SOL     OW20584   0.800   2.272   1.206 -0.3807 -0.1778  0.4596
 3041SOL    HW120585   0.830   2.181   1.209 -0.0143 -0.0732 -0.0755
 3041SOL    HW220586   0.705   2.261   1.199 -0.0171 -1.8769 -1.7564
 3042SOL     OW20587   0.211   2.419   8.276 -0.4342 -0.1757 -0.2607
 3042SOL    HW120588   0.152   2.351   8.243 -2.2306  0.8186  0.9486
 3042SOL    HW220589   0.294   2.387   8.239  0.9869  0.3118  2.5431
 3043SOL     OW20590   2.485   1.397   4.290 -0.0702 -0.6931 -0.1540
 3043SOL    HW120591   2.429   1.340   4.342  0.3842  0.5406  1.7059
 3043SOL    HW220592   2.550   1.331   4.266 -0.9224 -1.4163 -0.4658
 3044SOL     OW20593   4.637   3.988   3.991  0.5057  0.4719 -0.4539
 3044SOL    HW120594   4.715   3.953   4.034 -0.7355  2.5398  3.5052
 3044SOL    HW220595   4.660   3.976   3.899 -0.7222 -1.4062 -0.5286
 3045SOL     OW20596   3.463   1.729   6.857  0.2499  0.3343  0.1427
 3045SOL    HW120597   3.435   1.820   6.864  1.3612  0.6652  0.1932
 3045SOL    HW220598   3.553   1.743   6.887 -0.5679  2.7676  1.4500
 3046SOL     OW20599   2.428   3.561   2.250 -0.7129  0.6851  0.1266
 3046SOL    HW120600   2.369   3.520   2.314  0.2029 -1.5131 -0.4356
 3046SOL    HW220601   2.501   3.499   2.247 -0.8050  0.8165 -4.3775
 3047SOL     OW20602   1.842   3.069   8.922 -0.0995 -0.7701 -0.3325
 3047SOL    HW120603   1.933   3.071   8.891 -0.3488 -2.9933 -1.2143
 3047SOL    HW220604   1.794   3.124   8.862 -0.9579 -0.1257  0.9495
 3048SOL     OW20605   0.496   1.727  10.784 -0.1265  0.3374  0.5677
 3048SOL    HW120606   0.491   1.793  10.854 -1.1462 -0.5749  1.3665
 3048SOL    HW220607   0.539   1.781  10.718  1.4129 -1.7506 -0.1312
 3049SOL     OW20608   2.651   4.525   7.557 -0.4591 -0.0688 -0.1583
 3049SOL    HW120609   2.597   4.448   7.577  0.5296 -0.0992  2.4233
 3049SOL    HW220610   2.657   4.573   7.639 -1.0931  2.1171 -1.3902
 3050SOL     OW20611   4.712   4.080  13.491 -0.5523  0.0062  0.2198
 3050SOL    HW120612   0.001   4.046  13.402 -1.4375  0.3841 -0.0557
 3050SOL    HW220613   4.621   4.106  13.481 -0.4739  1.4203  3.3312
 3051SOL     OW20614   1.997   4.032   8.672  0.9303  0.3833  0.7232
 3051SOL    HW120615   2.070   3.992   8.625 -0.3489 -0.2068 -0.7139
 3051SOL    HW220616   1.943   3.959   8.701 -1.1185  2.6188  2.5728
 3052SOL     OW20617   2.723   4.333   1.532  0.3335  0.1895 -0.0866
 3052SOL    HW120618   2.639   4.349   1.575  0.9870 -1.3425  1.7298
 3052SOL    HW220619   2.715   4.379   1.448  0.6613  1.0864  0.3647
 3053SOL     OW20620   1.941   1.613   8.834  0.0352 -0.0579  0.6900
 3053SOL    HW120621   1.951   1.591   8.742  0.8632 -0.7513  0.9448
 3053SOL    HW220622   2.006   1.684   8.842  1.0923 -0.9127 -0.3012
 3054SOL     OW20623   2.398   2.340   4.654 -0.9095  0.3225  0.1272
 3054SOL    HW120624   2.336   2.363   4.585  0.7686 -2.1275 -2.1800
 3054SOL    HW220625   2.417   2.249   4.630  2.2394  1.4328 -1.6026
 3055SOL     OW20626   0.579   0.128   5.440  0.6647  0.4533  0.0468
 3055SOL    HW120627   0.584   0.223   5.437 -0.9029  0.5287 -0.1605
 3055SOL    HW220628   0.658   0.092   5.398 -0.7403 -2.0992 -0.4399
 3056SOL     OW20629   3.042   0.315   2.533  0.2305  0.2210 -0.1574
 3056SOL    HW120630   3.121   0.320   2.586  0.5982  0.5862 -0.7436
 3056SOL    HW220631   3.041   0.219   2.531  2.0642  0.2396 -1.8839
 3057SOL     OW20632   1.644   1.078   4.080 -0.2933  0.1971 -0.2571
 3057SOL    HW120633   1.550   1.069   4.096 -0.2852  0.9461  0.2447
 3057SOL    HW220634   1.636   1.148   4.015 -1.9117  0.3229  0.0692
 3058SOL     OW20635   0.633   1.269   1.593 -0.4982 -1.0761  0.1777
 3058SOL    HW120636   0.673   1.355   1.604 -0.9936 -0.6435 -1.3597
 3058SOL    HW220637   0.548   1.281   1.635 -1.1535 -2.0878 -0.8541
 3059SOL     OW20638   0.227   4.548   5.076 -0.2975 -0.2509  0.5309
 3059SOL    HW120639   0.152   4.575   5.023 -0.3102 -0.1131  0.6188
 3059SOL    HW220640   0.241   4.457   5.049  0.1051 -0.1035  0.2425
 3060SOL     OW20641   1.022   2.722  15.479  0.0865  0.0643  0.0388
 3060SOL    HW120642   0.943   2.743  15.430  0.4689 -2.4948 -1.6673
 3060SOL    HW220643   1.067   2.668  15.415 -1.6619 -2.0446  0.5716
 3061SOL     OW20644   1.823   0.188   7.317 -0.1158  0.3808  0.0520
 3061SOL    HW120645   1.851   0.125   7.250 -0.6134  0.2807 -0.0621
 3061SOL    HW220646   1.842   0.144   7.399  1.7540 -0.3616 -0.7597
 3062SOL     OW20647   4.589   2.091   6.643 -0.0447 -0.4494  0.4078
 3062SOL    HW120648   4.586   2.039   6.563 -0.1634 -1.4157  1.0444
 3062SOL    HW220649   4.664   2.047   6.684 -0.3519  0.0290  1.4906
 3063SOL     OW20650   2.165   3.675  15.018 -0.6549 -0.0653 -0.3990
 3063SOL    HW120651   2.126   3.610  14.959  0.4235 -0.5245 -0.5942
 3063SOL    HW220652   2.195   3.619  15.089  0.8025  1.4605  0.1681
 3064SOL     OW20653   4.002   0.495  14.539 -0.9221 -0.4056 -0.3293
 3064SOL    HW120654   3.943   0.518  14.467  0.3572  2.0529 -0.6061
 3064SOL    HW220655   4.087   0.524  14.507 -0.6958 -1.0927 -0.3396
 3065SOL     OW20656   1.791   3.025   4.448  0.3158 -0.0719  0.7325
 3065SOL    HW120657   1.823   2.939   4.423  2.0142  0.9651 -0.6586
 3065SOL    HW220658   1.842   3.080   4.388  1.5921 -1.6948  0.3487
 3066SOL     OW20659   3.105   3.436  15.549  0.0861 -0.0672  0.1188
 3066SOL    HW120660   3.183   3.380  15.548 -1.5676 -2.3261 -2.0634
 3066SOL    HW220661   3.042   3.390  15.494  0.3737 -1.0398  0.6015
 3067SOL     OW20662   1.323   1.583   9.037 -0.8574 -0.2047  0.3521
 3067SOL    HW120663   1.335   1.655   8.976  0.0658 -0.2432  0.4799
 3067SOL    HW220664   1.238   1.601   9.077 -1.7404 -1.6761 -0.8702
 3068SOL     OW20665   2.387   4.167  14.358 -0.5485 -0.2183  0.3547
 3068SOL    HW120666   2.472   4.209  14.343 -0.7415  0.4981  1.2278
 3068SOL    HW220667   2.401   4.080  14.322 -0.0325 -0.0846  0.2216
 3069SOL     OW20668   2.844   3.496   2.861  0.1387  0.0407 -0.2520
 3069SOL    HW120669   2.837   3.553   2.784 -1.0260  0.1758 -0.0509
 3069SOL    HW220670   2.865   3.559   2.930  0.0951 -0.8697  0.5926
 3070SOL     OW20671   3.031   3.918   5.364  0.0868  0.3378  1.0731
 3070SOL    HW120672   3.034   3.848   5.299 -0.7860  1.6174 -0.3445
 3070SOL    HW220673   2.999   3.863   5.435 -1.2732 -0.0055  0.1881
 3071SOL     OW20674   4.241   3.802   8.250  0.5187 -0.1832 -0.5248
 3071SOL    HW120675   4.149   3.804   8.225  0.6050 -0.3962 -0.8681
 3071SOL    HW220676   4.264   3.892   8.272  1.7352 -0.7770  0.6621
 3072SOL     OW20677   1.512   3.839   7.540  0.1895 -0.1067 -0.6101
 3072SOL    HW120678   1.538   3.772   7.603 -1.3604  0.2064  0.3622
 3072SOL    HW220679   1.558   3.823   7.458 -0.0365  0.4950 -0.8501
 3073SOL     OW20680   0.511   3.423   2.911 -0.0801 -0.3654  0.2238
 3073SOL    HW120681   0.457   3.343   2.914 -0.5095 -0.1011 -0.6708
 3073SOL    HW220682   0.501   3.459   2.824 -1.9977 -1.4438 -0.0165
 3074SOL     OW20683   3.645   0.708   8.824  0.0317 -0.2542 -0.4409
 3074SOL    HW120684   3.627   0.736   8.734 -2.3961 -2.8403 -0.7585
 3074SOL    HW220685   3.693   0.787   8.847  0.6359 -0.4444 -1.0451
 3075SOL     OW20686   4.071   4.686   2.495 -0.1827 -0.4335  0.3434
 3075SOL    HW120687   4.010   4.623   2.457  0.7257 -1.2030  0.1881
 3075SOL    HW220688   4.042   0.045   2.457 -2.6397 -0.3463  2.3804
 3076SOL     OW20689   1.990   3.900   0.358 -0.5248 -0.2816 -0.0493
 3076SOL    HW120690   2.029   3.966   0.301  1.7634 -2.3500 -0.8728
 3076SOL    HW220691   2.008   3.947   0.439  0.7486 -0.1581 -0.4151
 3077SOL     OW20692   1.727   2.776  16.536  0.4207  0.0928  0.2702
 3077SOL    HW120693   1.753   2.785  16.628  0.5617  0.7763  0.1656
 3077SOL    HW220694   1.677   2.856  16.521  0.3688 -0.0652 -0.3916
 3078SOL     OW20695   0.980   1.888   8.572  1.2943  0.0562 -0.7712
 3078SOL    HW120696   1.028   1.961   8.534  1.4812  1.5261  2.2487
 3078SOL    HW220697   0.983   1.820   8.504  2.1068 -2.0135  1.3273
 3079SOL     OW20698   0.319   0.752   1.487 -0.4944 -0.2239  0.1906
 3079SOL    HW120699   0.225   0.763   1.473  0.0791 -0.2143 -3.8765
 3079SOL    HW220700   0.327   0.684   1.554 -1.8426 -0.3120  0.2601
 3080SOL     OW20701   3.421   3.187   2.936  0.2569 -0.1419  0.6254
 3080SOL    HW120702   3.486   3.257   2.940  1.8667 -1.4746 -2.3786
 3080SOL    HW220703   3.418   3.143   3.021 -0.0089  1.4011  1.4001
 3081SOL     OW20704   1.420   0.573  13.476 -0.2685  0.1985  0.0659
 3081SOL    HW120705   1.501   0.526  13.492 -0.5837  0.4374  2.3670
 3081SOL    HW220706   1.418   0.574  13.380  1.3394  0.0790  0.0435
 3082SOL     OW20707   2.456   3.011   4.595 -0.2882  0.1185  0.6550
 3082SOL    HW120708   2.389   2.953   4.632 -0.5831 -0.8115 -1.3395
 3082SOL    HW220709   2.499   2.973   4.519 -0.7482  1.2518 -0.1717
 3083SOL     OW20710   2.393   4.217   0.094  0.0988 -0.9359 -0.3740
 3083SOL    HW120711   2.350   4.302   0.092  1.2449 -0.3081  1.0442
 3083SOL    HW220712   2.366   4.177   0.177 -1.3249  0.6783 -0.0747
 3084SOL     OW20713   3.643   3.681   6.135 -0.2402  0.1680 -0.3536
 3084SOL    HW120714   3.713   3.735   6.172 -0.4265 -1.2578  2.0712
 3084SOL    HW220715   3.680   3.594   6.151  0.6116  0.6584  0.3570
 3085SOL     OW20716   4.470   0.350   5.793 -0.8168 -0.0409 -0.5133
 3085SOL    HW120717   4.513   0.403   5.860 -1.5573 -0.3334  0.1912
 3085SOL    HW220718   4.469   0.405   5.715 -1.5393 -1.1377 -1.2901
 3086SOL     OW20719   3.857   0.891   2.969 -0.0831 -0.3190 -0.7950
 3086SOL    HW120720   3.781   0.928   3.012 -0.0236 -0.9947 -0.1186
 3086SOL    HW220721   3.820   0.837   2.899 -3.5302 -2.3324  2.6323
 3087SOL     OW20722   4.450   2.527   5.468  0.4357 -0.5831 -0.0099
 3087SOL    HW120723   4.362   2.523   5.507 -0.2611  0.4575 -1.4916
 3087SOL    HW220724   4.506   2.562   5.538 -1.3780  0.7375  0.7952
 3088SOL     OW20725   1.662   0.418   7.752  0.1706  0.1836  0.4825
 3088SOL    HW120726   1.675   0.513   7.747 -1.8861  0.4584  0.4230
 3088SOL    HW220727   1.579   0.417   7.799  1.1286 -1.0391  2.1293
 3089SOL     OW20728   1.415   3.048   3.922  0.4502 -0.3223 -0.2312
 3089SOL    HW120729   1.444   2.967   3.879  0.8805 -0.3739  0.1616
 3089SOL    HW220730   1.327   3.042   3.885 -0.6095  0.2229  2.2123
 3090SOL     OW20731   1.184   1.914  13.030  0.3130  0.2024  0.5783
 3090SOL    HW120732   1.228   1.982  13.081 -2.0791  0.6703  1.9912
 3090SOL    HW220733   1.163   1.965  12.952 -1.5194  0.1468  1.0415
 3091SOL     OW20734   2.309   3.849  12.484  0.1306 -0.0227  0.3466
 3091SOL    HW120735   2.267   3.763  12.483  0.7132 -0.3090  0.7094
 3091SOL    HW220736   2.316   3.864  12.578 -2.3887 -1.0809  0.7216
 3092SOL     OW20737   0.010   1.700   1.249 -0.2117  0.4386 -0.4461
 3092SOL    HW120738   0.045   1.634   1.309 -0.3433  0.9221  0.1639
 3092SOL    HW220739   4.642   1.686   1.268  0.2639  0.3591  1.8783
 3093SOL     OW20740   1.007   4.068   2.687 -0.4334  0.0341 -0.2639
 3093SOL    HW120741   0.951   4.043   2.761 -0.7391  0.6953 -0.2735
 3093SOL    HW220742   0.979   4.012   2.615 -0.4824 -0.2847 -0.0002
 3094SOL     OW20743   2.626   2.538  13.028 -0.2455  0.3892 -0.2022
 3094SOL    HW120744   2.551   2.493  12.989 -0.6950  0.1331  0.9419
 3094SOL    HW220745   2.588   2.595  13.095 -0.0667  1.0832 -0.6901
 3095SOL     OW20746   3.486   0.723   4.785  0.5050 -0.0164 -0.2295
 3095SOL    HW120747   3.541   0.783   4.835  1.5666 -2.5046  1.5774
 3095SOL    HW220748   3.432   0.676   4.849  1.2866 -0.9728 -0.2701
 3096SOL     OW20749   3.161   1.887   5.998 -0.2269  0.5854  0.6540
 3096SOL    HW120750   3.232   1.905   5.937 -0.6668 -0.6199 -0.2164
 3096SOL    HW220751   3.111   1.816   5.956  1.0355  1.0438 -1.6358
 3097SOL     OW20752   4.640   1.444   0.255 -0.2998 -0.3799  0.1141
 3097SOL    HW120753   4.682   1.506   0.196 -0.6000 -1.6441 -1.4273
 3097SOL    HW220754   4.708   1.383   0.283  1.1556  2.0290  1.8953
 3098SOL     OW20755   0.417   2.747   9.977 -0.8621  0.3205 -0.1210
 3098SOL    HW120756   0.439   2.738  10.070  1.5175  0.4066 -0.6961
 3098SOL    HW220757   0.392   2.839   9.966 -0.2060  0.3932 -0.9520
 3099SOL     OW20758   2.969   2.241   4.432  0.1845  0.0654 -0.6799
 3099SOL    HW120759   2.887   2.198   4.457  1.2180 -0.9743  0.8733
 3099SOL    HW220760   2.938   2.331   4.419  1.3805  0.4016 -1.1833
 3100SOL     OW20761   3.267   2.055   4.763  0.0754  0.2987  0.0033
 3100SOL    HW120762   3.311   2.113   4.825  3.1015 -0.8501 -1.1040
 3100SOL    HW220763   3.234   2.113   4.695 -0.0622 -1.4327 -1.4028
 3101SOL     OW20764   3.157   2.438   1.209 -0.4515 -0.5018 -0.3009
 3101SOL    HW120765   3.169   2.471   1.298 -2.1480  1.9525 -0.9633
 3101SOL    HW220766   3.157   2.348   1.240 -0.2794 -0.7329 -0.9726
 3102SOL     OW20767   2.497   3.079  15.402  0.4169  0.7820  0.2138
 3102SOL    HW120768   2.491   3.012  15.470  2.5519  0.9332  0.5568
 3102SOL    HW220769   2.407   3.091  15.371 -0.3970 -0.8678  1.9873
 3103SOL     OW20770   3.079   1.950   9.313  0.0062  0.5157  0.1807
 3103SOL    HW120771   2.988   1.951   9.283 -0.3481 -2.0624  1.1051
 3103SOL    HW220772   3.067   2.002   9.392 -0.2616  1.0589 -0.2237
 3104SOL     OW20773   2.329   2.830  15.076 -0.8241  0.7045 -0.1096
 3104SOL    HW120774   2.236   2.812  15.058 -0.0570 -1.5781 -1.7536
 3104SOL    HW220775   2.359   2.861  14.990 -0.2395 -3.3261 -1.3367
 3105SOL     OW20776   3.862   0.762   5.937 -0.6619  0.0033  0.3312
 3105SOL    HW120777   3.856   0.845   5.891 -2.1289 -0.5063 -0.4120
 3105SOL    HW220778   3.773   0.732   5.921 -0.4769 -0.7078  0.6363
 3106SOL     OW20779   1.840   3.644  15.186  0.2274 -0.3765  0.4902
 3106SOL    HW120780   1.750   3.662  15.161  1.5012  0.6211 -3.3025
 3106SOL    HW220781   1.884   3.729  15.183 -3.6056  1.6018  0.3595
 3107SOL     OW20782   1.735   3.444   2.747 -0.7801  0.0628 -0.0015
 3107SOL    HW120783   1.659   3.433   2.691 -1.9925  1.9010  1.3156
 3107SOL    HW220784   1.805   3.392   2.707 -1.2753 -0.5812 -0.0407
 3108SOL     OW20785   2.819   1.664   4.921 -0.0522 -0.1706 -0.3695
 3108SOL    HW120786   2.863   1.704   4.847 -0.5084  2.5070  0.8111
 3108SOL    HW220787   2.864   1.581   4.936  1.4931  0.4654 -1.5063
 3109SOL     OW20788   2.849   3.644  14.341 -0.0155 -0.1620  0.3504
 3109SOL    HW120789   2.803   3.631  14.424 -2.8357 -3.2448 -1.6694
 3109SOL    HW220790   2.940   3.648  14.369  0.1501 -0.8434 -0.0912
 3110SOL     OW20791   3.008   0.555  11.080  0.2641  0.2604 -0.1856
 3110SOL    HW120792   2.976   0.610  11.151 -0.9378 -1.5803  0.6964
 3110SOL    HW220793   3.000   0.475  11.133  0.6343 -0.1635 -0.7757
 3111SOL     OW20794   3.898   3.709   1.505 -0.7274 -0.0399 -0.2426
 3111SOL    HW120795   3.878   3.616   1.495  1.9243 -0.6339  0.0376
 3111SOL    HW220796   3.850   3.742   1.429 -1.5064  1.1694  0.7598
 3112SOL     OW20797   1.308   3.923  12.990 -0.3931 -0.2557 -0.8189
 3112SOL    HW120798   1.320   3.832  12.962  1.2195 -0.7373  1.4198
 3112SOL    HW220799   1.212   3.926  12.986 -0.2658  0.6904 -3.1871
 3113SOL     OW20800   4.174   3.984   5.924 -0.3764 -0.2399  0.0256
 3113SOL    HW120801   4.113   3.938   5.866 -2.4092  1.5520  0.7580
 3113SOL    HW220802   4.113   4.015   5.990  0.8527  0.9314  0.6082
 3114SOL     OW20803   3.077   1.396   9.903 -0.3799  0.0021  0.6910
 3114SOL    HW120804   3.168   1.381   9.876 -0.3444  1.1970  0.1492
 3114SOL    HW220805   3.098   1.417   9.994  0.1611 -1.1293  0.8298
 3115SOL     OW20806   4.042   4.448   5.901  0.0568 -0.0495  0.0826
 3115SOL    HW120807   4.011   4.488   5.983  2.0329 -1.5395  1.5496
 3115SOL    HW220808   3.976   4.380   5.885 -2.6976  0.8527  7.4323
 3116SOL     OW20809   0.691   1.851   5.358 -0.2288  0.3870  0.3508
 3116SOL    HW120810   0.679   1.790   5.285 -2.3907  0.7589  0.3956
 3116SOL    HW220811   0.667   1.935   5.321  1.9389  1.4210  1.3168
 3117SOL     OW20812   2.761   3.333   6.317  0.2914 -0.3474  0.0669
 3117SOL    HW120813   2.811   3.345   6.236  1.2034  0.7231  0.7978
 3117SOL    HW220814   2.743   3.420   6.352  4.2993  0.8998 -1.0062
 3118SOL     OW20815   0.382   1.968   4.395 -0.4475  0.1926 -0.2701
 3118SOL    HW120816   0.427   2.021   4.329  0.8637 -0.8835 -0.2578
 3118SOL    HW220817   0.325   2.032   4.437 -0.6346  0.3265 -0.7301
 3119SOL     OW20818   3.586   2.082   5.103  0.0865  0.5722  0.1404
 3119SOL    HW120819   3.596   2.031   5.023 -1.9874  2.7170 -1.4845
 3119SOL    HW220820   3.504   2.130   5.091 -0.7546 -1.0571 -0.6723
 3120SOL     OW20821   1.444   3.307   2.840 -0.6867 -0.0231  0.1496
 3120SOL    HW120822   1.451   3.314   2.745 -0.9834 -0.3151  0.1071
 3120SOL    HW220823   1.353   3.328   2.861 -0.4758  1.2874 -0.2184
 3121SOL     OW20824   0.084   2.460   5.382  0.9100  0.4379  0.0238
 3121SOL    HW120825   0.141   2.441   5.457  2.4858 -0.6876 -1.4773
 3121SOL    HW220826   0.064   2.554   5.382 -0.3235  0.1808  1.0998
 3122SOL     OW20827   4.382   2.830  12.683  0.4895  0.2742 -0.3836
 3122SOL    HW120828   4.381   2.837  12.779  1.3961 -0.3387 -0.3297
 3122SOL    HW220829   4.471   2.860  12.669  0.3648  0.7082 -0.2610
 3123SOL     OW20830   4.316   3.566   6.221 -0.1227  0.0663  0.3571
 3123SOL    HW120831   4.262   3.509   6.277  0.8758 -0.8967  0.3426
 3123SOL    HW220832   4.270   3.548   6.139  0.3233  2.2680 -0.3730
 3124SOL     OW20833   2.435   2.063   4.907 -0.0856  0.1810  0.2727
 3124SOL    HW120834   2.524   2.097   4.904 -0.7822  1.9412 -0.2125
 3124SOL    HW220835   2.394   2.124   4.968  1.5697  3.8036 -2.2386
 3125SOL     OW20836   1.208   2.484   3.966 -0.2471 -0.1087  0.4551
 3125SOL    HW120837   1.123   2.472   4.009  0.1770 -0.0055  1.3161
 3125SOL    HW220838   1.218   2.579   3.968  0.9161 -0.2032 -1.2946
 3126SOL     OW20839   0.467   1.798   3.371  0.4249 -0.4424  0.2674
 3126SOL    HW120840   0.423   1.767   3.292  0.7204  1.9032 -0.8041
 3126SOL    HW220841   0.451   1.721   3.427  0.9962 -0.9605 -0.2819
 3127SOL     OW20842   4.032   3.175   7.680  0.2710 -0.1219 -0.2865
 3127SOL    HW120843   3.957   3.146   7.628  0.4024  0.2862 -0.7031
 3127SOL    HW220844   4.091   3.123   7.625 -0.1918  0.0062 -0.8965
 3128SOL     OW20845   2.933   4.365   3.733 -0.2297  0.0677  0.6155
 3128SOL    HW120846   2.930   4.325   3.820  1.4090  0.8619  1.0496
 3128SOL    HW220847   2.861   4.427   3.734 -0.3263 -0.0173 -2.3272
 3129SOL     OW20848   2.630   3.573   3.121 -0.0603 -0.2249 -0.0037
 3129SOL    HW120849   2.591   3.491   3.090 -0.6042 -0.1770  0.5443
 3129SOL    HW220850   2.653   3.554   3.212 -1.5963 -3.0562 -0.2076
 3130SOL     OW20851   1.091   2.326  15.362 -0.2608 -0.2913  0.1240
 3130SOL    HW120852   1.167   2.271  15.383  0.9483  1.1628 -0.4669
 3130SOL    HW220853   1.020   2.288  15.414 -0.2189 -0.4184  0.0898
 3131SOL     OW20854   1.624   3.553  10.288 -0.1621 -0.2018  0.1722
 3131SOL    HW120855   1.717   3.534  10.295 -0.3395 -1.0937  0.0450
 3131SOL    HW220856   1.620   3.605  10.368 -2.5816 -1.6278  0.9790
 3132SOL     OW20857   0.875   1.419   7.252 -0.2071 -0.0520  0.7939
 3132SOL    HW120858   0.795   1.468   7.266  0.6026  1.2505  0.8724
 3132SOL    HW220859   0.848   1.342   7.202  2.3704 -0.1901 -0.4341
 3133SOL     OW20860   2.751   0.018   4.061  0.1780 -0.3040 -0.1357
 3133SOL    HW120861   2.833   0.039   4.107 -1.0621 -1.7481  2.7066
 3133SOL    HW220862   2.745   0.088   3.996  1.9962 -0.6637 -0.6875
 3134SOL     OW20863   4.186   0.985   4.688  0.1964  0.0151 -0.3227
 3134SOL    HW120864   4.093   0.988   4.666  0.2679 -0.2434 -0.6434
 3134SOL    HW220865   4.231   1.004   4.606 -1.4876  0.5193 -1.1127
 3135SOL     OW20866   1.124   3.300  16.954 -0.3404 -0.8850  0.2608
 3135SOL    HW120867   1.108   3.302  16.860  0.0954  2.5157  0.2745
 3135SOL    HW220868   1.033   3.290  16.983 -0.7569  0.0629 -0.7469
 3136SOL     OW20869   1.048   1.960   5.457 -0.0176  0.2619  0.1168
 3136SOL    HW120870   1.034   2.004   5.373 -1.3912 -0.6444 -0.1283
 3136SOL    HW220871   1.068   1.870   5.431 -1.4264  0.2816 -1.0154
 3137SOL     OW20872   4.407   3.318   3.347 -0.5367  0.7579  0.0467
 3137SOL    HW120873   4.468   3.277   3.408 -1.5025  0.8547  1.0666
 3137SOL    HW220874   4.430   3.277   3.263 -0.1949  1.2291 -0.0852
 3138SOL     OW20875   0.243   4.274   4.097 -0.8003 -0.0392 -0.1766
 3138SOL    HW120876   0.217   4.186   4.126 -0.8799  0.5608  1.5697
 3138SOL    HW220877   0.200   4.275   4.012 -0.8275 -2.7921 -0.2179
 3139SOL     OW20878   1.349   0.604   7.590  0.3192  0.2036  0.8501
 3139SOL    HW120879   1.338   0.525   7.642  2.9336 -2.0814 -2.1075
 3139SOL    HW220880   1.422   0.582   7.533  0.8923  1.0761  1.2524
 3140SOL     OW20881   1.465   0.538   4.016  0.5163  0.2334 -0.4499
 3140SOL    HW120882   1.532   0.492   4.067 -0.5150  0.9471  1.5302
 3140SOL    HW220883   1.442   0.591   4.092  0.7700 -0.4619  0.1074
 3141SOL     OW20884   3.692   1.285   6.966 -0.1317  0.1314  0.8179
 3141SOL    HW120885   3.705   1.231   6.889  2.8354  2.1820 -0.1570
 3141SOL    HW220886   3.754   1.359   6.965  0.9389 -0.7714  0.5052
 3142SOL     OW20887   0.851   0.968   9.698 -0.8305 -0.2670 -0.2559
 3142SOL    HW120888   0.794   0.909   9.747 -1.4232 -1.3632 -2.2838
 3142SOL    HW220889   0.811   1.051   9.722 -1.6044  0.3233 -3.6919
 3143SOL     OW20890   2.951   2.110   5.021 -0.2016 -0.4347  0.0799
 3143SOL    HW120891   2.951   2.180   5.087 -0.6809  0.4182 -0.8176
 3143SOL    HW220892   2.936   2.038   5.081  1.4351  0.0183  1.0587
 3144SOL     OW20893   3.194   2.142   6.136  0.4473 -0.3246 -0.2194
 3144SOL    HW120894   3.189   2.064   6.082  2.0449 -0.0951 -0.6972
 3144SOL    HW220895   3.183   2.213   6.072 -0.5629 -0.2594  0.0264
 3145SOL     OW20896   3.916   3.833   7.759  0.2785 -0.2669 -0.1624
 3145SOL    HW120897   3.838   3.812   7.708  0.3087 -1.8225  0.4303
 3145SOL    HW220898   3.940   3.920   7.728  3.4575 -0.8033  0.7129
 3146SOL     OW20899   1.951   0.098   2.905  0.3682  0.1930  0.1694
 3146SOL    HW120900   1.906   0.048   2.837  0.2915  0.1077  0.2823
 3146SOL    HW220901   1.887   0.153   2.950  1.2745 -0.8465  2.7236
 3147SOL     OW20902   3.903   4.395   4.112 -0.2176  0.4426 -0.6280
 3147SOL    HW120903   3.994   4.426   4.113  0.8620 -2.7731 -1.2290
 3147SOL    HW220904   3.902   4.305   4.081 -0.8651 -0.1073  1.0233
 3148SOL     OW20905   1.603   3.074   1.705 -0.2422 -0.1511 -0.5071
 3148SOL    HW120906   1.564   3.160   1.692 -1.6653 -0.9390 -1.4068
 3148SOL    HW220907   1.643   3.089   1.791 -0.2960  1.2047 -0.7147
 3149SOL     OW20908   3.032   1.318  15.283 -0.0698  0.1847  0.1727
 3149SOL    HW120909   3.102   1.288  15.340 -0.8556  1.4905  1.8004
 3149SOL    HW220910   3.051   1.409  15.261 -1.1583  0.8379  1.9727
 3150SOL     OW20911   3.797   2.282   4.249  0.2476 -0.1301 -0.0087
 3150SOL    HW120912   3.795   2.291   4.344 -3.2471 -1.2103  0.0004
 3150SOL    HW220913   3.710   2.243   4.246  0.3093 -0.0644 -2.2128
 3151SOL     OW20914   3.793   1.134   5.531  0.6657 -0.2756 -0.1966
 3151SOL    HW120915   3.888   1.126   5.522  1.2006  4.8379  1.1035
 3151SOL    HW220916   3.780   1.085   5.450  1.6297  0.8550 -1.0310
 3152SOL     OW20917   0.017   0.891  12.812  0.0472 -0.2227  0.4656
 3152SOL    HW120918   0.051   0.875  12.900  0.4327 -1.9713  0.0038
 3152SOL    HW220919   0.085   0.848  12.760  0.5135  0.0743  0.8240
 3153SOL     OW20920   1.268   0.487   1.193 -0.8950 -0.5507  0.0592
 3153SOL    HW120921   1.283   0.549   1.264 -0.6166 -1.8400  1.1182
 3153SOL    HW220922   1.323   0.412   1.217 -1.0059 -0.1693  1.4593
 3154SOL     OW20923   1.840   0.402  11.171  0.0792 -0.2719  0.1099
 3154SOL    HW120924   1.857   0.469  11.237  0.9755  0.6587 -1.0522
 3154SOL    HW220925   1.746   0.418  11.163  0.2383 -0.6482 -2.5544
 3155SOL     OW20926   1.547   2.134  10.635  0.6430  0.8931 -0.2070
 3155SOL    HW120927   1.633   2.138  10.594 -0.7542  2.1969 -3.0178
 3155SOL    HW220928   1.526   2.218  10.675  0.3281  0.8032 -0.1799
 3156SOL     OW20929   1.358   3.464   3.883 -0.1433 -0.1782  0.4381
 3156SOL    HW120930   1.296   3.411   3.833 -0.5058  1.5379 -0.9441
 3156SOL    HW220931   1.328   3.458   3.973 -1.4485  2.4565  0.1603
 3157SOL     OW20932   0.471   3.910   8.889  0.0609 -0.1635 -0.2630
 3157SOL    HW120933   0.390   3.957   8.867  0.5507 -0.3729 -2.4628
 3157SOL    HW220934   0.449   3.882   8.978  1.2041  1.7220  0.6099
 3158SOL     OW20935   4.494   2.267   4.858  0.0819 -0.0883 -0.4286
 3158SOL    HW120936   4.468   2.357   4.878 -0.5036 -0.0161 -1.5424
 3158SOL    HW220937   4.514   2.229   4.944  0.6628  0.8574 -0.1392
 3159SOL     OW20938   1.151   4.376   4.613 -0.5577 -0.5725  0.1087
 3159SOL    HW120939   1.219   4.444   4.616  1.5622 -2.7195  0.9905
 3159SOL    HW220940   1.087   4.413   4.552  0.7582 -0.1462 -1.0367
 3160SOL     OW20941   4.632   0.019   3.940 -0.2469 -0.4822  0.2282
 3160SOL    HW120942   4.561   0.018   3.876 -0.2732  3.6124  0.2328
 3160SOL    HW220943   4.608   4.664   3.988 -0.6716 -0.8414 -0.5767
 3161SOL     OW20944   0.455   3.733   4.698 -0.0330  0.2420 -0.2908
 3161SOL    HW120945   0.491   3.810   4.653  3.5621  0.7081  3.3434
 3161SOL    HW220946   0.470   3.677   4.622  2.7088 -0.5199  0.8054
 3162SOL     OW20947   4.683   4.645   4.414 -0.9371 -0.1937  0.5497
 3162SOL    HW120948   0.009   4.601   4.346 -0.3188 -1.4627  1.8157
 3162SOL    HW220949   0.015   4.638   4.491  0.1117 -2.9348 -0.4938
 3163SOL     OW20950   4.492   2.305  16.244 -0.0781  0.6398  0.0245
 3163SOL    HW120951   4.521   2.226  16.200 -1.7606 -0.2858  0.5620
 3163SOL    HW220952   4.540   2.373  16.197 -1.0754  1.5563  0.3220
 3164SOL     OW20953   3.836   0.857  11.479 -0.0133 -0.1667 -0.3457
 3164SOL    HW120954   3.742   0.869  11.469  0.4564  1.2181 -3.1205
 3164SOL    HW220955   3.837   0.794  11.551 -3.3540  2.0447  1.6270
 3165SOL     OW20956   2.691   2.775   1.883  0.4401  0.1750 -0.3214
 3165SOL    HW120957   2.718   2.866   1.873 -2.9555  1.1542 -0.7571
 3165SOL    HW220958   2.603   2.776   1.846 -0.2011  1.5762  1.2274
 3166SOL     OW20959   4.542   0.776  17.303  0.2126  0.3314 -0.4174
 3166SOL    HW120960   4.456   0.806  17.273  0.0734 -0.8403 -1.1814
 3166SOL    HW220961   4.560   0.735  17.218  2.0364 -0.6142  0.4507
 3167SOL     OW20962   3.469   3.318  11.522 -0.2668 -0.3142  0.1092
 3167SOL    HW120963   3.471   3.287  11.612 -1.5708 -2.3848 -0.5690
 3167SOL    HW220964   3.526   3.253  11.481  1.0241  0.7382  0.2381
 3168SOL     OW20965   3.893   0.057  15.187  0.2401  0.3757  0.7028
 3168SOL    HW120966   3.926   0.120  15.123  1.4432 -1.3596 -0.4024
 3168SOL    HW220967   3.886   4.709  15.125 -0.7604 -1.1670  2.6140
 3169SOL     OW20968   0.274   1.138   5.546 -0.2331  0.1416  0.5558
 3169SOL    HW120969   0.257   1.108   5.456  2.1524 -1.6551  0.7114
 3169SOL    HW220970   0.334   1.074   5.584  2.0613  1.7044 -0.4117
 3170SOL     OW20971   0.528   1.132   7.162  0.2386  0.2494 -0.4009
 3170SOL    HW120972   0.482   1.153   7.081 -3.1266  0.2968  1.5548
 3170SOL    HW220973   0.476   1.053   7.178 -0.0089  0.3502 -0.6909
 3171SOL     OW20974   3.237   0.759   6.583  0.1032 -0.0834  0.0277
 3171SOL    HW120975   3.243   0.673   6.625 -1.9992 -0.4808 -0.4807
 3171SOL    HW220976   3.145   0.770   6.558 -0.1204  0.0804  0.9238
 3172SOL     OW20977   1.495   4.427   8.699  0.4652 -0.5783 -0.4430
 3172SOL    HW120978   1.461   4.516   8.689 -0.8941 -1.1942 -1.3317
 3172SOL    HW220979   1.508   4.426   8.794 -1.5813  1.4011 -0.1436
 3173SOL     OW20980   2.861   3.908   3.672 -0.7847  1.0217  0.2406
 3173SOL    HW120981   2.820   3.993   3.652  0.7072  1.4842 -0.8108
 3173SOL    HW220982   2.785   3.850   3.679 -1.2161  1.7121  1.3284
 3174SOL     OW20983   4.410   4.165   8.531  0.2679 -0.7572 -0.1112
 3174SOL    HW120984   4.472   4.092   8.524  0.4364 -0.5531 -0.7011
 3174SOL    HW220985   4.410   4.169   8.627  1.3778 -1.8015 -0.0529
 3175SOL     OW20986   3.932   1.324   7.368  0.0487 -0.4743  0.2720
 3175SOL    HW120987   3.898   1.256   7.426 -2.4099 -0.3737 -1.0327
 3175SOL    HW220988   3.843   1.355   7.349  0.2778 -2.1280 -3.3788
 3176SOL     OW20989   0.252   2.871   3.950  0.1692  0.2937  0.3130
 3176SOL    HW120990   0.315   2.941   3.969  1.0995 -0.6006  0.5394
 3176SOL    HW220991   0.166   2.912   3.948 -0.7253 -1.5841 -0.0359
 3177SOL     OW20992   0.192   3.947  12.486  0.0543  0.0575 -0.3064
 3177SOL    HW120993   0.197   4.025  12.541  0.2750  0.0872 -0.3689
 3177SOL    HW220994   0.153   3.983  12.407  0.0277 -1.5456 -1.0286
 3178SOL     OW20995   1.341   1.294  12.961  0.1465  0.3674 -0.1785
 3178SOL    HW120996   1.271   1.357  12.977 -0.2932 -0.4425  1.1321
 3178SOL    HW220997   1.423   1.341  12.968 -0.0480  0.4101  1.8369
 3179SOL     OW20998   0.687   0.720   6.509 -0.0786 -0.3920  0.7968
 3179SOL    HW120999   0.641   0.680   6.583 -0.9434 -0.9315 -0.0455
 3179SOL    HW221000   0.745   0.649   6.485 -0.8537 -0.2075 -1.5875
 3180SOL     OW21001   3.323   3.045   6.500  0.8897  0.0324 -0.4436
 3180SOL    HW121002   3.371   3.126   6.482  0.5459 -0.0095 -1.5414
 3180SOL    HW221003   3.296   3.026   6.410 -1.7095  0.1376  0.3133
 3181SOL     OW21004   3.747   2.182  10.659 -0.2758  0.1572  0.3821
 3181SOL    HW121005   3.724   2.182  10.566 -0.2051  2.1233  0.3724
 3181SOL    HW221006   3.676   2.227  10.705 -1.3577  0.5485 -1.6693
 3182SOL     OW21007   3.996   2.769   7.685 -0.1452  0.3026  0.3327
 3182SOL    HW121008   3.913   2.722   7.692 -0.1458  0.3058  0.3476
 3182SOL    HW221009   4.007   2.797   7.776  1.7915  1.0146 -0.1184
 3183SOL     OW21010   2.818   2.102   8.773 -0.0290  0.5934 -0.4205
 3183SOL    HW121011   2.757   2.126   8.844 -0.2062  0.8965 -0.6717
 3183SOL    HW221012   2.759   2.042   8.727  1.0188 -1.0782  0.4592
 3184SOL     OW21013   0.021   1.043  17.691 -0.2262 -0.3189 -0.8655
 3184SOL    HW121014   4.650   1.038  17.695 -0.2210  1.9872  1.6722
 3184SOL    HW221015   0.026   1.072  17.600 -3.8633 -0.5370 -1.1481
 3185SOL     OW21016   3.972   1.012   4.134  0.4967 -0.1158  0.8518
 3185SOL    HW121017   3.917   0.958   4.191  2.5695 -3.1860 -0.0628
 3185SOL    HW221018   3.924   1.095   4.133  2.8560  1.2228 -1.0218
 3186SOL     OW21019   1.371   1.434   4.913 -0.2719  0.1711 -0.5118
 3186SOL    HW121020   1.428   1.359   4.896 -2.5469 -1.4980 -0.6323
 3186SOL    HW221021   1.366   1.477   4.828  0.0244  1.4498  0.1174
 3187SOL     OW21022   1.682   2.144   8.042  0.3980 -0.1489 -0.2791
 3187SOL    HW121023   1.632   2.205   8.096  1.6537  0.3807  0.2858
 3187SOL    HW221024   1.676   2.178   7.953  1.1904 -2.2680 -1.1431
 3188SOL     OW21025   1.094   0.804   9.323  0.7423 -0.3358  0.0898
 3188SOL    HW121026   1.098   0.727   9.380 -0.0650  0.6039  1.4272
 3188SOL    HW221027   1.028   0.858   9.367  2.4333  0.3068  1.8085
 3189SOL     OW21028   3.776   2.881   9.383 -0.3785 -0.4148  0.0783
 3189SOL    HW121029   3.825   2.942   9.438  1.0931 -0.9737 -0.6020
 3189SOL    HW221030   3.819   2.800   9.410  0.9080  0.0617 -0.5086
 3190SOL     OW21031   1.904   3.552   8.199 -0.5981 -0.0643 -0.0548
 3190SOL    HW121032   1.838   3.486   8.177  1.0805 -1.6163 -0.4326
 3190SOL    HW221033   1.841   3.623   8.210  0.9635  1.0911  1.3992
 3191SOL     OW21034   2.697   4.173   7.417 -0.5126  0.1178 -0.0948
 3191SOL    HW121035   2.792   4.164   7.413 -0.4618  0.6569 -0.1995
 3191SOL    HW221036   2.664   4.084   7.416  3.3128 -1.3025 -1.0153
 3192SOL     OW21037   4.661   0.207  16.164 -0.1895  0.2786 -0.0286
 3192SOL    HW121038   4.679   0.115  16.145  0.9300  0.4480  0.2270
 3192SOL    HW221039   4.592   0.212  16.098 -0.0841 -0.2517 -0.1735
 3193SOL     OW21040   0.436   1.433   7.501  0.2271  0.3948  1.0667
 3193SOL    HW121041   0.488   1.356   7.475 -0.6268  0.1924 -0.0393
 3193SOL    HW221042   0.346   1.404   7.516 -0.4299  2.0716  0.2775
 3194SOL     OW21043   1.458   0.129   3.861  0.1342 -0.2176  0.2097
 3194SOL    HW121044   1.424   0.124   3.950 -0.3366  0.7664  0.0905
 3194SOL    HW221045   1.553   0.137   3.865  0.0971  1.4481 -1.7112
 3195SOL     OW21046   4.528   4.404   7.284 -0.0322  0.4470 -0.1229
 3195SOL    HW121047   4.496   4.494   7.292  0.4482  0.7136 -1.1861
 3195SOL    HW221048   4.452   4.361   7.324  0.7977  0.5562  1.5862
 3196SOL     OW21049   3.549   2.001  15.805  0.1393 -0.1327 -0.7538
 3196SOL    HW121050   3.637   1.979  15.838  0.4149  2.8845  0.5278
 3196SOL    HW221051   3.572   2.074  15.747  1.9007 -0.9411 -1.0609
 3197SOL     OW21052   3.262   0.686   5.844 -0.1132  0.3162 -0.1761
 3197SOL    HW121053   3.267   0.725   5.757 -2.1193  3.2596  0.9878
 3197SOL    HW221054   3.256   0.594   5.821 -0.8425 -0.0685  1.5675
 3198SOL     OW21055   4.643   4.587   5.340  0.6693  0.3800 -0.8660
 3198SOL    HW121056   4.675   4.506   5.379  0.1355  1.0585  0.9379
 3198SOL    HW221057   4.555   4.555   5.319 -0.3429  0.6192  3.0529
 3199SOL     OW21058   0.668   3.073  12.133  0.6417 -0.0004  0.2222
 3199SOL    HW121059   0.703   3.066  12.044  1.3145  0.9880  0.4142
 3199SOL    HW221060   0.585   3.027  12.120  0.1265  1.6932 -2.3501
 3200SOL     OW21061   0.095   2.907  11.614  0.1450  0.0581  0.3435
 3200SOL    HW121062   0.055   2.911  11.700 -0.8323 -1.2815 -0.0552
 3200SOL    HW221063   0.174   2.959  11.629 -0.9877  1.9260 -0.1058
 3201SOL     OW21064   3.568   0.277  17.339  0.0475  0.3924  0.1998
 3201SOL    HW121065   3.512   0.234  17.275 -0.5251 -0.2254  1.1229
 3201SOL    HW221066   3.513   0.263  17.416  1.0861 -0.1826  0.8274
 3202SOL     OW21067   3.093   0.805   9.134  0.2881 -0.5711 -0.0107
 3202SOL    HW121068   3.077   0.862   9.058  1.1903  0.7386  0.7762
 3202SOL    HW221069   3.172   0.845   9.170 -1.0764  1.8499  0.3723
 3203SOL     OW21070   2.543   0.756   3.172  0.4321 -0.1791  0.7105
 3203SOL    HW121071   2.448   0.762   3.184  0.7319  3.2453  1.4066
 3203SOL    HW221072   2.569   0.846   3.190  1.0555 -0.3698  0.7529
 3204SOL     OW21073   0.996   3.468   2.710  0.3239 -0.4507  0.0241
 3204SOL    HW121074   0.971   3.512   2.629 -0.5917 -1.7652 -0.4032
 3204SOL    HW221075   0.953   3.384   2.696  0.9351 -0.8072  0.3088
 3205SOL     OW21076   0.529   2.591   4.667  0.2992  0.0589  0.6884
 3205SOL    HW121077   0.556   2.556   4.752  0.6852  0.7412  0.8515
 3205SOL    HW221078   0.553   2.681   4.691  0.7845  0.6807 -2.0913
 3206SOL     OW21079   3.024   4.295   9.680 -0.2733 -0.5221  0.1773
 3206SOL    HW121080   2.951   4.234   9.694 -3.1579  2.7551 -0.7970
 3206SOL    HW221081   3.085   4.252   9.740  3.0457  2.4386 -1.0782
 3207SOL     OW21082   3.324   2.615  11.773  0.2923  0.3442  0.2468
 3207SOL    HW121083   3.347   2.640  11.684 -1.1990  1.2764  0.1287
 3207SOL    HW221084   3.395   2.558  11.804 -1.8259 -2.5227 -0.2289
 3208SOL     OW21085   1.810   0.761   7.300 -0.1842 -0.0859 -0.1721
 3208SOL    HW121086   1.828   0.673   7.268  1.8324 -0.5984  2.3066
 3208SOL    HW221087   1.833   0.813   7.223 -0.5234  1.9538  1.0995
 3209SOL     OW21088   0.156   1.744  16.884  0.1400  0.2297 -0.4135
 3209SOL    HW121089   0.113   1.825  16.857 -1.3760  0.2698  2.1054
 3209SOL    HW221090   0.199   1.775  16.964 -0.9998  1.2325 -0.2025
 3210SOL     OW21091   1.345   3.038   3.441 -0.0831  0.0301 -0.2426
 3210SOL    HW121092   1.282   3.013   3.374 -0.1200  0.7336 -0.4719
 3210SOL    HW221093   1.408   3.094   3.395  0.0497  0.5371  0.5460
 3211SOL     OW21094   3.484   1.377   7.372 -0.0253 -0.3815 -0.2673
 3211SOL    HW121095   3.403   1.326   7.369 -0.2828 -0.0699  1.1822
 3211SOL    HW221096   3.556   1.318   7.349  0.6756  0.0861  0.7040
 3212SOL     OW21097   2.481   2.525   3.437  0.3574 -0.1405 -0.1205
 3212SOL    HW121098   2.388   2.504   3.431 -0.4663  3.0414  1.2848
 3212SOL    HW221099   2.505   2.530   3.530 -0.4254  0.4278  0.0552
 3213SOL     OW21100   0.213   2.493   9.176  0.2203 -0.2430  0.2497
 3213SOL    HW121101   0.302   2.483   9.141  1.0419 -0.5069  2.4722
 3213SOL    HW221102   0.203   2.586   9.160 -0.3826 -0.6842 -1.9597
 3214SOL     OW21103   1.342   4.396   2.261  0.1670 -0.5390 -0.0986
 3214SOL    HW121104   1.376   4.315   2.223 -2.6348 -1.6032 -0.2965
 3214SOL    HW221105   1.426   4.438   2.284 -0.2005  1.0437 -1.6331
 3215SOL     OW21106   4.018   4.457  16.087  0.1401 -0.1429  0.0798
 3215SOL    HW121107   4.041   4.475  15.996  2.1369  1.3079  0.8601
 3215SOL    HW221108   3.938   4.404  16.086  0.0708 -0.0154 -1.5526
 3216SOL     OW21109   0.032   3.178   8.549 -0.5385  0.1203 -0.5479
 3216SOL    HW121110   4.710   3.095   8.559  1.0075 -0.8159 -1.1667
 3216SOL    HW221111   0.119   3.156   8.517 -0.1190  3.1047 -1.4129
 3217SOL     OW21112   2.411   0.239  15.372 -0.2851  0.4055 -0.4524
 3217SOL    HW121113   2.320   0.225  15.396  0.3255 -0.5666  1.3097
 3217SOL    HW221114   2.398   0.299  15.299 -2.9943 -0.3949 -0.6052
 3218SOL     OW21115   0.613   0.010  15.568  0.2022 -0.5236 -0.1149
 3218SOL    HW121116   0.602   0.102  15.544  0.3324 -0.5347 -0.2142
 3218SOL    HW221117   0.543   4.695  15.518 -2.9990  1.0780  3.0744
 3219SOL     OW21118   0.031   1.253   3.568  0.3579  0.2546  0.1889
 3219SOL    HW121119   0.026   1.328   3.509 -0.9977 -1.1535 -1.5213
 3219SOL    HW221120   4.661   1.236   3.572  0.3035  0.6180  0.3798
 3220SOL     OW21121   0.913   1.344   2.587  0.0683  0.3136  0.0568
 3220SOL    HW121122   0.830   1.328   2.631  0.5287 -1.5079  0.2539
 3220SOL    HW221123   0.967   1.394   2.648  0.9090  0.7216 -1.0205
 3221SOL     OW21124   4.531   0.021   6.783  0.3676 -0.0008  0.2648
 3221SOL    HW121125   4.528   4.659   6.823 -0.1607  0.6286  1.5898
 3221SOL    HW221126   4.511   0.080   6.856 -3.1407 -0.5443 -0.2490
 3222SOL     OW21127   4.100   2.508   6.918 -0.0272 -0.3003 -0.1146
 3222SOL    HW121128   4.105   2.473   7.007  0.4917 -0.0560 -0.0423
 3222SOL    HW221129   4.043   2.449   6.869 -2.2865  0.7911  1.2096
 3223SOL     OW21130   4.170   0.838   3.757 -0.5763 -0.4909 -0.9046
 3223SOL    HW121131   4.158   0.930   3.780  0.5213 -0.4109 -0.6451
 3223SOL    HW221132   4.101   0.797   3.809 -0.1488 -0.8269 -0.6056
 3224SOL     OW21133   3.742   1.654  10.739  0.0463 -0.1059  0.0992
 3224SOL    HW121134   3.707   1.743  10.742  1.0425  0.1749  3.8909
 3224SOL    HW221135   3.775   1.654  10.829  1.2219  1.3889 -0.3270
 3225SOL     OW21136   2.119   0.775   7.511 -0.5069 -0.1247 -0.4178
 3225SOL    HW121137   2.186   0.843   7.509 -0.1450 -0.4433  0.7062
 3225SOL    HW221138   2.044   0.833   7.498 -0.1464 -0.2452 -3.0116
 3226SOL     OW21139   2.080   1.202   7.299  0.1876 -0.2040 -0.1642
 3226SOL    HW121140   2.148   1.266   7.279  1.2757 -1.4636 -0.5461
 3226SOL    HW221141   1.999   1.250   7.283 -0.2783 -0.8645  0.2156
 3227SOL     OW21142   1.609   0.805   2.496 -0.0394 -0.0595 -0.7797
 3227SOL    HW121143   1.636   0.855   2.420  0.6847 -0.5057 -0.8181
 3227SOL    HW221144   1.535   0.758   2.458  0.2349 -0.4572 -0.8335
 3228SOL     OW21145   0.400   3.093  11.125 -0.0254  0.3031  0.1039
 3228SOL    HW121146   0.350   3.173  11.108  0.2016  0.1677 -1.2297
 3228SOL    HW221147   0.487   3.100  11.085  1.5543  0.1360  3.5225
 3229SOL     OW21148   4.141   3.071   5.829  0.2852 -0.4988  0.3172
 3229SOL    HW121149   4.091   3.143   5.868 -0.0785 -1.1021  0.9564
 3229SOL    HW221150   4.216   3.085   5.888  1.1461 -1.6932 -0.5048
 3230SOL     OW21151   3.738   4.002  11.996 -0.2763 -0.2993 -0.2795
 3230SOL    HW121152   3.651   3.967  12.015  0.0295 -0.7118  0.3581
 3230SOL    HW221153   3.728   4.028  11.904 -1.8859 -2.9065 -0.8509
 3231SOL     OW21154   0.675   0.746   0.252 -0.2511 -0.5092  0.2688
 3231SOL    HW121155   0.658   0.668   0.199  0.7035 -2.0202  2.1800
 3231SOL    HW221156   0.750   0.704   0.295 -1.3450 -1.4811  1.2440
 3232SOL     OW21157   3.055   2.439   8.367 -0.0007 -0.4801  0.3673
 3232SOL    HW121158   3.086   2.412   8.454  1.8294  1.1285  0.2346
 3232SOL    HW221159   3.137   2.419   8.321  0.3817  1.1934  0.2955
 3233SOL     OW21160   0.269   4.474   8.521 -0.2524 -0.9090 -0.1693
 3233SOL    HW121161   0.203   4.464   8.452  2.0551 -0.7819 -2.3823
 3233SOL    HW221162   0.329   4.538   8.483 -2.4060  1.2388  0.0160
 3234SOL     OW21163   1.163   3.760   2.530  0.1427 -0.1586  0.3416
 3234SOL    HW121164   1.221   3.692   2.563  2.0420  0.5008 -1.6374
 3234SOL    HW221165   1.163   3.820   2.605  0.3439  1.8726 -1.2749
 3235SOL     OW21166   4.533   3.433   2.174  0.5889  0.1675  0.0653
 3235SOL    HW121167   4.551   3.487   2.098 -0.2277 -0.3171 -0.4671
 3235SOL    HW221168   4.596   3.362   2.166  1.5921  1.2146 -1.2082
 3236SOL     OW21169   3.535   0.271   4.262  0.3693 -0.2349 -0.8051
 3236SOL    HW121170   3.631   0.261   4.262  0.3222 -0.7432 -0.2590
 3236SOL    HW221171   3.505   0.232   4.180  3.3316 -1.7687 -1.1894
 3237SOL     OW21172   0.534   1.437   6.309 -0.3726  0.4059  0.3308
 3237SOL    HW121173   0.586   1.517   6.318  0.5137 -0.1160 -0.1642
 3237SOL    HW221174   0.541   1.403   6.220  1.0243 -0.0169  0.5996
 3238SOL     OW21175   2.292   3.466  13.763  0.1150 -0.4894 -0.3458
 3238SOL    HW121176   2.361   3.513  13.716  0.2591  0.2865  0.6452
 3238SOL    HW221177   2.226   3.536  13.761  0.2766 -0.3659 -1.3846
 3239SOL     OW21178   3.562   0.075   7.690 -0.3004 -0.0242 -0.7065
 3239SOL    HW121179   3.517   0.126   7.623 -1.3671  0.0378  0.0595
 3239SOL    HW221180   3.532   0.119   7.769 -0.0047  0.7044 -1.0027
 3240SOL     OW21181   3.672   3.309   4.404  0.0895  0.2038 -0.0686
 3240SOL    HW121182   3.666   3.215   4.389  1.4112 -0.2020  2.0582
 3240SOL    HW221183   3.640   3.344   4.320  0.4130  4.1160  1.4477
 3241SOL     OW21184   0.343   2.195   6.905 -0.4518  0.2756 -0.5427
 3241SOL    HW121185   0.421   2.176   6.853  0.8007  1.0306  1.0680
 3241SOL    HW221186   0.338   2.114   6.955  0.4070 -0.4662 -1.6835
 3242SOL     OW21187   3.295   0.436   1.551  0.3103  0.2291  0.5669
 3242SOL    HW121188   3.229   0.471   1.490 -0.7365 -1.9027  0.4693
 3242SOL    HW221189   3.321   0.517   1.593 -1.0003 -0.2768  2.3752
 3243SOL     OW21190   0.970   2.427   1.340 -0.4991  0.0405  1.0306
 3243SOL    HW121191   0.952   2.521   1.341  2.0788  0.5111  2.8347
 3243SOL    HW221192   0.904   2.391   1.280 -0.7906  1.9836  0.1711
 3244SOL     OW21193   0.643   2.117  17.499  0.0836  0.3344  0.5472
 3244SOL    HW121194   0.560   2.070  17.489  0.6239 -0.3645 -0.7204
 3244SOL    HW221195   0.687   2.048  17.547 -0.9924 -0.9651 -0.3222
 3245SOL     OW21196   0.131   0.601  16.156  0.4757  0.0509 -0.3955
 3245SOL    HW121197   0.187   0.621  16.230  0.7764 -0.8203 -0.3927
 3245SOL    HW221198   0.061   0.551  16.198  1.6387  0.1053  1.5865
 3246SOL     OW21199   1.871   3.417  12.619 -0.0320 -0.0626  0.4381
 3246SOL    HW121200   1.778   3.396  12.631 -1.1618  3.8324 -1.5555
 3246SOL    HW221201   1.885   3.383  12.531 -2.2647 -1.0696  0.4601
 3247SOL     OW21202   1.031   3.722   3.918  0.3478 -0.2812  0.7167
 3247SOL    HW121203   1.003   3.696   3.830 -0.1865 -0.3008  0.8937
 3247SOL    HW221204   1.119   3.758   3.904  0.0705 -0.7508 -2.3274
 3248SOL     OW21205   1.000   1.281   8.633 -0.2075  0.4596 -0.2278
 3248SOL    HW121206   0.967   1.205   8.681  0.3533  0.3088 -0.0758
 3248SOL    HW221207   1.057   1.319   8.700 -1.4388  0.4186  0.8511
 3249SOL     OW21208   0.169   0.080   4.042 -0.2805  0.0453 -0.0541
 3249SOL    HW121209   0.184   0.039   3.957 -0.9547  0.6993 -0.4977
 3249SOL    HW221210   0.074   0.095   4.034 -0.2884 -0.1475 -0.3161
 3250SOL     OW21211   1.386   0.694   6.459 -0.1934  0.0104  0.0214
 3250SOL    HW121212   1.330   0.709   6.383 -0.3403 -0.0706  0.1156
 3250SOL    HW221213   1.438   0.618   6.431  1.2474  1.2686 -0.7283
 3251SOL     OW21214   2.166   1.252   4.317  1.2285 -0.8437  0.1379
 3251SOL    HW121215   2.168   1.290   4.230 -4.0409 -1.0982 -0.1295
 3251SOL    HW221216   2.102   1.308   4.362  1.7171 -0.2224  0.0563
 3252SOL     OW21217   4.523   1.576   2.344 -0.2907  0.2171  0.3834
 3252SOL    HW121218   4.605   1.536   2.316 -0.5663 -0.6154  0.7787
 3252SOL    HW221219   4.462   1.514   2.302 -0.4133 -0.0427  0.9506
 3253SOL     OW21220   2.344   1.817   3.717 -0.4756  0.5066  0.4308
 3253SOL    HW121221   2.393   1.880   3.665 -1.3245  0.3825 -0.5218
 3253SOL    HW221222   2.287   1.775   3.652 -0.5233  0.3741  0.5576
 3254SOL     OW21223   0.124   1.993   5.179 -0.3848 -0.0639 -0.5924
 3254SOL    HW121224   0.045   2.003   5.232  0.1344  1.9330 -0.2067
 3254SOL    HW221225   0.181   2.053   5.227 -2.8005  0.3608  1.7662
 3255SOL     OW21226   4.154   1.873   8.480 -0.1832 -0.1847 -0.1311
 3255SOL    HW121227   4.104   1.919   8.413 -4.4063  0.3164  3.3697
 3255SOL    HW221228   4.108   1.880   8.564 -0.9205  0.2832 -0.5750
 3256SOL     OW21229   2.319   2.278   6.004  0.1411  0.2216  0.1351
 3256SOL    HW121230   2.377   2.344   6.042  0.8393 -1.3349  1.7908
 3256SOL    HW221231   2.255   2.346   5.983  0.2187  0.9795  2.3251
 3257SOL     OW21232   3.728   2.808   4.651 -0.1682 -0.3514 -0.5075
 3257SOL    HW121233   3.741   2.757   4.570 -0.1398  1.4231 -1.6217
 3257SOL    HW221234   3.633   2.819   4.640  0.3236  3.0425 -1.1348
 3258SOL     OW21235   3.658   3.396   6.663 -0.2699  0.0367 -0.4210
 3258SOL    HW121236   3.601   3.457   6.710  2.0061  0.3919  1.8872
 3258SOL    HW221237   3.706   3.351   6.733  0.0924  1.4057  0.2031
 3259SOL     OW21238   0.937   2.279   1.560  0.1561  0.4510  0.0700
 3259SOL    HW121239   0.978   2.366   1.567  2.3231 -0.4946 -0.6630
 3259SOL    HW221240   0.914   2.280   1.467 -1.9070 -0.5048  0.5857
 3260SOL     OW21241   4.107   1.785   2.491  0.2683  0.2884 -0.5587
 3260SOL    HW121242   4.106   1.875   2.523 -2.2518  0.8842 -2.3369
 3260SOL    HW221243   4.041   1.790   2.422 -0.9564 -0.4050  0.5563
 3261SOL     OW21244   3.450   2.658   0.792 -0.5310 -0.1340  0.0392
 3261SOL    HW121245   3.475   2.619   0.875 -0.8039 -0.8385 -0.2121
 3261SOL    HW221246   3.532   2.691   0.755 -0.2784  0.5644  1.2175
 3262SOL     OW21247   4.042   2.087   1.932  0.2285  0.3154  0.7559
 3262SOL    HW121248   4.075   2.160   1.984  1.8762  0.2845 -0.2122
 3262SOL    HW221249   4.098   2.108   1.857  1.1747 -0.4895  1.2302
 3263SOL     OW21250   3.641   1.384   1.662 -0.1183  0.0884  0.7795
 3263SOL    HW121251   3.690   1.332   1.599 -1.2961 -0.0343 -0.0433
 3263SOL    HW221252   3.582   1.312   1.685 -1.3642  0.4063 -1.4202
 3264SOL     OW21253   2.950   0.786   8.213  0.3107  0.0728  0.1927
 3264SOL    HW121254   3.019   0.849   8.192 -0.9683  1.5904  0.6040
 3264SOL    HW221255   2.869   0.830   8.187  0.3766 -0.0651 -0.2519
 3265SOL     OW21256   3.765   0.982   8.741  0.2414 -0.4006 -0.1221
 3265SOL    HW121257   3.768   1.054   8.678  0.2806  0.5678  0.9909
 3265SOL    HW221258   3.855   0.953   8.726  0.4360  0.5357 -0.8032
 3266SOL     OW21259   0.110   4.336  15.772 -0.1517  0.1314 -0.0953
 3266SOL    HW121260   0.197   4.316  15.736  0.2967  1.7794  0.0760
 3266SOL    HW221261   0.051   4.270  15.737 -1.7587  2.1835 -1.1964
 3267SOL     OW21262   1.276   2.534   2.960  0.3924  0.0930 -0.5274
 3267SOL    HW121263   1.243   2.609   2.911 -1.6237 -1.4351 -1.5473
 3267SOL    HW221264   1.368   2.524   2.935  1.1458  3.6569  0.8328
 3268SOL     OW21265   1.745   4.479   8.266 -0.5886 -0.0991  0.0102
 3268SOL    HW121266   1.724   4.554   8.322  0.8658  0.1321  0.2533
 3268SOL    HW221267   1.838   4.464   8.285  0.0822  1.7511 -1.8941
 3269SOL     OW21268   2.974   3.735   3.404 -0.5359 -0.3432 -0.1352
 3269SOL    HW121269   3.067   3.756   3.405 -1.0923  1.9746  1.2600
 3269SOL    HW221270   2.947   3.813   3.356  0.1104  0.5849  1.0348
 3270SOL     OW21271   2.656   1.826   8.213 -0.2975 -0.0553 -0.2315
 3270SOL    HW121272   2.567   1.806   8.184 -1.1722  0.0134  2.3926
 3270SOL    HW221273   2.672   1.882   8.137  1.4086 -1.7964 -1.1524
 3271SOL     OW21274   1.391   1.438   8.683  0.1559 -0.0324  0.0604
 3271SOL    HW121275   1.339   1.428   8.762  1.1435 -0.5114  0.6470
 3271SOL    HW221276   1.375   1.531   8.669 -1.3928 -0.3085 -0.0976
 3272SOL     OW21277   0.335   3.861  12.151  0.0636  0.1281  0.2136
 3272SOL    HW121278   0.365   3.952  12.161 -0.6186  0.2384  1.3415
 3272SOL    HW221279   0.419   3.822  12.127  0.8990  0.6919  2.1476
 3273SOL     OW21280   4.719   4.610  15.552  0.2600  0.4062 -0.1486
 3273SOL    HW121281   4.693   4.696  15.519  0.3240  0.2405 -0.6288
 3273SOL    HW221282   0.089   4.622  15.551  0.4780 -1.4563 -3.1811
 3274SOL     OW21283   0.939   4.694   6.229 -0.6619  0.0255  0.6739
 3274SOL    HW121284   0.958   4.632   6.158 -1.3755 -0.8659  1.2598
 3274SOL    HW221285   0.960   0.051   6.183 -0.1565 -0.8270 -0.6169
 3275SOL     OW21286   1.999   0.569   6.328 -0.2297  0.3814 -0.1295
 3275SOL    HW121287   1.921   0.535   6.371  0.7721  0.9333  2.1155
 3275SOL    HW221288   1.961   0.580   6.241  2.1270  2.5794 -0.8948
 3276SOL     OW21289   3.707   2.819   1.721 -0.1702 -0.5305  0.2371
 3276SOL    HW121290   3.695   2.908   1.688  2.2942 -1.0332 -1.9667
 3276SOL    HW221291   3.727   2.830   1.814  0.8467  0.4970 -0.1156
 3277SOL     OW21292   2.838   0.133  16.544  0.6147  0.0912 -0.2803
 3277SOL    HW121293   2.784   0.175  16.611  1.5393  0.3849  0.2795
 3277SOL    HW221294   2.864   0.066  16.608 -0.6108  0.3914  0.5347
 3278SOL     OW21295   2.301   0.992   4.271  0.3639 -0.2669  0.1421
 3278SOL    HW121296   2.274   0.931   4.340  0.7970 -0.3341  0.2532
 3278SOL    HW221297   2.249   1.068   4.296  0.4988  0.5947 -2.1956
 3279SOL     OW21298   2.482   2.125   0.661  0.0039 -0.2610  0.1202
 3279SOL    HW121299   2.527   2.127   0.746 -0.1674  0.6231  0.1975
 3279SOL    HW221300   2.553   2.096   0.603  0.7304  2.0405 -0.1831
 3280SOL     OW21301   0.450   0.765   3.038  0.0089  0.3293 -0.3669
 3280SOL    HW121302   0.529   0.812   3.066 -0.1959  0.8039 -0.5778
 3280SOL    HW221303   0.435   0.803   2.951  0.1714  1.1487 -0.0325
 3281SOL     OW21304   3.230   1.773   9.214  0.4194  0.2944  0.3510
 3281SOL    HW121305   3.206   1.777   9.122 -1.1447  1.8553  0.8179
 3281SOL    HW221306   3.174   1.841   9.252 -0.3001  0.6736 -1.3843
 3282SOL     OW21307   1.517   3.997   5.807  0.1429 -0.0148 -0.7297
 3282SOL    HW121308   1.610   3.977   5.800 -0.2762 -1.9233 -0.8177
 3282SOL    HW221309   1.501   4.066   5.743 -0.3284 -1.0538 -1.7183
 3283SOL     OW21310   3.109   4.571   4.412 -0.0139  0.0831 -0.0391
 3283SOL    HW121311   3.122   4.615   4.496  1.0283  0.8582 -0.5996
 3283SOL    HW221312   3.028   4.523   4.427 -0.1845  0.4203  0.1318
 3284SOL     OW21313   3.974   2.984   6.664  0.1376 -0.8763  0.1853
 3284SOL    HW121314   4.057   3.014   6.627 -0.3777  1.5965  1.0664
 3284SOL    HW221315   4.002   2.928   6.736  0.0754 -1.4569 -0.2403
 3285SOL     OW21316   1.012   1.581   6.877  0.5177 -0.1694  0.6050
 3285SOL    HW121317   1.035   1.608   6.966  1.2216 -0.0009  0.3696
 3285SOL    HW221318   1.093   1.574   6.827 -1.3704 -1.6173 -2.2680
 3286SOL     OW21319   4.421   1.029   3.100 -0.6117 -0.1075 -0.0872
 3286SOL    HW121320   4.509   1.051   3.130  0.8006 -1.6269 -3.0973
 3286SOL    HW221321   4.440   0.969   3.028  2.0190  1.0490 -0.3680
 3287SOL     OW21322   0.713   0.640  14.383  0.9428 -0.1429  0.0142
 3287SOL    HW121323   0.649   0.677  14.444  0.8632 -0.2166 -0.0249
 3287SOL    HW221324   0.736   0.710  14.322  0.3500 -0.0233 -0.0777
 3288SOL     OW21325   4.278   1.434   2.227  0.0174 -0.2784 -0.1825
 3288SOL    HW121326   4.251   1.472   2.143 -1.0489 -1.2384 -0.2733
 3288SOL    HW221327   4.199   1.383   2.245  1.1477 -1.7336  0.6325
 3289SOL     OW21328   0.852   1.920  16.290  0.1121  0.3552 -0.2993
 3289SOL    HW121329   0.866   1.830  16.262  1.7893 -0.8697  4.5807
 3289SOL    HW221330   0.816   1.902  16.376  0.6394  0.6757 -0.0085
 3290SOL     OW21331   3.353   3.995  16.844 -0.6692  0.1209  0.3504
 3290SOL    HW121332   3.430   3.995  16.901  0.4421 -0.9641 -1.1365
 3290SOL    HW221333   3.400   3.954  16.771 -1.9773  1.2944 -1.1506
 3291SOL     OW21334   1.387   1.940   5.590  0.4861  1.0405 -0.5951
 3291SOL    HW121335   1.413   1.881   5.521  0.0704  1.9532 -1.5375
 3291SOL    HW221336   1.297   1.907   5.598  2.0369 -2.4103  2.5624
 3292SOL     OW21337   3.451   1.035  15.323  0.1603  0.5801  0.0596
 3292SOL    HW121338   3.544   1.016  15.311 -0.1654 -3.0164  3.0760
 3292SOL    HW221339   3.418   0.957  15.277  2.0461  0.3288 -0.8595
 3293SOL     OW21340   0.405   1.404  14.739 -0.0050  0.2961 -0.5995
 3293SOL    HW121341   0.489   1.448  14.733 -0.1688  1.0340  2.5005
 3293SOL    HW221342   0.374   1.416  14.649 -0.9996 -0.2884 -0.3415
 3294SOL     OW21343   3.515   3.266   7.507 -0.6257 -0.4098  0.3027
 3294SOL    HW121344   3.465   3.291   7.585 -0.6550 -0.1373  0.1975
 3294SOL    HW221345   3.444   3.233   7.450 -0.4296  1.7763 -1.1985
 3295SOL     OW21346   0.862   3.957   2.299  0.1193  0.1043  0.0786
 3295SOL    HW121347   0.875   4.020   2.229 -1.0768  0.1266 -0.1194
 3295SOL    HW221348   0.951   3.922   2.288  0.3562  0.2898  1.4398
 3296SOL     OW21349   2.098   1.817   1.842 -0.1913 -0.9721  0.0103
 3296SOL    HW121350   2.100   1.906   1.877 -0.3324 -0.7145 -0.6481
 3296SOL    HW221351   2.070   1.834   1.752 -0.6586 -0.3387  0.2730
 3297SOL     OW21352   3.538   0.890   3.646 -0.4147 -0.2272 -0.6864
 3297SOL    HW121353   3.606   0.842   3.694  0.4591  2.4303  0.6939
 3297SOL    HW221354   3.493   0.810   3.618 -0.2888 -0.3568 -0.5243
 3298SOL     OW21355   0.049   2.845   2.124 -0.2086  0.7556 -0.3503
 3298SOL    HW121356   0.088   2.931   2.140  1.8044 -0.2238 -0.0931
 3298SOL    HW221357   0.068   2.797   2.204  2.7782  0.5309 -1.2234
 3299SOL     OW21358   0.896   4.427   8.953  0.3082  0.4772 -0.0148
 3299SOL    HW121359   0.807   4.461   8.941  0.1492  1.3173  3.3471
 3299SOL    HW221360   0.892   4.349   8.899 -0.5100  0.1709  0.4822
 3300SOL     OW21361   3.386   2.399   4.147 -0.6111  0.1984  0.4422
 3300SOL    HW121362   3.337   2.436   4.221  0.9346  0.5808  1.2710
 3300SOL    HW221363   3.449   2.466   4.121  0.0211 -0.6755 -0.2876
 3301SOL     OW21364   3.842   3.036  10.307  0.0351  0.2254  0.3528
 3301SOL    HW121365   3.862   3.130  10.308 -0.1355  0.2699 -0.6998
 3301SOL    HW221366   3.891   3.002  10.382  0.0497  0.1222  0.2956
 3302SOL     OW21367   3.870   0.447   7.767 -0.1241 -0.2454  0.6476
 3302SOL    HW121368   3.888   0.534   7.805  0.0840 -1.6701  3.8443
 3302SOL    HW221369   3.775   0.446   7.776 -0.1742  1.8377  0.5217
 3303SOL     OW21370   0.880   1.415  13.472 -0.3257  0.6481 -0.3031
 3303SOL    HW121371   0.789   1.440  13.483 -0.9400 -1.7891  0.0525
 3303SOL    HW221372   0.880   1.320  13.484 -0.6301  0.8226  1.0912
 3304SOL     OW21373   1.619   0.053   7.864  1.1106 -1.0302  0.1482
 3304SOL    HW121374   1.540   0.107   7.866  2.1999  0.6459 -2.5755
 3304SOL    HW221375   1.593   4.685   7.861 -0.1731 -0.6489 -0.3990
 3305SOL     OW21376   2.546   1.656   4.862 -0.3082 -0.0242 -0.0335
 3305SOL    HW121377   2.637   1.678   4.882 -0.8028  2.0037  0.0190
 3305SOL    HW221378   2.557   1.579   4.806 -2.6926  0.4214 -1.1051
 3306SOL     OW21379   1.841   0.431  17.252  0.2310 -0.2073 -0.0575
 3306SOL    HW121380   1.822   0.499  17.188 -1.3375 -0.3967  0.1837
 3306SOL    HW221381   1.897   0.476  17.316 -0.6487  0.1569  0.4613
 3307SOL     OW21382   3.352   3.925   7.355 -0.0517 -0.3198 -0.3265
 3307SOL    HW121383   3.411   3.998   7.340  0.8555 -0.9424  0.2675
 3307SOL    HW221384   3.274   3.938   7.300  0.0684  0.0331 -0.4109
 3308SOL     OW21385   3.776   1.520   7.226 -0.7910  0.6526  0.4087
 3308SOL    HW121386   3.755   1.584   7.294 -0.9377  1.5230 -0.4636
 3308SOL    HW221387   3.852   1.557   7.181  0.8322 -2.9339  0.1714
 3309SOL     OW21388   3.466   2.480  10.489 -0.4236 -0.3718  0.2707
 3309SOL    HW121389   3.445   2.565  10.449 -0.4203 -0.7043 -0.4384
 3309SOL    HW221390   3.479   2.438  10.404 -0.2226  1.3657 -0.5755
 3310SOL     OW21391   4.610   4.614  12.259  0.4611 -0.6792 -0.3668
 3310SOL    HW121392   4.670   4.586  12.189  1.3708  3.0041 -1.0218
 3310SOL    HW221393   4.674   4.643  12.325  0.0049 -1.3188  0.3604
 3311SOL     OW21394   0.534   3.740   5.766  0.2924 -0.2381  0.0709
 3311SOL    HW121395   0.477   3.664   5.775 -0.5158  0.3530  0.0025
 3311SOL    HW221396   0.606   3.698   5.719  0.9968  3.1528 -1.9321
 3312SOL     OW21397   4.339   4.428   5.042  0.8908 -0.5691 -0.2652
 3312SOL    HW121398   4.360   4.342   5.006 -1.5404 -2.7455  3.5355
 3312SOL    HW221399   4.408   4.479   5.000 -0.0511  0.4937 -0.5217
 3313SOL     OW21400   4.109   1.328  13.671  0.3754  0.3153 -0.5344
 3313SOL    HW121401   4.037   1.271  13.697  1.1962  0.8054  2.8703
 3313SOL    HW221402   4.137   1.371  13.753 -1.9682 -1.3382  1.1374
 3314SOL     OW21403   1.841   3.212   8.581  0.2953 -0.3148 -0.2942
 3314SOL    HW121404   1.861   3.306   8.584  2.9324 -0.8483 -1.4392
 3314SOL    HW221405   1.827   3.192   8.489  1.4471  0.1496 -0.5675
 3315SOL     OW21406   1.312   2.072  12.234 -0.3227  0.1397 -0.4702
 3315SOL    HW121407   1.235   2.088  12.179 -0.8549  0.3731  0.3408
 3315SOL    HW221408   1.271   2.109  12.312  1.1357  0.3796  0.1747
 3316SOL     OW21409   2.887   3.840   8.469  0.0795  0.2122 -0.0027
 3316SOL    HW121410   2.841   3.820   8.388 -3.9499  2.0939  1.8061
 3316SOL    HW221411   2.849   3.769   8.521  0.7767 -0.8947 -1.0185
 3317SOL     OW21412   1.302   1.854   0.283 -0.2779 -0.4898 -0.4902
 3317SOL    HW121413   1.337   1.913   0.349 -2.1293 -1.6018  1.4908
 3317SOL    HW221414   1.383   1.823   0.241  0.8433 -0.7071  1.8487
 3318SOL     OW21415   3.613   4.296   3.530  0.2869 -0.0951 -0.2833
 3318SOL    HW121416   3.559   4.368   3.563 -1.7519 -3.0253  2.7700
 3318SOL    HW221417   3.644   4.345   3.454 -0.5891 -2.3303 -2.0792
 3319SOL     OW21418   0.778   1.169  11.715  0.2470  0.3383 -0.4119
 3319SOL    HW121419   0.760   1.107  11.786  0.5108 -1.9329 -2.3244
 3319SOL    HW221420   0.822   1.239  11.763 -3.0000  1.3697  1.0241
 3320SOL     OW21421   2.532   0.472  13.773  0.0246  0.4082 -0.0919
 3320SOL    HW121422   2.572   0.467  13.686 -1.4175 -1.7072 -0.6358
 3320SOL    HW221423   2.450   0.512  13.743 -1.4847 -1.1056  2.0566
 3321SOL     OW21424   1.335   3.436  16.386  0.1894 -0.3014 -0.1482
 3321SOL    HW121425   1.303   3.409  16.472  0.0055 -1.0839 -0.4587
 3321SOL    HW221426   1.341   3.351  16.343  0.9006  0.4569 -1.5453
 3322SOL     OW21427   0.562   2.128   2.708  0.1883 -0.0161 -0.0857
 3322SOL    HW121428   0.573   2.055   2.770 -0.1747  0.7722  0.8970
 3322SOL    HW221429   0.611   2.090   2.635  2.1825 -0.5146  1.5077
 3323SOL     OW21430   0.461   4.197   2.630 -0.3100 -0.1712  0.1981
 3323SOL    HW121431   0.540   4.250   2.636 -0.2487  0.0124 -2.1784
 3323SOL    HW221432   0.487   4.107   2.611  1.7542  0.8821 -2.0036
 3324SOL     OW21433   1.114   1.874  14.918 -0.3040  0.4986  0.7612
 3324SOL    HW121434   1.124   1.819  14.996  0.9300  1.4343  1.2804
 3324SOL    HW221435   1.019   1.866  14.908 -0.1418 -0.5300  0.0320
 3325SOL     OW21436   2.551   0.712   7.819  0.1154  0.1238  0.3288
 3325SOL    HW121437   2.500   0.783   7.857 -0.2629  1.0751 -1.9411
 3325SOL    HW221438   2.520   0.634   7.864  2.5598 -0.4669  0.9862
 3326SOL     OW21439   1.051   3.424   8.104 -0.4013 -0.0680  0.4897
 3326SOL    HW121440   0.985   3.373   8.057 -0.9184  1.6333 -0.6279
 3326SOL    HW221441   1.106   3.463   8.037 -0.6950 -1.6387 -0.6824
 3327SOL     OW21442   0.969   1.190  16.292 -0.2120 -0.2856 -0.7328
 3327SOL    HW121443   0.937   1.197  16.382 -0.4748 -2.5620 -0.6511
 3327SOL    HW221444   0.945   1.102  16.261 -2.0188 -0.2586  0.6095
 3328SOL     OW21445   3.004   0.436   3.009 -0.5859  0.1395  0.5333
 3328SOL    HW121446   3.057   0.502   2.965 -1.5213  0.4015 -0.1908
 3328SOL    HW221447   3.069   0.378   3.049  0.1015 -0.2709 -1.1806
 3329SOL     OW21448   4.249   0.647   7.208 -0.2769  0.1466 -0.0071
 3329SOL    HW121449   4.285   0.571   7.161  0.4400  1.3181 -1.3496
 3329SOL    HW221450   4.279   0.651   7.298 -1.5164 -0.2119  0.4250
 3330SOL     OW21451   1.810   2.602   2.979 -0.0330 -0.4998  0.0898
 3330SOL    HW121452   1.868   2.544   2.930 -1.9946 -1.0594 -1.5548
 3330SOL    HW221453   1.835   2.588   3.070 -0.7518  0.8234  0.4926
 3331SOL     OW21454   4.580   1.287   7.937  0.1635 -0.1059 -0.3692
 3331SOL    HW121455   4.562   1.254   8.025 -1.3539 -0.5463 -0.8404
 3331SOL    HW221456   4.579   1.382   7.945 -0.5489 -0.2600  1.3697
 3332SOL     OW21457   1.744   0.691   2.703 -0.1849 -0.0949  0.6296
 3332SOL    HW121458   1.836   0.718   2.696 -0.4839  0.1102 -2.4430
 3332SOL    HW221459   1.712   0.736   2.626  2.5070  0.8426  0.0506
 3333SOL     OW21460   4.700   4.475   5.708 -0.2019  0.1546 -0.5254
 3333SOL    HW121461   4.697   4.395   5.761 -0.6670  0.8178  0.4342
 3333SOL    HW221462   4.714   4.435   5.622 -0.5941 -0.6191 -0.2228
 3334SOL     OW21463   3.473   4.208   6.579 -0.3752  0.3209  0.0222
 3334SOL    HW121464   3.451   4.136   6.519  0.5026  0.2185 -0.1764
 3334SOL    HW221465   3.546   4.241   6.527  0.7175  0.2659  1.5432
 3335SOL     OW21466   4.551   4.424   9.986 -0.2110  0.0245  0.0589
 3335SOL    HW121467   4.552   4.453  10.078  0.5824  3.0403 -0.9073
 3335SOL    HW221468   4.613   4.352   9.999  2.1553  2.3921  2.0738
 3336SOL     OW21469   1.124   3.136   5.358  0.6486  0.4540 -0.1526
 3336SOL    HW121470   1.097   3.225   5.336 -0.6654 -0.1624 -1.0398
 3336SOL    HW221471   1.123   3.090   5.274  0.9172  0.4492 -0.1522
 3337SOL     OW21472   2.619   3.395   2.265  0.4984 -0.2221 -0.6574
 3337SOL    HW121473   2.708   3.360   2.267  0.6669  0.2746  0.4246
 3337SOL    HW221474   2.570   3.314   2.250 -0.3426 -0.3998  3.1683
 3338SOL     OW21475   4.189   0.138  13.319  0.3171  0.0870  0.3543
 3338SOL    HW121476   4.237   0.200  13.265 -0.7673 -0.6360 -1.4283
 3338SOL    HW221477   4.204   0.179  13.404 -0.5623  0.1427  0.4860
 3339SOL     OW21478   4.530   0.473   8.678 -0.2641  0.2214 -0.0187
 3339SOL    HW121479   4.472   0.510   8.612 -1.0108 -3.2749 -1.3150
 3339SOL    HW221480   4.474   0.432   8.744 -1.2899 -0.3219 -1.2223
 3340SOL     OW21481   0.656   2.904   3.408 -0.0603  0.1914 -0.4288
 3340SOL    HW121482   0.602   2.877   3.334 -0.6155  0.5303 -0.1495
 3340SOL    HW221483   0.593   2.919   3.479 -1.0351  2.1723 -1.7225
 3341SOL     OW21484   3.548   4.398  14.131  0.2614 -0.7172 -0.3953
 3341SOL    HW121485   3.483   4.466  14.150  0.1244 -0.9740  0.0480
 3341SOL    HW221486   3.617   4.431  14.188 -0.8104 -1.3608  1.2866
 3342SOL     OW21487   2.082   4.607   9.865 -0.1452  0.6209 -0.1653
 3342SOL    HW121488   2.102   4.582   9.775 -0.4584 -1.1569  0.2730
 3342SOL    HW221489   2.130   4.690   9.875 -0.4854  0.8903 -0.7579
 3343SOL     OW21490   1.710   4.438   5.779 -0.3589  0.3803 -0.0935
 3343SOL    HW121491   1.786   4.384   5.757 -1.6401 -1.0119 -1.1332
 3343SOL    HW221492   1.707   4.496   5.704 -1.9227  2.1174  1.2972
 3344SOL     OW21493   3.378   1.895   5.854  0.1063  0.7202  1.0230
 3344SOL    HW121494   3.396   1.801   5.857  1.2333  0.8790 -0.8598
 3344SOL    HW221495   3.341   1.908   5.767  1.4816  1.5128  0.5560
 3345SOL     OW21496   3.497   3.468   6.872  0.6272 -0.0138 -0.4248
 3345SOL    HW121497   3.426   3.405   6.859 -2.3949  3.5201 -0.9453
 3345SOL    HW221498   3.453   3.546   6.905  0.0440 -0.8610  0.8362
 3346SOL     OW21499   3.991   1.392   5.479 -0.2258 -0.3535  0.3559
 3346SOL    HW121500   4.046   1.459   5.519 -2.1729  1.3001  0.2508
 3346SOL    HW221501   4.003   1.319   5.540  1.5529 -2.4802 -2.5630
 3347SOL     OW21502   2.970   3.998   5.756  0.0573 -0.0947 -0.2607
 3347SOL    HW121503   2.987   4.091   5.774 -1.8436 -0.0260  1.1602
 3347SOL    HW221504   2.877   3.999   5.731  0.4725  0.7122 -1.8064
 3348SOL     OW21505   2.941   2.611   9.999 -0.4862  0.1999 -0.4380
 3348SOL    HW121506   2.904   2.637   9.915 -2.8237 -0.8476  0.2566
 3348SOL    HW221507   2.866   2.584  10.052  1.1501  0.6658  2.1677
 3349SOL     OW21508   4.467   4.618  11.961  0.0194 -0.3505 -0.4892
 3349SOL    HW121509   4.514   4.626  12.044 -0.3613 -2.1311 -0.1018
 3349SOL    HW221510   4.440   4.708  11.947  1.9978 -0.0533 -2.3857
 3350SOL     OW21511   1.411   1.981   5.881  0.2862  0.0867 -0.5455
 3350SOL    HW121512   1.384   2.007   5.793 -0.8687 -2.3380 -0.9276
 3350SOL    HW221513   1.357   1.904   5.899  1.4164 -0.4372  0.6333
 3351SOL     OW21514   0.174   0.032   8.107  0.0378  0.3066  0.4499
 3351SOL    HW121515   0.241   0.092   8.074  0.9075  0.0659  1.7424
 3351SOL    HW221516   0.236   4.687   8.131 -0.9668 -1.1267 -1.0675
 3352SOL     OW21517   3.426   4.040   8.815 -0.5443  0.0526 -0.0965
 3352SOL    HW121518   3.364   4.040   8.743  0.1555 -5.0098 -0.6604
 3352SOL    HW221519   3.459   3.952   8.833  2.0830  0.9289 -0.6208
 3353SOL     OW21520   2.431   2.849   5.052 -0.1692  0.7611 -0.1658
 3353SOL    HW121521   2.380   2.922   5.016 -1.5656  0.0871  0.4395
 3353SOL    HW221522   2.364   2.816   5.112 -1.9739  1.6575 -1.6924
 3354SOL     OW21523   4.078   1.927   5.813  0.4177 -0.0083 -0.0559
 3354SOL    HW121524   4.138   1.998   5.835  0.1691  0.3362 -0.5047
 3354SOL    HW221525   4.098   1.899   5.724 -2.7795  3.0479 -1.7387
 3355SOL     OW21526   0.946   1.325  15.448 -0.4505  0.1469  0.2928
 3355SOL    HW121527   0.872   1.264  15.461 -2.0031  1.9871  0.0619
 3355SOL    HW221528   1.013   1.269  15.410 -0.4885 -0.6956  1.4611
 3356SOL     OW21529   4.454   3.929  13.205  0.2078 -0.0973  0.6663
 3356SOL    HW121530   4.420   4.015  13.230 -1.9670 -0.8028  0.1206
 3356SOL    HW221531   4.544   3.943  13.236 -0.1481  2.7052  0.4806
 3357SOL     OW21532   4.433   2.540   4.903 -0.0426  0.6720  0.3890
 3357SOL    HW121533   4.488   2.617   4.886  1.3213 -0.5202 -0.6231
 3357SOL    HW221534   4.356   2.577   4.861 -1.4602  0.6469  2.9227
 3358SOL     OW21535   2.443   3.447   1.933  0.1341  0.7470  0.1761
 3358SOL    HW121536   2.453   3.419   2.023  2.2231  0.0096 -0.3002
 3358SOL    HW221537   2.350   3.466   1.918 -0.2919 -1.7508 -0.3794
 3359SOL     OW21538   0.762   3.877   8.507  0.0201  0.2448 -0.7100
 3359SOL    HW121539   0.790   3.786   8.506 -2.3777 -0.4927 -0.0784
 3359SOL    HW221540   0.739   3.880   8.600  2.3945 -1.0237 -0.0905
 3360SOL     OW21541   4.119   0.407   4.093 -0.0855  0.2084 -0.5899
 3360SOL    HW121542   4.026   0.405   4.071 -0.3895  0.5825  0.6600
 3360SOL    HW221543   4.151   0.489   4.054  0.2692  1.0445  1.4362
 3361SOL     OW21544   3.907   4.159   9.061 -0.1550 -0.6054 -1.1226
 3361SOL    HW121545   3.958   4.110   8.997  1.1457 -0.7410  0.0227
 3361SOL    HW221546   3.936   4.109   9.137 -2.3934  2.5751  1.8889
 3362SOL     OW21547   2.607   3.615   7.131  0.5052 -0.7133  0.2401
 3362SOL    HW121548   2.662   3.589   7.205 -0.7529 -1.7367  0.8156
 3362SOL    HW221549   2.543   3.667   7.179  0.6565  2.1536 -2.6261
 3363SOL     OW21550   0.188   3.889   6.048  0.2152  0.0021 -0.2005
 3363SOL    HW121551   0.151   3.800   6.050  0.3449 -0.0577 -0.3889
 3363SOL    HW221552   0.170   3.917   5.958  2.8960  0.4711 -0.5758
 3364SOL     OW21553   4.482   4.472   8.427  0.0795 -0.1486  0.2110
 3364SOL    HW121554   4.493   4.394   8.482  0.7346  1.5441  2.4554
 3364SOL    HW221555   4.442   4.532   8.490  1.7564  2.1655 -0.9155
 3365SOL     OW21556   1.689   0.128   2.203 -0.2540 -0.1864 -0.3324
 3365SOL    HW121557   1.674   0.204   2.259  0.1241 -0.0678 -0.3910
 3365SOL    HW221558   1.607   0.112   2.156 -0.3722 -0.7690  0.0769
 3366SOL     OW21559   0.811   4.512  15.554 -0.7067  0.1199 -0.1098
 3366SOL    HW121560   0.748   4.451  15.514 -2.2388  1.2316  0.6267
 3366SOL    HW221561   0.756   4.586  15.581 -3.8963 -2.6622  1.0353
 3367SOL     OW21562   2.220   3.655   6.524  0.9055 -0.0861  0.0078
 3367SOL    HW121563   2.193   3.659   6.432 -2.4720 -2.2310  0.9298
 3367SOL    HW221564   2.237   3.746   6.547 -2.6653  0.3795  0.6880
 3368SOL     OW21565   1.484   3.905   4.268  0.2764 -0.1851 -0.6288
 3368SOL    HW121566   1.563   3.949   4.236  1.1718 -1.4520 -0.1680
 3368SOL    HW221567   1.419   3.937   4.206  1.5246  1.6252 -1.0206
 3369SOL     OW21568   0.528   3.756  11.201  0.0907 -0.4922  0.6596
 3369SOL    HW121569   0.607   3.751  11.255  0.4474 -0.8535  0.1013
 3369SOL    HW221570   0.477   3.814  11.258 -1.1607 -1.2983  0.3661
 3370SOL     OW21571   3.676   1.861   5.603  0.4990  0.2638  0.4969
 3370SOL    HW121572   3.724   1.827   5.678 -0.3146 -0.3003  0.7624
 3370SOL    HW221573   3.734   1.929   5.567 -1.4882  1.8430  0.2690
 3371SOL     OW21574   0.387   3.368   1.963 -0.3649 -0.5317 -0.1345
 3371SOL    HW121575   0.368   3.278   1.992 -2.6762  0.0089  0.0351
 3371SOL    HW221576   0.362   3.360   1.871 -1.8567  0.5761  0.1775
 3372SOL     OW21577   4.068   3.443   3.233 -0.9396  0.1622  0.0879
 3372SOL    HW121578   4.057   3.508   3.164  0.5915  0.2374 -0.0927
 3372SOL    HW221579   4.014   3.369   3.203 -2.1051  1.5984 -1.3649
 3373SOL     OW21580   2.639   3.338  10.042 -0.8840  0.1663 -0.3785
 3373SOL    HW121581   2.651   3.427  10.076 -0.7107 -0.5309  1.3772
 3373SOL    HW221582   2.674   3.284  10.112 -0.2773  0.6031 -0.3456
 3374SOL     OW21583   1.071   2.972   5.093  0.4349 -0.4613 -0.2883
 3374SOL    HW121584   1.024   3.054   5.081  0.3658 -0.2201  1.5826
 3374SOL    HW221585   1.013   2.903   5.062  0.4984  0.5420 -2.6643
 3375SOL     OW21586   0.945   4.722   2.668 -0.0567  0.1508  0.4154
 3375SOL    HW121587   0.894   4.714   2.749 -0.7348  0.9992  0.0681
 3375SOL    HW221588   1.029   0.027   2.704 -0.3991  1.4099  0.1599
 3376SOL     OW21589   3.904   3.493   4.181 -0.4296 -0.5029 -0.0921
 3376SOL    HW121590   3.877   3.448   4.101 -0.4191 -0.3877 -0.1612
 3376SOL    HW221591   3.842   3.459   4.245 -0.2486  1.2852  1.0217
 3377SOL     OW21592   0.199   0.953   2.091  0.2145 -0.3110 -0.1254
 3377SOL    HW121593   0.272   0.975   2.033 -0.2527  0.5089 -0.4080
 3377SOL    HW221594   0.211   0.858   2.098  1.0235 -0.2020 -0.0638
 3378SOL     OW21595   2.292   2.563   9.638 -0.0916  0.3866  0.3245
 3378SOL    HW121596   2.287   2.499   9.568  0.6273  1.5053 -0.7518
 3378SOL    HW221597   2.208   2.602   9.615 -0.6231 -0.4614  0.8049
 3379SOL     OW21598   3.852   0.419   8.109 -0.6414 -0.2361 -0.2120
 3379SOL    HW121599   3.841   0.449   8.018 -1.7494  3.3350  1.1217
 3379SOL    HW221600   3.772   0.455   8.148  1.5286  4.0057  0.2434
 3380SOL     OW21601   2.243   2.401  10.405 -0.6929  0.3903 -0.0080
 3380SOL    HW121602   2.248   2.444  10.319 -0.5738 -0.2073 -0.3022
 3380SOL    HW221603   2.241   2.482  10.456  0.9874  0.4190  0.0268
 3381SOL     OW21604   1.332   2.740  14.586  0.1122 -0.2420  0.5334
 3381SOL    HW121605   1.377   2.822  14.604 -2.0210  1.0915 -0.2004
 3381SOL    HW221606   1.350   2.732  14.492  1.7204  0.4126  0.7881
 3382SOL     OW21607   0.892   3.592   6.291  0.4240 -0.5293 -0.3188
 3382SOL    HW121608   0.924   3.597   6.381  0.8487 -0.3700 -0.4772
 3382SOL    HW221609   0.867   3.500   6.284 -2.7400  0.4222 -1.4116
 3383SOL     OW21610   2.073   3.952  13.062  0.0230 -0.6356 -0.3394
 3383SOL    HW121611   2.162   3.921  13.046  0.3608 -1.0413  2.3165
 3383SOL    HW221612   2.085   4.046  13.065 -0.1858 -0.6375  0.5999
 3384SOL     OW21613   4.538   0.146   6.310  0.5564  0.1429 -0.6218
 3384SOL    HW121614   4.454   0.109   6.338 -0.4850  0.9688 -2.6131
 3384SOL    HW221615   4.578   0.180   6.390 -2.3693 -1.5379  1.5599
 3385SOL     OW21616   4.193   2.705  12.538 -0.3643  0.7696 -0.6929
 3385SOL    HW121617   4.107   2.733  12.569  0.2592 -1.0443  2.5842
 3385SOL    HW221618   4.241   2.780  12.573  0.0421  0.0536  0.2779
 3386SOL     OW21619   0.911   2.605   9.436 -0.5348  0.0282  0.0904
 3386SOL    HW121620   0.869   2.631   9.518 -0.7522 -0.1150  0.0232
 3386SOL    HW221621   0.990   2.556   9.459 -0.7533 -0.8352 -1.0289
 3387SOL     OW21622   3.575   4.635   2.480  0.2694  0.2015 -0.1466
 3387SOL    HW121623   3.531   4.567   2.531  0.3027  0.2525 -0.0496
 3387SOL    HW221624   3.590   4.706   2.544  0.2745  0.6065 -0.5991
 3388SOL     OW21625   4.635   3.545   6.851 -0.0314  0.0056 -0.5052
 3388SOL    HW121626   4.713   3.490   6.865  1.1904  1.6628 -0.7527
 3388SOL    HW221627   4.610   3.558   6.943 -0.0819 -0.4962 -0.4477
 3389SOL     OW21628   0.451   1.609  15.302  1.0238 -0.3413  0.1882
 3389SOL    HW121629   0.525   1.549  15.306  1.5231  0.2733  0.0591
 3389SOL    HW221630   0.424   1.601  15.210  2.4682  0.0831 -0.2806
 3390SOL     OW21631   4.168   1.496  13.863 -0.3891  0.7375  0.0754
 3390SOL    HW121632   4.201   1.565  13.921 -0.8942 -0.5264  1.8528
 3390SOL    HW221633   4.128   1.541  13.788  0.4112 -0.9884 -1.3782
 3391SOL     OW21634   2.135   0.714   2.354  0.1524 -0.0036  0.1178
 3391SOL    HW121635   2.090   0.636   2.386 -0.5395  0.1220 -0.5649
 3391SOL    HW221636   2.094   0.717   2.267  0.5860 -2.6345 -0.1920
 3392SOL     OW21637   4.471   2.833  16.428  0.0533 -0.1330 -0.1804
 3392SOL    HW121638   4.498   2.802  16.342  3.2096 -0.8831  1.0523
 3392SOL    HW221639   4.396   2.776  16.444  0.0543 -0.3714 -1.0558
 3393SOL     OW21640   2.740   4.503   4.638 -0.2471 -0.1382 -0.5247
 3393SOL    HW121641   2.785   4.523   4.720 -0.2422  1.4195 -0.8979
 3393SOL    HW221642   2.814   4.499   4.577  0.2528 -0.0001  0.0727
 3394SOL     OW21643   3.479   2.014  10.910 -0.3193 -0.0991  0.2625
 3394SOL    HW121644   3.430   1.937  10.939  0.7457 -1.3671 -1.3290
 3394SOL    HW221645   3.496   1.997  10.818  2.2584 -1.2019  0.9502
 3395SOL     OW21646   0.753   2.533   5.262 -0.4739 -0.3938 -0.2172
 3395SOL    HW121647   0.764   2.567   5.173 -1.3271 -0.2708 -0.2742
 3395SOL    HW221648   0.680   2.586   5.292  1.3056  0.5400  2.4595
 3396SOL     OW21649   2.978   1.267   2.874 -0.6569  0.1888 -0.5470
 3396SOL    HW121650   2.940   1.258   2.961  1.2403 -1.0169  0.1626
 3396SOL    HW221651   2.921   1.328   2.828  0.5481  2.3550  0.8064
 3397SOL     OW21652   1.106   1.676   7.439 -0.4618 -0.1959  0.1606
 3397SOL    HW121653   1.082   1.673   7.531 -2.2163 -0.6803 -0.3111
 3397SOL    HW221654   1.160   1.598   7.426  0.0989  0.1769  0.2822
 3398SOL     OW21655   0.379   2.744   0.150  0.6273  0.4033  0.3546
 3398SOL    HW121656   0.394   2.831   0.115 -0.3301  0.4036 -0.0741
 3398SOL    HW221657   0.310   2.759   0.215  0.2158 -1.1539  0.2949
 3399SOL     OW21658   1.889   3.980  11.533  0.2694 -0.6325  0.2476
 3399SOL    HW121659   1.914   4.060  11.580 -0.3397 -1.2255  1.5909
 3399SOL    HW221660   1.968   3.965  11.481 -0.0832  0.1616 -0.5165
 3400SOL     OW21661   1.783   3.760   9.074 -0.3560 -0.6610  0.2063
 3400SOL    HW121662   1.842   3.799   9.139  1.5563 -0.9844 -1.3325
 3400SOL    HW221663   1.700   3.772   9.119 -0.5380 -0.7541 -0.0991
 3401SOL     OW21664   2.092   3.635  10.438 -0.5172  0.6706  0.1662
 3401SOL    HW121665   2.172   3.685  10.452  0.2503 -0.4247 -0.2659
 3401SOL    HW221666   2.037   3.664  10.511 -2.6020 -2.0025 -0.3088
 3402SOL     OW21667   2.505   4.605   1.905 -0.1886  0.7852 -0.0640
 3402SOL    HW121668   2.472   4.646   1.824 -2.0229 -0.4950  0.0300
 3402SOL    HW221669   2.576   4.665   1.927 -1.3440  1.5767  1.4947
 3403SOL     OW21670   2.384   1.979  15.350 -0.1153 -0.4743  0.6644
 3403SOL    HW121671   2.405   1.950  15.439 -1.6320 -0.7794  0.9369
 3403SOL    HW221672   2.289   1.964  15.349  0.0668 -1.5193 -0.8770
 3404SOL     OW21673   3.504   1.673   5.536 -0.5148 -0.0494  0.0892
 3404SOL    HW121674   3.551   1.590   5.529  0.9723  0.7737  0.3398
 3404SOL    HW221675   3.565   1.742   5.561  0.8943 -1.7014  1.1770
 3405SOL     OW21676   0.553   3.660  17.094  0.0560  0.3072 -0.2032
 3405SOL    HW121677   0.589   3.726  17.035  0.3020 -0.1446 -0.5632
 3405SOL    HW221678   0.630   3.603  17.097  1.6421  2.4091 -0.7116
 3406SOL     OW21679   3.956   4.051   7.130 -0.1667 -0.0844 -0.3183
 3406SOL    HW121680   3.889   3.982   7.131 -1.3975  1.1261  0.6433
 3406SOL    HW221681   4.039   4.003   7.126 -0.0040  0.1366  0.4160
 3407SOL     OW21682   4.614   2.563   6.199 -0.0698  0.6813  0.9043
 3407SOL    HW121683   4.674   2.516   6.257  0.2724 -0.7266 -0.5990
 3407SOL    HW221684   4.527   2.529   6.223 -0.4818  0.7058 -0.5671
 3408SOL     OW21685   4.468   0.647   3.706  0.3902  0.1249  0.4984
 3408SOL    HW121686   4.493   0.562   3.669  1.1176  0.6555 -0.2078
 3408SOL    HW221687   4.389   0.681   3.662  0.2349 -0.1996  0.5232
 3409SOL     OW21688   3.053   3.316   1.740  0.2434 -0.2370  0.1980
 3409SOL    HW121689   2.968   3.315   1.784  0.1836  0.9011  0.1225
 3409SOL    HW221690   3.041   3.330   1.647  2.7995  4.1491  0.4952
 3410SOL     OW21691   4.691   3.264  11.291  0.5438  0.2817  0.4125
 3410SOL    HW121692   0.053   3.272  11.331  0.6626 -0.9338  0.4039
 3410SOL    HW221693   4.647   3.348  11.285  0.0389  0.1022  1.6366
 3411SOL     OW21694   3.378   4.044   1.904  0.0320  0.1552 -0.2748
 3411SOL    HW121695   3.455   3.988   1.904  0.4199  0.6853 -0.3537
 3411SOL    HW221696   3.410   4.107   1.969  0.6296 -1.7780  1.2966
 3412SOL     OW21697   0.823   4.093   3.500 -0.2043 -0.4353  0.0329
 3412SOL    HW121698   0.819   3.999   3.487  1.7166 -0.4278 -0.5828
 3412SOL    HW221699   0.789   4.128   3.417  0.2737  1.7701  0.7522
 3413SOL     OW21700   3.281   1.133  12.190  0.3645 -0.1489 -1.2562
 3413SOL    HW121701   3.296   1.040  12.177  0.4592 -0.0769 -1.6556
 3413SOL    HW221702   3.316   1.168  12.108  0.4331  2.0012 -0.3188
 3414SOL     OW21703   4.291   1.238  10.470 -0.2134 -0.7377  0.0286
 3414SOL    HW121704   4.274   1.247  10.563 -2.0507 -1.3923 -0.2412
 3414SOL    HW221705   4.222   1.174  10.451 -0.5716 -0.5029  0.5459
 3415SOL     OW21706   4.116   1.742  13.733 -0.8227  0.0498  0.5624
 3415SOL    HW121707   4.193   1.783  13.773  0.9824 -0.1609 -2.7265
 3415SOL    HW221708   4.060   1.820  13.730 -1.1458 -0.2428 -0.9147
 3416SOL     OW21709   3.044   3.711  12.963 -0.3978 -0.1093  0.1927
 3416SOL    HW121710   2.951   3.720  12.981 -0.6012  1.0331 -1.4207
 3416SOL    HW221711   3.057   3.617  12.980  0.7538  0.3272  1.7449
 3417SOL     OW21712   3.135   2.318   5.833  0.0228 -0.2741  0.1783
 3417SOL    HW121713   3.225   2.293   5.812  0.7907  1.0126  1.9265
 3417SOL    HW221714   3.084   2.248   5.793  0.5982  0.0993 -1.1864
 3418SOL     OW21715   4.071   1.481  14.581 -0.0921 -0.0131  0.3943
 3418SOL    HW121716   4.114   1.418  14.639 -0.0021  1.7122  2.2226
 3418SOL    HW221717   4.137   1.495  14.513 -1.1768 -0.4561 -0.7409
 3419SOL     OW21718   2.170   2.142   5.768 -0.5285 -0.1110 -0.4023
 3419SOL    HW121719   2.195   2.232   5.787 -0.2792 -0.0272 -1.1179
 3419SOL    HW221720   2.097   2.136   5.830  0.6901  1.1783  1.1695
 3420SOL     OW21721   0.155   3.131   5.504  0.3584  0.6332 -0.0322
 3420SOL    HW121722   0.238   3.084   5.500  0.1130  0.2282 -0.2905
 3420SOL    HW221723   0.100   3.060   5.474 -0.2140 -0.0489  2.6240
 3421SOL     OW21724   3.234   3.944  15.637  0.5815 -0.3610 -0.1045
 3421SOL    HW121725   3.212   4.032  15.607 -2.2227 -0.9842  0.1359
 3421SOL    HW221726   3.157   3.919  15.689  0.8492  1.2233  1.0880
 3422SOL     OW21727   0.197   1.493   9.321  0.9258 -0.3494 -0.1091
 3422SOL    HW121728   0.176   1.487   9.228  2.1938 -1.6999 -0.3037
 3422SOL    HW221729   0.215   1.586   9.336 -1.2495 -0.0817  0.8521
 3423SOL     OW21730   3.134   3.930  13.466 -0.3882  0.0162  0.2668
 3423SOL    HW121731   3.067   3.974  13.517 -0.6883 -1.2983  1.0080
 3423SOL    HW221732   3.082   3.857  13.432 -3.0517  1.2266  1.8120
 3424SOL     OW21733   0.288   4.358   5.771 -0.0876 -0.4952  0.1821
 3424SOL    HW121734   0.214   4.350   5.831  0.2375 -0.4440  0.5908
 3424SOL    HW221735   0.363   4.329   5.823  0.6783  0.7295 -0.2435
 3425SOL     OW21736   2.047   2.981   9.285 -0.4501 -0.0198  0.0364
 3425SOL    HW121737   1.991   2.939   9.219  0.8166 -1.4897 -0.0975
 3425SOL    HW221738   2.067   3.061   9.237  2.4089 -0.0140  1.2444
 3426SOL     OW21739   4.631   0.852   7.923  0.2094 -0.0633  0.9372
 3426SOL    HW121740   4.653   0.786   7.857 -1.4115 -1.5207  1.8520
 3426SOL    HW221741   4.697   0.919   7.904  1.1249 -1.2000  0.1322
 3427SOL     OW21742   3.537   2.820   9.004  0.2541 -0.3259  0.1184
 3427SOL    HW121743   3.511   2.903   9.045  0.3456 -0.0600 -0.3571
 3427SOL    HW221744   3.618   2.801   9.050  0.3965  0.0727  0.0394
 3428SOL     OW21745   3.427   0.059   6.900  0.4519  0.0265  0.2446
 3428SOL    HW121746   3.485   4.722   6.855 -0.0756 -1.1199  1.1272
 3428SOL    HW221747   3.364   4.721   6.935  1.3067 -1.1487 -0.3118
 3429SOL     OW21748   3.358   3.451  11.189 -0.3650 -0.0781  0.2089
 3429SOL    HW121749   3.387   3.536  11.157  1.5255 -0.4025  1.0328
 3429SOL    HW221750   3.362   3.470  11.282  1.3571 -0.6620  0.2699
 3430SOL     OW21751   4.448   3.818   1.765 -0.1307  0.0470  0.3037
 3430SOL    HW121752   4.413   3.797   1.852 -0.3404  0.4073  0.3067
 3430SOL    HW221753   4.458   3.737   1.715  1.0299 -1.1215  2.4070
 3431SOL     OW21754   0.066   0.479  11.269 -0.3109  0.1020 -0.2209
 3431SOL    HW121755   0.115   0.558  11.245 -0.8104  0.3150 -0.5439
 3431SOL    HW221756   4.708   0.517  11.300  0.6753  2.1992 -0.1190
 3432SOL     OW21757   2.026   4.384   2.462 -0.1471  0.1386 -0.3560
 3432SOL    HW121758   2.046   4.363   2.553 -1.9601  0.6805  0.1664
 3432SOL    HW221759   2.106   4.429   2.436 -0.5720  2.2973  2.1143
 3433SOL     OW21760   0.962   2.960   3.065 -0.1633  0.6478  0.2106
 3433SOL    HW121761   1.022   2.981   2.994  0.5472  0.2791  0.7005
 3433SOL    HW221762   0.875   2.952   3.025 -0.1785 -1.7898  0.7122
 3434SOL     OW21763   3.331   4.062   4.707 -0.3582 -0.0669 -0.0492
 3434SOL    HW121764   3.287   3.990   4.751  1.1921 -0.7848  0.3148
 3434SOL    HW221765   3.419   4.029   4.689 -0.9643 -0.8329 -1.6369
 3435SOL     OW21766   2.909   4.018   4.792 -0.2533  0.6905  0.3726
 3435SOL    HW121767   2.871   4.092   4.840 -0.3522  0.1437  1.1384
 3435SOL    HW221768   2.846   3.952   4.822 -0.5904  0.6810 -0.3319
 3436SOL     OW21769   3.435   2.858   9.697  0.3402 -0.0107  0.2410
 3436SOL    HW121770   3.509   2.845   9.638 -0.1855  0.7523 -0.5749
 3436SOL    HW221771   3.375   2.787   9.673 -0.1044  1.1955 -2.1220
 3437SOL     OW21772   1.614   2.706   6.336  0.8453  0.0549 -0.1456
 3437SOL    HW121773   1.518   2.706   6.326  0.8957  0.3005 -0.6216
 3437SOL    HW221774   1.621   2.728   6.429 -1.6679  0.9874 -0.1587
 3438SOL     OW21775   1.983   1.428   3.428  0.3263  0.3015 -0.7988
 3438SOL    HW121776   1.905   1.444   3.481  1.7077  0.7356  1.1141
 3438SOL    HW221777   2.045   1.397   3.494  0.1159  1.2180 -0.1704
 3439SOL     OW21778   0.859   3.699   4.143  0.4264  0.2176  0.1462
 3439SOL    HW121779   0.913   3.776   4.162 -1.0640  1.1027  0.7631
 3439SOL    HW221780   0.894   3.672   4.058 -2.3993 -1.5004 -0.4625
 3440SOL     OW21781   0.143   1.259   4.959 -0.2229 -0.3270  0.1637
 3440SOL    HW121782   0.077   1.294   5.018 -1.2163 -1.6131 -0.1861
 3440SOL    HW221783   0.087   1.196   4.914 -0.1598  0.1424 -0.5726
 3441SOL     OW21784   0.634   4.158   0.925  0.1740  0.5974  0.2155
 3441SOL    HW121785   0.602   4.246   0.905 -2.3537 -0.4054 -0.2526
 3441SOL    HW221786   0.551   4.125   0.962  1.4924 -3.8995 -0.8835
 3442SOL     OW21787   3.015   2.297   5.564 -0.8621  0.3653  0.6162
 3442SOL    HW121788   2.934   2.300   5.616 -1.5720  0.9642 -0.5022
 3442SOL    HW221789   3.034   2.204   5.580 -0.9580  0.3940  0.9073
 3443SOL     OW21790   2.538   4.088   6.505  0.1835 -0.4182 -0.1637
 3443SOL    HW121791   2.519   4.123   6.418 -0.7072  1.4682  0.7775
 3443SOL    HW221792   2.515   4.161   6.563 -1.1487 -0.0275 -1.1617
 3444SOL     OW21793   3.597   2.968  15.335 -0.5992 -0.3238 -0.0921
 3444SOL    HW121794   3.642   3.039  15.381  0.8813 -1.6683  0.5468
 3444SOL    HW221795   3.550   3.007  15.261 -0.0473  0.2687 -0.1327
 3445SOL     OW21796   4.469   4.644   4.912 -0.3239 -0.4805 -0.7450
 3445SOL    HW121797   4.466   4.724   4.964  0.6362 -2.2117  1.9318
 3445SOL    HW221798   4.393   4.658   4.855 -1.1458 -0.6821  0.3074
 3446SOL     OW21799   3.912   0.276  17.612 -0.7584 -0.3688 -0.0269
 3446SOL    HW121800   3.988   0.267  17.554 -0.6581  0.4888 -0.0414
 3446SOL    HW221801   3.874   0.193  17.585  1.0473 -0.7530 -1.4121
 3447SOL     OW21802   2.919   1.880  15.327 -0.7249 -0.5107  0.3134
 3447SOL    HW121803   2.992   1.942  15.333 -0.1942 -1.1333  0.2300
 3447SOL    HW221804   2.911   1.845  15.416  0.7634  0.2530  0.7536
 3448SOL     OW21805   2.001   2.115  12.088  0.4923  0.7525  0.0479
 3448SOL    HW121806   1.996   2.208  12.066  0.8325  0.9527  0.8270
 3448SOL    HW221807   2.095   2.102  12.101  0.5949 -0.0152 -1.4072
 3449SOL     OW21808   2.788   0.245   6.569 -0.2505 -0.3058  0.2012
 3449SOL    HW121809   2.727   0.242   6.643 -1.4322 -0.8556 -0.8133
 3449SOL    HW221810   2.737   0.279   6.496  1.0424 -0.2342 -0.6575
 3450SOL     OW21811   3.999   0.077   9.783  0.3794 -0.4234 -0.1005
 3450SOL    HW121812   3.970   4.712   9.765  0.8872 -0.8968  1.4481
 3450SOL    HW221813   3.924   0.131   9.811 -0.5724 -0.3583 -2.7657
 3451SOL     OW21814   4.157   3.309   8.028 -0.1783 -0.3615  0.2122
 3451SOL    HW121815   4.212   3.387   8.033  1.7269 -1.6057 -1.4178
 3451SOL    HW221816   4.115   3.316   8.113  1.0819 -2.7928  1.0319
 3452SOL     OW21817   1.592   4.193   4.238  0.0013 -0.2571  0.1940
 3452SOL    HW121818   1.671   4.245   4.242 -0.4102  0.3875 -0.2098
 3452SOL    HW221819   1.524   4.240   4.287 -1.0595  0.6778 -2.1892
 3453SOL     OW21820   3.147   1.785   6.272  0.1744  0.0903 -0.5162
 3453SOL    HW121821   3.209   1.855   6.253 -0.3570  0.3059 -1.4742
 3453SOL    HW221822   3.091   1.787   6.194  1.0260 -1.5926 -1.1631
 3454SOL     OW21823   0.712   3.383   6.278  0.3759 -0.2308  0.2606
 3454SOL    HW121824   0.688   3.291   6.293 -1.2890 -0.1113 -1.6042
 3454SOL    HW221825   0.663   3.396   6.197  2.3665 -0.3957 -0.9886
 3455SOL     OW21826   0.667   4.442   4.322 -0.0857  0.5349 -0.3836
 3455SOL    HW121827   0.648   4.405   4.236 -1.6453  0.8516 -0.1606
 3455SOL    HW221828   0.583   4.485   4.336 -0.6959 -0.3023 -1.5235
 3456SOL     OW21829   2.553   0.889   1.742  0.5012  0.6893 -0.5655
 3456SOL    HW121830   2.628   0.856   1.691  0.5902 -0.2776  0.2049
 3456SOL    HW221831   2.598   0.898   1.826 -2.5440 -1.2354  1.2420
 3457SOL     OW21832   2.691   0.864  13.618 -0.6840  0.1349 -0.4967
 3457SOL    HW121833   2.628   0.823  13.677 -1.8384  1.7070 -0.6336
 3457SOL    HW221834   2.631   0.918  13.566 -1.0803 -2.0487 -2.3137
 3458SOL     OW21835   0.409   0.081   2.278  0.1581  0.5278  1.0161
 3458SOL    HW121836   0.389   4.712   2.269  0.1439  0.5385  0.9305
 3458SOL    HW221837   0.496   0.080   2.317  0.5312 -1.0943  0.1545
 3459SOL     OW21838   2.199   2.610   3.538 -0.0978  0.0269 -0.3418
 3459SOL    HW121839   2.254   2.687   3.554 -1.5191  0.8386  0.6598
 3459SOL    HW221840   2.113   2.654   3.537  1.3419  2.8718  0.3509
 3460SOL     OW21841   0.415   4.038  16.794  0.6303  0.4304  0.5079
 3460SOL    HW121842   0.468   4.107  16.753  1.3823 -0.0868  0.6121
 3460SOL    HW221843   0.491   3.993  16.832 -1.6121 -1.8460  2.2469
 3461SOL     OW21844   1.738   4.528   1.921  0.4769  0.2362  0.2173
 3461SOL    HW121845   1.680   4.603   1.906  0.5239  0.3851  0.7839
 3461SOL    HW221846   1.798   4.544   1.848 -1.0427  0.2193 -1.0229
 3462SOL     OW21847   4.045   3.817  15.879  0.2466  0.1120 -0.2079
 3462SOL    HW121848   4.131   3.816  15.838 -0.5104 -0.0307 -1.7754
 3462SOL    HW221849   4.045   3.895  15.935  2.3036 -0.5370  0.6740
 3463SOL     OW21850   1.591   1.911   7.919 -0.0080  0.1562 -0.8353
 3463SOL    HW121851   1.601   1.990   7.973 -1.2961  0.9024 -1.6918
 3463SOL    HW221852   1.641   1.854   7.977 -0.4225  2.5479  1.8413
 3464SOL     OW21853   2.352   1.526  11.769  0.7330  0.0625  0.5408
 3464SOL    HW121854   2.414   1.583  11.722 -0.5192  0.1374 -1.0079
 3464SOL    HW221855   2.403   1.458  11.812 -0.6476 -1.2098  0.1476
 3465SOL     OW21856   1.903   2.730   5.935  0.5303 -0.0850 -0.3253
 3465SOL    HW121857   1.910   2.640   5.969 -1.0634 -1.3631 -3.3520
 3465SOL    HW221858   1.811   2.755   5.946  0.2216 -1.0642 -0.6526
 3466SOL     OW21859   1.366   0.195  15.935  0.0542  0.4675 -0.0024
 3466SOL    HW121860   1.343   0.102  15.936  1.0950  0.2175  0.6755
 3466SOL    HW221861   1.311   0.228  16.007  0.8116  2.1051 -0.1623
 3467SOL     OW21862   4.092   2.607   4.843 -0.2186  0.8123  0.1224
 3467SOL    HW121863   4.147   2.617   4.920 -0.8711  0.2065  0.6681
 3467SOL    HW221864   4.084   2.700   4.822 -0.9092  0.8210  0.4378
 3468SOL     OW21865   0.522   3.542   4.055 -0.2715 -0.7849 -0.0600
 3468SOL    HW121866   0.523   3.566   4.148 -0.9264 -0.6387 -0.0896
 3468SOL    HW221867   0.524   3.627   4.012  1.3076 -1.0087 -0.4090
 3469SOL     OW21868   4.172   0.492   5.287 -0.0553 -0.6537 -0.2445
 3469SOL    HW121869   4.103   0.513   5.350  0.2576 -1.9916  0.5275
 3469SOL    HW221870   4.230   0.567   5.299 -0.4512 -0.2504 -0.8283
 3470SOL     OW21871   4.681   2.163  10.400 -0.0096 -0.3174 -0.0242
 3470SOL    HW121872   0.021   2.187  10.466 -1.2333  0.0360  1.0395
 3470SOL    HW221873   4.662   2.073  10.424  0.9136 -0.3408  0.6193
 3471SOL     OW21874   1.608   0.582   6.249  0.7213 -0.3990 -0.2452
 3471SOL    HW121875   1.672   0.563   6.318  0.1079 -1.4132  0.0272
 3471SOL    HW221876   1.592   0.676   6.261  1.7511 -0.1178 -1.0393
 3472SOL     OW21877   0.007   0.446  10.868 -0.0569  0.0076 -0.2062
 3472SOL    HW121878   4.709   0.422  10.778  0.5704 -1.3517  0.0040
 3472SOL    HW221879   4.655   0.499  10.892  1.3903  2.6585 -1.4832
 3473SOL     OW21880   2.882   1.093   0.560  0.2444 -0.2820  0.2864
 3473SOL    HW121881   2.815   1.157   0.535  0.0215 -0.9485 -0.7891
 3473SOL    HW221882   2.915   1.068   0.474  0.8212  1.1913  0.0820
 3474SOL     OW21883   2.813   3.702   8.215 -0.6465  0.5709  0.4597
 3474SOL    HW121884   2.868   3.628   8.238  0.2759  1.4793  1.1404
 3474SOL    HW221885   2.842   3.721   8.125 -1.6527  2.5296  0.5360
 3475SOL     OW21886   0.486   3.065   2.159  0.0784  0.4098 -0.1634
 3475SOL    HW121887   0.513   3.054   2.068 -0.2035 -0.1934 -0.1750
 3475SOL    HW221888   0.539   3.142   2.182  1.8457 -0.6546 -0.6418
 3476SOL     OW21889   2.146   1.414   5.392  0.2678 -0.1929  0.6427
 3476SOL    HW121890   2.138   1.373   5.478  0.6402  0.2646  0.9009
 3476SOL    HW221891   2.209   1.360   5.345  0.9684  0.7344  0.5031
 3477SOL     OW21892   3.790   2.151  13.098 -0.4669  0.2682  0.2214
 3477SOL    HW121893   3.761   2.061  13.080  1.5173 -0.1071 -1.0403
 3477SOL    HW221894   3.871   2.142  13.148  2.2698 -0.8194 -4.4091
 3478SOL     OW21895   1.215   1.577  13.252  0.2279  0.2413 -0.0880
 3478SOL    HW121896   1.170   1.642  13.199 -0.5352 -0.7324 -0.6353
 3478SOL    HW221897   1.215   1.616  13.340  1.1480  1.0615 -0.4514
 3479SOL     OW21898   3.028   3.053   8.515  1.3195  1.0087 -0.7879
 3479SOL    HW121899   2.959   3.022   8.573 -0.6181  2.9196 -2.0777
 3479SOL    HW221900   3.072   3.117   8.571  0.1441  1.0366  0.0899
 3480SOL     OW21901   3.193   1.285   2.671  0.2788 -0.6468  0.7138
 3480SOL    HW121902   3.268   1.314   2.723 -0.7368  2.1286  0.6152
 3480SOL    HW221903   3.129   1.285   2.741 -0.1724  0.6347  0.2893
 3481SOL     OW21904   0.809   0.954   3.322 -0.4439 -0.8279 -0.3398
 3481SOL    HW121905   0.822   0.901   3.243 -0.7838 -0.4441 -0.6555
 3481SOL    HW221906   0.715   0.941   3.332 -0.3573 -0.0493  1.5081
 3482SOL     OW21907   2.623   4.694   6.236 -0.6128 -0.5965 -0.2098
 3482SOL    HW121908   2.641   4.606   6.202  0.4474 -0.3380 -0.3434
 3482SOL    HW221909   2.643   0.022   6.158 -1.1844 -1.2765 -0.8117
 3483SOL     OW21910   1.048   2.342   2.629  0.2477 -0.0657 -0.3059
 3483SOL    HW121911   0.973   2.389   2.591 -0.4570 -0.4368  0.6130
 3483SOL    HW221912   1.060   2.382   2.715  0.9687  2.6494 -1.6837
 3484SOL     OW21913   3.153   2.440   9.960 -0.7266  0.1681 -0.4584
 3484SOL    HW121914   3.074   2.492   9.977 -1.3436 -0.4301 -1.4854
 3484SOL    HW221915   3.111   2.357   9.985  1.6384 -0.3653  1.6525
 3485SOL     OW21916   3.984   2.380   6.267  0.4403  0.0330 -0.4969
 3485SOL    HW121917   4.016   2.346   6.184  2.1357  1.6367 -0.5193
 3485SOL    HW221918   3.904   2.423   6.239  0.8820 -0.3078 -2.2530
 3486SOL     OW21919   2.122   3.673   8.319 -0.7974  0.1069 -0.7922
 3486SOL    HW121920   2.042   3.645   8.275  0.3629 -0.6171 -2.4229
 3486SOL    HW221921   2.187   3.657   8.251  0.6892  0.3214  0.5745
 3487SOL     OW21922   0.451   2.794  15.531  0.7146  0.4469  0.3226
 3487SOL    HW121923   0.457   2.724  15.465 -1.6073  2.4384 -2.0223
 3487SOL    HW221924   0.416   2.868  15.481 -0.0358 -0.4412 -0.4915
 3488SOL     OW21925   0.588   3.108  15.522 -0.2273  0.8753  0.1992
 3488SOL    HW121926   0.671   3.113  15.570 -0.5513  0.3762  0.8115
 3488SOL    HW221927   0.593   3.027  15.472  0.0041  0.7122  0.4850
 3489SOL     OW21928   0.414   2.785  11.091  0.3249  0.8517  0.3135
 3489SOL    HW121929   0.479   2.721  11.121 -0.7825 -1.5405 -2.2895
 3489SOL    HW221930   0.388   2.739  11.011 -0.4434 -0.3854  1.2717
 3490SOL     OW21931   0.593   3.588   6.415  0.3070  0.0681 -0.4501
 3490SOL    HW121932   0.623   3.673   6.384 -1.0410  0.7730  0.1465
 3490SOL    HW221933   0.647   3.533   6.360 -0.0296 -0.3850 -0.3277
 3491SOL     OW21934   1.092   0.443   8.232 -0.1628  0.7416  0.6492
 3491SOL    HW121935   1.105   0.409   8.320  0.8995 -1.3415 -0.3176
 3491SOL    HW221936   1.030   0.513   8.252 -0.9536  0.3818 -0.5134
 3492SOL     OW21937   4.244   3.207   4.045 -0.1769  0.1902 -0.1249
 3492SOL    HW121938   4.218   3.292   4.011  0.3062  0.3711 -0.0403
 3492SOL    HW221939   4.248   3.218   4.140 -0.5953  3.7150 -0.5456
 3493SOL     OW21940   2.829   0.771   7.855 -0.1714 -0.1728  0.2721
 3493SOL    HW121941   2.753   0.726   7.817  1.4790 -1.0098 -2.0142
 3493SOL    HW221942   2.785   0.820   7.924 -2.0613 -1.1130 -0.2596
 3494SOL     OW21943   1.583   4.387   6.689 -0.1071 -0.2956 -0.1260
 3494SOL    HW121944   1.618   4.467   6.650 -2.0370  1.3162  1.4385
 3494SOL    HW221945   1.497   4.418   6.718  0.9848  0.5899  2.1645
 3495SOL     OW21946   3.682   4.348   5.580 -0.0467  0.0790  0.0008
 3495SOL    HW121947   3.591   4.321   5.567  0.7642 -2.0816 -1.1928
 3495SOL    HW221948   3.706   4.380   5.493  0.5909 -0.2296  0.0681
 3496SOL     OW21949   2.680   2.647   3.958  0.0079  0.4575 -0.1674
 3496SOL    HW121950   2.688   2.727   3.905 -2.0013  0.3777 -0.5980
 3496SOL    HW221951   2.763   2.602   3.948  0.0635  0.3211  0.9820
 3497SOL     OW21952   3.140   0.159   5.913 -0.2466  0.8489  0.0566
 3497SOL    HW121953   3.050   0.147   5.942 -0.6292  1.4726 -0.8540
 3497SOL    HW221954   3.153   0.251   5.890  0.6367  0.5363 -0.7188
 3498SOL     OW21955   2.046   0.877   6.204 -0.3492  0.0008 -0.0788
 3498SOL    HW121956   2.056   0.784   6.221  1.8024  0.2480 -0.0835
 3498SOL    HW221957   1.952   0.884   6.220 -0.7281  2.8502 -3.5343
 3499SOL     OW21958   2.248   2.340   4.430  0.3240  0.8257 -0.2408
 3499SOL    HW121959   2.208   2.416   4.387 -0.7121  0.9345  0.9243
 3499SOL    HW221960   2.199   2.264   4.399  0.3655  1.9729 -3.1578
 3500SOL     OW21961   4.456   2.915   7.357 -0.2543 -0.3952 -0.7561
 3500SOL    HW121962   4.417   2.909   7.270 -0.3363  1.1359 -0.8217
 3500SOL    HW221963   4.460   2.823   7.384  1.3042  0.0106  0.3666
 3501SOL     OW21964   0.067   0.498   5.611 -0.5412 -0.2162  0.0973
 3501SOL    HW121965   0.053   0.419   5.558  2.4593 -0.7552  0.0855
 3501SOL    HW221966   0.107   0.452   5.685 -2.1263 -0.2768  0.9261
 3502SOL     OW21967   1.597   3.099   6.103  0.2412  0.7817  0.1834
 3502SOL    HW121968   1.641   3.100   6.019  0.7717 -0.4899  0.4512
 3502SOL    HW221969   1.539   3.174   6.086  0.3674  0.8977  0.2594
 3503SOL     OW21970   0.185   0.542   0.458 -0.3919  0.2224 -0.0314
 3503SOL    HW121971   0.161   0.602   0.388  0.0852  0.4706  0.0175
 3503SOL    HW221972   0.202   0.458   0.415  1.8331 -0.3273  1.8824
 3504SOL     OW21973   1.842   4.097   0.952  0.1539  0.8739 -0.5764
 3504SOL    HW121974   1.854   4.103   1.047 -1.8159 -0.4362 -0.2394
 3504SOL    HW221975   1.756   4.136   0.936 -0.6549 -0.1208  1.3109
 3505SOL     OW21976   2.101   1.353   8.239  0.4826 -0.4447  1.1614
 3505SOL    HW121977   2.128   1.279   8.293 -0.3040 -1.3152  0.3582
 3505SOL    HW221978   2.007   1.335   8.235 -0.1679  2.8504  1.8003
 3506SOL     OW21979   2.973   4.443   5.410  0.0566 -0.0251 -0.4790
 3506SOL    HW121980   2.990   4.358   5.370 -2.1558 -1.2216  1.0991
 3506SOL    HW221981   2.907   4.422   5.476 -0.6420  0.5955 -0.9752
 3507SOL     OW21982   2.292   0.308   5.259  0.1485 -0.1562  0.2081
 3507SOL    HW121983   2.321   0.270   5.176  0.1618 -0.7883  0.5074
 3507SOL    HW221984   2.269   0.395   5.226 -0.7762 -0.0482  1.1451
 3508SOL     OW21985   4.231   4.501   1.621 -0.7483  0.2217 -0.5135
 3508SOL    HW121986   4.275   4.576   1.580 -0.7022 -0.0939 -1.0277
 3508SOL    HW221987   4.315   4.455   1.633  0.0219  1.8597  0.4183
 3509SOL     OW21988   0.109   1.546  12.638  0.1882 -0.2514 -0.0396
 3509SOL    HW121989   0.203   1.562  12.631 -0.0392  0.5741 -1.0899
 3509SOL    HW221990   0.105   1.501  12.722 -1.1693  2.3862  1.3116
 3510SOL     OW21991   2.355   2.231  12.371 -0.3857 -0.0998 -0.1683
 3510SOL    HW121992   2.319   2.232  12.282  0.2199  1.1579 -0.3893
 3510SOL    HW221993   2.370   2.136  12.376  0.0298 -0.1104 -1.6356
 3511SOL     OW21994   3.588   3.437   8.763 -0.1204  0.3581  0.7690
 3511SOL    HW121995   3.611   3.344   8.753 -0.9831  0.2603 -0.3478
 3511SOL    HW221996   3.562   3.448   8.854 -0.3662 -3.1803  1.1154
 3512SOL     OW21997   3.734   4.160   2.251  0.3989 -0.2655 -0.6032
 3512SOL    HW121998   3.763   4.071   2.270  1.8181  0.1487 -0.7747
 3512SOL    HW221999   3.743   4.198   2.339 -1.5133 -1.6925  0.1995
 3513SOL     OW22000   3.591   3.238   5.113 -0.6541 -0.3890  0.1067
 3513SOL    HW122001   3.650   3.276   5.048 -1.7721 -2.0418 -1.8595
 3513SOL    HW222002   3.553   3.322   5.138  0.4614 -0.1068  0.9029
 3514SOL     OW22003   3.924   4.547   6.128 -0.1310  0.3219  0.2669
 3514SOL    HW122004   3.941   4.570   6.220  1.5601  0.8989 -0.1786
 3514SOL    HW222005   3.829   4.537   6.129 -0.3699  2.3751 -0.4048
 3515SOL     OW22006   3.995   0.953   6.209 -0.1993 -0.0002 -0.0950
 3515SOL    HW122007   4.042   0.894   6.268 -0.3537  1.7824  1.8245
 3515SOL    HW222008   4.008   0.918   6.121  0.0335 -0.0656 -0.0334
 3516SOL     OW22009   0.108   1.172   6.106  0.8684 -0.4054  0.0645
 3516SOL    HW122010   0.203   1.158   6.102  0.6959 -1.6720  0.5065
 3516SOL    HW222011   0.099   1.264   6.130  0.3314 -0.4873  0.1720
 3517SOL     OW22012   2.525   0.051  12.552  0.3149 -0.3006  0.0485
 3517SOL    HW122013   2.486   0.053  12.465  1.2937  1.3901 -0.3504
 3517SOL    HW222014   2.509   0.137  12.591  3.2536 -0.4731  1.7018
 3518SOL     OW22015   2.472   2.990  11.345  0.1812  0.0822 -0.8009
 3518SOL    HW122016   2.450   3.062  11.285 -1.2666 -1.8326 -2.5448
 3518SOL    HW222017   2.432   3.019  11.427 -0.9248 -2.7814 -0.3339
 3519SOL     OW22018   1.598   0.914   3.184 -0.5645 -0.3689 -0.3744
 3519SOL    HW122019   1.594   0.829   3.140  0.0859 -1.0772  0.9098
 3519SOL    HW222020   1.506   0.919   3.209 -1.1926 -2.9466 -2.0951
 3520SOL     OW22021   3.187   2.540   0.452 -0.2666  0.4236 -0.0247
 3520SOL    HW122022   3.137   2.531   0.533  1.7209 -3.6573  0.6859
 3520SOL    HW222023   3.254   2.476   0.472 -0.4444  0.4064  0.5057
 3521SOL     OW22024   3.955   1.411   6.397  0.0481  0.6316 -0.1209
 3521SOL    HW122025   3.920   1.335   6.350  0.9512 -0.6572  1.2627
 3521SOL    HW222026   4.013   1.450   6.332 -0.0955 -0.5549 -0.9630
 3522SOL     OW22027   2.410   4.152  14.695 -0.0052  0.3064  0.8034
 3522SOL    HW122028   2.500   4.129  14.671 -0.0471  0.9497  0.0131
 3522SOL    HW222029   2.384   4.082  14.754 -2.4875  1.6849  1.3626
 3523SOL     OW22030   0.528   2.835  13.736 -0.0865  0.0412  0.8027
 3523SOL    HW122031   0.592   2.763  13.742 -0.0573  0.1536  1.7770
 3523SOL    HW222032   0.569   2.921  13.742  0.2622 -0.0379 -0.4814
 3524SOL     OW22033   2.924   0.264   4.620 -0.3231  0.4292  0.0309
 3524SOL    HW122034   3.010   0.306   4.624 -0.2371  0.0150  2.7788
 3524SOL    HW222035   2.931   0.203   4.694 -0.6556  0.6780  0.2680
 3525SOL     OW22036   4.277   0.112  16.484 -0.6581  0.0372 -0.2884
 3525SOL    HW122037   4.291   0.111  16.389  0.0358  0.5899 -0.1937
 3525SOL    HW222038   4.282   0.018  16.498 -3.8495  0.0336  0.7491
 3526SOL     OW22039   4.568   1.297   0.779  0.0276  0.1453  0.0479
 3526SOL    HW122040   4.558   1.390   0.801 -1.2312 -0.2469  1.1352
 3526SOL    HW222041   4.524   1.299   0.694  0.5120  0.1062 -0.2067
 3527SOL     OW22042   1.548   2.808   7.900  0.1930  0.7366 -0.5041
 3527SOL    HW122043   1.552   2.720   7.939 -3.0200  1.7534  2.1796
 3527SOL    HW222044   1.621   2.806   7.838  1.2371 -0.5795  0.7798
 3528SOL     OW22045   1.578   4.244   3.473  0.0523 -0.4654  0.1811
 3528SOL    HW122046   1.614   4.197   3.399  0.3864 -1.0117  0.6889
 3528SOL    HW222047   1.643   4.223   3.541  0.8323  1.3537 -0.0006
 3529SOL     OW22048   1.014   3.438  11.438  0.2090 -0.1852 -0.0316
 3529SOL    HW122049   1.087   3.455  11.379 -3.3439  3.4329 -3.4221
 3529SOL    HW222050   0.948   3.401  11.379  0.4603 -0.5712 -0.0704
 3530SOL     OW22051   1.965   1.797  13.460  0.1894  0.4328  0.4565
 3530SOL    HW122052   2.047   1.763  13.494  0.5096 -0.4023 -1.1760
 3530SOL    HW222053   1.907   1.814  13.535 -0.6351 -0.3864  0.0050
 3531SOL     OW22054   3.711   3.479  12.870 -0.1258  0.0844  0.0347
 3531SOL    HW122055   3.621   3.507  12.854  0.8872  3.2411 -0.2050
 3531SOL    HW222056   3.698   3.391  12.906  1.4354  1.3950  3.7927
 3532SOL     OW22057   4.612   4.583  13.515 -0.8950  0.1832 -0.4426
 3532SOL    HW122058   4.666   4.640  13.570 -0.7199  0.4033 -0.8435
 3532SOL    HW222059   4.531   4.631  13.498 -1.6303 -0.8808  0.0675
 3533SOL     OW22060   2.062   4.108   2.270 -0.2767 -0.1452 -0.4064
 3533SOL    HW122061   2.079   4.197   2.239 -1.2052  0.3471  0.4850
 3533SOL    HW222062   1.997   4.129   2.338 -0.0662 -0.5861 -0.0709
 3534SOL     OW22063   3.372   1.284  12.484  0.3729  0.2916  0.2557
 3534SOL    HW122064   3.416   1.206  12.451 -0.2457 -0.9331  2.3618
 3534SOL    HW222065   3.415   1.308  12.566  0.0821  1.2985  0.1140
 3535SOL     OW22066   4.439   0.482   2.384  0.0324 -0.6024  0.1113
 3535SOL    HW122067   4.463   0.566   2.346  0.9599 -1.2963 -0.8305
 3535SOL    HW222068   4.427   0.430   2.304 -0.6791 -2.0489  1.1595
 3536SOL     OW22069   0.290   1.625   5.710  0.2011  0.2027 -0.3246
 3536SOL    HW122070   0.224   1.682   5.670  0.1135  0.8255  0.7185
 3536SOL    HW222071   0.295   1.552   5.648 -0.5271 -1.5344  1.6457
 3537SOL     OW22072   2.323   2.380   1.115 -0.0289  0.2669  0.1495
 3537SOL    HW122073   2.280   2.413   1.193  1.8355  0.0534  1.2694
 3537SOL    HW222074   2.330   2.288   1.139  0.9770  0.3249  0.0694
 3538SOL     OW22075   2.549   2.806   5.975 -0.5676 -0.2084 -0.1504
 3538SOL    HW122076   2.598   2.750   5.915  1.0586 -0.3811  1.3479
 3538SOL    HW222077   2.627   2.845   6.013 -1.6977  1.4016  0.5743
 3539SOL     OW22078   0.148   4.563  14.511 -0.4538 -0.0488 -0.2207
 3539SOL    HW122079   0.096   4.631  14.554 -1.5443  0.5885 -2.5053
 3539SOL    HW222080   0.083   4.494  14.526 -0.2137 -0.2962 -0.3228
 3540SOL     OW22081   4.648   2.324   0.996  0.0773 -0.3831  0.0119
 3540SOL    HW122082   0.014   2.348   1.017 -0.0433 -0.2196  0.3445
 3540SOL    HW222083   4.645   2.346   0.903 -1.6603  0.8880  0.3725
 3541SOL     OW22084   3.245   0.515   9.060 -0.1585  0.0270 -0.4438
 3541SOL    HW122085   3.162   0.497   9.106 -1.3307  0.8226 -2.2538
 3541SOL    HW222086   3.262   0.431   9.018 -0.3163 -1.1800  1.9144
 3542SOL     OW22087   0.656   0.087   2.642  0.8361  0.0595 -0.5450
 3542SOL    HW122088   0.705   0.167   2.627  1.4735 -0.5476 -1.6639
 3542SOL    HW222089   0.706   0.043   2.711  0.6763 -2.1424 -1.8067
 3543SOL     OW22090   0.631   3.544   7.734  0.5983  0.2169  0.4499
 3543SOL    HW122091   0.554   3.599   7.723 -0.3218 -0.5476  3.0692
 3543SOL    HW222092   0.598   3.496   7.809 -0.6108 -3.2452 -2.2980
 3544SOL     OW22093   3.720   1.463  13.738  0.7020 -0.0279 -0.0892
 3544SOL    HW122094   3.773   1.399  13.785  0.5246 -0.8740 -1.0568
 3544SOL    HW222095   3.748   1.446  13.648 -1.1250 -0.2312 -0.6159
 3545SOL     OW22096   3.964   0.747   8.119 -0.1507  0.1474  0.0089
 3545SOL    HW122097   3.869   0.740   8.129  0.0182  0.4365  1.8631
 3545SOL    HW222098   3.983   0.737   8.212  1.5545 -0.7505 -0.4436
 3546SOL     OW22099   2.544   1.446   1.372 -0.2360 -0.6246  0.2050
 3546SOL    HW122100   2.532   1.354   1.397 -1.6579 -0.4507  0.1576
 3546SOL    HW222101   2.534   1.431   1.277  2.7305  0.0675 -0.2165
 3547SOL     OW22102   3.317   4.129   3.491  0.3702  0.3131 -0.7929
 3547SOL    HW122103   3.257   4.092   3.556  0.4110 -1.1872 -1.6268
 3547SOL    HW222104   3.403   4.129   3.533  0.0299 -0.0425 -0.0943
 3548SOL     OW22105   3.776   2.791   6.639 -0.1378 -0.0402 -0.3476
 3548SOL    HW122106   3.761   2.771   6.546 -0.6519  0.5736 -0.3929
 3548SOL    HW222107   3.862   2.833   6.630  0.9678 -1.5555  3.1164
 3549SOL     OW22108   1.474   3.440   8.383 -0.4700  0.2940 -0.4365
 3549SOL    HW122109   1.386   3.476   8.367  0.0309  1.0282 -1.5178
 3549SOL    HW222110   1.461   3.399   8.469  1.3670  1.1808  0.2685
 3550SOL     OW22111   4.027   1.928   7.352 -0.0593 -0.0309  0.1621
 3550SOL    HW122112   4.059   1.853   7.402 -0.5930  0.0099  0.5757
 3550SOL    HW222113   4.105   1.980   7.337 -0.4093  0.6453  0.6853
 3551SOL     OW22114   1.740   1.816  13.280 -0.7858 -0.1849 -0.1911
 3551SOL    HW122115   1.771   1.894  13.235  1.7393  0.3640  2.4848
 3551SOL    HW222116   1.813   1.799  13.339 -2.1787  1.0536  1.8831
 3552SOL     OW22117   2.738   0.124   7.030 -0.3309  0.0299 -1.1438
 3552SOL    HW122118   2.678   0.085   6.967 -0.0028  3.4846 -3.6391
 3552SOL    HW222119   2.803   0.060   7.001 -0.5508  0.1144 -1.8214
 3553SOL     OW22120   1.850   2.285   6.630 -0.2498 -0.5837  0.7132
 3553SOL    HW122121   1.871   2.355   6.691  1.4992  0.5092 -1.1257
 3553SOL    HW222122   1.771   2.324   6.593  1.3068  2.0122  0.1845
 3554SOL     OW22123   2.954   2.984   0.383  0.3701 -0.0723  0.2264
 3554SOL    HW122124   2.920   2.897   0.364  1.3615 -0.6238  0.9574
 3554SOL    HW222125   2.876   3.038   0.396 -0.0464 -0.5171 -0.4527
 3555SOL     OW22126   0.053   2.639   0.909  0.9074 -0.3022  0.0248
 3555SOL    HW122127   0.094   2.725   0.912  0.7196 -0.2281  0.5450
 3555SOL    HW222128   0.098   2.604   0.832  1.3054  1.3590 -0.4823
 3556SOL     OW22129   0.727   3.134   7.525 -0.4265  0.3576  0.3219
 3556SOL    HW122130   0.637   3.167   7.523 -0.3291  0.5816 -0.5037
 3556SOL    HW222131   0.771   3.206   7.571 -0.8473  1.0596 -0.3884
 3557SOL     OW22132   0.240   3.118  12.672 -0.0117  0.3737  0.0618
 3557SOL    HW122133   0.190   3.061  12.614 -0.5975 -0.2299  1.1672
 3557SOL    HW222134   0.183   3.113  12.748  0.5345  2.4172  0.6231
 3558SOL     OW22135   0.663   2.077   8.593 -0.6269 -0.1184  0.1919
 3558SOL    HW122136   0.743   2.130   8.600 -1.8971  1.6266  1.3492
 3558SOL    HW222137   0.679   1.994   8.638 -2.4416 -0.0976  0.8554
 3559SOL     OW22138   3.339   4.142  13.411  0.8236  0.1152  0.2085
 3559SOL    HW122139   3.312   4.056  13.444  1.4740  0.2818  1.1597
 3559SOL    HW222140   3.306   4.201  13.479  0.5424  2.6797 -2.1731
 3560SOL     OW22141   3.341   1.153   7.932 -0.0453  0.0473 -0.1378
 3560SOL    HW122142   3.250   1.179   7.918 -0.7447 -1.8870  0.8300
 3560SOL    HW222143   3.342   1.106   8.016  0.1361 -1.5878 -1.0525
 3561SOL     OW22144   4.123   3.274   1.519  0.2148  0.1436 -0.2262
 3561SOL    HW122145   4.179   3.306   1.590  1.2979 -2.9419  0.3019
 3561SOL    HW222146   4.055   3.342   1.516  0.7255  0.6804  0.2709
 3562SOL     OW22147   4.402   1.053   4.351 -0.0507  0.1145  0.5691
 3562SOL    HW122148   4.416   1.083   4.441  0.2188  0.8209  0.2893
 3562SOL    HW222149   4.423   1.128   4.296 -2.6169  0.1710 -0.2883
 3563SOL     OW22150   4.103   3.117   5.285  0.5001 -0.4110 -0.1568
 3563SOL    HW122151   4.089   3.206   5.250  0.2813 -0.1626  0.5609
 3563SOL    HW222152   4.058   3.121   5.369  0.3513 -2.8752 -0.1471
 3564SOL     OW22153   3.205   4.607   2.462  0.0101  0.4744  0.1300
 3564SOL    HW122154   3.273   4.674   2.476  0.2061  0.2654  0.1731
 3564SOL    HW222155   3.151   4.668   2.411 -0.8643 -2.4376 -2.3880
 3565SOL     OW22156   4.586   2.973  12.702 -0.5213  0.5011 -0.2957
 3565SOL    HW122157   4.631   3.042  12.751 -0.5068  0.0225  0.3615
 3565SOL    HW222158   4.652   2.956  12.635  0.7633 -2.1142  1.6496
 3566SOL     OW22159   1.985   1.653  12.935  0.0335 -0.6897  0.2411
 3566SOL    HW122160   1.969   1.560  12.918 -1.1360 -0.1684 -1.4171
 3566SOL    HW222161   2.021   1.636  13.023  0.4782 -0.8105  0.0346
 3567SOL     OW22162   1.653   1.907   4.200 -0.8623  0.6014  0.6463
 3567SOL    HW122163   1.661   1.966   4.126 -0.4144 -3.7422 -2.7297
 3567SOL    HW222164   1.685   1.969   4.265  1.0541  0.8769 -0.5879
 3568SOL     OW22165   1.093   3.829   2.291 -0.7922  0.3613  0.4836
 3568SOL    HW122166   1.118   3.791   2.375  1.0766 -0.4341 -0.4335
 3568SOL    HW222167   1.178   3.858   2.258  0.5629 -3.0817  1.0152
 3569SOL     OW22168   1.549   3.394   7.270 -0.1200 -0.2166  0.0461
 3569SOL    HW122169   1.479   3.441   7.224  0.1225 -0.8493 -0.9642
 3569SOL    HW222170   1.535   3.425   7.360 -0.8028 -0.1421 -0.0865
 3570SOL     OW22171   0.596   1.045   5.726 -0.4024  0.0454  0.1287
 3570SOL    HW122172   0.621   1.108   5.658 -2.3597 -0.4520 -1.0637
 3570SOL    HW222173   0.675   1.042   5.779  0.6071 -0.2349 -1.3846
 3571SOL     OW22174   3.159   1.781   8.955  0.0501 -1.1071  0.5611
 3571SOL    HW122175   3.111   1.773   8.872 -1.5523  0.1549  1.3753
 3571SOL    HW222176   3.242   1.824   8.935 -0.9963  1.7602  2.4899
 3572SOL     OW22177   4.406   0.118   8.943  0.0687  0.3733  0.7107
 3572SOL    HW122178   4.451   0.141   9.024 -1.0472 -2.2228  2.0706
 3572SOL    HW222179   4.329   0.068   8.970 -0.7524  1.6971  0.8525
 3573SOL     OW22180   3.690   3.734   7.948 -0.1225  0.7677  0.2584
 3573SOL    HW122181   3.738   3.774   7.875  0.2842  2.6661  1.5777
 3573SOL    HW222182   3.627   3.687   7.893  1.4083  1.6187 -2.2408
 3574SOL     OW22183   1.442   4.031  12.763  0.1893 -0.0203 -0.4692
 3574SOL    HW122184   1.395   4.020  12.846 -1.4350  0.1152 -1.3621
 3574SOL    HW222185   1.496   4.103  12.798  0.8368 -0.7727  0.0730
 3575SOL     OW22186   2.245   1.049   3.608 -0.0742  0.0077  0.7298
 3575SOL    HW122187   2.197   1.022   3.686 -1.7211 -1.2508 -0.7110
 3575SOL    HW222188   2.336   1.037   3.634  0.5512  1.5541 -0.7806
 3576SOL     OW22189   4.144   1.668   9.526 -0.4129 -0.2033 -0.3489
 3576SOL    HW122190   4.184   1.732   9.466  0.9510 -0.4424  0.2955
 3576SOL    HW222191   4.122   1.720   9.603  1.2517  1.4827 -0.9925
 3577SOL     OW22192   4.678   4.265   7.101  0.0306 -0.0700  0.4170
 3577SOL    HW122193   4.627   4.317   7.163 -0.4061 -0.0864  0.0770
 3577SOL    HW222194   4.626   4.271   7.021  0.2623 -2.1309  0.1230
 3578SOL     OW22195   4.185   3.918   4.484  0.2420  0.3474 -0.6649
 3578SOL    HW122196   4.177   3.938   4.391 -0.0495  1.8347 -0.3141
 3578SOL    HW222197   4.107   3.971   4.501 -0.1806 -0.6279  0.4721
 3579SOL     OW22198   1.868   1.128   4.460  0.4479  0.1844  0.6964
 3579SOL    HW122199   1.925   1.052   4.448 -0.6861 -0.2960 -1.5913
 3579SOL    HW222200   1.862   1.147   4.366  1.8871  1.3343  0.8527
 3580SOL     OW22201   4.390   0.370  14.778 -0.4641  0.1010  0.5114
 3580SOL    HW122202   4.338   0.436  14.824 -1.5579 -0.9974  0.8271
 3580SOL    HW222203   4.393   0.292  14.833  0.8327 -1.8677 -2.3833
 3581SOL     OW22204   0.732   0.072   1.158 -0.0958 -0.0134 -0.3117
 3581SOL    HW122205   0.687   0.098   1.239 -0.0895 -0.8357 -0.0444
 3581SOL    HW222206   0.804   0.135   1.169  1.1590 -1.1873 -1.7964
 3582SOL     OW22207   0.107   3.942   5.797 -0.2267 -0.5868  0.3593
 3582SOL    HW122208   0.023   3.903   5.775 -1.0172  1.1609  0.2369
 3582SOL    HW222209   0.127   3.994   5.719 -0.8311  0.5644  0.9655
 3583SOL     OW22210   1.135   1.848   5.102  0.4387  0.5477  0.0180
 3583SOL    HW122211   1.086   1.861   5.021  2.9421  1.8793 -1.2474
 3583SOL    HW222212   1.096   1.920   5.152  0.0176 -1.2007  2.2170
 3584SOL     OW22213   4.147   2.784  16.124  0.0171  0.1953 -0.5498
 3584SOL    HW122214   4.101   2.773  16.207 -2.0739  0.7296 -1.6435
 3584SOL    HW222215   4.199   2.705  16.109 -1.0212 -0.7096  0.5869
 3585SOL     OW22216   2.054   3.512   5.036 -0.1841  0.4130  0.2849
 3585SOL    HW122217   2.124   3.483   5.094 -0.4861 -0.0012  0.4412
 3585SOL    HW222218   1.979   3.493   5.093 -1.0051 -1.9539 -1.6130
 3586SOL     OW22219   4.240   2.382   9.401  0.1072 -0.1057  0.0139
 3586SOL    HW122220   4.279   2.322   9.338 -0.9828  0.6812 -1.4014
 3586SOL    HW222221   4.283   2.460   9.364  0.9792  0.5214  2.3209
 3587SOL     OW22222   1.553   2.101   3.274  0.1152 -0.4719 -0.8377
 3587SOL    HW122223   1.587   2.189   3.260 -1.8577  0.0915 -1.9690
 3587SOL    HW222224   1.621   2.049   3.318 -0.1856  0.1045  0.3061
 3588SOL     OW22225   2.255   3.092  15.235 -0.1883  0.3681  0.1875
 3588SOL    HW122226   2.162   3.115  15.236  0.2743  2.2632 -0.2643
 3588SOL    HW222227   2.285   3.078  15.145 -1.3944 -1.2067  0.0319
 3589SOL     OW22228   1.296   3.998  15.992  0.1705 -0.1559 -0.2613
 3589SOL    HW122229   1.258   3.929  15.938 -0.0599 -1.7450  1.9411
 3589SOL    HW222230   1.233   4.067  15.968  0.5167 -0.2099 -1.3176
 3590SOL     OW22231   2.994   3.891  15.764 -0.3759  0.0028 -0.3136
 3590SOL    HW122232   2.973   3.835  15.839 -0.3903  1.3215  0.6706
 3590SOL    HW222233   2.938   3.852  15.697 -3.1758  1.2378  1.3225
 3591SOL     OW22234   2.288   4.030   7.011  0.1752  0.2955  0.8487
 3591SOL    HW122235   2.249   4.116   6.995 -0.4290 -0.9739 -4.4995
 3591SOL    HW222236   2.209   3.979   6.990  0.2027  0.4894  0.2704
 3592SOL     OW22237   4.562   4.004   9.966 -0.0905  0.2586 -0.6093
 3592SOL    HW122238   4.557   3.910   9.952 -2.1883  0.1298  1.0118
 3592SOL    HW222239   4.631   4.029   9.904  1.2756  1.9206  1.5772
 3593SOL     OW22240   0.820   4.146  11.300 -0.3588  0.4664  0.7412
 3593SOL    HW122241   0.767   4.162  11.378 -0.8553 -0.7951  0.6784
 3593SOL    HW222242   0.818   4.239  11.281  0.2896  0.9074  2.8500
 3594SOL     OW22243   2.885   0.882   0.720 -0.6774 -0.8358 -0.0063
 3594SOL    HW122244   2.884   0.968   0.680  0.0672 -1.0908 -0.5531
 3594SOL    HW222245   2.920   0.827   0.651 -1.8163 -1.4933 -0.0658
 3595SOL     OW22246   1.030   1.290   2.897  0.4212  0.3231 -0.1171
 3595SOL    HW122247   1.098   1.254   2.955  0.8354  1.4424  0.0936
 3595SOL    HW222248   1.084   1.341   2.837 -0.0001  1.0055  0.0872
 3596SOL     OW22249   2.750   1.855  17.279 -0.4287 -0.3535 -0.0312
 3596SOL    HW122250   2.732   1.947  17.299  1.0986  0.0293 -0.4393
 3596SOL    HW222251   2.670   1.823  17.236 -0.4583 -1.8254  1.1125
 3597SOL     OW22252   4.296   3.883   9.257 -0.2960 -0.0084 -0.0227
 3597SOL    HW122253   4.335   3.813   9.205 -1.0232 -0.7460  0.4236
 3597SOL    HW222254   4.319   3.839   9.340  0.1255 -1.6665 -1.0048
 3598SOL     OW22255   3.115   1.632   6.488 -0.0181 -0.1660  0.2256
 3598SOL    HW122256   3.156   1.676   6.562 -2.6485  0.0836  1.5422
 3598SOL    HW222257   3.137   1.680   6.408  0.2696  1.5218  1.3349
 3599SOL     OW22258   1.791   1.430   5.666  0.2848 -0.5859 -0.6707
 3599SOL    HW122259   1.798   1.395   5.755  0.9593 -0.2462 -0.5883
 3599SOL    HW222260   1.841   1.510   5.678  1.2824 -1.1455 -1.1601
 3600SOL     OW22261   2.131   2.304  13.093  0.0975  0.3526 -0.1276
 3600SOL    HW122262   2.222   2.291  13.117  0.3488 -1.0677 -1.8697
 3600SOL    HW222263   2.077   2.280  13.168  2.6071  1.7367  2.1218
 3601SOL     OW22264   2.596   0.908   2.907  0.4545 -0.3185 -0.3959
 3601SOL    HW122265   2.656   0.960   2.961 -0.0392  0.8043 -0.9417
 3601SOL    HW222266   2.581   0.837   2.970  0.5731 -0.4678 -0.5371
 3602SOL     OW22267   3.684   2.022   4.816 -0.4224  0.0951 -0.1914
 3602SOL    HW122268   3.774   2.027   4.783 -1.2172  3.2919 -1.9012
 3602SOL    HW222269   3.639   2.070   4.747 -3.0033 -0.0258  1.3952
 3603SOL     OW22270   3.881   0.890   5.047  0.7458  0.2466 -0.5936
 3603SOL    HW122271   3.954   0.947   5.070  1.6293 -0.3885 -1.7803
 3603SOL    HW222272   3.916   0.804   5.025 -1.2394 -0.9649  1.0625
 3604SOL     OW22273   1.993   2.203   1.810 -0.8949 -0.0389  0.0803
 3604SOL    HW122274   1.937   2.140   1.764  0.6209 -0.6929 -0.8587
 3604SOL    HW222275   2.050   2.144   1.860  0.3516 -0.6963 -2.1354
 3605SOL     OW22276   3.317   2.788  11.162  0.1680 -0.0474 -0.5659
 3605SOL    HW122277   3.396   2.809  11.112  0.0409 -0.4461 -0.9310
 3605SOL    HW222278   3.275   2.741  11.091 -0.3363 -0.7727  0.2105
 3606SOL     OW22279   3.559   4.321   4.297 -0.3685 -0.5846 -0.0808
 3606SOL    HW122280   3.479   4.275   4.321 -0.0253  0.2443  2.6522
 3606SOL    HW222281   3.535   4.410   4.324 -1.6699 -0.3666 -1.8930
 3607SOL     OW22282   2.221   1.123   8.651  0.0491 -0.2318 -0.2303
 3607SOL    HW122283   2.174   1.051   8.609 -1.4037 -0.8378  2.4592
 3607SOL    HW222284   2.147   1.158   8.701  0.2222  0.1985 -0.2792
 3608SOL     OW22285   1.701   2.206   8.502 -0.3415 -0.3224  0.2882
 3608SOL    HW122286   1.732   2.292   8.532 -1.4823 -0.2403  1.2170
 3608SOL    HW222287   1.676   2.167   8.585 -2.7184  1.5519  0.4424
 3609SOL     OW22288   0.848   3.276  17.038 -0.2109 -0.3153 -0.1859
 3609SOL    HW122289   0.800   3.305  16.961  0.1817  0.1085 -0.2712
 3609SOL    HW222290   0.801   3.321  17.108 -0.4279 -1.1638  0.2155
 3610SOL     OW22291   0.630   3.445   1.994 -0.4401 -0.2236  0.5076
 3610SOL    HW122292   0.555   3.406   1.950 -1.7113  0.9820  1.6190
 3610SOL    HW222293   0.622   3.392   2.074 -0.2285 -1.3106 -0.1982
 3611SOL     OW22294   0.801   3.943   7.888  0.1675 -0.3957 -0.3871
 3611SOL    HW122295   0.830   3.899   7.967 -1.8307  2.2871  1.8384
 3611SOL    HW222296   0.727   3.888   7.861 -0.4388  0.3530 -0.2444
 3612SOL     OW22297   3.635   1.931   7.241  0.3085 -0.5512 -0.6593
 3612SOL    HW122298   3.551   1.895   7.211 -1.5412  2.3239  1.1343
 3612SOL    HW222299   3.670   1.851   7.280  0.5840 -0.7678 -1.3517
 3613SOL     OW22300   3.643   2.653   4.990  0.4674  0.5923  0.4120
 3613SOL    HW122301   3.639   2.590   5.061  0.7216 -0.0821 -0.1754
 3613SOL    HW222302   3.705   2.627   4.922  0.5066 -0.1074  0.7229
 3614SOL     OW22303   0.131   3.836   6.904  0.2631 -0.2710  0.2565
 3614SOL    HW122304   0.070   3.846   6.977  0.7565 -0.4740  0.6956
 3614SOL    HW222305   0.068   3.833   6.832 -2.6201  1.8921  2.6961
 3615SOL     OW22306   1.007   2.263   5.752  0.4974  0.0097  0.4333
 3615SOL    HW122307   1.041   2.323   5.819 -0.7632 -0.2063  1.2702
 3615SOL    HW222308   0.990   2.191   5.812 -0.8305  0.3183  0.4123
 3616SOL     OW22309   0.380   4.479  16.010 -0.3827  0.4545 -0.2437
 3616SOL    HW122310   0.384   4.530  16.091  1.6945  3.2081 -2.0839
 3616SOL    HW222311   0.292   4.504  15.984 -0.5085  1.2814  0.9988
 3617SOL     OW22312   0.698   1.748   6.003  0.0367  0.0470 -0.5130
 3617SOL    HW122313   0.603   1.755   5.991 -0.1815  0.5624  1.6396
 3617SOL    HW222314   0.722   1.669   5.954 -2.0060 -0.5087 -0.6072
 3618SOL     OW22315   1.796   0.103   5.673  0.0607  0.2475 -0.8725
 3618SOL    HW122316   1.888   0.089   5.648  0.6339 -0.7154  1.8391
 3618SOL    HW222317   1.812   0.068   5.761 -0.0388  0.1332 -0.8999
 3619SOL     OW22318   2.199   1.247  17.292  0.3160 -0.1078  0.1979
 3619SOL    HW122319   2.248   1.176  17.333 -2.4398 -1.4498  1.2024
 3619SOL    HW222320   2.249   1.274  17.215  1.2840 -2.4432  0.0129
 3620SOL     OW22321   1.506   2.768   4.793  0.2178 -0.4663  0.2716
 3620SOL    HW122322   1.577   2.727   4.744  1.0303  0.2142  0.8645
 3620SOL    HW222323   1.430   2.739   4.744 -0.3541 -1.0286  1.5017
 3621SOL     OW22324   3.225   2.976  13.557 -0.2728 -0.0968 -0.0310
 3621SOL    HW122325   3.217   2.929  13.640  0.9562 -0.5164 -0.1532
 3621SOL    HW222326   3.226   2.906  13.492  2.5563 -0.1989  0.1367
 3622SOL     OW22327   3.359   2.943   9.370  0.6040 -0.3982  0.3366
 3622SOL    HW122328   3.403   3.025   9.396 -0.4650  1.0456 -2.4904
 3622SOL    HW222329   3.281   2.964   9.422  0.4960  0.1986 -0.0696
 3623SOL     OW22330   1.173   2.254   6.461 -0.1692 -0.3401 -0.4931
 3623SOL    HW122331   1.085   2.287   6.480  0.8976  1.2833  1.5568
 3623SOL    HW222332   1.220   2.294   6.534  0.8038 -0.2552 -1.1712
 3624SOL     OW22333   4.294   4.301  12.480 -0.5261 -0.3086  0.3137
 3624SOL    HW122334   4.386   4.281  12.461 -0.8697 -1.7077  0.1030
 3624SOL    HW222335   4.301   4.344  12.565 -2.4984  1.7773 -0.5932
 3625SOL     OW22336   0.465   4.278   8.567  0.3387  0.3265  0.1302
 3625SOL    HW122337   0.419   4.357   8.538 -0.7052 -0.6662 -0.9027
 3625SOL    HW222338   0.552   4.302   8.535  0.1730  0.5855 -0.1337
 3626SOL     OW22339   3.808   0.502   5.247  0.2979 -0.0249 -0.1601
 3626SOL    HW122340   3.840   0.551   5.323  2.8690  0.3535 -1.4632
 3626SOL    HW222341   3.723   0.545   5.236  0.5965  0.0951 -2.0452
 3627SOL     OW22342   1.077   0.665   4.948  0.1670 -0.2225 -1.1433
 3627SOL    HW122343   1.152   0.724   4.942  0.4859 -0.4867  0.4146
 3627SOL    HW222344   1.095   0.608   4.873  1.5114 -0.5683 -0.5569
 3628SOL     OW22345   4.537   4.289   8.775  0.5172 -0.1959 -0.1180
 3628SOL    HW122346   4.556   4.383   8.773 -1.4822  0.2253  1.1636
 3628SOL    HW222347   4.617   4.251   8.738  0.3230 -2.1164  1.4097
 3629SOL     OW22348   1.752   3.063   6.321  0.3235 -0.4835 -0.0690
 3629SOL    HW122349   1.692   3.071   6.247 -2.0877  0.7106  1.9945
 3629SOL    HW222350   1.755   3.151   6.358 -1.3976 -1.6457  2.9094
 3630SOL     OW22351   1.989   3.747  11.764 -0.2238  0.3372  0.1010
 3630SOL    HW122352   2.035   3.694  11.700 -2.2272 -0.1317 -0.9427
 3630SOL    HW222353   1.904   3.703  11.764 -1.3506  2.5226  0.7784
 3631SOL     OW22354   0.216   2.734   6.759 -0.4509  0.8367  0.5275
 3631SOL    HW122355   0.172   2.678   6.823  0.6623 -1.6430 -0.9114
 3631SOL    HW222356   0.275   2.666   6.728  0.0532  1.9221 -0.8795
 3632SOL     OW22357   1.281   4.512   1.229 -0.2015  0.0286 -0.1810
 3632SOL    HW122358   1.194   4.511   1.270 -0.3684  0.0006 -0.5363
 3632SOL    HW222359   1.311   4.428   1.263  0.3074  0.3471  0.1582
 3633SOL     OW22360   2.662   1.573   3.993 -0.0209  0.8524  0.3420
 3633SOL    HW122361   2.610   1.644   3.955  0.2663  1.1587  0.5191
 3633SOL    HW222362   2.604   1.547   4.065 -1.1030  1.1728 -0.4166
 3634SOL     OW22363   2.435   1.610   1.706 -0.1305  0.3323 -0.1756
 3634SOL    HW122364   2.358   1.559   1.681  1.8461 -3.6995  1.8404
 3634SOL    HW222365   2.514   1.563   1.677  0.6786  0.9569  1.0053
 3635SOL     OW22366   2.814   0.068   7.761  0.5973 -0.2297 -0.2009
 3635SOL    HW122367   2.837   0.096   7.850  1.3788 -2.0143  0.1508
 3635SOL    HW222368   2.850   0.129   7.697 -1.4177 -1.8348 -2.9088
 3636SOL     OW22369   3.321   2.078  15.119 -0.2098  0.5190  0.6678
 3636SOL    HW122370   3.353   2.138  15.051 -2.4877  1.0380  0.0824
 3636SOL    HW222371   3.256   2.030  15.069  1.1465 -2.2599  1.5420
 3637SOL     OW22372   3.642   4.456   0.865 -0.1999 -0.0729 -0.5769
 3637SOL    HW122373   3.605   4.526   0.812  0.7663 -0.5103 -1.8177
 3637SOL    HW222374   3.713   4.420   0.812  0.9174  0.1317  0.7697
 3638SOL     OW22375   2.547   1.704  15.825 -0.3228 -0.5344 -0.2276
 3638SOL    HW122376   2.635   1.689  15.791  0.5370  2.3675  0.7042
 3638SOL    HW222377   2.561   1.754  15.906 -0.5678  0.2737 -0.6859
 3639SOL     OW22378   3.510   4.245  12.256  0.4064  0.1953  0.7711
 3639SOL    HW122379   3.539   4.209  12.339  2.1272 -0.0600  0.0691
 3639SOL    HW222380   3.467   4.170  12.214 -0.2349  0.4559  0.9766
 3640SOL     OW22381   3.179   2.844   2.591  0.2227 -0.4009  0.0871
 3640SOL    HW122382   3.123   2.784   2.638  0.7397  0.2003  1.4636
 3640SOL    HW222383   3.158   2.826   2.499  0.3264 -0.0937  0.0008
 3641SOL     OW22384   0.411   3.962   3.272  0.2227 -0.0192  0.2394
 3641SOL    HW122385   0.382   3.904   3.342 -2.9991 -0.6778 -1.6250
 3641SOL    HW222386   0.343   4.027   3.289 -0.0473 -0.6196  1.4523
 3642SOL     OW22387   0.022   4.682   4.935 -0.1303  0.4804 -0.1653
 3642SOL    HW122388   4.658   4.654   4.910 -0.5368  1.2146  0.4462
 3642SOL    HW222389   4.720   0.000   5.016 -0.6701  1.6203 -0.9481
 3643SOL     OW22390   4.146   2.030   3.511  0.0072  0.0984 -0.1522
 3643SOL    HW122391   4.210   2.095   3.483  1.4833 -2.0091 -1.6952
 3643SOL    HW222392   4.076   2.028   3.446  0.6569 -0.6298 -0.8306
 3644SOL     OW22393   3.153   1.450  16.136  0.3925  0.4650 -0.3402
 3644SOL    HW122394   3.166   1.433  16.230 -1.5838  0.8588 -0.0082
 3644SOL    HW222395   3.166   1.545  16.136  1.4369  0.3213 -1.1332
 3645SOL     OW22396   4.085   1.570   2.609 -0.0778  0.1864  0.9894
 3645SOL    HW122397   4.166   1.521   2.595 -0.8339 -0.4688 -0.9781
 3645SOL    HW222398   4.092   1.650   2.557  1.8055 -0.7139 -0.1201
 3646SOL     OW22399   0.015   0.724   8.195 -0.1180 -0.0349  0.2746
 3646SOL    HW122400   4.722   0.815   8.221  0.9250  0.7161 -1.6471
 3646SOL    HW222401   0.017   0.733   8.099 -1.9312  1.1893  0.3342
 3647SOL     OW22402   4.535   0.586  16.856  0.2826 -0.2965  0.4878
 3647SOL    HW122403   4.599   0.592  16.785 -2.7886  1.1402 -2.1022
 3647SOL    HW222404   4.510   0.679  16.861 -0.4807 -0.4374 -0.9059
 3648SOL     OW22405   0.046   1.007  16.934 -0.8156  0.1410 -0.1714
 3648SOL    HW122406   4.685   1.041  16.908 -1.0714  0.3619  0.9757
 3648SOL    HW222407   0.094   0.988  16.853 -1.0431 -2.4935  0.2992
 3649SOL     OW22408   3.709   2.062   6.385 -0.0545 -0.3662 -0.7044
 3649SOL    HW122409   3.665   2.147   6.394  0.3860 -0.4043  1.5903
 3649SOL    HW222410   3.715   2.066   6.289 -0.1552  0.6339 -0.6782
 3650SOL     OW22411   2.674   4.452   1.279 -0.4370 -0.2065  0.1822
 3650SOL    HW122412   2.612   4.511   1.236  0.0779  0.0486 -0.2073
 3650SOL    HW222413   2.699   4.396   1.205 -2.4759 -0.1492 -0.5556
 3651SOL     OW22414   0.410   4.446   3.282 -0.2973  0.5958 -0.4398
 3651SOL    HW122415   0.423   4.513   3.215  2.2476 -0.6338 -1.1856
 3651SOL    HW222416   0.387   4.497   3.360  0.8349 -1.4242  1.2212
 3652SOL     OW22417   3.209   3.831   3.870 -0.4409 -0.3140 -0.1298
 3652SOL    HW122418   3.170   3.744   3.883  0.5661 -0.5481  1.3113
 3652SOL    HW222419   3.163   3.887   3.933 -0.2028  0.0383 -0.2682
 3653SOL     OW22420   2.191   3.558   3.934  0.2133 -0.5556  0.5362
 3653SOL    HW122421   2.144   3.578   3.853  0.7433 -1.6497 -0.0387
 3653SOL    HW222422   2.273   3.538   3.889 -2.0198 -0.6645 -3.4265
 3654SOL     OW22423   4.606   3.505  11.317  0.2469 -0.2733  0.5310
 3654SOL    HW122424   4.588   3.536  11.228  1.4003 -2.7894 -0.5637
 3654SOL    HW222425   4.632   3.588  11.356  2.5697 -0.6305 -0.2398
 3655SOL     OW22426   3.556   2.067  14.221 -0.7277  0.1402 -0.3107
 3655SOL    HW122427   3.607   1.988  14.205 -0.0361  0.4365  0.4175
 3655SOL    HW222428   3.624   2.133  14.232  0.5253 -1.6346  2.5700
 3656SOL     OW22429   0.337   2.763  16.297  0.0927 -0.4969  0.1668
 3656SOL    HW122430   0.370   2.731  16.382 -0.3096  1.4788  1.0715
 3656SOL    HW222431   0.400   2.716  16.242  0.8435  0.0641  0.5452
 3657SOL     OW22432   0.929   2.020   6.675 -0.1314 -0.6089 -0.6719
 3657SOL    HW122433   0.897   2.082   6.741  0.5593 -0.6112 -0.3275
 3657SOL    HW222434   0.907   1.937   6.717  3.4189 -2.2626 -2.0454
 3658SOL     OW22435   1.048   4.325   2.749 -0.9427 -0.1721 -0.0248
 3658SOL    HW122436   1.047   4.237   2.712  0.5681  0.8529 -2.5239
 3658SOL    HW222437   1.005   4.377   2.681 -1.4073 -2.1619 -1.2334
 3659SOL     OW22438   3.316   1.798  10.996  0.1196  0.2207 -0.8452
 3659SOL    HW122439   3.396   1.752  11.023 -0.5426 -2.5355 -3.5931
 3659SOL    HW222440   3.250   1.763  11.057  1.9014 -0.7267  0.5446
 3660SOL     OW22441   3.022   3.785  12.247  0.3441  0.0028  0.3241
 3660SOL    HW122442   3.077   3.861  12.229  0.4417 -0.2550 -0.4586
 3660SOL    HW222443   2.947   3.827  12.290 -0.3625 -1.2871  0.3514
 3661SOL     OW22444   2.046   2.788   2.646 -0.0729 -0.0544  0.3261
 3661SOL    HW122445   2.141   2.803   2.641 -0.3277  1.2811 -0.5254
 3661SOL    HW222446   2.041   2.692   2.640 -0.4646  0.0419 -0.8720
 3662SOL     OW22447   0.888   3.720   2.860  0.4327  0.6526 -0.1604
 3662SOL    HW122448   0.960   3.656   2.855  0.5164  0.9013 -2.1935
 3662SOL    HW222449   0.834   3.664   2.915  3.2749 -1.7314  0.2067
 3663SOL     OW22450   4.406   2.883   9.255  0.0095 -0.4869 -0.2438
 3663SOL    HW122451   4.494   2.921   9.256 -0.2364  0.0888 -0.3187
 3663SOL    HW222452   4.363   2.967   9.273 -1.9516 -1.5385 -0.0083
 3664SOL     OW22453   2.992   0.404   0.786 -0.0291  0.0669 -0.0992
 3664SOL    HW122454   3.072   0.405   0.839 -0.2528  1.5419  0.2249
 3664SOL    HW222455   2.934   0.454   0.844 -0.7415  1.5130 -2.0533
 3665SOL     OW22456   4.357   1.016   6.365  0.3695  0.2806  0.1870
 3665SOL    HW122457   4.265   1.042   6.373  0.3949  0.0393  1.1838
 3665SOL    HW222458   4.340   0.949   6.299 -2.6472 -0.1228  1.3466
 3666SOL     OW22459   2.999   2.218   1.775 -0.2918 -0.2068  0.3226
 3666SOL    HW122460   3.073   2.174   1.816 -0.8824 -0.9623  0.5737
 3666SOL    HW222461   3.036   2.306   1.783 -1.1039  0.0759  1.1075
 3667SOL     OW22462   0.884   4.026   6.883  0.0730 -0.3160 -0.1981
 3667SOL    HW122463   0.829   4.045   6.959 -0.3084  1.3949 -0.9005
 3667SOL    HW222464   0.969   4.023   6.928 -0.0883  0.6794  0.1814
 3668SOL     OW22465   1.549   3.382  13.509 -0.3400 -0.1771 -1.0050
 3668SOL    HW122466   1.641   3.376  13.534 -0.2078  1.0460 -1.2244
 3668SOL    HW222467   1.508   3.389  13.594  2.3603  2.7276  0.0532
 3669SOL     OW22468   4.160   2.055   0.965 -0.8319  0.7330 -0.6030
 3669SOL    HW122469   4.165   2.052   0.870 -1.5532 -0.9602 -0.5819
 3669SOL    HW222470   4.161   1.961   0.982 -0.5155  0.3962 -2.4875
 3670SOL     OW22471   2.408   2.026   1.860  0.1296  0.0101 -0.3905
 3670SOL    HW122472   2.382   1.972   1.785  0.7382 -1.4754  0.4590
 3670SOL    HW222473   2.456   1.966   1.918  2.1930  0.7378 -1.3509
 3671SOL     OW22474   3.088   1.653  11.205  0.2015  0.6036 -0.6357
 3671SOL    HW122475   3.007   1.685  11.243  0.1305 -0.8636  0.4158
 3671SOL    HW222476   3.137   1.624  11.282  0.9714  0.4692 -1.1685
 3672SOL     OW22477   2.947   2.025   2.462 -0.0545 -0.4703  0.4644
 3672SOL    HW122478   2.867   1.977   2.486 -0.3239 -0.8015 -1.1117
 3672SOL    HW222479   2.926   2.064   2.377  0.1670 -0.9197  0.1977
 3673SOL     OW22480   4.708   0.915   2.959  0.4937  0.0946 -0.3506
 3673SOL    HW122481   4.686   0.915   3.052 -1.3664  0.7825 -0.8040
 3673SOL    HW222482   4.638   0.858   2.927  0.7117 -1.6050  2.1961
 3674SOL     OW22483   3.562   4.372   3.041  1.1300 -0.4436  0.3604
 3674SOL    HW122484   3.608   4.444   2.999 -0.5382 -0.3249 -1.2797
 3674SOL    HW222485   3.618   4.299   3.013 -1.3859 -2.0136 -0.6178
 3675SOL     OW22486   4.376   3.596   5.799 -0.0637  0.0717  0.3042
 3675SOL    HW122487   4.414   3.619   5.714 -0.0894  1.4786  0.6722
 3675SOL    HW222488   4.354   3.680   5.838 -2.4328 -0.0291 -0.7844
 3676SOL     OW22489   1.881   0.284   9.036 -0.2074  0.1209  0.2564
 3676SOL    HW122490   1.832   0.359   9.070 -0.7135  0.3510 -0.9680
 3676SOL    HW222491   1.821   0.247   8.971 -0.0195 -0.6960  0.5591
 3677SOL     OW22492   0.282   1.666   2.192  0.1664  0.1875  0.9060
 3677SOL    HW122493   0.298   1.633   2.104 -2.5960  0.4576  0.3100
 3677SOL    HW222494   0.340   1.609   2.243  0.4022  1.1531  1.7209
 3678SOL     OW22495   1.636   4.612   1.108  0.3044  0.5167 -0.0305
 3678SOL    HW122496   1.700   4.540   1.112  0.8288  0.8512 -2.2844
 3678SOL    HW222497   1.694   4.671   1.156  0.4362  0.0450  0.3967
 3679SOL     OW22498   3.209   0.405   6.076  0.0596  0.2722 -0.2277
 3679SOL    HW122499   3.119   0.437   6.069 -0.3218 -0.8692 -0.4680
 3679SOL    HW222500   3.215   0.340   6.146  0.0116  0.3013 -0.1963
 3680SOL     OW22501   0.852   3.749  12.421 -0.4054  0.0749 -0.0254
 3680SOL    HW122502   0.804   3.828  12.395 -1.1841 -1.6845 -4.0641
 3680SOL    HW222503   0.801   3.681  12.376  0.7735 -1.0304  0.3084
 3681SOL     OW22504   2.522   3.683   8.795 -0.3559  0.2835  0.2704
 3681SOL    HW122505   2.541   3.643   8.880 -1.5895  0.6378  0.7141
 3681SOL    HW222506   2.463   3.621   8.752  1.4278  0.1509 -2.0336
 3682SOL     OW22507   0.352   1.327  10.259 -0.0461  0.1755 -0.5028
 3682SOL    HW122508   0.393   1.257  10.310 -0.4356  0.2149 -0.1403
 3682SOL    HW222509   0.275   1.337  10.315 -0.8513  0.4032 -1.6472
 3683SOL     OW22510   0.856   1.344   3.883  0.1735  0.2385 -0.1577
 3683SOL    HW122511   0.944   1.308   3.896 -0.4116  0.2150  3.8467
 3683SOL    HW222512   0.838   1.388   3.966 -0.5896  0.0083 -0.2002
 3684SOL     OW22513   1.377   4.043   2.383  0.0999 -0.5089  0.1235
 3684SOL    HW122514   1.408   4.035   2.293  1.2407 -1.9168  0.6317
 3684SOL    HW222515   1.298   4.094   2.364  0.0974 -0.6251 -0.1769
 3685SOL     OW22516   3.055   1.186   3.931 -0.8003  0.2499 -0.3904
 3685SOL    HW122517   3.140   1.207   3.969 -0.1537 -0.5855 -1.3683
 3685SOL    HW222518   3.073   1.102   3.888 -2.2398  1.0623 -2.5739
 3686SOL     OW22519   1.018   3.660  12.613 -0.1465 -0.4152  0.5577
 3686SOL    HW122520   1.092   3.645  12.554  0.4610  3.6486  0.2779
 3686SOL    HW222521   0.945   3.689  12.557  0.1628  1.3085  1.0275
 3687SOL     OW22522   3.775   0.575   3.374 -0.5663 -0.2401 -0.1146
 3687SOL    HW122523   3.816   0.491   3.395  0.4365 -0.2758 -2.2330
 3687SOL    HW222524   3.779   0.625   3.455  0.0119 -0.7489  0.1681
 3688SOL     OW22525   0.522   1.331   8.689  0.0884  0.4697 -0.0131
 3688SOL    HW122526   0.561   1.244   8.681  0.0023  0.4139  0.1633
 3688SOL    HW222527   0.445   1.307   8.638  1.0143  0.2839 -1.3192
 3689SOL     OW22528   0.039   4.278   2.336  1.1690 -0.0804  0.3150
 3689SOL    HW122529   0.045   4.367   2.301  1.0966  0.4524  1.6498
 3689SOL    HW222530   0.091   4.281   2.417  0.2775 -1.8610  0.9504
 3690SOL     OW22531   2.448   1.677   1.437 -0.1861  0.1023  0.5301
 3690SOL    HW122532   2.493   1.597   1.411 -1.9998 -0.7576 -0.0127
 3690SOL    HW222533   2.409   1.654   1.521  1.4989  1.8134  1.7671
 3691SOL     OW22534   3.289   0.545   3.205  0.0596  0.3107  0.5203
 3691SOL    HW122535   3.202   0.562   3.240  0.6200  1.7703  1.1962
 3691SOL    HW222536   3.346   0.528   3.279 -1.2645 -0.3404  1.3916
 3692SOL     OW22537   4.672   0.732   2.471 -0.1974 -0.1434  0.0385
 3692SOL    HW122538   4.677   0.817   2.515  1.0568 -1.1371  1.7924
 3692SOL    HW222539   4.649   0.676   2.545 -1.6094 -2.0878 -1.8777
 3693SOL     OW22540   3.005   2.828   6.088  0.0063  0.5932  0.2130
 3693SOL    HW122541   2.948   2.761   6.126 -1.0990  1.9014  0.8987
 3693SOL    HW222542   3.077   2.766   6.079 -1.4722 -1.1618  0.5484
 3694SOL     OW22543   3.457   1.213   1.775  0.1093  0.0729 -0.1747
 3694SOL    HW122544   3.456   1.222   1.870  1.1550  0.7101 -0.2181
 3694SOL    HW222545   3.394   1.274   1.738 -1.0142 -0.7418  0.4127
 3695SOL     OW22546   1.545   4.438   8.972  0.4742 -0.2159 -0.1509
 3695SOL    HW122547   1.568   4.376   9.040 -1.6728 -1.0211 -0.1539
 3695SOL    HW222548   1.452   4.445   8.994 -0.1483 -2.0094 -2.2713
 3696SOL     OW22549   2.369   2.147  17.494  0.3369 -0.3009 -0.5175
 3696SOL    HW122550   2.289   2.157  17.441  0.1105  0.0161 -0.1179
 3696SOL    HW222551   2.366   2.058  17.529 -2.2830  1.1675  3.0750
 3697SOL     OW22552   2.712   1.797  13.416  0.7268 -0.1590  0.7624
 3697SOL    HW122553   2.648   1.859  13.450 -0.0089 -1.0350  0.9663
 3697SOL    HW222554   2.702   1.815  13.323 -1.6116 -0.4166  0.9838
 3698SOL     OW22555   1.315   2.348   7.886 -0.0303 -0.0227  0.1524
 3698SOL    HW122556   1.321   2.282   7.954 -0.2203 -1.2283 -1.0074
 3698SOL    HW222557   1.363   2.310   7.813 -0.1704  2.3693 -1.1861
 3699SOL     OW22558   1.232   1.259   7.150 -0.2511  0.0949 -0.8381
 3699SOL    HW122559   1.180   1.179   7.146 -2.3202  1.2437  3.0808
 3699SOL    HW222560   1.254   1.263   7.057  0.1344  1.8074 -0.6894
 3700SOL     OW22561   3.114   2.124  12.898 -0.2654  0.1145 -0.6493
 3700SOL    HW122562   3.152   2.053  12.847  0.9615 -0.2208  0.7279
 3700SOL    HW222563   3.071   2.167  12.824  1.7001 -0.7302 -2.2812
 3701SOL     OW22564   1.760   3.677  16.594  1.2345  0.2927  0.1658
 3701SOL    HW122565   1.696   3.614  16.562  2.9808 -1.0533 -0.6561
 3701SOL    HW222566   1.789   3.644  16.679 -0.5153 -2.8560 -0.4419
 3702SOL     OW22567   3.123   0.386   6.744 -0.1660 -0.4695  0.1464
 3702SOL    HW122568   3.191   0.372   6.810 -0.3156 -2.5524 -0.1326
 3702SOL    HW222569   3.078   0.458   6.788  0.0662  1.0977 -2.1979
 3703SOL     OW22570   4.527   0.573   5.614  0.0159 -0.4608  0.5109
 3703SOL    HW122571   4.514   0.556   5.521 -1.7222  1.4717  0.3812
 3703SOL    HW222572   4.618   0.548   5.630  0.2232 -1.3383 -1.9597
 3704SOL     OW22573   1.859   2.317   2.578 -0.8332 -0.2768  0.3543
 3704SOL    HW122574   1.823   2.321   2.489 -1.3949  2.0144  0.6890
 3704SOL    HW222575   1.822   2.234   2.609 -0.5989  0.0111  1.4045
 3705SOL     OW22576   3.676   2.212   6.832 -0.3210 -0.3146  0.6126
 3705SOL    HW122577   3.612   2.169   6.775  0.8334 -1.7585  0.4039
 3705SOL    HW222578   3.647   2.196   6.922 -1.3910 -1.8183  0.0023
 3706SOL     OW22579   1.249   1.441   7.773 -0.4867 -0.0747  0.4406
 3706SOL    HW122580   1.259   1.377   7.702  0.9543  1.1342 -0.4790
 3706SOL    HW222581   1.302   1.397   7.840  0.5871  1.4479  0.6079
 3707SOL     OW22582   1.374   3.659   2.987 -0.0350  0.2496 -0.7393
 3707SOL    HW122583   1.465   3.633   2.995 -0.3692 -0.3468  1.2050
 3707SOL    HW222584   1.400   3.750   3.001  0.4861 -0.1735  1.0908
 3708SOL     OW22585   1.400   2.557   8.823 -0.1744 -0.1452  0.5594
 3708SOL    HW122586   1.386   2.493   8.893 -0.8297 -1.0110 -0.3711
 3708SOL    HW222587   1.446   2.621   8.877 -2.9242  1.0872  1.3905
 3709SOL     OW22588   1.686   3.562   8.913 -0.1031 -0.1846 -0.1113
 3709SOL    HW122589   1.691   3.604   8.827  0.3609  3.0776  1.5111
 3709SOL    HW222590   1.713   3.626   8.978 -0.9886 -0.3585  0.4350
 3710SOL     OW22591   2.745   3.041  14.611  0.4220 -0.2391  0.9682
 3710SOL    HW122592   2.745   3.119  14.666 -3.4980 -0.1038  0.7807
 3710SOL    HW222593   2.737   2.973  14.678  1.2276  0.1495  1.4457
 3711SOL     OW22594   3.783   2.209   1.835 -0.2053 -0.1943 -0.1785
 3711SOL    HW122595   3.839   2.137   1.864  0.6563  0.4455 -0.2608
 3711SOL    HW222596   3.846   2.268   1.793  1.1403 -1.5304 -0.0121
 3712SOL     OW22597   4.332   4.715   2.504  0.6811 -0.2681 -0.4828
 3712SOL    HW122598   4.241   4.692   2.485  0.6523  1.5300 -2.5037
 3712SOL    HW222599   4.371   4.711   2.417 -1.8603 -0.1021 -1.6431
 3713SOL     OW22600   4.213   0.825   3.336 -0.5437 -0.1478 -0.0876
 3713SOL    HW122601   4.273   0.767   3.288  1.4621  0.1828  2.0402
 3713SOL    HW222602   4.130   0.801   3.295 -1.4984  1.6184  0.8294
 3714SOL     OW22603   2.129   3.220   7.793  0.0893  0.3695  0.2027
 3714SOL    HW122604   2.141   3.205   7.699 -0.1549 -1.6750  0.5118
 3714SOL    HW222605   2.041   3.258   7.789  0.1703  0.6707  1.3782
 3715SOL     OW22606   0.608   3.238  11.804  0.0128  0.0229  0.2789
 3715SOL    HW122607   0.579   3.148  11.817  1.0374 -0.1514  1.4101
 3715SOL    HW222608   0.664   3.223  11.728  0.7998  1.3047  0.6044
 3716SOL     OW22609   3.122   0.672   2.924 -0.3099  0.4477  0.0293
 3716SOL    HW122610   3.204   0.629   2.946  0.4217  1.0314 -1.5621
 3716SOL    HW222611   3.129   0.678   2.829  1.6866 -3.1036 -0.0463
 3717SOL     OW22612   1.831   4.501   9.975 -0.0870 -0.3216 -0.4978
 3717SOL    HW122613   1.915   4.541   9.997 -1.0732  1.3650  0.2389
 3717SOL    HW222614   1.871   4.420   9.944 -0.1198 -0.2153 -0.8133
 3718SOL     OW22615   0.547   3.843  11.860  0.3007 -0.2442  0.5185
 3718SOL    HW122616   0.563   3.936  11.873 -0.4809  0.4723 -3.4684
 3718SOL    HW222617   0.490   3.843  11.783 -0.0871  1.6301  0.8114
 3719SOL     OW22618   2.173   0.848  16.803 -0.0842  1.0387 -0.1655
 3719SOL    HW122619   2.118   0.827  16.727 -0.0787  0.4827 -0.0117
 3719SOL    HW222620   2.110   0.840  16.875 -1.6076  0.2725 -1.5949
 3720SOL     OW22621   2.757   0.038   2.374  0.3258 -0.5867 -0.4907
 3720SOL    HW122622   2.784   0.033   2.465  0.2784 -0.3750 -0.4661
 3720SOL    HW222623   2.665   0.064   2.382 -0.3677 -3.1475  0.0035
 3721SOL     OW22624   1.111   2.889   8.226  0.1050  0.1110  0.1011
 3721SOL    HW122625   1.057   2.954   8.182  0.5477  0.2553 -0.2317
 3721SOL    HW222626   1.058   2.890   8.306 -0.2702  1.3869 -0.1563
 3722SOL     OW22627   4.312   1.957   9.123 -0.2919  0.9030  0.3929
 3722SOL    HW122628   4.368   1.928   9.051 -0.1317 -0.1563  0.9484
 3722SOL    HW222629   4.229   1.929   9.085  2.6270 -2.6346 -3.4865
 3723SOL     OW22630   4.235   0.274   4.291  0.7254  0.7785  0.0568
 3723SOL    HW122631   4.317   0.323   4.300  0.1237  1.5965  1.1149
 3723SOL    HW222632   4.182   0.316   4.224 -1.3636 -1.9795 -0.0331
 3724SOL     OW22633   0.747   3.827  10.954 -0.3460  0.1591 -0.5768
 3724SOL    HW122634   0.672   3.884  10.933 -0.2647  0.3673 -0.3124
 3724SOL    HW222635   0.774   3.850  11.043 -2.5060 -1.2804  0.4336
 3725SOL     OW22636   3.333   0.762   4.413  0.2886  0.2329  0.3861
 3725SOL    HW122637   3.386   0.683   4.401  1.3757  1.4487 -2.6989
 3725SOL    HW222638   3.319   0.770   4.507  1.2036 -0.6203  0.5915
 3726SOL     OW22639   0.382   0.703   7.823  0.0279  0.5378 -0.0272
 3726SOL    HW122640   0.450   0.743   7.877  0.0294  1.5794 -0.7940
 3726SOL    HW222641   0.415   0.722   7.735 -1.6435  1.1391 -0.5164
 3727SOL     OW22642   4.491   2.054   1.350 -0.1726 -0.0661 -0.3715
 3727SOL    HW122643   4.567   2.058   1.292  0.4028 -0.2257  0.3741
 3727SOL    HW222644   4.508   1.971   1.396  3.2230 -0.2624 -2.0156
 3728SOL     OW22645   1.275   0.266  14.469 -0.6639  0.0364 -0.0839
 3728SOL    HW122646   1.264   0.322  14.546 -1.4529 -0.2349  0.0011
 3728SOL    HW222647   1.344   0.311  14.421 -3.1239  2.5408 -1.2873
 3729SOL     OW22648   3.950   0.189  10.869  0.3075 -0.6856 -0.4941
 3729SOL    HW122649   3.964   0.131  10.944 -0.2431  0.8761  0.8063
 3729SOL    HW222650   3.856   0.202  10.879  0.3952 -1.1524  0.9912
 3730SOL     OW22651   1.258   0.930  15.362 -0.4939  0.1872 -0.9756
 3730SOL    HW122652   1.269   0.949  15.455 -1.5309 -0.5768 -0.7001
 3730SOL    HW222653   1.203   0.852  15.368  1.0254 -0.9793 -2.1479
 3731SOL     OW22654   2.836   0.551  17.295 -0.6687  0.2899  0.5379
 3731SOL    HW122655   2.866   0.492  17.226 -1.8947  0.3653 -0.0492
 3731SOL    HW222656   2.799   0.488  17.356  1.7353 -0.3067  1.4043
 3732SOL     OW22657   3.590   4.338   1.805  0.5444 -0.0602 -0.0166
 3732SOL    HW122658   3.543   4.421   1.794  0.5372 -0.0797 -0.1356
 3732SOL    HW222659   3.542   4.295   1.876 -1.2012  0.4629 -0.8808
 3733SOL     OW22660   0.498   0.660   0.003 -0.9036 -0.0269  0.0235
 3733SOL    HW122661   0.439   0.607   0.055 -0.9202  0.4827  0.5275
 3733SOL    HW222662   0.464   0.749   0.013 -1.2604 -0.3194  1.3153
 3734SOL     OW22663   4.458   0.648   4.679  0.0350  0.0264  0.6959
 3734SOL    HW122664   4.403   0.580   4.718  1.5640 -2.1452 -0.9384
 3734SOL    HW222665   4.440   0.637   4.586  4.6560  0.9339 -0.2711
 3735SOL     OW22666   2.606   3.612   9.040  0.0191  0.0984  0.4088
 3735SOL    HW122667   2.683   3.569   9.003  0.1539 -0.2849  1.1327
 3735SOL    HW222668   2.538   3.545   9.028  0.0405  0.0869  0.3518
 3736SOL     OW22669   1.418   4.502   5.375  0.5464 -0.6327  0.1564
 3736SOL    HW122670   1.329   4.521   5.346  1.2975  1.4835 -0.7924
 3736SOL    HW222671   1.459   4.587   5.357 -1.5446  0.5599  1.1447
 3737SOL     OW22672   2.013   2.669   9.659  0.5323 -0.6064  0.1314
 3737SOL    HW122673   1.930   2.665   9.707  0.7742 -1.5413  0.4801
 3737SOL    HW222674   1.998   2.746   9.604 -0.6810  0.4272  1.9315
 3738SOL     OW22675   3.737   4.105   7.433 -0.5502 -0.2702  0.7048
 3738SOL    HW122676   3.827   4.075   7.435 -0.8729 -1.3617 -1.6467
 3738SOL    HW222677   3.756   4.199   7.444 -0.3835 -0.4786  2.1667
 3739SOL     OW22678   3.370   2.238   3.915 -0.4451 -0.0951 -0.0273
 3739SOL    HW122679   3.347   2.155   3.956  0.7278 -0.4539 -0.1164
 3739SOL    HW222680   3.383   2.280   4.000  0.9734 -1.4418  0.4020
 3740SOL     OW22681   3.751   3.228   8.548 -0.1235  0.4248  0.3371
 3740SOL    HW122682   3.830   3.262   8.589 -0.5126 -0.5049  1.8484
 3740SOL    HW222683   3.740   3.294   8.480 -1.4190  0.7955  0.8852
 3741SOL     OW22684   4.345   3.797   6.763 -0.3677  0.7344  0.4820
 3741SOL    HW122685   4.260   3.840   6.770 -1.5327 -1.6035  0.8897
 3741SOL    HW222686   4.324   3.703   6.765 -0.5498  0.7856  0.9202
 3742SOL     OW22687   2.528   1.125   0.888 -0.3426  0.3461  0.1299
 3742SOL    HW122688   2.620   1.149   0.875 -0.1102 -0.5563  0.1015
 3742SOL    HW222689   2.519   1.069   0.811  0.0907 -1.2884  1.2819
 3743SOL     OW22690   4.461   1.799   4.858 -0.2215 -0.1752  0.0627
 3743SOL    HW122691   4.537   1.837   4.814 -0.1785 -1.4838 -0.9752
 3743SOL    HW222692   4.479   1.834   4.945 -1.9572 -3.2797  1.6444
 3744SOL     OW22693   3.175   3.865  17.676  0.2583 -0.1114  0.1912
 3744SOL    HW122694   3.086   3.845  17.648  0.0652 -0.2364  0.9023
 3744SOL    HW222695   3.206   3.779   0.003 -0.1806 -0.1785  0.4736
 3745SOL     OW22696   2.161   4.404   1.787  0.5133 -0.7556  0.1547
 3745SOL    HW122697   2.205   4.490   1.790 -0.1177 -0.5137  2.3777
 3745SOL    HW222698   2.226   4.354   1.835  2.2435  1.6103  0.2892
 3746SOL     OW22699   0.420   0.551   6.032  0.5976 -0.4967  0.2501
 3746SOL    HW122700   0.345   0.559   5.973  0.1755 -1.5810  0.6361
 3746SOL    HW222701   0.489   0.549   5.966  0.0537 -1.9689 -0.2990
 3747SOL     OW22702   1.655   1.067   6.398  0.4631 -0.0350  0.0709
 3747SOL    HW122703   1.602   1.140   6.429  0.6576 -0.1790  0.7691
 3747SOL    HW222704   1.635   1.013   6.475  1.4695  0.4501  0.6770
 3748SOL     OW22705   2.916   3.665   3.090  0.6563 -0.0607  0.0884
 3748SOL    HW122706   2.966   3.742   3.064 -1.0071  0.5451 -1.2950
 3748SOL    HW222707   2.896   3.677   3.183  2.7105 -1.2014  0.6914
 3749SOL     OW22708   4.565   4.279  10.495 -0.1448  0.2018  0.5883
 3749SOL    HW122709   4.612   4.223  10.557 -0.0459 -0.7220 -0.3288
 3749SOL    HW222710   4.502   4.323  10.551  0.5786  2.1628 -0.1260
 3750SOL     OW22711   1.473   0.353   6.311  0.0337  0.8487  0.1406
 3750SOL    HW122712   1.526   0.389   6.382  1.3690 -0.0306 -0.4167
 3750SOL    HW222713   1.487   0.421   6.245  0.0910 -0.3837 -1.1400
 3751SOL     OW22714   4.284   0.673   5.685 -0.3357  0.6259  0.2973
 3751SOL    HW122715   4.305   0.654   5.776  3.0370 -1.2764 -0.8656
 3751SOL    HW222716   4.352   0.622   5.641 -0.6895 -1.7567  2.5116
 3752SOL     OW22717   2.615   1.437   8.137  0.5688  0.3253 -0.2974
 3752SOL    HW122718   2.537   1.381   8.142  1.4855 -0.9896 -1.0806
 3752SOL    HW222719   2.601   1.480   8.053  0.6681  0.3125 -0.3196
 3753SOL     OW22720   4.693   4.040  11.195  0.0319 -0.1915 -0.5839
 3753SOL    HW122721   4.714   4.110  11.257 -0.4814 -1.4303  0.9923
 3753SOL    HW222722   4.722   3.961  11.240 -1.1277  0.1842  0.8431
 3754SOL     OW22723   1.277   1.073   5.873  0.3711  0.1084 -0.3750
 3754SOL    HW122724   1.314   1.001   5.822 -0.3079 -1.6050  1.5623
 3754SOL    HW222725   1.297   1.046   5.962 -0.0603 -0.3309 -0.4168
 3755SOL     OW22726   1.448   3.375   3.142 -0.0597  0.0736  0.4690
 3755SOL    HW122727   1.524   3.423   3.108  0.0773  0.4606  1.3084
 3755SOL    HW222728   1.426   3.315   3.071  0.5764  2.9555 -2.1749
 3756SOL     OW22729   4.565   2.620   3.858 -0.1053 -0.2804 -0.3588
 3756SOL    HW122730   4.647   2.587   3.893 -1.0062 -0.9216  1.1616
 3756SOL    HW222731   4.608   2.673   3.791 -1.9175  0.2197 -1.1381
 3757SOL     OW22732   4.572   2.573  16.504 -0.2103 -0.3635 -0.5070
 3757SOL    HW122733   4.649   2.618  16.470 -1.3338  2.1008  0.1955
 3757SOL    HW222734   4.518   2.554  16.427  0.3144 -0.2595 -0.9028
 3758SOL     OW22735   3.843   3.209   6.774 -0.5438  0.3699 -0.1616
 3758SOL    HW122736   3.853   3.119   6.742  2.1540  0.4605  0.3593
 3758SOL    HW222737   3.911   3.254   6.723 -0.0834 -1.3671 -1.0938
 3759SOL     OW22738   4.500   3.585   1.631  0.1132 -0.0032  0.2139
 3759SOL    HW122739   4.581   3.600   1.680  1.6398 -0.1565 -2.2703
 3759SOL    HW222740   4.509   3.494   1.603  1.5366 -0.2676  1.5399
 3760SOL     OW22741   3.411   2.510   7.002 -0.0977 -0.1490  0.0140
 3760SOL    HW122742   3.422   2.605   7.006  0.4267 -0.2168  0.2691
 3760SOL    HW222743   3.472   2.473   6.938 -1.5103 -1.5233 -0.5408
 3761SOL     OW22744   1.117   2.550   4.825 -0.4331 -0.3212  0.1280
 3761SOL    HW122745   1.142   2.568   4.916 -0.2826 -0.4300  0.1092
 3761SOL    HW222746   1.024   2.571   4.833 -0.3863 -0.2622  0.5175
 3762SOL     OW22747   0.245   3.335   4.025  1.2126  0.7534  0.1729
 3762SOL    HW122748   0.269   3.425   4.004  1.8503  0.2364 -1.3398
 3762SOL    HW222749   0.222   3.312   3.935 -2.0512  0.0974  1.2001
 3763SOL     OW22750   1.791   3.937   4.542 -1.0558 -0.3976  0.2655
 3763SOL    HW122751   1.776   4.028   4.517  0.8491 -0.1725 -0.0999
 3763SOL    HW222752   1.699   3.919   4.559 -1.5531  1.9743  0.0548
 3764SOL     OW22753   3.620   3.142   1.965  0.8561  0.4136  0.3483
 3764SOL    HW122754   3.614   3.177   1.876  2.4377  0.4515  0.2648
 3764SOL    HW222755   3.529   3.137   1.993  0.6022  0.8681 -0.3744
 3765SOL     OW22756   2.201   2.126   7.223  0.5170 -0.0538 -0.4847
 3765SOL    HW122757   2.159   2.098   7.141 -1.7523  1.5495  0.1366
 3765SOL    HW222758   2.295   2.132   7.206  0.6173 -0.0515  0.0751
 3766SOL     OW22759   3.913   0.228   7.390 -0.1816  0.0081  0.4479
 3766SOL    HW122760   3.818   0.237   7.400  0.1824  4.3786 -0.0931
 3766SOL    HW222761   3.933   0.190   7.476  0.1393  0.7061  0.6799
 3767SOL     OW22762   4.473   0.676  14.845 -0.3095  0.2847 -0.4167
 3767SOL    HW122763   4.479   0.682  14.749  1.1768 -2.0087 -0.4740
 3767SOL    HW222764   4.427   0.758  14.864 -1.1621 -0.4038  0.4639
 3768SOL     OW22765   2.698   1.430   5.949  0.5913 -0.0835  0.0620
 3768SOL    HW122766   2.667   1.465   6.033  1.4128 -1.0542  0.7648
 3768SOL    HW222767   2.792   1.448   5.953  0.6935 -0.3513 -1.1543
 3769SOL     OW22768   2.374   3.675  11.895  0.4682 -0.0083 -0.7728
 3769SOL    HW122769   2.410   3.764  11.882  1.4673  0.0114  1.9223
 3769SOL    HW222770   2.335   3.673  11.808 -1.5596 -2.4011  0.2055
 3770SOL     OW22771   0.904   3.286  11.906  0.5732 -0.3713 -0.6950
 3770SOL    HW122772   0.919   3.336  11.825 -0.3520  1.6963  0.4282
 3770SOL    HW222773   0.809   3.280  11.900  0.6615 -1.7569 -0.6964
 3771SOL     OW22774   1.173   0.587  13.109 -0.0426 -0.3550  0.0244
 3771SOL    HW122775   1.169   0.682  13.092  1.0287 -0.2902  0.1391
 3771SOL    HW222776   1.081   0.560  13.108  0.4157 -1.8592 -1.2181
 3772SOL     OW22777   2.367   4.234   5.702  0.4461 -0.3134  0.0418
 3772SOL    HW122778   2.360   4.193   5.788  0.5891  1.4994  0.9053
 3772SOL    HW222779   2.422   4.164   5.666 -0.7300 -0.1603 -2.0499
 3773SOL     OW22780   1.641   3.736  10.084 -0.3109  0.8610 -0.5003
 3773SOL    HW122781   1.624   3.675  10.156  3.8848  0.7866  0.4855
 3773SOL    HW222782   1.566   3.793  10.097 -1.0694 -0.3762  0.5643
 3774SOL     OW22783   3.369   1.931   6.382  0.4621  0.4229 -0.1440
 3774SOL    HW122784   3.301   1.936   6.449  1.6204 -0.7619  1.1482
 3774SOL    HW222785   3.417   1.854   6.414 -2.5444 -1.9845 -1.3906
 3775SOL     OW22786   1.108   0.535   7.394 -0.0898 -0.6601  0.2590
 3775SOL    HW122787   1.187   0.586   7.412 -0.8443  0.9226 -0.9137
 3775SOL    HW222788   1.138   0.449   7.422  1.8823 -0.2672 -0.6955
 3776SOL     OW22789   0.311   1.579   7.837  0.1445  0.1161 -0.6700
 3776SOL    HW122790   0.279   1.663   7.806  1.2115  0.9663  0.5125
 3776SOL    HW222791   0.371   1.607   7.906  0.2198  2.5802 -1.7314
 3777SOL     OW22792   4.525   1.091  11.604 -0.1937 -1.1441 -0.0202
 3777SOL    HW122793   4.484   1.177  11.615  0.9539 -0.4722 -0.9868
 3777SOL    HW222794   4.495   1.047  11.684  0.9285 -2.4582 -0.3103
 3778SOL     OW22795   4.604   2.614   5.670  0.1802  0.2849  0.5753
 3778SOL    HW122796   4.659   2.691   5.653 -1.7678  1.5488 -0.0634
 3778SOL    HW222797   4.574   2.623   5.761  1.5657  0.7752  0.9789
 3779SOL     OW22798   2.046   2.770   5.313  0.5799 -0.0296  0.7731
 3779SOL    HW122799   1.950   2.779   5.309  0.7588  1.6124  0.4366
 3779SOL    HW222800   2.055   2.813   5.228 -0.2667 -0.1692  0.6083
 3780SOL     OW22801   2.717   2.990  10.805  0.1224  0.2397  0.1203
 3780SOL    HW122802   2.807   2.976  10.837  0.8072 -0.3723 -2.0783
 3780SOL    HW222803   2.694   2.900  10.782  4.8126 -0.5483 -1.5526
 3781SOL     OW22804   3.335   3.869   7.957 -0.2910 -0.7231  0.3674
 3781SOL    HW122805   3.252   3.894   7.918  0.5867  1.0713 -0.3782
 3781SOL    HW222806   3.327   3.781   7.920 -0.8180 -0.1033 -0.9739
 3782SOL     OW22807   4.463   2.114  10.022 -0.3610 -0.1234 -0.5082
 3782SOL    HW122808   4.459   2.065  10.104  1.0023 -0.7796 -0.8444
 3782SOL    HW222809   4.550   2.099   9.986  0.0865 -0.6315  0.8141
 3783SOL     OW22810   0.328   0.942  10.052 -0.6251  0.1845  0.2575
 3783SOL    HW122811   0.376   1.025  10.056 -2.0124  1.0437 -0.6796
 3783SOL    HW222812   0.393   0.873  10.059 -3.7305 -2.8428 -0.8483
 3784SOL     OW22813   1.696   1.895   8.187  0.1444 -0.5624  0.4478
 3784SOL    HW122814   1.706   1.898   8.283 -2.1575  0.8087  0.6206
 3784SOL    HW222815   1.682   1.988   8.168  2.0154 -0.2801  0.4349
 3785SOL     OW22816   1.642   2.609  11.213 -0.1781 -0.2582 -0.0729
 3785SOL    HW122817   1.674   2.542  11.274  1.6820  0.6819 -0.0043
 3785SOL    HW222818   1.679   2.682  11.262  1.7257 -0.4023 -1.2885
 3786SOL     OW22819   1.611   2.350   3.884 -0.1848  0.2744 -0.2165
 3786SOL    HW122820   1.684   2.408   3.860  0.6838 -0.3948  0.7558
 3786SOL    HW222821   1.544   2.361   3.817 -0.1246 -0.6837 -0.4290
 3787SOL     OW22822   3.493   0.952   0.720  0.3813  0.3838  0.1130
 3787SOL    HW122823   3.414   1.001   0.746 -0.4240 -1.5423  1.2770
 3787SOL    HW222824   3.543   1.025   0.682 -2.9032  1.7530 -1.5730
 3788SOL     OW22825   2.429   3.507   2.600 -0.0703 -0.4106  0.3163
 3788SOL    HW122826   2.371   3.466   2.536  1.3229  0.3389 -1.4134
 3788SOL    HW222827   2.407   3.598   2.582 -0.6358 -0.7628 -0.7455
 3789SOL     OW22828   2.242   1.770   7.396 -0.0839  0.1816 -0.6218
 3789SOL    HW122829   2.312   1.833   7.413  0.9317 -1.2749  0.5183
 3789SOL    HW222830   2.157   1.812   7.414 -0.4033 -1.3067  1.3412
 3790SOL     OW22831   0.332   3.063   3.285  0.3929 -0.0631 -0.5588
 3790SOL    HW122832   0.358   2.992   3.344  1.7313 -0.1649 -1.2787
 3790SOL    HW222833   0.338   3.030   3.196 -0.7239 -2.4204  0.2333
 3791SOL     OW22834   3.666   0.570   0.506 -0.1987  0.6937 -0.4780
 3791SOL    HW122835   3.695   0.657   0.478  4.1935 -1.1270 -1.6511
 3791SOL    HW222836   3.576   0.591   0.532  0.0446 -1.1906  1.9440
 3792SOL     OW22837   0.468   1.201  16.408 -0.0017 -0.4792 -0.0314
 3792SOL    HW122838   0.493   1.277  16.461 -1.1447  0.2615 -0.5375
 3792SOL    HW222839   0.376   1.197  16.435 -0.0963  0.4598 -0.1853
 3793SOL     OW22840   0.828   4.507   2.173  0.2365  0.5859  0.0497
 3793SOL    HW122841   0.871   4.479   2.254 -1.6874  1.6292  1.4358
 3793SOL    HW222842   0.795   4.430   2.127  1.6293  1.1273 -1.8551
 3794SOL     OW22843   0.964   4.706  10.479 -0.3104  0.0259  0.0970
 3794SOL    HW122844   0.932   0.004  10.392 -0.7185  1.1512  0.5468
 3794SOL    HW222845   0.991   4.615  10.467 -0.3763 -0.0014  0.1534
 3795SOL     OW22846   1.882   4.152   6.737 -0.0070 -0.2269  0.1870
 3795SOL    HW122847   1.796   4.113   6.751 -0.0235 -0.7137 -1.2273
 3795SOL    HW222848   1.908   4.089   6.670  2.0543  0.9467 -0.1303
 3796SOL     OW22849   4.358   2.789   6.396  0.2190 -0.3310 -0.6463
 3796SOL    HW122850   4.372   2.752   6.483 -0.9677 -0.6739 -0.5931
 3796SOL    HW222851   4.445   2.793   6.357  0.2364 -0.5347 -0.6267
 3797SOL     OW22852   1.193   0.885   3.723 -0.0974  0.1083  0.3029
 3797SOL    HW122853   1.155   0.965   3.686  0.8399  1.3248  1.9916
 3797SOL    HW222854   1.111   0.837   3.736  1.3223 -2.3382  0.2720
 3798SOL     OW22855   4.263   2.818   8.561  0.6139 -0.3248 -1.0355
 3798SOL    HW122856   4.177   2.778   8.544 -0.0129  0.9396 -0.8276
 3798SOL    HW222857   4.306   2.744   8.603 -0.5399 -0.3305  0.1326
 3799SOL     OW22858   2.630   1.134  12.136 -1.2488 -0.4150 -0.1892
 3799SOL    HW122859   2.594   1.055  12.097  0.1718 -1.3494  0.3887
 3799SOL    HW222860   2.571   1.150  12.210  0.5323 -0.4011  1.2429
 3800SOL     OW22861   2.182   0.170   5.751  0.5370 -0.7281  0.4852
 3800SOL    HW122862   2.266   0.145   5.713  0.0051  0.3882 -1.4335
 3800SOL    HW222863   2.190   0.257   5.790  1.1531  0.0287 -1.3176
 3801SOL     OW22864   3.016   4.560   7.397 -0.0917 -0.1799 -0.3770
 3801SOL    HW122865   2.977   4.632   7.347 -2.2565 -1.3225 -0.3290
 3801SOL    HW222866   3.014   4.484   7.338  1.6422  0.2128 -0.9437
 3802SOL     OW22867   0.480   0.654   4.465 -0.1006  0.1412 -0.0137
 3802SOL    HW122868   0.548   0.627   4.403 -0.8537  0.4976 -1.0052
 3802SOL    HW222869   0.398   0.616   4.434 -0.1567  1.0891 -1.0528
 3803SOL     OW22870   3.168   4.324   8.326  0.0097 -0.0069  0.0059
 3803SOL    HW122871   3.168   4.248   8.384 -0.3985  1.0194  1.3570
 3803SOL    HW222872   3.077   4.350   8.341 -0.3094 -1.0520 -0.0860
 3804SOL     OW22873   2.946   3.050   7.599  0.0881 -0.2789  0.7377
 3804SOL    HW122874   2.977   2.994   7.528  0.7014  1.0419 -0.0139
 3804SOL    HW222875   2.939   2.986   7.670  0.3356 -0.5399  0.5267
 3805SOL     OW22876   2.082   0.939   7.228 -0.7265 -0.1545 -0.4483
 3805SOL    HW122877   2.109   1.022   7.267  0.1374 -0.7637  0.2411
 3805SOL    HW222878   2.011   0.968   7.171 -1.3007 -0.8742 -0.1123
 3806SOL     OW22879   3.272   2.180   1.589 -0.1505 -0.0063 -0.1868
 3806SOL    HW122880   3.293   2.248   1.653 -0.6791  2.4800 -2.6480
 3806SOL    HW222881   3.350   2.124   1.591  0.1153  0.3605 -0.2323
 3807SOL     OW22882   4.580   0.958  12.493  0.1907 -0.0938 -0.5163
 3807SOL    HW122883   4.658   0.996  12.452  1.4734 -1.2656  0.8187
 3807SOL    HW222884   4.516   1.028  12.487  1.2290  0.8755 -0.2616
 3808SOL     OW22885   0.474   4.252   2.175  0.2333  0.3808 -0.0748
 3808SOL    HW122886   0.444   4.163   2.193  0.2687 -0.1661 -2.6917
 3808SOL    HW222887   0.424   4.276   2.096  0.3925 -0.1493 -0.3363
 3809SOL     OW22888   0.504   2.067   5.688 -0.3637  0.1386 -0.3375
 3809SOL    HW122889   0.556   2.061   5.768 -1.3065  2.0850  0.4110
 3809SOL    HW222890   0.572   2.087   5.623 -0.3147 -0.4775 -0.4776
 3810SOL     OW22891   4.406   1.790   4.582  0.6056 -0.7456 -0.2554
 3810SOL    HW122892   4.435   1.881   4.588  0.0074 -0.4839 -1.2853
 3810SOL    HW222893   4.421   1.760   4.672 -1.8959 -0.6608  0.1831
 3811SOL     OW22894   3.056   1.818  10.479  0.1644 -0.1237  0.1607
 3811SOL    HW122895   2.993   1.746  10.475  1.7926 -1.5382 -0.0797
 3811SOL    HW222896   3.102   1.786  10.556 -0.5381 -0.5247  0.4152
 3812SOL     OW22897   3.450   0.773  15.191 -0.4133 -0.2571  0.1019
 3812SOL    HW122898   3.462   0.701  15.129 -0.5353 -3.0534  3.3575
 3812SOL    HW222899   3.539   0.795  15.219 -0.0724 -2.5532  0.7629
 3813SOL     OW22900   1.199   3.687   0.822  0.4289 -0.2675 -0.2635
 3813SOL    HW122901   1.235   3.707   0.908 -0.7701  0.4536  0.0664
 3813SOL    HW222902   1.108   3.715   0.828  0.5148 -0.0098 -0.1566
 3814SOL     OW22903   4.126   2.868   8.835  0.3726  0.4338  0.2749
 3814SOL    HW122904   4.041   2.822   8.836 -0.6318  2.3035 -0.6694
 3814SOL    HW222905   4.188   2.802   8.803 -2.3442 -1.3891 -1.2794
 3815SOL     OW22906   1.704   2.439  16.927  0.3113  0.0958 -0.3786
 3815SOL    HW122907   1.670   2.434  17.016 -1.5115  0.6384 -1.0463
 3815SOL    HW222908   1.746   2.354  16.915  1.5263  0.7313 -0.6229
 3816SOL     OW22909   3.181   1.556   0.065 -0.3120 -0.2307 -0.4647
 3816SOL    HW122910   3.090   1.545   0.094 -0.1887  1.7839  0.7367
 3816SOL    HW222911   3.162   1.583  17.675  0.3032 -0.1779 -0.5773
 3817SOL     OW22912   3.896   3.577   7.538 -0.3697 -0.4316 -0.7116
 3817SOL    HW122913   3.967   3.641   7.527  0.1664 -1.0973 -1.1578
 3817SOL    HW222914   3.939   3.524   7.605  0.1134 -0.4298 -1.0140
 3818SOL     OW22915   2.459   2.953   5.717 -0.5686 -0.0912  0.0296
 3818SOL    HW122916   2.370   2.987   5.730 -1.1771 -1.4687 -0.5237
 3818SOL    HW222917   2.488   2.955   5.808 -0.0709  0.2351 -0.1353
 3819SOL     OW22918   0.395   4.683  11.472  0.3356 -0.5935  0.4265
 3819SOL    HW122919   0.450   0.016  11.524 -1.3146 -0.0640  1.5900
 3819SOL    HW222920   0.308   4.719  11.487  0.1852 -1.2419  1.1503
 3820SOL     OW22921   4.194   3.562   0.712  0.5295  0.1920  0.0832
 3820SOL    HW122922   4.239   3.600   0.636 -1.4390  1.0241 -0.6607
 3820SOL    HW222923   4.190   3.637   0.772  1.0125 -0.2583  0.6693
 3821SOL     OW22924   1.379   3.177  16.224 -0.0329 -0.1595  0.9236
 3821SOL    HW122925   1.431   3.132  16.290 -0.2423 -2.3790 -0.4042
 3821SOL    HW222926   1.442   3.178  16.152 -0.2688 -0.7408  0.7039
 3822SOL     OW22927   4.620   2.871   3.377  0.7508 -0.3528 -0.0451
 3822SOL    HW122928   4.549   2.910   3.428  0.1515  0.2132 -1.3156
 3822SOL    HW222929   4.582   2.787   3.350 -0.5451 -0.2872  1.5563
 3823SOL     OW22930   3.289   4.280   3.065  0.5161 -0.0327 -0.2837
 3823SOL    HW122931   3.382   4.300   3.065  0.3694  0.6454 -1.7943
 3823SOL    HW222932   3.259   4.308   2.978 -2.3205  0.8599  0.9777
 3824SOL     OW22933   2.037   1.883   5.278 -0.0279 -0.1992 -0.6040
 3824SOL    HW122934   2.085   1.836   5.346  0.7066 -0.9234 -1.6228
 3824SOL    HW222935   1.965   1.822   5.265  0.7914 -1.5702  1.4153
 3825SOL     OW22936   1.814   0.474   2.905  0.4231  0.0818 -0.7266
 3825SOL    HW122937   1.770   0.526   2.838 -1.8854 -2.6141 -1.3208
 3825SOL    HW222938   1.864   0.541   2.950 -0.0163  0.5094 -0.8741
 3826SOL     OW22939   3.124   2.938   4.003 -0.2493  0.6962  0.2611
 3826SOL    HW122940   3.064   2.896   4.064  0.4873  1.0108  1.1985
 3826SOL    HW222941   3.175   2.864   3.969  1.0049  0.9320  1.6192
 3827SOL     OW22942   2.173   0.720  13.040  0.0575  0.9330  0.5040
 3827SOL    HW122943   2.153   0.636  12.998  0.3566  0.7391  0.7437
 3827SOL    HW222944   2.265   0.700  13.058 -0.1486  0.4883  1.0862
 3828SOL     OW22945   0.544   4.138   8.024 -0.2296  0.3148 -0.3296
 3828SOL    HW122946   0.525   4.059   8.075  3.0751 -1.2078 -1.4656
 3828SOL    HW222947   0.615   4.178   8.074 -0.2831  0.0381 -0.0353
 3829SOL     OW22948   1.358   3.195   7.246 -0.2935 -0.0202 -0.3378
 3829SOL    HW122949   1.294   3.150   7.300 -1.2091 -0.2469 -1.5951
 3829SOL    HW222950   1.384   3.265   7.305  0.2297 -0.5112  0.0130
 3830SOL     OW22951   0.228   3.322  11.350 -0.8092  0.2161  0.3525
 3830SOL    HW122952   0.205   3.347  11.260  1.0547 -1.3052 -0.5536
 3830SOL    HW222953   0.319   3.353  11.347 -0.3324 -1.4484 -2.0887
 3831SOL     OW22954   0.868   0.616   8.288  0.3222 -0.1871  0.0372
 3831SOL    HW122955   0.845   0.705   8.314  0.6554  0.1849 -0.9121
 3831SOL    HW222956   0.801   0.594   8.222  0.7595 -0.1441 -0.4215
 3832SOL     OW22957   1.947   1.620   6.046  0.1753  0.3327 -0.0705
 3832SOL    HW122958   2.005   1.612   6.122  2.4888  1.1433 -1.7552
 3832SOL    HW222959   2.005   1.655   5.979  1.2749  0.6873  1.0690
 3833SOL     OW22960   1.426   0.567   5.639 -0.0288  0.3227  0.1218
 3833SOL    HW122961   1.448   0.594   5.550  1.1716  0.8925  0.5851
 3833SOL    HW222962   1.490   0.496   5.643  1.0721  1.2994  0.1003
 3834SOL     OW22963   0.563   4.242  11.020 -0.2551  0.0469 -0.5342
 3834SOL    HW122964   0.501   4.290  10.965 -0.8000 -2.3190 -1.9939
 3834SOL    HW222965   0.605   4.320  11.056 -0.1293  0.3716 -1.3758
 3835SOL     OW22966   3.307   4.229   7.101  0.6420 -0.4888  0.3655
 3835SOL    HW122967   3.253   4.195   7.172 -0.0847  0.4065  0.2423
 3835SOL    HW222968   3.385   4.264   7.144 -0.6769  1.5809  1.0613
 3836SOL     OW22969   1.686   3.723   0.691 -0.3427  0.5418 -0.4056
 3836SOL    HW122970   1.729   3.744   0.774  0.0231  0.4479 -0.5720
 3836SOL    HW222971   1.605   3.774   0.692  0.7200  2.1916  1.0177
 3837SOL     OW22972   0.332   2.857  12.770  0.0209  0.2461  0.4786
 3837SOL    HW122973   0.346   2.907  12.851 -0.8195  0.4970  0.4671
 3837SOL    HW222974   0.329   2.917  12.696 -1.1623 -2.0698 -1.3285
 3838SOL     OW22975   0.849   3.469   6.743 -0.6458  0.0573 -0.0366
 3838SOL    HW122976   0.905   3.482   6.820  0.0256 -1.5950 -0.2590
 3838SOL    HW222977   0.839   3.375   6.758 -2.1967  0.2785  0.3153
 3839SOL     OW22978   2.451   2.851   8.021 -0.0397 -0.1838 -0.0653
 3839SOL    HW122979   2.537   2.851   7.979  0.3669  0.4999  0.7669
 3839SOL    HW222980   2.413   2.777   7.973 -0.5844  0.3456 -0.4500
 3840SOL     OW22981   1.987   2.724   6.651  0.1604 -0.0591  0.2783
 3840SOL    HW122982   1.908   2.775   6.635 -2.4973 -3.6492  2.0496
 3840SOL    HW222983   2.007   2.686   6.565 -1.9902 -2.5036  0.8325
 3841SOL     OW22984   1.335   0.144  12.190  0.1862  0.3413  0.3155
 3841SOL    HW122985   1.266   0.095  12.234 -0.0896  0.2195 -0.2595
 3841SOL    HW222986   1.290   0.170  12.110 -2.4527 -1.0181  1.3540
 3842SOL     OW22987   2.033   0.344   4.576 -0.1108 -0.0034  0.4202
 3842SOL    HW122988   2.002   0.260   4.609  0.4054 -1.2682 -2.2892
 3842SOL    HW222989   2.121   0.323   4.543 -1.4575 -0.7507 -2.6392
 3843SOL     OW22990   0.898   1.378   5.744  0.6308  0.2516 -0.5040
 3843SOL    HW122991   0.876   1.392   5.652 -2.5398 -1.6637 -0.0259
 3843SOL    HW222992   0.982   1.331   5.745  0.6499  0.2438 -2.2214
 3844SOL     OW22993   0.674   0.058  11.357  0.0164  0.3872 -0.1167
 3844SOL    HW122994   0.673   0.035  11.450 -3.0848  2.2763  0.2867
 3844SOL    HW222995   0.770   0.057  11.348  0.2078  2.3995  1.6029
 3845SOL     OW22996   1.327   2.499   0.050 -0.4210 -0.3185  0.0768
 3845SOL    HW122997   1.367   2.538  17.672 -0.5946 -1.7144 -0.7067
 3845SOL    HW222998   1.312   2.577   0.104 -0.1882 -0.4528  0.3309
 3846SOL     OW22999   3.652   3.062   9.165 -0.2429  0.5460  0.6027
 3846SOL    HW123000   3.690   2.994   9.221 -1.5584 -0.4299  0.3121
 3846SOL    HW223001   3.622   3.118   9.237  0.0721 -0.2656  1.3698
 3847SOL     OW23002   3.131   3.978   3.671  0.1431  0.1605  0.2602
 3847SOL    HW123003   3.156   3.929   3.748  1.2816  0.0173 -0.1972
 3847SOL    HW223004   3.036   3.966   3.667  0.2213 -0.3127 -0.2176
 3848SOL     OW23005   3.006   1.192  10.987 -0.0927  0.3741  0.4604
 3848SOL    HW123006   3.079   1.191  11.049 -0.9004 -3.1709  1.3921
 3848SOL    HW223007   3.043   1.188  10.899 -0.8089  0.6185  0.1517
 3849SOL     OW23008   1.319   1.498   6.409  0.2818  0.6282  0.5811
 3849SOL    HW123009   1.370   1.554   6.351  1.6536 -1.9550 -0.7439
 3849SOL    HW223010   1.232   1.532   6.390 -0.6507 -2.3399 -0.5739
 3850SOL     OW23011   3.019   3.595   3.658 -0.1717 -0.2487 -0.4473
 3850SOL    HW123012   3.008   3.620   3.567  0.9143 -0.7958 -0.7289
 3850SOL    HW223013   2.975   3.670   3.699 -0.3003 -1.7272  2.1442
 3851SOL     OW23014   1.061   1.847   0.427  0.5808  0.1132  0.1938
 3851SOL    HW123015   1.118   1.879   0.497 -1.9352  1.2285  1.7185
 3851SOL    HW223016   1.125   1.838   0.356  2.9465 -1.2703  2.4642
 3852SOL     OW23017   0.125   0.114  10.135  0.0363  0.0836  0.3402
 3852SOL    HW123018   0.193   0.063  10.090 -1.0420  0.4116 -1.6782
 3852SOL    HW223019   0.073   0.046  10.178  0.4987  0.2042  1.0738
 3853SOL     OW23020   2.458   2.036   6.023 -0.1625  0.4274 -0.4972
 3853SOL    HW123021   2.499   2.034   6.110 -2.5761  0.9900  0.6737
 3853SOL    HW223022   2.413   2.120   6.019  1.1259  1.1679  0.5101
 3854SOL     OW23023   1.756   3.075   2.510 -0.3642 -0.1681 -0.1070
 3854SOL    HW123024   1.752   3.129   2.430  2.2763  0.0895 -0.0733
 3854SOL    HW223025   1.800   3.136   2.569  0.4415  0.1865 -1.0774
 3855SOL     OW23026   1.051   0.244   5.823  0.4082  0.6481  0.5165
 3855SOL    HW123027   1.008   0.199   5.750 -0.9133  2.3775  0.2073
 3855SOL    HW223028   1.008   0.194   5.892 -1.3043  2.3578  0.6964
 3856SOL     OW23029   3.779   2.319   5.729  0.2954 -0.1433  0.2048
 3856SOL    HW123030   3.763   2.296   5.638 -0.9297  0.9364  0.1444
 3856SOL    HW223031   3.748   2.239   5.771 -0.0536 -1.2059 -2.0692
 3857SOL     OW23032   0.181   2.826   7.511  0.2086  0.0577  0.1845
 3857SOL    HW123033   0.185   2.734   7.485  1.7103  0.1658  0.0852
 3857SOL    HW223034   0.132   2.833   7.593 -2.7758 -0.2997 -1.5652
 3858SOL     OW23035   0.647   1.640   5.137  0.2775  0.3089 -0.4603
 3858SOL    HW123036   0.620   1.558   5.179  2.6711 -0.1544  0.1914
 3858SOL    HW223037   0.725   1.612   5.089 -0.4727  0.0889 -1.5590
 3859SOL     OW23038   3.797   3.127   7.236  0.0445 -0.4197 -0.2057
 3859SOL    HW123039   3.827   3.051   7.186 -0.1393 -0.1508 -0.7306
 3859SOL    HW223040   3.797   3.198   7.172 -0.6057  1.9251  2.4075
 3860SOL     OW23041   4.646   3.152   3.414  0.0078 -0.6968 -0.1519
 3860SOL    HW123042   4.638   3.072   3.362  0.4946 -1.6886  1.3062
 3860SOL    HW223043   4.707   3.129   3.485  1.4614 -1.9374 -1.7983
 3861SOL     OW23044   1.980   2.855   3.277  0.5056 -0.0720 -0.6612
 3861SOL    HW123045   1.900   2.869   3.225 -1.4328  0.4610  2.4844
 3861SOL    HW223046   2.045   2.841   3.208  2.2363 -0.3316  1.0288
 3862SOL     OW23047   4.418   0.068  16.766 -0.2673 -0.1240  0.1053
 3862SOL    HW123048   4.383   4.720  16.715  1.7650 -1.8410  1.1378
 3862SOL    HW223049   4.438   0.126  16.692 -1.6718 -1.4289 -1.2807
 3863SOL     OW23050   3.930   3.775   4.098 -0.1162  0.5501  0.3187
 3863SOL    HW123051   3.911   3.686   4.129 -2.3327  0.5296 -1.0915
 3863SOL    HW223052   3.920   3.763   4.004 -0.0246  1.9860  0.1242
 3864SOL     OW23053   3.550   2.475   8.144  0.0376 -0.2943  0.3699
 3864SOL    HW123054   3.521   2.531   8.071 -0.6424 -2.1403 -0.7772
 3864SOL    HW223055   3.642   2.493   8.163  0.7536 -2.7287 -0.8606
 3865SOL     OW23056   4.381   2.002  17.009 -0.7075 -0.4764 -0.5713
 3865SOL    HW123057   4.418   1.914  17.007 -0.2457 -0.2663 -1.2998
 3865SOL    HW223058   4.325   1.986  16.933 -1.1413  0.7182 -0.4996
 3866SOL     OW23059   0.138   3.502   7.131 -0.0217  0.0373 -0.1158
 3866SOL    HW123060   0.219   3.529   7.088 -0.1851 -1.5599 -1.4540
 3866SOL    HW223061   0.133   3.548   7.214 -1.6294  0.8517 -0.6792
 3867SOL     OW23062   1.156   2.146   8.587 -0.4727 -0.1231  0.4444
 3867SOL    HW123063   1.077   2.175   8.633 -1.5675 -1.3940 -0.6494
 3867SOL    HW223064   1.201   2.230   8.587 -3.7212  1.5747 -2.7209
 3868SOL     OW23065   4.234   0.188   1.127  0.1450 -0.5575  0.1441
 3868SOL    HW123066   4.281   0.236   1.059  0.3935 -0.9990  0.0059
 3868SOL    HW223067   4.178   0.120   1.089 -1.8011  1.9797 -1.5379
 3869SOL     OW23068   3.849   1.060   7.458  0.5426  0.0436 -0.2852
 3869SOL    HW123069   3.787   1.043   7.387  1.1869  0.8907 -1.0512
 3869SOL    HW223070   3.905   0.982   7.457  0.7142  0.1423  1.3711
 3870SOL     OW23071   3.602   2.007   3.870  0.3954 -0.1319  0.0066
 3870SOL    HW123072   3.662   2.009   3.796 -0.9581  2.1644 -1.0125
 3870SOL    HW223073   3.548   1.935   3.837 -1.0252  0.2825  1.4155
 3871SOL     OW23074   2.247   0.782   4.107 -0.1678 -0.5529  0.3958
 3871SOL    HW123075   2.275   0.872   4.122 -0.2161 -0.4833  0.0879
 3871SOL    HW223076   2.153   0.786   4.085 -0.7012  0.5682  2.9313
 3872SOL     OW23077   4.649   0.551   7.226  0.5135 -0.4315  0.9635
 3872SOL    HW123078   4.649   0.495   7.149 -0.4019 -0.3703  0.9149
 3872SOL    HW223079   4.689   0.635   7.203 -0.8087  0.4058  1.7198
 3873SOL     OW23080   3.641   2.607  10.684  0.5505 -0.1379 -0.0147
 3873SOL    HW123081   3.632   2.598  10.589  3.9049 -0.4653 -0.2988
 3873SOL    HW223082   3.606   2.523  10.712  0.1237 -0.1881 -0.6958
 3874SOL     OW23083   4.693   2.840   7.695 -0.2558 -0.0266 -0.0752
 3874SOL    HW123084   4.634   2.913   7.677 -0.9765 -0.0259  2.2556
 3874SOL    HW223085   4.641   2.763   7.670 -2.7456  1.5312  0.3692
 3875SOL     OW23086   3.381   4.048   5.263  0.3853 -0.0353  0.0486
 3875SOL    HW123087   3.439   4.117   5.228  0.8875 -0.7007 -0.4217
 3875SOL    HW223088   3.328   4.005   5.196  2.8275 -0.0799 -1.8431
 3876SOL     OW23089   3.883   2.414  12.009  0.2336  0.5547 -0.5171
 3876SOL    HW123090   3.886   2.466  11.928  0.3695  0.9933 -0.2282
 3876SOL    HW223091   3.807   2.358  11.990 -0.6215  1.0597  1.4122
 3877SOL     OW23092   0.441   0.987   3.783  0.3353  0.6057  0.0646
 3877SOL    HW123093   0.408   1.037   3.858  0.4675  0.8248 -0.0243
 3877SOL    HW223094   0.363   0.972   3.731 -0.9517 -0.1311  2.2125
 3878SOL     OW23095   3.262   2.417   6.366  0.3471 -0.2135 -0.7542
 3878SOL    HW123096   3.276   2.402   6.272 -0.9622 -1.2874 -0.7803
 3878SOL    HW223097   3.314   2.347   6.406  1.2487 -0.2650 -2.0074
 3879SOL     OW23098   3.746   0.300   2.034 -0.3867  0.2872 -0.1370
 3879SOL    HW123099   3.785   0.248   1.964  0.0040  0.7472 -0.2674
 3879SOL    HW223100   3.667   0.248   2.049  1.4715 -2.0857  1.2312
 3880SOL     OW23101   0.667   2.404  12.308  0.3181  0.3003  0.3176
 3880SOL    HW123102   0.739   2.343  12.327  1.2845  1.8270  1.5192
 3880SOL    HW223103   0.690   2.430  12.218 -1.9120  1.1883  0.0006
 3881SOL     OW23104   1.106   2.399   7.128 -0.0081 -0.3293 -0.4329
 3881SOL    HW123105   1.149   2.456   7.192 -0.2215 -0.0176 -0.5675
 3881SOL    HW223106   1.032   2.378   7.186 -0.1887  1.0361 -0.1757
 3882SOL     OW23107   0.233   3.951   8.702  0.3543 -0.2044  0.1745
 3882SOL    HW123108   0.154   3.901   8.725  0.0022  0.6831  0.8824
 3882SOL    HW223109   0.297   3.889   8.738  0.2925  0.1952  0.9854
 3883SOL     OW23110   1.208   4.627   5.795  0.7622 -1.0619  0.4832
 3883SOL    HW123111   1.284   4.587   5.753  0.8003  0.1370 -0.5842
 3883SOL    HW223112   1.137   4.576   5.757 -0.5272  1.0793  0.0148
 3884SOL     OW23113   1.992   2.187   7.548 -0.0711  0.1274  0.2602
 3884SOL    HW123114   1.997   2.253   7.617 -0.0058 -0.2281  0.5942
 3884SOL    HW223115   1.939   2.234   7.483 -0.8430  1.1275  1.6111
 3885SOL     OW23116   4.240   3.039   7.963  0.4108  0.5370 -0.1328
 3885SOL    HW123117   4.311   3.015   7.904  1.7029  1.8460  0.9082
 3885SOL    HW223118   4.230   3.133   7.952 -0.3153  0.4896  0.1169
 3886SOL     OW23119   1.125   2.164   3.640 -0.0794  0.4417 -0.2752
 3886SOL    HW123120   1.071   2.221   3.586  0.7515  0.1226 -1.4419
 3886SOL    HW223121   1.088   2.078   3.618  2.9249 -0.9440  0.0859
 3887SOL     OW23122   0.547   1.599   0.578  0.3883 -0.0952  0.3382
 3887SOL    HW123123   0.536   1.688   0.610  1.1389  0.1652 -0.1264
 3887SOL    HW223124   0.639   1.577   0.592  0.3618 -0.3301  0.1601
 3888SOL     OW23125   2.809   1.001   5.630 -0.5091  0.5273 -0.7431
 3888SOL    HW123126   2.900   0.997   5.661 -0.3131 -1.1748 -1.5256
 3888SOL    HW223127   2.770   0.920   5.663 -0.9276  2.0074  2.3533
 3889SOL     OW23128   1.122   2.511   9.184  0.0399 -0.1406  0.1378
 3889SOL    HW123129   1.093   2.598   9.208 -1.2007 -0.4498 -0.2163
 3889SOL    HW223130   1.117   2.469   9.270  0.9452 -1.1162 -0.2883
 3890SOL     OW23131   0.606   3.622   6.682 -0.0089 -0.0710 -0.5939
 3890SOL    HW123132   0.682   3.570   6.709 -1.0123 -0.7804  0.8250
 3890SOL    HW223133   0.589   3.585   6.595 -0.2375 -0.2637 -0.4653
 3891SOL     OW23134   4.213   2.948   3.922 -0.0526 -0.4398 -0.1525
 3891SOL    HW123135   4.306   2.926   3.927 -0.2166 -1.6784 -2.3355
 3891SOL    HW223136   4.202   3.037   3.954  2.6143 -0.3356  0.4936
 3892SOL     OW23137   0.881   1.395  16.123 -0.1363 -1.5940 -0.0937
 3892SOL    HW123138   0.882   1.319  16.181  0.0711 -0.3105  1.6097
 3892SOL    HW223139   0.932   1.366  16.048  1.1577  1.3935 -0.3818
 3893SOL     OW23140   0.213   0.763   1.841 -0.1753 -0.0449 -0.3183
 3893SOL    HW123141   0.197   0.704   1.915  1.0177 -1.1720 -0.9706
 3893SOL    HW223142   0.124   0.792   1.822  0.1628  1.3212  0.1666
 3894SOL     OW23143   3.235   4.393   4.995  0.1473  0.6209  0.0273
 3894SOL    HW123144   3.324   4.370   5.021  0.3846  2.4971  0.8771
 3894SOL    HW223145   3.251   4.417   4.903  0.9401 -1.5211 -0.3862
 3895SOL     OW23146   2.475   2.566   6.834 -0.7545  0.4032 -0.7381
 3895SOL    HW123147   2.380   2.571   6.820 -0.7549 -0.9240 -1.2128
 3895SOL    HW223148   2.485   2.628   6.906 -0.8694  0.0241 -0.3965
 3896SOL     OW23149   3.024   0.006   3.856  0.4490  0.9366 -0.0732
 3896SOL    HW123150   3.030   0.075   3.791 -2.3345  1.4098  0.1573
 3896SOL    HW223151   3.117   4.710   3.867 -0.3874 -2.1285  1.4328
 3897SOL     OW23152   1.580   1.758   5.765  0.1600 -0.4660 -0.8791
 3897SOL    HW123153   1.667   1.762   5.725  0.8048  1.5363  0.7419
 3897SOL    HW223154   1.549   1.848   5.774  0.1002 -0.3146 -2.7240
 3898SOL     OW23155   0.903   1.759   6.180  0.1419 -0.2289  0.2581
 3898SOL    HW123156   0.921   1.851   6.198 -3.7016  0.7289 -0.8149
 3898SOL    HW223157   0.841   1.775   6.109  1.5734 -2.5652 -1.5371
 3899SOL     OW23158   2.142   2.647   4.930 -0.5633 -0.0105  0.4287
 3899SOL    HW123159   2.148   2.562   4.975 -1.3165  0.3964  1.2894
 3899SOL    HW223160   2.195   2.627   4.853 -0.7655  1.5227 -0.0966
 3900SOL     OW23161   1.178   4.284   0.115  0.2213 -0.3812  0.4047
 3900SOL    HW123162   1.268   4.291   0.083  0.2821 -0.4050  0.5715
 3900SOL    HW223163   1.126   4.321   0.043 -1.0816  1.9576  2.5450
 3901SOL     OW23164   2.473   1.081   9.442  0.2528 -0.2919  0.4862
 3901SOL    HW123165   2.512   1.146   9.501 -0.8041  1.3304 -0.6148
 3901SOL    HW223166   2.389   1.065   9.485 -1.4385 -0.3958 -2.8390
 3902SOL     OW23167   0.750   2.961   3.739  0.2410  0.5050 -0.5763
 3902SOL    HW123168   0.831   2.927   3.776  0.3129  0.7145 -0.5394
 3902SOL    HW223169   0.760   3.055   3.756  1.9231  0.0221  1.0742
 3903SOL     OW23170   4.211   3.168  11.548  0.6610  0.3050  0.0408
 3903SOL    HW123171   4.173   3.142  11.465 -1.4946 -0.3673  1.2465
 3903SOL    HW223172   4.144   3.227  11.583 -1.3272 -1.4801 -0.7843
 3904SOL     OW23173   1.775   4.219   8.654 -0.0675 -0.5579  0.3663
 3904SOL    HW123174   1.850   4.160   8.659 -0.7074 -1.2545  1.6407
 3904SOL    HW223175   1.806   4.301   8.614 -1.0128 -0.9793 -1.2370
 3905SOL     OW23176   0.006   0.928  13.498  0.1586  0.3033  0.0440
 3905SOL    HW123177   0.038   0.906  13.586 -0.6631 -0.9642  0.0205
 3905SOL    HW223178   0.073   0.898  13.437  1.9810 -1.7132  2.9907
 3906SOL     OW23179   1.772   2.883   0.205 -0.1863 -0.7010 -0.7594
 3906SOL    HW123180   1.806   2.872   0.116 -1.9557 -0.1516 -1.5084
 3906SOL    HW223181   1.801   2.972   0.226 -1.3846 -0.5192  0.1447
 3907SOL     OW23182   0.137   0.683   2.127  0.5320 -0.6187  0.6097
 3907SOL    HW123183   0.051   0.700   2.166 -0.1305 -2.4695 -0.0225
 3907SOL    HW223184   0.191   0.668   2.205 -1.9745  0.1285  2.4800
 3908SOL     OW23185   3.529   4.038   5.682  0.1489 -0.2003 -0.0839
 3908SOL    HW123186   3.569   3.956   5.651 -2.3629 -0.7124 -2.0231
 3908SOL    HW223187   3.461   4.051   5.615  1.3936 -0.7993 -1.4725
 3909SOL     OW23188   3.945   4.546  10.982 -0.1473 -0.2203  0.0712
 3909SOL    HW123189   3.961   4.625  11.034  1.8919 -0.2792 -0.4758
 3909SOL    HW223190   4.027   4.541  10.932  0.4686  1.6222  0.8870
 3910SOL     OW23191   4.378   1.620   4.069  0.3189  0.2280 -0.6521
 3910SOL    HW123192   4.347   1.628   4.160  0.2410  1.3004 -0.7746
 3910SOL    HW223193   4.309   1.568   4.027  2.1740 -1.0369 -2.1417
 3911SOL     OW23194   4.451   2.005  11.982 -0.2745  0.1942 -0.0818
 3911SOL    HW123195   4.455   1.924  11.932  0.8106  0.9556 -1.2174
 3911SOL    HW223196   4.542   2.029  11.962 -0.2328 -0.2441 -0.4074
 3912SOL     OW23197   0.969   2.603   3.248  0.4559 -0.5516 -0.1147
 3912SOL    HW123198   1.064   2.587   3.250  0.7679  1.1827 -1.4423
 3912SOL    HW223199   0.956   2.681   3.301  0.9092 -1.6484  1.6116
 3913SOL     OW23200   4.508   3.259   2.528 -0.2867  0.0565  0.1251
 3913SOL    HW123201   4.582   3.320   2.524 -1.0010  0.7301 -2.4431
 3913SOL    HW223202   4.554   3.182   2.562  0.6888  0.2718 -0.7238
 3914SOL     OW23203   4.257   0.237   1.400  0.0603 -0.5796 -0.1521
 3914SOL    HW123204   4.262   0.219   1.307  2.4579  0.5041 -0.2307
 3914SOL    HW223205   4.161   0.243   1.404  0.0976 -1.1316  1.9392
 3915SOL     OW23206   3.581   4.367   7.194  0.0054  0.0305 -0.2355
 3915SOL    HW123207   3.535   4.448   7.214 -1.0290 -1.2355  2.5452
 3915SOL    HW223208   3.669   4.387   7.227 -0.3959 -2.2707  2.2646
 3916SOL     OW23209   3.776   4.237  12.171  0.5254 -0.4386  0.3239
 3916SOL    HW123210   3.683   4.255  12.185  0.7972 -0.0148  1.5967
 3916SOL    HW223211   3.755   4.147  12.146  4.8014 -1.3025 -0.1284
 3917SOL     OW23212   0.823   0.336   2.658  0.7457 -0.0543  0.0782
 3917SOL    HW123213   0.859   0.331   2.570 -0.2126  0.6032 -0.3500
 3917SOL    HW223214   0.872   0.413   2.686  0.5149 -0.3709  1.3810
 3918SOL     OW23215   3.705   1.278  13.960 -0.1175 -0.0622 -0.0287
 3918SOL    HW123216   3.645   1.223  13.911 -0.0290  0.8950 -1.2128
 3918SOL    HW223217   3.664   1.283  14.046 -1.7669 -0.6581 -0.7867
 3919SOL     OW23218   4.645   2.389   1.825  0.3486  0.1129  0.6536
 3919SOL    HW123219   0.001   2.436   1.847  0.2340  1.7932 -2.5411
 3919SOL    HW223220   4.633   2.338   1.905  0.9077 -1.0636 -0.0044
 3920SOL     OW23221   2.613   3.163   3.547  0.6941  0.0001 -0.3124
 3920SOL    HW123222   2.685   3.225   3.543  0.1905  0.6379  0.4689
 3920SOL    HW223223   2.566   3.188   3.467 -0.4088 -2.8822 -0.5608
 3921SOL     OW23224   3.119   3.647   2.041 -0.2297 -0.2742 -0.3316
 3921SOL    HW123225   3.138   3.741   2.044 -2.5731  0.2342 -1.0286
 3921SOL    HW223226   3.123   3.619   1.949 -0.0605  0.3155 -0.5051
 3922SOL     OW23227   3.528   3.240   1.728  0.0386 -0.5984 -0.0688
 3922SOL    HW123228   3.433   3.229   1.727  0.0463 -0.6976  0.2582
 3922SOL    HW223229   3.554   3.174   1.663 -2.5989 -0.7019 -1.0118
 3923SOL     OW23230   3.202   2.790   2.309 -0.1906  0.5271  0.4983
 3923SOL    HW123231   3.110   2.819   2.309 -0.4976 -0.4620  0.1932
 3923SOL    HW223232   3.240   2.837   2.234  0.1652 -0.3501  0.1318
 3924SOL     OW23233   2.666   1.284   2.318  0.1813 -0.3469  0.2066
 3924SOL    HW123234   2.713   1.366   2.305  0.7042 -0.6701  0.0383
 3924SOL    HW223235   2.604   1.291   2.245  0.5123 -0.4438 -0.0872
 3925SOL     OW23236   3.361   0.216   1.736 -0.0756 -0.5230  0.2012
 3925SOL    HW123237   3.376   0.133   1.691  0.2324  0.6568 -1.8455
 3925SOL    HW223238   3.283   0.250   1.692  1.9418  1.2564 -1.9861
 3926SOL     OW23239   4.720   1.568   7.046  0.8998  0.1775 -0.1929
 3926SOL    HW123240   0.020   1.634   7.111  0.0624  1.3928 -1.1131
 3926SOL    HW223241   4.718   1.603   6.957 -0.1979  2.8776  0.8610
 3927SOL     OW23242   0.550   0.296  14.414 -0.3584 -0.6158 -0.2544
 3927SOL    HW123243   0.459   0.320  14.428 -0.2954  0.6850 -2.0333
 3927SOL    HW223244   0.546   0.200  14.409  1.0960 -0.7454  1.3245
 3928SOL     OW23245   0.330   3.335   4.426 -0.4012 -0.1598 -0.0778
 3928SOL    HW123246   0.334   3.242   4.408  0.3781 -0.6187  2.4734
 3928SOL    HW223247   0.249   3.353   4.379  0.5585 -0.0405 -1.6755
 3929SOL     OW23248   3.606   0.213   2.329  0.3857  0.0042  0.1386
 3929SOL    HW123249   3.612   0.250   2.417 -2.5196  1.3645 -0.2108
 3929SOL    HW223250   3.528   0.158   2.327  1.4548 -1.4196 -2.0018
 3930SOL     OW23251   1.413   4.342   2.979 -0.4891 -0.1701  0.0957
 3930SOL    HW123252   1.402   4.381   3.065 -0.6912  1.7094 -0.7734
 3930SOL    HW223253   1.456   4.419   2.943  0.7492 -1.0112 -0.2151
 3931SOL     OW23254   0.922   4.146   8.191 -0.7681  0.5826 -0.0189
 3931SOL    HW123255   0.927   4.156   8.286 -1.3970 -2.1515  0.2935
 3931SOL    HW223256   0.840   4.190   8.167 -1.1989  0.1155  0.6207
 3932SOL     OW23257   2.230   2.461   5.796 -0.0271 -0.6061 -0.3309
 3932SOL    HW123258   2.138   2.480   5.778  0.6087  1.4990 -1.3244
 3932SOL    HW223259   2.273   2.538   5.759  0.8088 -0.7487  0.3567
 3933SOL     OW23260   4.581   0.844   6.897  0.9097  0.1669  0.0041
 3933SOL    HW123261   4.547   0.872   6.982 -0.5680 -0.6657 -0.3122
 3933SOL    HW223262   4.516   0.778   6.873  1.4087 -0.5419  0.5845
 3934SOL     OW23263   3.651   3.613   2.025  0.4981 -0.0247 -0.0116
 3934SOL    HW123264   3.650   3.605   2.121 -1.0090  1.0407  0.0639
 3934SOL    HW223265   3.705   3.536   2.010 -0.6467 -0.5843 -1.1966
 3935SOL     OW23266   3.191   3.521   2.494  0.4172  0.2326 -0.4230
 3935SOL    HW123267   3.118   3.527   2.555  1.1257  0.4704  0.4038
 3935SOL    HW223268   3.250   3.584   2.536  0.5011 -0.1773  0.0759
 3936SOL     OW23269   2.534   1.958  13.552 -0.0022 -0.3277 -0.0350
 3936SOL    HW123270   2.518   2.016  13.478  0.6871 -0.2894 -0.1520
 3936SOL    HW223271   2.504   2.018  13.621  0.3629  0.0617 -0.2155
 3937SOL     OW23272   3.407   2.283   5.843 -0.4441 -0.1021 -0.1013
 3937SOL    HW123273   3.478   2.325   5.892 -1.7961  3.1441 -0.8989
 3937SOL    HW223274   3.437   2.298   5.753 -1.4769 -1.5793 -0.6860
 3938SOL     OW23275   1.387   3.292   3.643 -0.2276 -0.0914  0.3450
 3938SOL    HW123276   1.367   3.366   3.586 -1.7200 -0.4399  0.4155
 3938SOL    HW223277   1.474   3.263   3.616 -0.1884  0.5372 -0.1999
 3939SOL     OW23278   4.207   0.442   6.121 -0.2307 -0.9111  0.3348
 3939SOL    HW123279   4.117   0.470   6.101 -0.1353 -0.3249  0.7369
 3939SOL    HW223280   4.192   0.350   6.139  0.1198 -0.6537  1.9327
 3940SOL     OW23281   3.277   0.869   4.683  0.0016  0.0106 -0.0393
 3940SOL    HW123282   3.338   0.799   4.706 -0.8984 -0.7418  0.0595
 3940SOL    HW223283   3.206   0.837   4.738 -0.2064  0.9203  0.2235
 3941SOL     OW23284   1.933   3.179   4.250 -0.4705 -0.5415  0.0778
 3941SOL    HW123285   1.866   3.147   4.190  0.2041 -1.2698 -0.2866
 3941SOL    HW223286   2.002   3.218   4.197  0.6111 -1.4464  0.8378
 3942SOL     OW23287   3.858   1.879   7.634  0.0477  0.4474  0.0557
 3942SOL    HW123288   3.811   1.894   7.716 -0.6468  0.6523 -0.3736
 3942SOL    HW223289   3.928   1.943   7.644  0.7798 -0.6284  1.6759
 3943SOL     OW23290   3.255   3.434   3.985  0.2741  0.3347  0.3500
 3943SOL    HW123291   3.346   3.461   3.975  0.6117 -0.3869  1.4766
 3943SOL    HW223292   3.240   3.376   3.911 -2.1289  0.4815  0.7147
 3944SOL     OW23293   0.492   2.619   5.238  0.4891 -0.0982 -0.1933
 3944SOL    HW123294   0.521   2.633   5.148 -1.1193  1.0426 -0.5317
 3944SOL    HW223295   0.400   2.591   5.231  0.1478  0.7956  0.7102
 3945SOL     OW23296   2.410   0.510   7.074 -0.4135 -0.2817 -0.0753
 3945SOL    HW123297   2.362   0.562   7.138 -0.1562 -1.2082  0.8817
 3945SOL    HW223298   2.442   0.436   7.126 -1.3432 -0.3873  0.3516
 3946SOL     OW23299   2.819   3.758   4.352  0.5763 -0.0311 -0.7160
 3946SOL    HW123300   2.903   3.714   4.368  0.7370  0.4886 -0.1182
 3946SOL    HW223301   2.811   3.824   4.421 -2.1639  0.4473 -1.5024
 3947SOL     OW23302   4.517   3.129   8.353  0.0873  0.0905  0.6460
 3947SOL    HW123303   4.610   3.152   8.352 -0.3452  1.7015 -2.1061
 3947SOL    HW223304   4.495   3.133   8.260  0.9467 -2.1990  0.3295
 3948SOL     OW23305   1.421   0.317   2.214  0.7565  0.1133  0.2773
 3948SOL    HW123306   1.446   0.259   2.143 -2.2084  0.1140 -0.7847
 3948SOL    HW223307   1.402   0.254   2.283 -0.9290 -0.0049 -0.2929
 3949SOL     OW23308   1.243   0.389   3.960  0.4136  0.3912 -0.0539
 3949SOL    HW123309   1.337   0.407   3.954  1.0286 -2.6944  0.2865
 3949SOL    HW223310   1.213   0.479   3.953 -0.7146  0.0640  0.6790
 3950SOL     OW23311   4.057   4.636   0.674 -0.3537  0.4577 -0.1654
 3950SOL    HW123312   4.107   4.642   0.755  0.9231 -2.0786 -0.7669
 3950SOL    HW223313   4.109   4.698   0.624 -0.0456  0.0332 -0.3732
 3951SOL     OW23314   2.269   1.092   9.613 -0.0912  0.2996 -0.0032
 3951SOL    HW123315   2.189   1.099   9.562 -0.3449 -0.7528  0.2579
 3951SOL    HW223316   2.235   1.054   9.694 -0.3931 -2.5055 -1.4631
 3952SOL     OW23317   1.314   3.999   4.074 -0.0264  0.4967  0.5618
 3952SOL    HW123318   1.231   4.041   4.099 -0.1092  0.6676 -0.0100
 3952SOL    HW223319   1.348   4.071   4.020  2.4535 -0.3998  0.9574
 3953SOL     OW23320   1.701   0.408   5.252 -0.3041  0.1416 -0.5454
 3953SOL    HW123321   1.761   0.383   5.322  0.9912  0.9215 -1.3697
 3953SOL    HW223322   1.755   0.395   5.174  0.5305  0.6364 -0.0492
 3954SOL     OW23323   3.692   2.620   6.848  0.2761  0.8489 -0.1404
 3954SOL    HW123324   3.673   2.565   6.772  2.3220 -1.0150  0.7149
 3954SOL    HW223325   3.693   2.705   6.804 -1.5460  0.0632 -1.6546
 3955SOL     OW23326   2.831   2.790   1.229  0.0839 -0.2293  0.3128
 3955SOL    HW123327   2.836   2.719   1.292  0.8868 -0.6135 -0.1834
 3955SOL    HW223328   2.919   2.824   1.241 -0.0652  0.4199 -0.4293
 3956SOL     OW23329   2.828   4.037   8.681  0.5596  0.3301 -0.3240
 3956SOL    HW123330   2.765   4.034   8.752  0.3313  0.7230 -0.5047
 3956SOL    HW223331   2.865   3.950   8.690 -1.3117 -0.3852  0.4040
 3957SOL     OW23332   3.317   1.561   1.993  0.7881  0.2555  0.3812
 3957SOL    HW123333   3.354   1.621   2.058 -1.3370  1.1390  0.7613
 3957SOL    HW223334   3.278   1.487   2.039  0.1327 -0.1455 -0.8305
 3958SOL     OW23335   2.933   0.190   7.556 -0.0352  0.5433  0.0985
 3958SOL    HW123336   2.891   0.165   7.474  0.1407 -0.5092  0.3299
 3958SOL    HW223337   2.894   0.276   7.572  0.9244  0.8739  0.6656
 3959SOL     OW23338   3.636   0.955   4.845  0.9110 -0.3304 -0.2264
 3959SOL    HW123339   3.715   0.999   4.878  0.8894  0.1898 -0.8734
 3959SOL    HW223340   3.643   0.967   4.750 -1.1758  0.7133 -0.2467
 3960SOL     OW23341   3.335   1.884  13.075  0.2647  0.1406 -0.2636
 3960SOL    HW123342   3.262   1.825  13.094  1.4187 -1.1959  0.0446
 3960SOL    HW223343   3.313   1.966  13.118  0.8452  0.6435 -0.9224
 3961SOL     OW23344   4.127   0.387   3.613 -0.6073 -0.2411  0.0178
 3961SOL    HW123345   4.165   0.341   3.688 -0.1009  0.4402  0.1792
 3961SOL    HW223346   4.170   0.472   3.622  0.9704 -0.8981 -1.2653
 3962SOL     OW23347   0.745   4.385   6.229 -0.6186  0.3143  0.6856
 3962SOL    HW123348   0.718   4.370   6.320  0.3995 -2.3343  0.5636
 3962SOL    HW223349   0.812   4.453   6.238  0.2113 -0.3704 -0.3243
 3963SOL     OW23350   2.681   1.082   6.451  0.1759  0.0741  0.0159
 3963SOL    HW123351   2.659   1.008   6.509  0.0876 -0.2269 -0.4036
 3963SOL    HW223352   2.762   1.109   6.495 -0.3945  0.1391  1.0293
 3964SOL     OW23353   0.294   3.344  11.689 -0.1917 -0.4923  0.7407
 3964SOL    HW123354   0.283   3.358  11.595 -1.5003 -2.1314  0.6563
 3964SOL    HW223355   0.311   3.430  11.728 -1.0489 -0.3652  0.8311
 3965SOL     OW23356   0.877   0.123   5.662 -0.9588 -0.1788 -0.1047
 3965SOL    HW123357   0.836   0.051   5.710 -3.2152  0.2668 -1.3774
 3965SOL    HW223358   0.891   0.080   5.577  1.4096 -2.0091  1.2020
 3966SOL     OW23359   2.479   0.327   5.463  0.1436 -0.0194  0.0813
 3966SOL    HW123360   2.474   0.263   5.533  1.8698  0.6429  0.8173
 3966SOL    HW223361   2.390   0.361   5.459  0.0547 -0.2086  0.4938
 3967SOL     OW23362   1.274   0.923   8.597  0.5476 -0.7189 -0.0591
 3967SOL    HW123363   1.221   0.919   8.517 -0.0667 -0.0704  0.3199
 3967SOL    HW223364   1.281   1.018   8.594 -0.2692 -0.6813 -0.7879
 3968SOL     OW23365   3.992   4.308   5.504 -0.2469  0.3153  0.1474
 3968SOL    HW123366   4.055   4.369   5.542  0.3352  0.6244 -1.3270
 3968SOL    HW223367   3.940   4.364   5.446  0.7817  1.3171  0.1992
 3969SOL     OW23368   2.756   1.465  17.621 -0.4835  0.1083  0.2044
 3969SOL    HW123369   2.809   1.513  17.685  1.7780 -3.1148  0.7638
 3969SOL    HW223370   2.804   1.382  17.625  0.3188  0.5477 -0.2475
 3970SOL     OW23371   4.355   1.555   7.240 -0.3153 -0.2617 -0.1518
 3970SOL    HW123372   4.292   1.558   7.311 -0.7140  3.5287 -0.6430
 3970SOL    HW223373   4.298   1.583   7.168  0.9209  2.1053 -0.2086
 3971SOL     OW23374   0.314   0.580   0.682 -0.4064  0.3274 -0.3845
 3971SOL    HW123375   0.258   0.539   0.616 -0.9123 -0.3668  0.4788
 3971SOL    HW223376   0.390   0.604   0.629 -0.3935  1.3345  0.0852
 3972SOL     OW23377   3.208   0.184   4.645  0.8869  0.1606  0.8080
 3972SOL    HW123378   3.204   0.099   4.689  3.3639 -0.0698  0.5796
 3972SOL    HW223379   3.252   0.158   4.564  0.3617 -0.0047  0.5795
 3973SOL     OW23380   3.937   1.002   1.521  0.3618  0.2762 -0.2374
 3973SOL    HW123381   3.851   1.011   1.479  0.7698  0.4898 -1.0342
 3973SOL    HW223382   3.969   0.927   1.470 -0.3856  0.2402 -0.6589
 3974SOL     OW23383   4.494   1.758   1.766  0.3930 -0.3188 -0.1740
 3974SOL    HW123384   4.468   1.669   1.791 -1.1049  0.4192  0.8957
 3974SOL    HW223385   4.507   1.795   1.854  1.8373 -1.0602 -0.0621
 3975SOL     OW23386   4.193   4.676   9.966  0.2329  0.3477  0.0190
 3975SOL    HW123387   4.231   4.697   9.881  5.9968 -0.8959  2.3113
 3975SOL    HW223388   4.136   0.027   9.977  0.3055  0.3815  0.1600
 3976SOL     OW23389   1.734   4.184  12.687  0.1329 -0.4997  0.1014
 3976SOL    HW123390   1.680   4.193  12.765 -1.6756 -1.6476 -1.0150
 3976SOL    HW223391   1.824   4.185  12.720  0.2503  0.2110 -0.2291
 3977SOL     OW23392   1.378   2.138   0.231 -0.1626 -0.4542  0.5825
 3977SOL    HW123393   1.449   2.124   0.168 -0.7138  1.8594 -0.5551
 3977SOL    HW223394   1.430   2.197   0.285 -1.3902 -0.1014  1.3551
 3978SOL     OW23395   2.080   2.832  14.942 -1.1412 -0.0676  0.3778
 3978SOL    HW123396   2.020   2.906  14.931 -1.8706 -0.7238  0.0062
 3978SOL    HW223397   2.031   2.760  14.904  0.3790 -0.6840 -0.3942
 3979SOL     OW23398   0.026   4.121   9.792  0.4404 -0.4728 -0.5221
 3979SOL    HW123399   0.115   4.090   9.775  0.8131  0.3869 -0.1369
 3979SOL    HW223400   0.003   4.164   9.709 -4.1850 -0.2408  0.8840
 3980SOL     OW23401   4.673   3.390   4.074 -0.3687  0.5690 -0.6362
 3980SOL    HW123402   4.714   3.359   3.994 -1.4867 -1.1952 -0.5159
 3980SOL    HW223403   4.607   3.322   4.090  1.7583 -1.3159  0.1208
 3981SOL     OW23404   3.286   3.665   9.464  0.7714  1.0108  0.1948
 3981SOL    HW123405   3.326   3.656   9.551 -1.5187 -0.0450  1.1287
 3981SOL    HW223406   3.232   3.741   9.486 -0.8151  0.0087 -0.2332
 3982SOL     OW23407   1.299   2.981   4.648  0.1357 -0.1368  0.7006
 3982SOL    HW123408   1.263   2.893   4.655 -3.3552  1.4375  2.2801
 3982SOL    HW223409   1.371   2.974   4.584 -0.3201 -2.2945  0.4454
 3983SOL     OW23410   4.223   2.765   2.370 -0.4103 -0.3722  0.1896
 3983SOL    HW123411   4.277   2.823   2.424 -1.2976  0.2219  0.4318
 3983SOL    HW223412   4.226   2.822   2.292 -5.3754 -0.8849 -0.3671
 3984SOL     OW23413   4.148   3.313   9.138  0.5362 -0.2985 -0.4257
 3984SOL    HW123414   4.087   3.240   9.132 -1.2454  1.1210  0.1918
 3984SOL    HW223415   4.223   3.269   9.176 -1.1296 -0.2626  2.8429
 3985SOL     OW23416   3.407   0.366  12.167 -0.2499 -0.3871  0.1853
 3985SOL    HW123417   3.379   0.278  12.141 -0.8882  0.0908 -0.7454
 3985SOL    HW223418   3.463   0.399  12.097 -1.3833  0.4758 -0.3211
 3986SOL     OW23419   0.544   3.311   3.919 -0.6979  0.2046 -0.1930
 3986SOL    HW123420   0.541   3.385   3.979  0.8476 -0.7952  1.1178
 3986SOL    HW223421   0.465   3.327   3.867  0.6394 -0.7269 -2.5182
 3987SOL     OW23422   1.487   3.596   5.487 -0.3410 -0.1688  0.2061
 3987SOL    HW123423   1.579   3.571   5.499  0.4403  2.8494  0.5318
 3987SOL    HW223424   1.459   3.586   5.578 -0.9868 -4.6857 -0.4700
 3988SOL     OW23425   2.025   3.606   7.148 -0.4715 -0.4160  0.0197
 3988SOL    HW123426   1.998   3.577   7.061  1.0789  2.5327 -1.4329
 3988SOL    HW223427   2.064   3.528   7.187 -0.1403 -0.8089 -1.1124
 3989SOL     OW23428   2.068   3.208   2.923  0.5231  0.0529 -0.4450
 3989SOL    HW123429   2.081   3.153   2.846  1.9679 -2.0350  1.2683
 3989SOL    HW223430   2.101   3.294   2.896 -1.1594  0.7898 -0.1037
 3990SOL     OW23431   0.534   2.591  16.144 -0.3955 -0.8172 -0.0229
 3990SOL    HW123432   0.551   2.530  16.071 -0.4159  1.6875 -2.1120
 3990SOL    HW223433   0.615   2.602  16.193 -0.9019  2.4671  0.0627
 3991SOL     OW23434   2.300   1.772   4.491 -0.0423 -0.4106  0.0556
 3991SOL    HW123435   2.245   1.847   4.467  1.5995  0.2082 -1.7320
 3991SOL    HW223436   2.316   1.807   4.579 -0.7635 -1.2994  0.5317
 3992SOL     OW23437   0.755   0.066   9.066  0.1717 -1.1030 -0.1118
 3992SOL    HW123438   0.833   0.011   9.079 -0.5085 -1.2710  3.4332
 3992SOL    HW223439   0.703   0.009   9.009  1.1802  0.2222 -2.3394
 3993SOL     OW23440   2.085   2.796   1.357 -0.1487 -0.0228 -0.1541
 3993SOL    HW123441   1.997   2.768   1.382 -0.8845  0.2894 -2.3427
 3993SOL    HW223442   2.059   2.877   1.314  0.4198 -0.5507 -1.5032
 3994SOL     OW23443   2.662   0.291   3.741 -0.3037 -0.3516 -0.4441
 3994SOL    HW123444   2.582   0.253   3.777  0.4557  1.0734  2.7882
 3994SOL    HW223445   2.702   0.211   3.707  1.3669 -0.0574  0.8243
 3995SOL     OW23446   0.417   3.560   1.560 -0.5903  0.1304 -0.4256
 3995SOL    HW123447   0.457   3.607   1.488  0.6473 -1.3169 -0.6855
 3995SOL    HW223448   0.375   3.497   1.501 -0.2203 -1.5658  1.1075
 3996SOL     OW23449   4.148   2.329   9.050  0.2618 -0.2643 -1.0838
 3996SOL    HW123450   4.231   2.371   9.031 -0.1093  1.1286  0.4379
 3996SOL    HW223451   4.178   2.276   9.124 -0.5641 -0.6579 -1.0171
 3997SOL     OW23452   3.218   3.003   8.050 -0.3533  0.4711 -0.0102
 3997SOL    HW123453   3.236   2.961   8.134 -1.7945  1.8398  0.9876
 3997SOL    HW223454   3.148   3.059   8.082 -2.2131 -2.7031  1.4398
 3998SOL     OW23455   3.725   4.723  11.004  0.0551  0.4955  0.1525
 3998SOL    HW123456   3.801   4.673  10.971 -0.1151  0.8755 -0.8224
 3998SOL    HW223457   3.669   4.648  11.024  1.2639 -1.5094 -3.9640
 3999SOL     OW23458   1.039   2.781  14.535  0.3896  0.0505  0.2224
 3999SOL    HW123459   1.032   2.824  14.449  2.6832 -2.3416 -1.1760
 3999SOL    HW223460   1.133   2.786  14.548  0.3069  1.3379  0.3964
 4000SOL     OW23461   0.248   0.181  14.401 -0.2199 -0.6946  0.3157
 4000SOL    HW123462   0.202   0.154  14.321  0.1880 -1.2327  0.2628
 4000SOL    HW223463   0.197   0.259  14.424 -0.1322  0.4465 -3.2347
 4001SOL     OW23464   3.626   1.367  16.533 -0.5137  0.8101  0.2736
 4001SOL    HW123465   3.681   1.444  16.515 -0.1102  0.7024  1.0550
 4001SOL    HW223466   3.539   1.386  16.499 -0.3294  1.4440  0.1580
 4002SOL     OW23467   2.294   4.503   8.811  0.2846  0.4288  0.3883
 4002SOL    HW123468   2.264   4.417   8.783 -1.2643  0.9181  0.5622
 4002SOL    HW223469   2.323   4.490   8.901 -0.8864 -1.5673  0.4704
 4003SOL     OW23470   2.324   2.883   2.648  0.6380 -0.3130  0.0503
 4003SOL    HW123471   2.419   2.881   2.636  1.0034 -0.0571  2.9090
 4003SOL    HW223472   2.327   2.830   2.728 -0.7819 -0.6152 -0.0856
 4004SOL     OW23473   4.303   1.181  14.045 -0.2560 -0.3739 -0.1213
 4004SOL    HW123474   4.256   1.151  13.968  1.1446 -3.1413  0.0944
 4004SOL    HW223475   4.229   1.217  14.094  1.0330  1.1503  0.7400
 4005SOL     OW23476   0.821   1.711   9.099 -0.0106 -0.1711  0.6114
 4005SOL    HW123477   0.871   1.686   9.177  0.3637 -0.7762  0.1794
 4005SOL    HW223478   0.764   1.635   9.086 -1.4858  0.9169  0.7262
 4006SOL     OW23479   3.175   0.301   8.117  0.2567 -0.2109  0.2252
 4006SOL    HW123480   3.189   0.244   8.192 -2.2145  2.4472  2.7472
 4006SOL    HW223481   3.204   0.386   8.150  0.7937 -0.2344 -0.2011
 4007SOL     OW23482   1.289   1.040   6.766 -0.6943 -0.1521  0.5165
 4007SOL    HW123483   1.250   1.059   6.681 -0.1960  0.5672  0.4479
 4007SOL    HW223484   1.231   0.973   6.800 -2.0323  1.0247  0.5416
 4008SOL     OW23485   1.130   1.268   4.401 -0.1004  0.3795  0.0746
 4008SOL    HW123486   1.044   1.232   4.422 -0.7043  2.0458  0.5051
 4008SOL    HW223487   1.131   1.221   4.318 -2.8303 -1.7886  1.2387
 4009SOL     OW23488   3.801   4.216  10.869 -0.0478 -0.1008  0.0988
 4009SOL    HW123489   3.745   4.234  10.945 -1.1935 -2.0234 -0.3017
 4009SOL    HW223490   3.751   4.254  10.796  0.9305  0.6661 -0.1694
 4010SOL     OW23491   4.591   0.383   3.064  0.0596  0.4880  0.0061
 4010SOL    HW123492   4.561   0.474   3.067  1.6980  1.0609 -0.6816
 4010SOL    HW223493   4.512   0.335   3.087 -0.5107  0.9516 -1.0168
 4011SOL     OW23494   4.261   2.027   7.203 -0.1854  0.5453  0.2612
 4011SOL    HW123495   4.319   1.963   7.161  1.3517  1.1586  1.4780
 4011SOL    HW223496   4.282   2.114   7.170 -1.4005  0.3652 -0.9921
 4012SOL     OW23497   0.343   1.751   0.988  0.1044  0.4026 -0.1117
 4012SOL    HW123498   0.435   1.763   0.965  0.6592  0.7497  2.1907
 4012SOL    HW223499   0.294   1.809   0.930 -2.3866 -1.3387  0.2603
 4013SOL     OW23500   3.352   3.946  16.314  0.3893  0.3250 -0.3014
 4013SOL    HW123501   3.378   3.879  16.250  0.8506 -1.3327  1.6122
 4013SOL    HW223502   3.384   3.902  16.393 -3.5926  1.3685  1.8539
 4014SOL     OW23503   4.347   4.436   2.982 -0.0543  0.2231 -0.2455
 4014SOL    HW123504   4.365   4.369   2.916  1.7539  0.0592  0.4005
 4014SOL    HW223505   4.389   4.510   2.938 -0.4794  1.7990  2.0149
 4015SOL     OW23506   0.077   0.651   8.483  0.4615 -0.2729 -0.2185
 4015SOL    HW123507   0.161   0.650   8.438  0.8167  0.4354  0.4507
 4015SOL    HW223508   0.022   0.675   8.408  0.8065 -1.7423 -0.9449
 4016SOL     OW23509   0.085   1.723   5.566  0.4361  0.0628  0.0948
 4016SOL    HW123510   0.032   1.747   5.641  0.6314 -3.1263  1.2749
 4016SOL    HW223511   0.045   1.647   5.524  2.6618 -0.6798 -0.6794
 4017SOL     OW23512   4.032   1.227   3.684 -0.6168  0.3667  0.3963
 4017SOL    HW123513   4.105   1.228   3.622 -2.6775  0.4416 -2.0258
 4017SOL    HW223514   4.012   1.320   3.683  0.4441  0.5917  0.5745
 4018SOL     OW23515   0.317   1.276   8.519  0.0314 -1.1129 -0.1010
 4018SOL    HW123516   0.251   1.226   8.567  0.7807 -2.8697 -0.9051
 4018SOL    HW223517   0.267   1.320   8.451 -0.5535 -1.6759 -0.0313
 4019SOL     OW23518   3.931   1.823  14.066 -0.0274  0.0841 -0.3837
 4019SOL    HW123519   3.991   1.797  13.996  1.8581 -0.5484  1.4735
 4019SOL    HW223520   3.986   1.820  14.144  0.1286 -0.5452 -0.5209
 4020SOL     OW23521   0.025   4.312   8.999  0.3570  0.3608  0.1333
 4020SOL    HW123522   4.678   4.268   8.953  0.3560  0.3109  0.1830
 4020SOL    HW223523   4.700   4.376   9.049 -0.4530  1.0867 -1.5890
 4021SOL     OW23524   3.441   2.680  11.515 -0.2810 -0.3836 -0.1738
 4021SOL    HW123525   3.534   2.696  11.531 -0.5472  0.6747  0.2664
 4021SOL    HW223526   3.411   2.770  11.510  0.6559  0.0282  1.9830
 4022SOL     OW23527   4.682   2.532   4.495  0.0273  0.0196 -0.4527
 4022SOL    HW123528   0.022   2.527   4.565 -1.4462 -0.0436  0.9125
 4022SOL    HW223529   4.678   2.626   4.477  1.3965  0.0124 -0.7739
 4023SOL     OW23530   2.893   3.336  12.840  0.3241  0.1471  0.1006
 4023SOL    HW123531   2.953   3.364  12.909 -1.0642 -0.1281  1.4172
 4023SOL    HW223532   2.900   3.400  12.770  0.8465 -1.5672 -1.4005
 4024SOL     OW23533   0.119   3.358   4.281  0.4205 -0.1476 -0.2933
 4024SOL    HW123534   0.037   3.407   4.279 -0.5262 -1.6913  0.7979
 4024SOL    HW223535   0.140   3.352   4.188  0.7193 -1.0017 -0.1719
 4025SOL     OW23536   0.188   3.359  13.372  0.3275  0.0545  0.1845
 4025SOL    HW123537   0.118   3.361  13.438  0.1526 -0.2695  0.0087
 4025SOL    HW223538   0.259   3.319  13.422 -0.7538 -1.6027  0.3756
 4026SOL     OW23539   2.217   1.605   3.564  0.4771 -0.3267  0.1075
 4026SOL    HW123540   2.225   1.510   3.555 -1.1279 -0.6099  1.6495
 4026SOL    HW223541   2.288   1.630   3.504 -1.5429  0.0924 -2.1281
 4027SOL     OW23542   1.265   2.370   6.681  0.1036 -0.4123  0.4034
 4027SOL    HW123543   1.347   2.416   6.700 -2.5649  3.3424  2.7527
 4027SOL    HW223544   1.297   2.284   6.707  3.5790  1.3030  1.7710
 4028SOL     OW23545   3.116   2.335   4.973 -0.3512 -0.0955  0.5727
 4028SOL    HW123546   3.126   2.240   4.970 -0.4180 -0.1122  0.8081
 4028SOL    HW223547   3.123   2.352   5.067  0.8403  2.3175  0.0374
 4029SOL     OW23548   3.345   0.899   2.028 -0.0224  0.0536 -0.1056
 4029SOL    HW123549   3.339   0.953   2.107  1.1190  0.3242 -0.2079
 4029SOL    HW223550   3.418   0.930   1.975 -1.3246  0.5647 -1.5922
 4030SOL     OW23551   4.678   0.299   8.476 -0.5339  0.1166 -0.1876
 4030SOL    HW123552   4.635   0.318   8.559  1.7318  0.1520  0.9770
 4030SOL    HW223553   4.642   0.368   8.420 -2.3097 -0.1135  0.7046
 4031SOL     OW23554   2.041   1.955   1.077  0.4206 -0.5331  0.0180
 4031SOL    HW123555   1.996   1.989   1.154 -2.1651  2.5579 -2.8979
 4031SOL    HW223556   2.079   1.874   1.113  0.7949 -0.7560 -0.8857
 4032SOL     OW23557   0.682   0.657   7.184 -0.3552 -0.2957  0.2597
 4032SOL    HW123558   0.658   0.566   7.167 -0.6613 -0.1301 -0.2051
 4032SOL    HW223559   0.736   0.648   7.262  1.3485 -3.5366 -1.2578
 4033SOL     OW23560   4.503   2.804  10.442 -0.6043  0.3183  0.0265
 4033SOL    HW123561   4.456   2.852  10.374  1.6923 -0.2725 -2.0040
 4033SOL    HW223562   4.586   2.852  10.444 -1.1242  1.2029  0.0991
 4034SOL     OW23563   0.327   1.376   1.689  0.2989 -0.5770 -0.4983
 4034SOL    HW123564   0.322   1.372   1.594  0.3313 -0.2725 -0.5126
 4034SOL    HW223565   0.298   1.463   1.714 -0.7923 -1.3182  0.8616
 4035SOL     OW23566   0.252   4.489  12.522 -0.0897 -0.2363 -0.3308
 4035SOL    HW123567   0.271   4.397  12.539  0.3447 -0.4616 -2.0571
 4035SOL    HW223568   0.256   4.541  12.602 -1.2480  0.1299 -0.5140
 4036SOL     OW23569   0.486   0.153   3.495 -0.3286 -0.2279 -0.3358
 4036SOL    HW123570   0.557   0.112   3.445  0.7820 -0.1937  1.2321
 4036SOL    HW223571   0.423   0.174   3.426 -0.7439 -1.7619 -0.4359
 4037SOL     OW23572   3.712   4.150  12.896 -0.2097 -0.1974 -0.1923
 4037SOL    HW123573   3.729   4.057  12.906 -0.3218 -0.3417 -1.3154
 4037SOL    HW223574   3.738   4.162  12.804 -1.0637  1.8346 -0.1768
 4038SOL     OW23575   2.472   3.832   4.321  0.2111 -0.6076 -0.2067
 4038SOL    HW123576   2.518   3.764   4.372  2.6096  0.9075 -0.3657
 4038SOL    HW223577   2.452   3.773   4.249  0.6766  1.1181 -1.7406
 4039SOL     OW23578   1.838   4.427   2.902  0.2149  0.1369 -0.1801
 4039SOL    HW123579   1.855   4.332   2.907 -0.2739  0.1085  0.8959
 4039SOL    HW223580   1.808   4.442   2.992 -0.9446 -1.3878 -0.3089
 4040SOL     OW23581   2.911   3.688   6.887  0.2965  0.0085  0.3001
 4040SOL    HW123582   2.902   3.720   6.797  1.6701  0.5339  0.3589
 4040SOL    HW223583   2.864   3.606   6.871 -0.2269  0.2351  0.7018
 4041SOL     OW23584   0.268   2.990   1.546 -0.5480 -0.4518  0.1521
 4041SOL    HW123585   0.172   2.991   1.541 -0.6557  2.0747  3.2943
 4041SOL    HW223586   0.280   3.062   1.485 -1.6153 -0.7898 -0.4744
 4042SOL     OW23587   4.364   3.495   7.721  0.6521  0.7826 -0.5368
 4042SOL    HW123588   4.417   3.569   7.749  0.2704 -0.0161  2.2807
 4042SOL    HW223589   4.274   3.528   7.724  0.3088 -0.2622  0.6934
 4043SOL     OW23590   1.854   0.633   1.244  0.4860 -0.2586  0.4446
 4043SOL    HW123591   1.788   0.638   1.313 -1.1201 -0.8736 -1.0742
 4043SOL    HW223592   1.882   0.541   1.253 -2.1498 -1.0225  0.8690
 4044SOL     OW23593   1.342   1.965   8.703 -0.5086  0.0790 -0.1010
 4044SOL    HW123594   1.381   2.016   8.774  0.7051  1.2242 -1.5821
 4044SOL    HW223595   1.272   2.024   8.674  0.0223  1.2578  1.0523
 4045SOL     OW23596   4.657   0.790   5.690  0.3742 -0.3143 -0.0960
 4045SOL    HW123597   0.023   0.769   5.712  0.4328  0.9764  0.8648
 4045SOL    HW223598   4.626   0.700   5.673 -1.7770 -0.3209  3.8598
 4046SOL     OW23599   1.871   1.036   7.056  0.0224  0.0938 -0.0864
 4046SOL    HW123600   1.869   0.994   6.970  1.5643  1.7632 -0.9356
 4046SOL    HW223601   1.779   1.040   7.084  0.0152  2.3996 -0.4426
 4047SOL     OW23602   0.288   4.679   7.568 -0.5643  0.4446  0.4160
 4047SOL    HW123603   0.353   4.688   7.498 -1.2695 -1.4053 -0.4592
 4047SOL    HW223604   0.251   0.042   7.556 -0.9589 -0.0780 -2.1750
 4048SOL     OW23605   3.006   1.674  10.846  0.6061 -0.3079 -0.6045
 4048SOL    HW123606   2.998   1.748  10.906 -1.3839 -0.2904 -0.8886
 4048SOL    HW223607   3.069   1.612  10.882 -0.8707 -1.0532  0.7110
 4049SOL     OW23608   2.239   1.895   5.675 -0.2359 -0.1927  0.0248
 4049SOL    HW123609   2.215   1.988   5.677 -2.0566 -0.6951  1.3765
 4049SOL    HW223610   2.329   1.904   5.706 -1.3951 -1.8872  3.8300
 4050SOL     OW23611   2.361   3.025   5.273 -0.2486 -0.7631 -0.6579
 4050SOL    HW123612   2.315   3.042   5.356  1.3338 -2.5510  0.5776
 4050SOL    HW223613   2.446   3.062   5.298 -0.9227 -0.2036  0.8269
 4051SOL     OW23614   2.449   0.626   6.840  0.1778  0.4963  0.0394
 4051SOL    HW123615   2.354   0.613   6.835 -0.0983  1.9078  1.5392
 4051SOL    HW223616   2.468   0.561   6.908 -0.0845  0.2880 -0.0860
 4052SOL     OW23617   1.732   4.639   9.304  0.3303  0.4762  0.9835
 4052SOL    HW123618   1.793   4.641   9.230  0.7423  1.3608  1.3526
 4052SOL    HW223619   1.691   0.001   9.300 -1.8492 -0.6149 -0.9571
 4053SOL     OW23620   2.041   3.250   3.808  0.9285 -0.0759  0.2863
 4053SOL    HW123621   1.994   3.297   3.739 -0.2098 -0.0943  1.0575
 4053SOL    HW223622   2.127   3.252   3.765  0.5436  1.7607 -0.3914
 4054SOL     OW23623   4.261   2.322   5.323 -0.1966 -0.1406  0.4461
 4054SOL    HW123624   4.284   2.231   5.346  2.8467  0.0585 -1.7335
 4054SOL    HW223625   4.225   2.300   5.237  0.8785 -0.1661  0.0006
 4055SOL     OW23626   0.315   3.141   7.200  0.1242 -0.3207  0.1112
 4055SOL    HW123627   0.321   3.153   7.295 -0.5706 -1.7126  0.3330
 4055SOL    HW223628   0.296   3.047   7.194  2.5231 -0.8501  0.5566
 4056SOL     OW23629   0.070   2.854  12.263 -0.0087  0.0267 -0.3496
 4056SOL    HW123630   4.708   2.859  12.223  0.6708  1.9893 -1.5869
 4056SOL    HW223631   0.092   2.763  12.247  0.2635 -0.2868  1.7305
 4057SOL     OW23632   2.891   0.277   3.394 -0.8948  0.0769 -0.1975
 4057SOL    HW123633   2.956   0.333   3.354 -0.0827 -0.5594  0.2194
 4057SOL    HW223634   2.837   0.239   3.326 -0.0895 -1.4655  0.0220
 4058SOL     OW23635   1.603   2.289   4.421 -0.3439 -0.1190  0.0078
 4058SOL    HW123636   1.558   2.310   4.339 -1.6290  4.7491  1.9527
 4058SOL    HW223637   1.665   2.228   4.382  0.5311 -0.2157  1.5580
 4059SOL     OW23638   2.983   4.362   5.076 -0.4608  0.3905 -0.4174
 4059SOL    HW123639   3.009   4.303   5.147  0.2813  1.1942 -0.0309
 4059SOL    HW223640   3.067   4.377   5.034 -0.0752  1.1602  0.6329
 4060SOL     OW23641   2.364   3.075  12.613 -0.3936 -0.4689  0.6701
 4060SOL    HW123642   2.386   2.982  12.607 -0.6430 -0.3267 -2.7204
 4060SOL    HW223643   2.382   3.098  12.704  0.2947  0.0351  0.4072
 4061SOL     OW23644   4.389   4.055  17.549 -0.1906 -0.4562  0.8633
 4061SOL    HW123645   4.441   3.986  17.590  1.6681  0.6494  0.3522
 4061SOL    HW223646   4.378   4.121  17.617 -0.8476 -0.3269  0.6300
 4062SOL     OW23647   1.321   0.996   9.056 -0.2635  0.1026  0.1276
 4062SOL    HW123648   1.245   1.045   9.024 -0.9309 -1.6076 -0.8906
 4062SOL    HW223649   1.325   0.927   8.989  4.0113  0.2751  0.1716
 4063SOL     OW23650   1.563   2.645   3.455  0.1984 -0.0455 -0.1565
 4063SOL    HW123651   1.489   2.686   3.411  0.4380  0.4000 -0.1503
 4063SOL    HW223652   1.590   2.717   3.512 -0.6256 -0.2136  0.4548
 4064SOL     OW23653   3.374   0.950   8.396  0.4300  0.1423  0.1509
 4064SOL    HW123654   3.366   0.950   8.300 -2.9967  0.1298  0.4362
 4064SOL    HW223655   3.284   0.929   8.422  0.2969 -0.3764 -0.6962
 4065SOL     OW23656   2.207   2.418   5.093 -0.3345 -0.3913  0.6807
 4065SOL    HW123657   2.232   2.427   5.185 -1.7490 -0.2895  1.0496
 4065SOL    HW223658   2.291   2.390   5.056 -1.1297  1.2818 -2.4174
 4066SOL     OW23659   0.646   0.217   6.869  0.2282  0.2114  0.2449
 4066SOL    HW123660   0.651   0.265   6.786 -0.1214  0.4541  0.3641
 4066SOL    HW223661   0.732   0.178   6.858 -0.0593 -0.1425 -0.7871
 4067SOL     OW23662   4.586   3.889   0.692 -0.2055  0.0940  0.3825
 4067SOL    HW123663   4.579   3.979   0.726 -0.6549  0.9420 -1.9884
 4067SOL    HW223664   4.647   3.906   0.621  1.9751 -1.0386  2.0008
 4068SOL     OW23665   4.142   3.592   1.693 -0.0620 -0.2290 -0.3137
 4068SOL    HW123666   4.082   3.631   1.630  1.2282  1.6582 -0.3761
 4068SOL    HW223667   4.081   3.560   1.760 -1.7343  0.9218 -1.2949
 4069SOL     OW23668   1.251   0.940   5.490  0.7804  0.6097 -0.1116
 4069SOL    HW123669   1.179   1.001   5.506  0.5381  0.7103 -1.5798
 4069SOL    HW223670   1.276   0.902   5.574 -0.5617 -0.4605 -0.2095
 4070SOL     OW23671   3.064   0.832   2.275  0.0881 -0.1070  0.3925
 4070SOL    HW123672   3.049   0.915   2.319  3.4112 -0.1719  1.6475
 4070SOL    HW223673   3.137   0.798   2.326  1.9623  2.0896 -0.8536
 4071SOL     OW23674   0.050   1.665   0.089  0.2529  0.7137  0.9326
 4071SOL    HW123675   0.080   1.636   0.002  0.5223 -0.9025  1.5662
 4071SOL    HW223676   4.713   1.734   0.065 -0.3301 -0.5503 -1.2040
 4072SOL     OW23677   1.631   2.674  10.663  0.8593  0.4973 -0.7951
 4072SOL    HW123678   1.636   2.767  10.641 -0.6181  0.6489 -0.5149
 4072SOL    HW223679   1.665   2.641  10.580  1.5999  0.4969 -0.4898
 4073SOL     OW23680   0.541   0.499   2.957 -0.2226 -0.0164 -0.3129
 4073SOL    HW123681   0.490   0.497   2.877  3.7300  1.8549 -2.9157
 4073SOL    HW223682   0.528   0.591   2.981 -0.7929 -0.1333 -0.1800
 4074SOL     OW23683   2.057   2.665  10.958  0.1320  0.3150  0.5660
 4074SOL    HW123684   1.965   2.686  10.978  0.4842  1.3151  1.1189
 4074SOL    HW223685   2.079   2.586  11.008 -2.1791 -1.7340 -1.6131
 4075SOL     OW23686   3.040   0.926   7.763 -0.1809 -0.5120  0.1417
 4075SOL    HW123687   2.998   0.992   7.707  2.9173 -0.1823 -1.8142
 4075SOL    HW223688   2.966   0.868   7.781 -1.6970  1.1895 -0.5485
 4076SOL     OW23689   3.739   3.589   6.982 -0.1777 -0.2632  0.1516
 4076SOL    HW123690   3.738   3.665   7.039 -3.5881 -0.9516  0.9927
 4076SOL    HW223691   3.653   3.576   6.942  1.1192 -0.2529 -2.6884
 4077SOL     OW23692   4.051   1.194   8.330  0.5366  0.1410 -0.1239
 4077SOL    HW123693   3.964   1.211   8.293  0.1113 -1.1682  0.2605
 4077SOL    HW223694   4.055   1.099   8.322  0.8087  0.0068  1.7156
 4078SOL     OW23695   1.287   2.387   8.302  0.3024  0.3387 -0.3157
 4078SOL    HW123696   1.351   2.318   8.321  0.6594  0.6715 -0.2965
 4078SOL    HW223697   1.259   2.409   8.391 -1.5847 -0.7551 -0.6485
 4079SOL     OW23698   3.486   3.546   3.229 -0.5742  0.6599  0.3964
 4079SOL    HW123699   3.475   3.530   3.135 -0.5512 -1.0947  0.7073
 4079SOL    HW223700   3.541   3.471   3.252 -0.4184 -0.5455 -4.0042
 4080SOL     OW23701   0.448   0.164  12.286 -0.7245 -0.2269  0.1339
 4080SOL    HW123702   0.354   0.166  12.303 -1.0627 -1.2323 -1.6633
 4080SOL    HW223703   0.453   0.104  12.212  0.0605 -0.3024  0.2523
 4081SOL     OW23704   3.565   1.512  15.121  0.0722 -0.0372 -0.5435
 4081SOL    HW123705   3.644   1.483  15.165 -0.5754 -0.1714  0.5389
 4081SOL    HW223706   3.551   1.600  15.158 -1.7978 -1.1439  1.3706
 4082SOL     OW23707   2.359   2.946   9.586 -0.0743  0.2165 -0.3549
 4082SOL    HW123708   2.435   2.904   9.627  0.6385  0.1256 -1.7936
 4082SOL    HW223709   2.388   3.023   9.537  0.2046  0.7202  0.5996
 4083SOL     OW23710   4.079   1.206   5.681  0.0900  0.0676 -0.4334
 4083SOL    HW123711   4.133   1.127   5.671 -0.8369 -0.4887 -1.0645
 4083SOL    HW223712   4.141   1.265   5.723  0.1085  0.0501 -0.4361
 4084SOL     OW23713   0.817   0.729   6.898  0.3577  0.3039 -0.1696
 4084SOL    HW123714   0.815   0.702   6.989 -0.9706 -1.0275 -0.6008
 4084SOL    HW223715   0.760   0.665   6.855 -0.1914  1.1690 -0.7344
 4085SOL     OW23716   3.238   1.890  10.753 -0.0582  0.0064  0.2007
 4085SOL    HW123717   3.254   1.847  10.837 -1.6447 -1.4082 -0.2130
 4085SOL    HW223718   3.324   1.878  10.712  0.0931  1.2860  0.1418
 4086SOL     OW23719   0.091   0.811  14.004  0.9433  0.4924 -0.2670
 4086SOL    HW123720   0.179   0.846  13.988  1.3384 -1.6106 -2.7388
 4086SOL    HW223721   0.101   0.716  14.007  1.7356  0.5517 -1.0433
 4087SOL     OW23722   4.454   4.623   7.861 -0.0417  0.1973 -0.0020
 4087SOL    HW123723   4.463   4.658   7.950  2.1086 -1.6306  0.5235
 4087SOL    HW223724   4.542   4.612   7.825 -0.0986 -0.3193  0.0159
 4088SOL     OW23725   3.890   4.199   4.832  0.8416  0.2268 -0.4661
 4088SOL    HW123726   3.943   4.243   4.766  0.3651  4.0401  1.7074
 4088SOL    HW223727   3.885   4.105   4.819  1.6512  0.4056 -2.0619
 4089SOL     OW23728   4.570   2.783  11.877  0.6353 -0.2035  0.2123
 4089SOL    HW123729   4.547   2.829  11.797  1.3431 -0.3839 -0.0910
 4089SOL    HW223730   4.604   2.698  11.849  2.6412  0.0809  1.7815
 4090SOL     OW23731   2.258   1.410   3.282  0.3103 -0.0195  0.0236
 4090SOL    HW123732   2.167   1.380   3.269  0.0779  0.9231 -0.5325
 4090SOL    HW223733   2.264   1.401   3.377 -0.4716  2.3520  0.2949
 4091SOL     OW23734   4.257   0.666  11.492  0.3179  0.1736  0.6233
 4091SOL    HW123735   4.205   0.742  11.468  0.1851  0.7096  2.6919
 4091SOL    HW223736   4.339   0.704  11.524  0.8212 -2.6818  2.7568
 4092SOL     OW23737   2.902   4.146  12.085 -0.1081  0.8647 -0.4177
 4092SOL    HW123738   2.872   4.062  12.119 -0.6648  1.8946  1.6179
 4092SOL    HW223739   2.882   4.132  11.992 -0.3636 -0.5849 -0.1426
 4093SOL     OW23740   3.544   2.732   9.319  0.2148  0.3013  0.3256
 4093SOL    HW123741   3.612   2.793   9.347  1.0876 -1.4646  2.0565
 4093SOL    HW223742   3.468   2.791   9.319 -1.5310 -1.9146 -0.1757
 4094SOL     OW23743   4.195   4.398   6.380 -0.0349  0.2270  0.0989
 4094SOL    HW123744   4.209   4.399   6.475 -0.8532  1.3555  0.2094
 4094SOL    HW223745   4.167   4.489   6.373  1.2452  0.6865  0.9026
 4095SOL     OW23746   3.339   4.519   6.551  0.1166 -0.1579  0.0256
 4095SOL    HW123747   3.350   4.437   6.600  1.0217 -0.5110 -0.7629
 4095SOL    HW223748   3.246   4.537   6.562 -0.4289 -4.3091  2.1723
 4096SOL     OW23749   3.831   2.587   5.356  0.8833 -0.2172 -0.4263
 4096SOL    HW123750   3.820   2.679   5.381  0.8105 -1.2101  3.1749
 4096SOL    HW223751   3.925   2.572   5.351  1.1108  1.0023  0.1329
 4097SOL     OW23752   1.085   0.135   1.386 -0.2652 -0.1861  0.8458
 4097SOL    HW123753   0.992   0.118   1.403 -0.5665 -0.1288 -0.7153
 4097SOL    HW223754   1.097   0.121   1.292  0.2241  4.2905  0.2183
 4098SOL     OW23755   2.992   4.247   2.129 -0.0057  0.1390  0.0295
 4098SOL    HW123756   3.074   4.277   2.089  0.3055  0.0878  0.6289
 4098SOL    HW223757   2.969   4.334   2.161 -1.5012  0.3017 -1.4795
 4099SOL     OW23758   0.784   2.140   9.266 -0.3193  0.3188 -0.1572
 4099SOL    HW123759   0.727   2.153   9.342 -0.5159  1.9947 -0.5926
 4099SOL    HW223760   0.743   2.082   9.201 -1.8886  0.8958  0.3014
 4100SOL     OW23761   2.500   1.257   0.110  0.2013  0.0734 -0.4301
 4100SOL    HW123762   2.514   1.287   0.020 -0.0830 -0.1362 -0.5433
 4100SOL    HW223763   2.587   1.226   0.135 -1.0236 -2.5910  0.5340
 4101SOL     OW23764   1.505   0.228   5.101  0.1045  0.2464 -0.1109
 4101SOL    HW123765   1.546   0.257   5.020  0.0583  0.4092 -0.0761
 4101SOL    HW223766   1.566   0.265   5.165 -2.0957  3.6337 -0.0206
 4102SOL     OW23767   1.299   2.004   3.372 -0.0118 -0.0466  0.1712
 4102SOL    HW123768   1.357   2.042   3.307 -0.7047 -0.9522 -0.9687
 4102SOL    HW223769   1.362   2.014   3.443  0.0826  0.6664 -0.0128
 4103SOL     OW23770   0.893   1.406   2.326  0.9910  0.7451  0.4050
 4103SOL    HW123771   0.962   1.343   2.304 -0.0651  0.0528 -0.9379
 4103SOL    HW223772   0.872   1.393   2.419 -0.9534 -0.0359 -0.1450
 4104SOL     OW23773   0.375   1.365   0.512 -0.2800  0.8506  0.2353
 4104SOL    HW123774   0.442   1.433   0.508 -0.0124  0.5815  0.0976
 4104SOL    HW223775   0.429   1.297   0.552 -2.5014  0.4722  2.5962
 4105SOL     OW23776   1.035   3.072  13.653 -0.5345 -0.4371 -0.1124
 4105SOL    HW123777   1.009   3.164  13.645 -0.6380 -0.5573 -1.0658
 4105SOL    HW223778   1.083   3.060  13.571 -0.6765  1.3474 -0.4579
 4106SOL     OW23779   2.129   3.258  14.188  0.0728 -0.4997 -0.6598
 4106SOL    HW123780   2.062   3.262  14.120 -1.0976 -0.5699  0.4955
 4106SOL    HW223781   2.198   3.308  14.144 -0.3971  0.6343 -0.0899
 4107SOL     OW23782   2.840   4.300   3.467 -0.0597 -0.0280  0.3240
 4107SOL    HW123783   2.909   4.329   3.526  1.1481 -0.1917 -0.9999
 4107SOL    HW223784   2.823   4.386   3.428  0.4589  0.0844  0.3420
 4108SOL     OW23785   3.107   2.979   5.757  0.2929  0.3780  0.4590
 4108SOL    HW123786   3.141   2.891   5.742 -0.7996  0.2302 -1.1639
 4108SOL    HW223787   3.171   3.032   5.710 -0.2570  0.0842 -0.6143
 4109SOL     OW23788   3.694   3.793   5.303  0.9434  0.1810  0.4753
 4109SOL    HW123789   3.779   3.767   5.268  0.9509  1.3507 -0.3817
 4109SOL    HW223790   3.711   3.871   5.355 -2.6452  0.8047  0.7092
 4110SOL     OW23791   2.401   1.530  14.196 -0.6270  0.4480 -0.1260
 4110SOL    HW123792   2.494   1.507  14.195 -0.9764 -0.9676 -0.6345
 4110SOL    HW223793   2.376   1.439  14.215  1.8590  0.1529  1.7883
 4111SOL     OW23794   4.562   3.671   7.777  0.1071  0.8949  0.3650
 4111SOL    HW123795   4.562   3.753   7.825  1.4161  1.9561 -1.4685
 4111SOL    HW223796   4.585   3.623   7.857  0.5440 -1.7625 -1.3710
 4112SOL     OW23797   0.815   1.777   7.963  0.2322 -0.3714 -0.0666
 4112SOL    HW123798   0.820   1.819   8.049 -0.8853  1.0487 -0.6940
 4112SOL    HW223799   0.891   1.830   7.936 -2.5627  2.2601 -2.7592
 4113SOL     OW23800   1.086   2.940  11.265 -0.2698  0.2858 -0.1696
 4113SOL    HW123801   1.133   3.021  11.242  1.6986 -0.8092 -0.0363
 4113SOL    HW223802   1.107   2.863  11.213  0.7287 -0.6117  1.5308
 4114SOL     OW23803   2.241   4.499   9.113  0.0934  0.1022  0.5782
 4114SOL    HW123804   2.275   4.542   9.192 -2.7606  0.6962  1.4830
 4114SOL    HW223805   2.186   4.569   9.079  0.8042 -0.6154 -2.0520
 4115SOL     OW23806   3.901   0.547   6.850  0.5025  0.0616 -0.2162
 4115SOL    HW123807   3.985   0.534   6.806 -0.8461 -0.1161 -2.7581
 4115SOL    HW223808   3.930   0.538   6.941  1.6908 -0.4737 -0.6557
 4116SOL     OW23809   3.508   2.130   6.601  0.3470  0.2955  0.3483
 4116SOL    HW123810   3.507   2.053   6.659 -0.5218  0.5019  0.6169
 4116SOL    HW223811   3.477   2.098   6.516  0.1699  1.5021 -0.0391
 4117SOL     OW23812   0.245   0.282   0.396  0.4735 -0.3579  0.0910
 4117SOL    HW123813   0.258   0.220   0.468  1.5145 -0.8171 -0.5071
 4117SOL    HW223814   0.309   0.254   0.331  0.5386 -1.1184  0.4877
 4118SOL     OW23815   1.043   3.662  15.519 -0.3732  0.3290 -0.6101
 4118SOL    HW123816   0.992   3.595  15.566 -1.1306  1.3716  0.0512
 4118SOL    HW223817   1.124   3.662  15.569 -1.0931 -1.3309  0.5811
 4119SOL     OW23818   4.689   2.842   7.217 -0.1859 -0.0050 -1.0223
 4119SOL    HW123819   4.641   2.900   7.275  0.5779  1.4315 -1.8251
 4119SOL    HW223820   4.660   2.757   7.252  0.5303  0.5033  0.7863
 4120SOL     OW23821   3.265   3.995   0.559 -0.4468 -0.0306  0.2030
 4120SOL    HW123822   3.198   4.044   0.608  1.2659  0.2323  2.2569
 4120SOL    HW223823   3.240   4.012   0.468  1.2223 -2.2654 -0.6687
 4121SOL     OW23824   4.695   2.086   0.771  0.3542  0.4522  0.1795
 4121SOL    HW123825   4.642   2.106   0.695  1.1903  1.5591 -0.1142
 4121SOL    HW223826   4.700   2.170   0.817  0.5050  1.2780 -1.3565
 4122SOL     OW23827   1.292   2.160   7.318  0.0869  0.2329 -0.0945
 4122SOL    HW123828   1.350   2.086   7.336 -0.8154  0.0539  2.0780
 4122SOL    HW223829   1.238   2.115   7.253 -1.1049 -0.2897  1.2598
 4123SOL     OW23830   1.713   2.574  13.174  0.2391  0.1707  0.2753
 4123SOL    HW123831   1.653   2.642  13.144 -0.5298 -0.3194  0.7135
 4123SOL    HW223832   1.774   2.572  13.100  3.3135  1.1285  2.7784
 4124SOL     OW23833   1.932   3.791   8.496  0.2762 -0.6898  0.1830
 4124SOL    HW123834   1.994   3.726   8.465  0.1459 -0.9702  0.5052
 4124SOL    HW223835   1.920   3.856   8.427 -1.2636 -1.9899 -0.7740
 4125SOL     OW23836   0.394   1.362  16.166 -0.6298  0.5112 -0.3468
 4125SOL    HW123837   0.406   1.284  16.221 -0.1733  0.2326 -0.8328
 4125SOL    HW223838   0.486   1.378  16.145 -0.6116 -0.7550 -1.2418
 4126SOL     OW23839   0.133   3.437   8.076 -0.3758 -0.9867  0.3984
 4126SOL    HW123840   0.184   3.509   8.039  2.0814 -3.3880 -0.8634
 4126SOL    HW223841   0.174   3.370   8.022  0.5387  1.5215 -2.0079
 4127SOL     OW23842   1.830   0.382   3.518  0.3654  0.3390 -0.2121
 4127SOL    HW123843   1.914   0.385   3.565  0.7771 -1.3810 -0.8177
 4127SOL    HW223844   1.794   0.469   3.529 -0.7071 -0.3240  1.4910
 4128SOL     OW23845   1.055   0.808   6.081  0.0138 -0.2140 -0.0994
 4128SOL    HW123846   1.146   0.778   6.070  0.5124  0.8491  1.0528
 4128SOL    HW223847   1.025   0.772   5.998  2.0716  2.0836 -1.8846
 4129SOL     OW23848   0.502   3.799  14.903 -0.5607 -0.2460  0.4123
 4129SOL    HW123849   0.503   3.885  14.945 -0.4789 -0.0064 -0.0803
 4129SOL    HW223850   0.467   3.818  14.816  1.4558 -1.9443 -0.7657
 4130SOL     OW23851   4.538   1.568   0.858 -0.0267  0.1946 -0.2728
 4130SOL    HW123852   4.610   1.530   0.909 -0.2584  0.8702  0.5620
 4130SOL    HW223853   4.597   1.625   0.808  0.0863  0.6252  0.3404
 4131SOL     OW23854   0.881   1.632  17.357  0.1101 -0.3754  0.3275
 4131SOL    HW123855   0.835   1.629  17.441 -1.1517  0.0249 -0.3529
 4131SOL    HW223856   0.974   1.651  17.371  0.0591  0.4566 -0.4282
 4132SOL     OW23857   4.703   1.575  16.053  0.0119  0.1219  0.1942
 4132SOL    HW123858   0.070   1.561  16.027 -0.2453 -1.3520  0.0869
 4132SOL    HW223859   4.665   1.565  15.966 -2.0153 -0.0974  1.1142
 4133SOL     OW23860   4.447   1.552   3.346  0.1616  0.1723  0.1461
 4133SOL    HW123861   4.367   1.587   3.385 -1.6639 -2.4161 -1.3404
 4133SOL    HW223862   4.418   1.517   3.262 -0.2156 -0.3452  0.4908
 4134SOL     OW23863   2.551   4.636   7.192 -0.2939  0.1826  0.1068
 4134SOL    HW123864   2.519   4.686   7.267  3.1072  0.4948  1.3363
 4134SOL    HW223865   2.612   4.576   7.235 -1.9013 -1.6506 -0.1683
 4135SOL     OW23866   1.160   3.985  17.418  0.1949 -0.5407 -0.4436
 4135SOL    HW123867   1.071   3.994  17.384 -0.0849 -2.2082 -0.1559
 4135SOL    HW223868   1.130   3.971  17.509 -4.6629 -1.0146 -2.1012
 4136SOL     OW23869   0.921   0.006   3.139 -0.1490 -0.1534 -0.0599
 4136SOL    HW123870   0.937   0.079   3.198 -0.1054  1.6803 -2.3520
 4136SOL    HW223871   0.826   0.001   3.149  0.0228 -0.8301  1.2851
 4137SOL     OW23872   3.623   4.203  13.910 -0.4847  0.9444 -0.5436
 4137SOL    HW123873   3.560   4.153  13.962  2.6604 -0.6065  1.7785
 4137SOL    HW223874   3.649   4.270  13.974  0.0528  0.8091 -0.6208
 4138SOL     OW23875   1.841   3.645   3.212  0.0476  0.0754 -0.1296
 4138SOL    HW123876   1.821   3.557   3.180 -1.6989  0.7087 -0.7594
 4138SOL    HW223877   1.929   3.646   3.173  0.3537  1.9072  0.6114
 4139SOL     OW23878   3.312   0.306   8.931 -0.0695 -0.2418 -0.3869
 4139SOL    HW123879   3.392   0.350   8.905 -1.2109  1.1053 -1.6213
 4139SOL    HW223880   3.290   0.283   8.841  1.5728  0.2481 -0.8998
 4140SOL     OW23881   2.806   2.956   8.991  0.2642  0.1784 -0.8545
 4140SOL    HW123882   2.729   2.902   8.973  0.4409 -0.1211 -0.7029
 4140SOL    HW223883   2.864   2.903   9.044  0.5627  1.7615  0.3955
 4141SOL     OW23884   0.828   0.547   6.360 -0.6258 -0.3420  0.0463
 4141SOL    HW123885   0.815   0.453   6.370  2.5518 -0.7539  0.2817
 4141SOL    HW223886   0.826   0.563   6.266  1.7695 -1.2509 -0.1671
 4142SOL     OW23887   2.273   3.795   5.952  0.2629  0.5298  0.2346
 4142SOL    HW123888   2.306   3.788   5.863 -0.7734 -0.1411 -0.1002
 4142SOL    HW223889   2.197   3.738   5.945  1.7890 -1.4259 -0.1506
 4143SOL     OW23890   2.641   0.982   6.886  0.0239 -0.7307  0.0276
 4143SOL    HW123891   2.576   0.930   6.935 -3.8724  1.8475 -2.3980
 4143SOL    HW223892   2.658   1.053   6.947  0.8589 -1.9800  1.2513
 4144SOL     OW23893   1.806   1.719   2.823  0.8913  0.5804  0.3413
 4144SOL    HW123894   1.857   1.698   2.900  0.3244 -1.1298  0.2375
 4144SOL    HW223895   1.716   1.724   2.857  0.6668 -1.1112 -0.0279
 4145SOL     OW23896   0.199   4.029   4.229  0.3614  0.0323  0.0136
 4145SOL    HW123897   0.269   4.049   4.291 -1.2998 -0.0022  1.8947
 4145SOL    HW223898   0.114   4.033   4.273  0.8549 -1.3626  1.0734
 4146SOL     OW23899   0.641   3.101   7.231 -0.7678  0.2572 -0.3466
 4146SOL    HW123900   0.686   3.097   7.316  0.7534  1.5951 -1.0717
 4146SOL    HW223901   0.560   3.057   7.254 -0.3049  0.4597  1.7431
 4147SOL     OW23902   3.840   3.601   8.698  0.6135 -0.4957 -0.5337
 4147SOL    HW123903   3.898   3.600   8.774  2.5267  1.7131 -1.9686
 4147SOL    HW223904   3.774   3.543   8.735 -1.4865  2.3736  0.2171
 4148SOL     OW23905   2.947   3.395  10.962 -0.5836 -0.0302  0.2045
 4148SOL    HW123906   2.916   3.306  10.980  1.0211 -0.7214 -0.4900
 4148SOL    HW223907   2.929   3.405  10.868 -0.2217  0.0500  0.1440
 4149SOL     OW23908   0.334   2.139   1.052  0.3222 -0.3117  0.8638
 4149SOL    HW123909   0.294   2.217   1.015  1.2773  0.3273  1.1828
 4149SOL    HW223910   0.275   2.066   1.031  1.7092 -2.1027  3.1362
 4150SOL     OW23911   1.820   4.324   6.957 -0.1070  0.0982 -0.0552
 4150SOL    HW123912   1.844   4.417   6.953 -1.0795  0.3299 -0.3867
 4150SOL    HW223913   1.802   4.293   6.869  1.2781  1.1153 -0.6937
 4151SOL     OW23914   2.145   2.434   7.026 -0.2603  0.2126 -0.5349
 4151SOL    HW123915   2.227   2.386   7.031  0.8170  2.2117  1.2695
 4151SOL    HW223916   2.080   2.364   7.025  0.6791 -0.6837  1.0047
 4152SOL     OW23917   3.965   4.029   2.486 -0.6025  0.3959  0.1089
 4152SOL    HW123918   3.916   4.111   2.482  0.5597  1.1030  0.3409
 4152SOL    HW223919   3.990   4.020   2.394  1.3153  3.3770  0.3307
 4153SOL     OW23920   1.055   3.179   5.738  0.0191 -0.8150 -0.3873
 4153SOL    HW123921   0.992   3.180   5.810 -1.3363 -4.0716 -1.5402
 4153SOL    HW223922   0.996   3.159   5.666  0.3514 -0.3273 -0.7898
 4154SOL     OW23923   3.495   3.024  14.873  0.0395 -0.0883 -0.8504
 4154SOL    HW123924   3.589   3.035  14.856  0.3078  1.2880  1.4933
 4154SOL    HW223925   3.468   2.992  14.787 -1.3916  3.7913 -1.8406
 4155SOL     OW23926   2.175   1.752   1.225 -0.5825 -0.9225 -0.1639
 4155SOL    HW123927   2.263   1.784   1.208 -0.5865 -1.2815 -0.8900
 4155SOL    HW223928   2.136   1.815   1.285 -0.8566  0.3561 -1.6772
 4156SOL     OW23929   2.104   3.617   4.354  0.1232  0.0451  0.3591
 4156SOL    HW123930   2.175   3.554   4.345  0.4317  0.2493  1.4310
 4156SOL    HW223931   2.044   3.581   4.289  1.7533  1.1170 -1.7536
 4157SOL     OW23932   1.446   1.841   7.705  0.5439 -0.0880  0.1130
 4157SOL    HW123933   1.496   1.868   7.627  0.0544  0.6797  0.0714
 4157SOL    HW223934   1.489   1.883   7.779  1.4266 -0.9170  0.0712
 4158SOL     OW23935   4.371   4.643  13.365 -0.0371  0.4165  0.2888
 4158SOL    HW123936   4.322   4.565  13.338  0.6932  0.3007 -0.7089
 4158SOL    HW223937   4.302   4.696  13.403  0.8605  0.0726  2.4207
 4159SOL     OW23938   4.497   0.332  15.354 -0.9420  0.2879 -0.3739
 4159SOL    HW123939   4.571   0.378  15.314  0.9191 -0.1497  2.5002
 4159SOL    HW223940   4.417   0.375  15.327 -0.1892  1.4570 -0.7244
 4160SOL     OW23941   0.470   0.168   8.503  0.2866 -0.0088 -0.3724
 4160SOL    HW123942   0.493   0.241   8.445 -1.2302  0.0100 -0.9434
 4160SOL    HW223943   0.386   0.198   8.536  0.0852 -0.8049 -0.1846
 4161SOL     OW23944   1.898   3.633   4.595 -0.2245 -0.1738  0.1613
 4161SOL    HW123945   1.966   3.567   4.610 -0.5234 -0.6922 -0.7476
 4161SOL    HW223946   1.821   3.585   4.626 -1.3038  1.9002  0.6594
 4162SOL     OW23947   2.460   0.799  14.502  0.1039 -0.3313  0.6647
 4162SOL    HW123948   2.478   0.725  14.559  3.1063 -0.7417 -0.8459
 4162SOL    HW223949   2.368   0.777  14.486 -0.3289 -0.1664  2.9034
 4163SOL     OW23950   1.863   4.688   7.144 -0.1946 -0.1411 -0.3622
 4163SOL    HW123951   1.878   4.649   7.057  3.9209 -0.1500  0.3890
 4163SOL    HW223952   1.924   4.640   7.200 -0.1499 -1.1626 -1.2791
 4164SOL     OW23953   4.257   2.092  10.744 -0.0632 -0.4576  0.5645
 4164SOL    HW123954   4.338   2.144  10.740 -0.7242  0.6064  1.1128
 4164SOL    HW223955   4.180   2.147  10.727 -1.1620 -1.6290  1.8213
 4165SOL     OW23956   1.010   3.753   8.373 -0.2188  0.2308  0.5928
 4165SOL    HW123957   0.982   3.833   8.419  1.3134  0.1602  1.6546
 4165SOL    HW223958   1.019   3.767   8.279  1.0830 -1.1609  0.5246
 4166SOL     OW23959   3.914   2.952   9.703 -0.0041 -0.6697  0.1368
 4166SOL    HW123960   3.919   2.949   9.799  0.5151  3.0473  0.2325
 4166SOL    HW223961   3.830   2.996   9.689 -0.2010 -0.5531  1.6747
 4167SOL     OW23962   0.079   2.955  17.133  0.0147  0.1945 -0.5822
 4167SOL    HW123963   4.712   2.936  17.155  0.2998 -0.1278  0.3102
 4167SOL    HW223964   0.130   2.921  17.206  1.8787  0.5560 -1.7274
 4168SOL     OW23965   0.810   0.874   1.051 -0.2900  0.3822  0.0557
 4168SOL    HW123966   0.745   0.939   1.078 -0.2659  0.0436  0.9287
 4168SOL    HW223967   0.746   0.806   1.027 -1.9611  1.2583  2.0281
 4169SOL     OW23968   1.829   1.528  14.821 -0.0533 -0.1994 -0.3702
 4169SOL    HW123969   1.761   1.476  14.778 -0.0159 -1.0928  0.6603
 4169SOL    HW223970   1.904   1.469  14.826  0.0579 -0.0574 -0.3508
 4170SOL     OW23971   1.166   0.704   0.675  0.0346  0.6283  0.1904
 4170SOL    HW123972   1.208   0.688   0.759  0.0886 -0.6632 -0.0919
 4170SOL    HW223973   1.161   0.799   0.688 -1.9370  0.6911 -0.9040
 4171SOL     OW23974   4.605   4.171   0.707 -0.2175 -0.3018  0.1748
 4171SOL    HW123975   4.566   4.258   0.716 -0.1486 -0.1896 -0.6511
 4171SOL    HW223976   4.690   4.203   0.677 -0.1076 -0.4055  0.3759
 4172SOL     OW23977   2.959   4.539   5.828  0.0167 -0.0896 -0.1899
 4172SOL    HW123978   3.047   4.570   5.809  0.8179 -1.3949  1.3466
 4172SOL    HW223979   2.976   4.494   5.912 -1.2314 -0.6258 -0.2125
 4173SOL     OW23980   0.884   3.814   8.988  0.0731 -0.1943  0.2316
 4173SOL    HW123981   0.933   3.895   8.971  1.3153 -0.9022  0.4698
 4173SOL    HW223982   0.826   3.848   9.056 -0.3242  2.1873 -1.2699
 4174SOL     OW23983   3.147   3.467   5.135 -0.4541  0.3104  0.0278
 4174SOL    HW123984   3.157   3.376   5.108 -0.0683  0.3906 -0.1014
 4174SOL    HW223985   3.192   3.513   5.064  1.7703 -0.4956  0.9218
 4175SOL     OW23986   0.891   0.331   4.396 -0.5374 -0.1864  0.0761
 4175SOL    HW123987   0.866   0.290   4.313 -1.0390  1.0491 -0.3903
 4175SOL    HW223988   0.980   0.365   4.389  0.1702 -2.3753 -1.1525
 4176SOL     OW23989   1.976   2.380   1.052  0.3081 -0.3995 -0.4662
 4176SOL    HW123990   1.928   2.363   0.971  0.3508 -1.0966 -0.3471
 4176SOL    HW223991   1.913   2.439   1.093  2.1470  1.2461 -0.0208
 4177SOL     OW23992   3.466   2.813   3.250 -0.7410  0.3722  0.3988
 4177SOL    HW123993   3.532   2.793   3.184  0.0775 -0.7666  1.5785
 4177SOL    HW223994   3.421   2.729   3.257  0.7783 -0.4225  0.5001
 4178SOL     OW23995   0.841   0.693   8.940 -0.3901 -0.2644  0.5690
 4178SOL    HW123996   0.931   0.680   8.972  0.5783  0.8512 -1.7228
 4178SOL    HW223997   0.832   0.786   8.957 -0.0398  0.1593 -1.5946
 4179SOL     OW23998   1.346   4.598   7.775 -0.1842 -0.3258 -0.0335
 4179SOL    HW123999   1.281   4.561   7.834  2.1098 -1.6410  1.6774
 4179SOL    HW224000   1.403   4.524   7.756  2.7032  1.7099  0.6593
 4180SOL     OW24001   3.233   1.110  13.444 -0.3737 -0.4229 -0.7099
 4180SOL    HW124002   3.308   1.059  13.473  0.1459  1.4433  1.2097
 4180SOL    HW224003   3.189   1.135  13.526  0.1164 -2.6889  0.2436
 4181SOL     OW24004   1.883   3.677   3.499 -0.1203  0.5333 -0.2546
 4181SOL    HW124005   1.891   3.643   3.410  1.7470  2.1780 -0.7156
 4181SOL    HW224006   1.787   3.673   3.499 -0.1398  0.9595  1.4831
 4182SOL     OW24007   2.017   3.577  14.421  0.0011 -0.3162  0.1109
 4182SOL    HW124008   1.990   3.498  14.374 -1.1422 -0.3138  0.7743
 4182SOL    HW224009   1.992   3.549  14.509 -0.2593 -0.1719  0.0808
 4183SOL     OW24010   4.019   3.461   8.914 -0.8982  0.3037 -0.0437
 4183SOL    HW124011   4.072   3.419   8.981 -0.6678  0.3781 -0.1796
 4183SOL    HW224012   3.966   3.390   8.879 -1.3300 -0.0561  1.3436
 4184SOL     OW24013   1.017   2.765   8.796  0.0324  0.2958  0.5091
 4184SOL    HW124014   1.021   2.670   8.798 -0.4424  0.2685 -0.1268
 4184SOL    HW224015   1.031   2.778   8.702 -0.5322 -0.6937  0.2943
 4185SOL     OW24016   1.113   1.089   8.210  0.3297  0.5057 -0.0567
 4185SOL    HW124017   1.109   1.172   8.258  0.4665  0.5829 -0.1785
 4185SOL    HW224018   1.110   1.128   8.123  1.2546 -2.4789 -1.4190
 4186SOL     OW24019   4.717   4.245   1.184 -0.0264 -0.9341 -0.8342
 4186SOL    HW124020   0.035   4.161   1.202  3.4204  1.0715  0.1403
 4186SOL    HW224021   4.639   4.208   1.142  0.1585 -1.1486 -0.9918
 4187SOL     OW24022   2.219   2.764   7.067 -0.0295  0.9294  0.1610
 4187SOL    HW124023   2.203   2.718   6.984  2.0752  1.4451 -0.5530
 4187SOL    HW224024   2.141   2.761   7.122  1.7514 -1.4835  2.5428
 4188SOL     OW24025   2.247   4.673   7.537  0.2313 -0.2566  0.1446
 4188SOL    HW124026   2.234   4.611   7.609 -0.0602 -1.0137 -0.5642
 4188SOL    HW224027   2.173   0.007   7.551  0.3890 -0.0758  0.2213
 4189SOL     OW24028   1.822   2.350   0.838  0.6918  0.4889 -0.0827
 4189SOL    HW124029   1.864   2.280   0.788  1.3184  0.3477  0.6369
 4189SOL    HW224030   1.751   2.372   0.779  0.8967  0.7116 -0.2459
 4190SOL     OW24031   0.322   1.395   8.109  0.1509  0.2987  0.1744
 4190SOL    HW124032   0.271   1.442   8.043  0.3656  1.4360  0.8323
 4190SOL    HW224033   0.327   1.310   8.065  0.4549  0.6925 -0.5452
 4191SOL     OW24034   1.675   0.491   6.979 -0.3681 -0.8184 -0.3460
 4191SOL    HW124035   1.731   0.470   7.054  0.0498 -1.4063 -0.8286
 4191SOL    HW224036   1.654   0.582   6.998 -0.6989 -0.8971 -0.3246
 4192SOL     OW24037   1.321   3.269   8.089 -0.0661 -0.4678  0.1565
 4192SOL    HW124038   1.366   3.245   8.170  0.8564  3.1034  0.7016
 4192SOL    HW224039   1.372   3.222   8.023  1.0985  2.1817 -0.8249
 4193SOL     OW24040   4.461   4.661   1.071  0.0727 -0.2734 -0.2938
 4193SOL    HW124041   4.448   4.701   1.157 -0.5417  0.6675 -0.8106
 4193SOL    HW224042   4.542   4.614   1.089  0.2456  0.0101 -0.3303
 4194SOL     OW24043   2.340   0.908   7.884 -0.0141 -0.2971  0.0573
 4194SOL    HW124044   2.282   0.909   7.960  0.6539  1.1775  0.5427
 4194SOL    HW224045   2.306   0.827   7.845  0.0890 -0.7594  0.9256
 4195SOL     OW24046   1.533   0.981  11.919 -0.1205  0.5302  0.2931
 4195SOL    HW124047   1.567   0.927  11.991 -3.2906 -1.1045  0.5372
 4195SOL    HW224048   1.534   0.913  11.852 -0.4231  0.6283  0.1932
 4196SOL     OW24049   2.909   0.610  12.293 -0.2343  0.5962  0.2949
 4196SOL    HW124050   2.965   0.597  12.369  0.0952  0.2729 -0.0036
 4196SOL    HW224051   2.924   0.702  12.273  1.2618 -0.0091 -1.3863
 4197SOL     OW24052   0.939   1.090   7.480  0.0342  0.5708 -0.5039
 4197SOL    HW124053   0.936   1.075   7.385  0.9110 -0.0319 -0.4324
 4197SOL    HW224054   0.867   1.029   7.499  0.5873  0.5084  1.3239
 4198SOL     OW24055   1.742   3.879   5.753 -0.2009  0.1681 -0.0623
 4198SOL    HW124056   1.796   3.912   5.681 -0.9377  0.2103 -0.5925
 4198SOL    HW224057   1.765   3.788   5.770 -0.0545  0.0113 -1.1588
 4199SOL     OW24058   4.266   3.544   4.571 -0.1524 -0.1975  0.1447
 4199SOL    HW124059   4.278   3.455   4.605 -0.1475  0.1126  0.9598
 4199SOL    HW224060   4.306   3.549   4.484 -0.7262 -1.0695 -0.1727
 4200SOL     OW24061   0.761   4.170  13.062  0.3386  0.4502 -0.1370
 4200SOL    HW124062   0.702   4.096  13.046 -1.0479  1.6344 -0.5059
 4200SOL    HW224063   0.762   4.213  12.977  3.0725  2.7418  1.0718
 4201SOL     OW24064   1.994   2.345  11.251 -0.0955 -0.2165 -0.0697
 4201SOL    HW124065   2.034   2.308  11.330 -1.3043  1.7933  1.4921
 4201SOL    HW224066   2.065   2.406  11.236  1.2441 -1.3820  1.4966
 4202SOL     OW24067   1.594   1.614   5.058  0.3109  0.3436  0.1077
 4202SOL    HW124068   1.513   1.643   5.099  3.1371  1.6191  4.7890
 4202SOL    HW224069   1.602   1.656   4.973  2.0633 -0.6685 -0.2456
 4203SOL     OW24070   0.498   2.540   0.018  0.1469 -0.0187  0.3966
 4203SOL    HW124071   0.591   2.531   0.038  0.4439 -0.2433 -1.0981
 4203SOL    HW224072   0.476   2.608   0.082 -0.2253  0.8478 -0.6500
 4204SOL     OW24073   0.404   3.764  13.099  0.4407  0.1393 -0.1079
 4204SOL    HW124074   0.366   3.746  13.013  0.9572  2.4287 -0.8236
 4204SOL    HW224075   0.344   3.721  13.160  2.7018 -0.5930  1.5717
 4205SOL     OW24076   0.274   1.921   5.985  0.1789  0.0298 -0.2929
 4205SOL    HW124077   0.311   2.007   5.966 -0.7512  0.1120 -1.7440
 4205SOL    HW224078   0.191   1.956   6.019  0.1737  1.7465 -2.0427
 4206SOL     OW24079   2.714   3.045   1.886  0.6415 -0.1526 -0.0346
 4206SOL    HW124080   2.620   3.058   1.896  0.8481  0.6687  0.9205
 4206SOL    HW224081   2.747   3.133   1.867  0.0206  0.3663  1.2479
 4207SOL     OW24082   2.527   1.018   8.509 -0.4406  0.0224 -0.5820
 4207SOL    HW124083   2.541   1.012   8.604  0.9890 -0.2364 -0.8142
 4207SOL    HW224084   2.542   1.111   8.495 -3.5602  0.7548  0.9535
 4208SOL     OW24085   4.014   1.432  10.458  0.5697 -0.1243 -0.3098
 4208SOL    HW124086   3.981   1.353  10.416  2.7502 -0.9638 -0.4520
 4208SOL    HW224087   4.092   1.463  10.412  0.8359 -0.2095  0.0894
 4209SOL     OW24088   4.587   3.611   1.199  0.1754 -0.1760 -0.1223
 4209SOL    HW124089   4.538   3.531   1.216 -0.2902  0.2235  0.4272
 4209SOL    HW224090   4.626   3.589   1.115 -0.4633 -1.1131 -0.1698
 4210SOL     OW24091   2.395   3.779   5.213  0.4812  0.2648  0.0040
 4210SOL    HW124092   2.356   3.707   5.163  1.5180 -0.5094  0.3059
 4210SOL    HW224093   2.490   3.766   5.202  0.5441 -1.0190  2.0910
 4211SOL     OW24094   1.575   2.200  10.956 -0.0137  0.2694  0.3121
 4211SOL    HW124095   1.633   2.143  10.907  2.6710  1.5781  1.9845
 4211SOL    HW224096   1.519   2.137  11.001  0.3129  0.1296  0.5178
 4212SOL     OW24097   2.653   2.467   7.607  0.1702  0.4483  0.4824
 4212SOL    HW124098   2.616   2.384   7.638 -0.1326  0.0970 -0.8052
 4212SOL    HW224099   2.599   2.478   7.529 -1.0758  0.8174  1.3940
 4213SOL     OW24100   1.605   2.389  13.441 -0.1155  0.8066 -0.4239
 4213SOL    HW124101   1.586   2.474  13.403 -2.2264  1.2674  1.6522
 4213SOL    HW224102   1.574   2.395  13.531 -0.9873 -1.1043 -0.5926
 4214SOL     OW24103   2.778   0.749  12.603  0.2735 -0.2895 -0.3272
 4214SOL    HW124104   2.710   0.778  12.664  0.6767 -0.5206  0.2334
 4214SOL    HW224105   2.761   0.655  12.605  1.8603 -0.5871 -1.3307
 4215SOL     OW24106   3.518   1.598   2.621 -0.1253 -0.1397  0.2045
 4215SOL    HW124107   3.574   1.669   2.590 -0.5342 -0.5227 -1.4125
 4215SOL    HW224108   3.580   1.528   2.639 -1.1354 -0.9202  0.6418
 4216SOL     OW24109   2.025   0.610   3.412  0.5468 -0.1072 -0.1089
 4216SOL    HW124110   2.034   0.567   3.497  0.8453  1.4268  0.6504
 4216SOL    HW224111   2.081   0.687   3.425 -0.6691  0.5405  1.2796
 4217SOL     OW24112   3.402   0.068  14.766  0.2151 -0.2077 -0.4115
 4217SOL    HW124113   3.378   4.703  14.787 -1.0010  0.0838 -0.5626
 4217SOL    HW224114   3.495   0.069  14.788  0.0027 -0.3349  0.4636
 4218SOL     OW24115   3.789   2.541   2.831 -0.0014  0.3587  0.4488
 4218SOL    HW124116   3.704   2.536   2.876 -1.0833  0.8557 -1.5433
 4218SOL    HW224117   3.775   2.620   2.778 -0.3143 -0.3772 -0.5445
 4219SOL     OW24118   3.791   0.589   7.398  0.0433 -0.3223 -0.5344
 4219SOL    HW124119   3.764   0.584   7.307  1.3851  3.6895 -1.1270
 4219SOL    HW224120   3.760   0.507   7.437  0.8449  0.0773  0.9596
 4220SOL     OW24121   4.372   4.035   9.740  0.0913 -0.4587  0.4524
 4220SOL    HW124122   4.364   4.057   9.833 -0.0478  1.2923  0.0161
 4220SOL    HW224123   4.288   4.070   9.712  1.0962  1.0965 -0.6350
 4221SOL     OW24124   2.423   0.885   3.891 -0.0749 -0.4211 -0.0850
 4221SOL    HW124125   2.508   0.908   3.930  0.6080  0.7311 -2.2535
 4221SOL    HW224126   2.387   0.818   3.950  1.2518 -1.5635 -0.5726
 4222SOL     OW24127   2.745   2.525   8.999 -0.4975 -0.0261 -0.0836
 4222SOL    HW124128   2.825   2.577   8.995 -1.4720  1.3810 -1.0950
 4222SOL    HW224129   2.673   2.584   8.977  0.6167  0.8073 -1.4992
 4223SOL     OW24130   3.005   2.620   0.700  0.0957  0.2941  0.3389
 4223SOL    HW124131   2.968   2.537   0.730 -2.4178  0.7065 -1.6388
 4223SOL    HW224132   3.085   2.621   0.752  1.6678  1.4556 -2.1052
 4224SOL     OW24133   1.884   2.202   9.126 -0.3494 -0.1823  0.3007
 4224SOL    HW124134   1.913   2.293   9.120  0.6155 -0.4576  0.9421
 4224SOL    HW224135   1.964   2.163   9.090 -0.1185  0.7136 -0.1649
 4225SOL     OW24136   4.222   2.969   4.702  0.4269  0.3188  0.5277
 4225SOL    HW124137   4.153   2.916   4.660  0.1702  1.1999 -0.1606
 4225SOL    HW224138   4.244   3.026   4.628  1.7496 -2.4723 -1.2408
 4226SOL     OW24139   0.262   0.486   4.437 -0.2867 -0.2534 -0.3045
 4226SOL    HW124140   0.294   0.410   4.484 -0.2985  0.7962  1.3890
 4226SOL    HW224141   0.174   0.489   4.476  1.2393  1.4848  2.9826
 4227SOL     OW24142   2.268   1.026   6.632 -0.5273 -0.8029 -0.2411
 4227SOL    HW124143   2.289   1.085   6.561 -1.3332  0.4472  0.5498
 4227SOL    HW224144   2.326   0.952   6.612 -0.5485 -0.8156 -0.2555
 4228SOL     OW24145   1.856   4.456   1.470  0.2141  0.9075 -0.1421
 4228SOL    HW124146   1.827   4.415   1.551  1.5800 -0.3276 -0.2909
 4228SOL    HW224147   1.916   4.523   1.502 -1.9540  2.7946  0.0105
 4229SOL     OW24148   0.403   0.457   1.940 -0.0260 -0.1945  0.7422
 4229SOL    HW124149   0.321   0.439   1.984 -1.5432 -0.4599 -2.1995
 4229SOL    HW224150   0.455   0.379   1.959  1.0247  0.6540  1.3947
 4230SOL     OW24151   1.190   1.958   6.492 -0.3981 -0.1260 -0.4497
 4230SOL    HW124152   1.232   1.989   6.412 -0.8546 -0.0128 -0.6408
 4230SOL    HW224153   1.128   2.019   6.531 -0.2258 -0.4605  0.3520
 4231SOL     OW24154   2.813   1.689   4.359  0.0917 -0.2724 -0.4203
 4231SOL    HW124155   2.887   1.749   4.361 -2.0557  2.4016 -0.1306
 4231SOL    HW224156   2.747   1.747   4.320 -0.5373 -0.3918  0.4721
 4232SOL     OW24157   2.099   3.718  12.694  0.5119 -0.5809  0.5079
 4232SOL    HW124158   2.165   3.780  12.725 -0.0123  0.9214 -1.3684
 4232SOL    HW224159   2.027   3.780  12.677  1.3172  0.4879  1.0057
 4233SOL     OW24160   2.838   2.778  13.203  0.3004  0.2663  0.2258
 4233SOL    HW124161   2.920   2.738  13.174 -0.5826 -0.7251 -0.8910
 4233SOL    HW224162   2.856   2.871  13.194  2.5668 -0.1250  0.6459
 4234SOL     OW24163   3.480   1.640  11.850  0.0189  0.1593  0.4600
 4234SOL    HW124164   3.400   1.595  11.875 -1.1990  1.7370 -0.6168
 4234SOL    HW224165   3.497   1.703  11.920 -1.2157  0.0919  0.8101
 4235SOL     OW24166   2.486   1.935   2.859  0.6074  0.1135  0.1572
 4235SOL    HW124167   2.401   1.936   2.814  1.7558 -0.2655 -1.9937
 4235SOL    HW224168   2.456   1.978   2.939 -0.7491 -1.8593  0.7093
 4236SOL     OW24169   1.393   4.500   1.785  0.7174  0.4374 -0.3355
 4236SOL    HW124170   1.326   4.532   1.846  0.8949 -1.1718  0.7176
 4236SOL    HW224171   1.365   4.408   1.777 -0.2630  0.6629  0.4834
 4237SOL     OW24172   3.047   1.335  11.319  0.1069 -0.3254 -0.2637
 4237SOL    HW124173   3.130   1.299  11.289  0.8675  2.2220 -1.2745
 4237SOL    HW224174   3.055   1.429  11.301  1.6908 -0.2705  0.6851
 4238SOL     OW24175   2.725   1.844   0.924  0.2759 -0.7666  0.1763
 4238SOL    HW124176   2.704   1.937   0.917  3.4102 -0.1675 -1.1015
 4238SOL    HW224177   2.716   1.841   1.020 -1.4127 -0.1267  0.0390
 4239SOL     OW24178   2.041   3.343   7.348  0.2213 -0.1085  0.4727
 4239SOL    HW124179   2.103   3.369   7.280 -1.0218  2.6899  0.4130
 4239SOL    HW224180   2.007   3.259   7.316 -2.0980  0.7656  0.6295
 4240SOL     OW24181   1.090   0.711  15.396  0.1801  0.4613  0.3659
 4240SOL    HW124182   1.086   0.663  15.314 -1.5357  1.2956 -0.0365
 4240SOL    HW224183   1.127   0.642  15.451 -1.6930 -0.8469 -0.0344
 4241SOL     OW24184   1.215   2.486   3.234  0.0092  0.5218  0.5265
 4241SOL    HW124185   1.189   2.395   3.215  0.4427  0.8991 -1.9216
 4241SOL    HW224186   1.256   2.505   3.150 -2.2319  0.0194 -0.6877
 4242SOL     OW24187   1.647   4.693   2.549  0.2820  0.4107 -0.0975
 4242SOL    HW124188   1.733   4.721   2.516  0.3319  0.7066  0.2770
 4242SOL    HW224189   1.673   4.686   2.641 -1.2075  0.6798  0.3425
 4243SOL     OW24190   0.885   3.443   3.680 -0.1312  0.2364  0.3148
 4243SOL    HW124191   0.928   3.404   3.604  1.3596 -0.0548  1.3143
 4243SOL    HW224192   0.907   3.536   3.673 -2.3283  0.7485  0.2978
 4244SOL     OW24193   3.971   3.673  15.410  0.0548  0.6515  0.6290
 4244SOL    HW124194   4.041   3.629  15.459  0.6372 -1.7007 -2.3601
 4244SOL    HW224195   3.976   3.765  15.436 -1.6420  1.4914 -2.0621
 4245SOL     OW24196   0.191   3.593   0.684 -0.4376 -0.4754  0.0714
 4245SOL    HW124197   0.191   3.684   0.656 -2.3290 -0.3784  0.3705
 4245SOL    HW224198   0.266   3.591   0.743 -0.8912 -2.0812  0.5830
 4246SOL     OW24199   4.504   0.991   5.826  0.0189  0.0167  0.1619
 4246SOL    HW124200   4.559   0.936   5.770 -1.7135 -1.8113  0.2642
 4246SOL    HW224201   4.566   1.037   5.882  0.8456 -0.5239 -0.3113
 4247SOL     OW24202   2.171   2.677   8.671 -0.8710 -0.4001  0.4027
 4247SOL    HW124203   2.170   2.767   8.637  1.4034 -0.4002  0.3386
 4247SOL    HW224204   2.182   2.625   8.591  0.2466  2.4712 -1.3124
 4248SOL     OW24205   3.690   2.436  11.472 -0.1549 -0.0488  0.1946
 4248SOL    HW124206   3.641   2.446  11.391  0.0372 -0.3331  0.0410
 4248SOL    HW224207   3.703   2.529  11.491  0.5954 -0.1401  0.1298
 4249SOL     OW24208   2.016   1.539  10.318 -0.8791  0.3307  0.2582
 4249SOL    HW124209   1.953   1.470  10.340  2.6981 -2.6093  1.2236
 4249SOL    HW224210   2.096   1.498  10.351  0.8784  2.5933 -1.1680
 4250SOL     OW24211   1.783   3.273   4.678  0.6259 -0.2155  0.2979
 4250SOL    HW124212   1.766   3.332   4.604 -1.3016 -0.4170  0.5847
 4250SOL    HW224213   1.753   3.315   4.759  0.6801  0.5577 -0.0763
 4251SOL     OW24214   1.753   0.383  10.742 -0.2299  0.2534 -0.1467
 4251SOL    HW124215   1.713   0.411  10.824  0.2872  0.1272  0.1444
 4251SOL    HW224216   1.757   0.468  10.699  2.4490  0.6690  0.9345
 4252SOL     OW24217   1.760   3.089  10.049  0.6167  0.5517 -0.4730
 4252SOL    HW124218   1.817   3.162  10.076  2.0309 -0.5499 -0.4540
 4252SOL    HW224219   1.680   3.104  10.099 -0.1172 -0.8170 -1.2402
 4253SOL     OW24220   0.964   0.275  15.592  0.7098  0.0377 -0.1233
 4253SOL    HW124221   0.981   0.316  15.507 -0.2984 -0.1009 -0.3918
 4253SOL    HW224222   1.050   0.274  15.633  1.4533 -2.4762 -1.7295
 4254SOL     OW24223   1.703   3.266   7.569 -0.3166 -0.1884 -0.0751
 4254SOL    HW124224   1.677   3.333   7.506 -0.4590 -1.1756 -1.0729
 4254SOL    HW224225   1.716   3.192   7.509 -0.6890  0.2724 -0.7272
 4255SOL     OW24226   0.586   0.205  12.505  0.0006  1.1334  0.3380
 4255SOL    HW124227   0.560   0.195  12.414 -2.3652  0.8657  1.0226
 4255SOL    HW224228   0.531   0.138  12.547  1.8363 -0.7136 -0.1703
 4256SOL     OW24229   1.021   4.708   3.888 -0.2932  0.0289  0.1610
 4256SOL    HW124230   1.017   0.077   3.867  2.7606  0.1620  0.1694
 4256SOL    HW224231   0.927   4.692   3.896 -0.0860 -0.8407  0.8828
 4257SOL     OW24232   0.517   2.972  11.385  0.3276  0.7589  0.0521
 4257SOL    HW124233   0.536   2.880  11.405  1.5065  1.3688  1.7662
 4257SOL    HW224234   0.606   3.001  11.366 -0.6358  3.3726 -0.3532
 4258SOL     OW24235   2.026   4.672   5.659 -0.5371 -0.6631 -0.4406
 4258SOL    HW124236   2.079   0.027   5.654 -0.7451 -0.5504 -0.8055
 4258SOL    HW224237   2.058   4.632   5.740 -1.5345  0.7128  0.6317
 4259SOL     OW24238   2.109   4.492   3.872 -0.3531 -0.6357 -0.3390
 4259SOL    HW124239   2.056   4.482   3.951 -0.4445 -1.7756 -0.5402
 4259SOL    HW224240   2.108   4.587   3.866  2.1355 -0.4641  2.0811
 4260SOL     OW24241   4.018   2.604   8.986  0.0895  0.0727  0.6440
 4260SOL    HW124242   4.098   2.653   9.005 -0.4421  1.6301 -1.1230
 4260SOL    HW224243   4.021   2.550   9.065  1.4946 -0.2821  0.3372
 4261SOL     OW24244   0.357   3.290   1.706 -0.0780  0.0987  0.1781
 4261SOL    HW124245   0.270   3.306   1.670 -0.3677 -0.8001  0.4940
 4261SOL    HW224246   0.403   3.366   1.669  0.5654 -0.0648  0.6446
 4262SOL     OW24247   4.695   3.832   5.095 -0.0744  0.1773  0.5109
 4262SOL    HW124248   0.017   3.816   5.177  1.8763  0.2680 -0.5974
 4262SOL    HW224249   4.623   3.892   5.117  1.4767  2.3186 -0.2624
 4263SOL     OW24250   1.159   4.331   8.412 -0.0457 -0.5755  0.4383
 4263SOL    HW124251   1.251   4.355   8.409 -0.1214 -0.6162 -2.3200
 4263SOL    HW224252   1.155   4.282   8.330 -0.7726 -0.3317  0.3293
 4264SOL     OW24253   3.309   1.257   3.993  0.3801 -0.0869  0.0442
 4264SOL    HW124254   3.352   1.304   4.063 -2.0047 -1.0534  2.1606
 4264SOL    HW224255   3.387   1.212   3.962 -0.3678 -1.1611 -0.2998
 4265SOL     OW24256   1.791   2.051   7.081 -0.6174 -0.1929 -0.0425
 4265SOL    HW124257   1.789   2.145   7.062 -2.8962 -0.1699  0.2369
 4265SOL    HW224258   1.700   2.031   7.060 -0.7973 -0.0322  0.5710
 4266SOL     OW24259   4.073   0.652   4.645 -0.3094  0.3649  0.2609
 4266SOL    HW124260   4.020   0.732   4.636  0.7805  1.2193  1.4798
 4266SOL    HW224261   4.067   0.632   4.552 -0.0252  1.2167  0.0607
 4267SOL     OW24262   0.278   3.573  14.074  0.3354  0.2807 -0.8726
 4267SOL    HW124263   0.361   3.559  14.120  0.1976 -0.9894 -1.0311
 4267SOL    HW224264   0.281   3.667  14.056 -0.0008  0.0749 -1.9775
 4268SOL     OW24265   1.604   1.128  12.148  0.3201  0.1088 -0.7982
 4268SOL    HW124266   1.574   1.039  12.165  0.4778  0.3474  0.7012
 4268SOL    HW224267   1.679   1.101  12.096  1.6132 -1.4540  1.8896
 4269SOL     OW24268   4.430   1.033   7.868  0.2416  0.4459  0.0175
 4269SOL    HW124269   4.494   0.964   7.883  0.0099 -0.3650 -2.7776
 4269SOL    HW224270   4.491   1.107   7.868  1.4719 -0.5642  1.2285
 4270SOL     OW24271   4.022   0.201   2.425  0.8409  0.6313  0.0927
 4270SOL    HW124272   4.087   0.265   2.454  2.1249  0.1582 -1.7872
 4270SOL    HW224273   3.971   0.261   2.369  1.7477  0.1344 -1.2584
 4271SOL     OW24274   1.655   1.738  14.467  0.0379 -0.2948  0.4139
 4271SOL    HW124275   1.690   1.715  14.380 -1.5043 -0.0233 -0.2760
 4271SOL    HW224276   1.609   1.655  14.480 -2.4437  0.6195 -2.4342
 4272SOL     OW24277   2.422   1.697   9.935 -0.0915  0.0953  0.0964
 4272SOL    HW124278   2.468   1.625   9.893 -0.4508 -0.7715  1.2016
 4272SOL    HW224279   2.429   1.769   9.872 -0.3840  0.9775  1.0610
 4273SOL     OW24280   1.199   4.240   2.415 -0.2157  0.5580 -0.3523
 4273SOL    HW124281   1.239   4.310   2.364 -1.9114  0.7901 -1.3605
 4273SOL    HW224282   1.113   4.281   2.422 -1.6351 -2.5230  0.5137
 4274SOL     OW24283   2.199   1.688  13.501  0.3087 -0.0373 -0.0793
 4274SOL    HW124284   2.158   1.607  13.532 -1.6236  1.1537  0.4809
 4274SOL    HW224285   2.248   1.722  13.576  1.4512  2.1296 -1.7943
 4275SOL     OW24286   4.141   0.677   1.132  0.1039 -0.2069  0.0308
 4275SOL    HW124287   4.073   0.745   1.131 -0.3517 -0.6639  0.3271
 4275SOL    HW224288   4.110   0.609   1.191 -0.4833  1.0188  1.1171
 4276SOL     OW24289   0.495   3.794   8.431  0.0954  0.2599  0.2501
 4276SOL    HW124290   0.471   3.883   8.459  0.3791  0.3188  0.3047
 4276SOL    HW224291   0.587   3.806   8.406  0.6695 -1.9778  1.3395
 4277SOL     OW24292   2.903   1.555   0.139 -0.1149  0.0188 -0.9929
 4277SOL    HW124293   2.893   1.640   0.182  3.4099  0.7865 -1.6542
 4277SOL    HW224294   2.916   1.506   0.220 -1.2932  0.8102 -0.3295
 4278SOL     OW24295   4.639   2.779   8.744  0.1780 -0.2434 -0.2922
 4278SOL    HW124296   4.628   2.684   8.751  1.6583 -0.2768  1.5631
 4278SOL    HW224297   4.694   2.788   8.822  0.4721  1.4117 -0.6758
 4279SOL     OW24298   0.333   4.335   4.976  0.1694 -0.9537  0.1393
 4279SOL    HW124299   0.348   4.277   5.051  0.9248  1.6390  1.9830
 4279SOL    HW224300   0.263   4.287   4.930 -0.4157 -0.5803  0.6418
 4280SOL     OW24301   0.699   4.307   1.979  0.4953  0.3143  0.2880
 4280SOL    HW124302   0.657   4.329   1.895  1.8440 -0.9015 -0.7028
 4280SOL    HW224303   0.624   4.260   2.018 -0.6043  1.1632 -0.8005
 4281SOL     OW24304   2.066   2.202  10.445  0.0028  0.2753 -0.4014
 4281SOL    HW124305   2.138   2.266  10.443 -0.4462  0.7410 -1.5942
 4281SOL    HW224306   2.079   2.179  10.353  2.8566 -0.2807  0.1343
 4282SOL     OW24307   2.745   3.641   2.177  0.4209 -0.8170  0.2060
 4282SOL    HW124308   2.735   3.551   2.209  0.6399 -0.2341  1.9147
 4282SOL    HW224309   2.657   3.674   2.159  0.0954 -1.6639  0.2571
 4283SOL     OW24310   0.122   2.455  15.763  0.2266 -0.7413 -0.2186
 4283SOL    HW124311   0.208   2.429  15.732  0.3783 -0.6329  0.1120
 4283SOL    HW224312   0.133   2.472  15.857  2.0720  0.1002 -0.5822
 4284SOL     OW24313   3.435   2.134   6.244 -0.5988  0.4733 -0.3628
 4284SOL    HW124314   3.409   2.061   6.301  0.4661 -0.1876 -0.7290
 4284SOL    HW224315   3.358   2.154   6.191  0.3153  0.0521 -1.8358
 4285SOL     OW24316   1.649   3.118  14.328  0.0520 -0.4906 -0.3638
 4285SOL    HW124317   1.684   3.091  14.413  0.8800 -0.1104 -0.5823
 4285SOL    HW224318   1.556   3.131  14.347 -0.0489  1.2475 -2.0395
 4286SOL     OW24319   2.275   1.274   5.958 -0.8818 -0.0311 -0.3373
 4286SOL    HW124320   2.280   1.179   5.957 -0.1482  0.0155 -0.8789
 4286SOL    HW224321   2.221   1.301   5.883 -0.6666 -0.5894 -0.6906
 4287SOL     OW24322   1.856   4.179   1.221  0.0296  0.3472 -0.1846
 4287SOL    HW124323   1.782   4.141   1.270 -0.8124 -0.7868 -2.3410
 4287SOL    HW224324   1.919   4.183   1.293 -1.2303 -3.7895  1.1400
 4288SOL     OW24325   3.390   1.909   8.874  0.3841 -0.1353 -0.0143
 4288SOL    HW124326   3.473   1.878   8.837 -0.0047 -1.4276  0.2063
 4288SOL    HW224327   3.424   1.949   8.955  1.5531 -1.6063  0.2277
 4289SOL     OW24328   1.657   3.130   2.804 -0.3608  0.2919  0.2932
 4289SOL    HW124329   1.699   3.191   2.865 -0.6679 -1.0314  1.8172
 4289SOL    HW224330   1.565   3.156   2.814  0.0820  1.1202  2.1273
 4290SOL     OW24331   0.600   1.917   3.875 -0.2621  0.0606  0.3766
 4290SOL    HW124332   0.569   1.827   3.877 -3.1496  1.1057  2.9978
 4290SOL    HW224333   0.656   1.916   3.797 -0.8943  0.4132 -0.0878
 4291SOL     OW24334   1.119   2.179   4.920  0.6687 -0.3920 -0.1451
 4291SOL    HW124335   1.109   2.220   4.833 -1.9551 -1.9843 -0.5878
 4291SOL    HW224336   1.054   2.109   4.926 -1.2746  1.1124 -3.1448
 4292SOL     OW24337   0.209   0.409   0.901 -0.4519  0.3644  0.0929
 4292SOL    HW124338   0.226   0.484   0.958 -0.8048 -0.2433  1.0087
 4292SOL    HW224339   0.247   0.427   0.815  0.5662 -1.3300  0.1920
 4293SOL     OW24340   3.514   0.992   4.333  0.1465  0.4591 -0.3239
 4293SOL    HW124341   3.471   0.911   4.362  0.2630  0.3057 -0.5871
 4293SOL    HW224342   3.525   0.984   4.239 -1.3929 -0.3194 -0.4399
 4294SOL     OW24343   1.210   1.932   0.639  0.5217  0.2022 -0.1020
 4294SOL    HW124344   1.191   1.934   0.733  1.0826 -1.1766  0.0426
 4294SOL    HW224345   1.215   2.027   0.628  1.2004  0.2364  0.5038
 4295SOL     OW24346   1.333   2.832   6.415  0.0791  0.1425 -0.5688
 4295SOL    HW124347   1.399   2.865   6.476  0.0922 -0.8937 -0.0232
 4295SOL    HW224348   1.348   2.881   6.335 -0.4251 -0.0941 -0.8113
 4296SOL     OW24349   0.043   1.011   0.334  0.0720  0.4823 -0.4728
 4296SOL    HW124350   4.691   1.011   0.391  0.8344  2.0444  0.5588
 4296SOL    HW224351   0.049   1.101   0.303 -2.6124  0.9137  0.3060
 4297SOL     OW24352   1.622   2.405   6.514 -0.4105 -0.1457  0.3140
 4297SOL    HW124353   1.550   2.342   6.509 -0.3828 -0.0947 -0.6941
 4297SOL    HW224354   1.649   2.408   6.422  1.6807 -0.6406  0.9213
 4298SOL     OW24355   2.586   0.746   8.223  0.1045  0.3647  0.4496
 4298SOL    HW124356   2.568   0.740   8.316  0.7724  1.5608  0.6684
 4298SOL    HW224357   2.532   0.674   8.191 -1.5135  0.8311  2.0934
 4299SOL     OW24358   2.037   1.277   7.010 -0.0915 -0.2370  0.1317
 4299SOL    HW124359   2.107   1.212   7.015 -0.3386 -0.5950 -0.9070
 4299SOL    HW224360   1.960   1.222   7.026 -0.8464  1.2178  1.5499
 4300SOL     OW24361   2.710   2.860   7.937 -0.2621 -0.7961  0.2720
 4300SOL    HW124362   2.712   2.947   7.976 -0.6269 -1.7656  2.4274
 4300SOL    HW224363   2.791   2.873   7.888  0.5891  1.8772  2.4199
 4301SOL     OW24364   2.037   2.088   3.276 -0.5854 -0.0121  0.2406
 4301SOL    HW124365   2.090   2.045   3.209  0.8489 -0.3733  1.5997
 4301SOL    HW224366   2.099   2.152   3.311 -0.6473  0.0156  0.3002
 4302SOL     OW24367   0.679   3.875   6.372 -0.6536 -0.2428  0.0300
 4302SOL    HW124368   0.699   3.957   6.326  1.4461 -0.3960  0.6659
 4302SOL    HW224369   0.643   3.915   6.452 -0.2664  0.7697 -0.3042
 4303SOL     OW24370   2.511   1.872   8.818  0.2630 -0.3086  0.3379
 4303SOL    HW124371   2.569   1.795   8.819  0.4290 -0.2094 -1.1900
 4303SOL    HW224372   2.539   1.912   8.900  0.0435 -0.1683  0.3420
 4304SOL     OW24373   3.334   1.646  12.362 -0.3889  0.2765 -0.0273
 4304SOL    HW124374   3.267   1.635  12.295 -1.0533 -2.2125  1.0250
 4304SOL    HW224375   3.383   1.722  12.331  0.0358  0.1653  0.3712
 4305SOL     OW24376   4.401   3.009   4.447 -0.3146 -0.3365  0.2033
 4305SOL    HW124377   4.476   3.044   4.399 -0.3043  1.5185  1.6010
 4305SOL    HW224378   4.340   3.082   4.447  1.7364  1.3916 -0.2437
 4306SOL     OW24379   3.636   2.827   7.351 -0.6815 -0.0527  0.3079
 4306SOL    HW124380   3.726   2.858   7.339 -1.2946  2.1907  1.5961
 4306SOL    HW224381   3.633   2.755   7.287 -0.1019  0.1234  0.0852
 4307SOL     OW24382   2.941   0.316   8.510  0.0251  0.4629 -0.8240
 4307SOL    HW124383   2.846   0.314   8.524  0.6622 -0.9565  3.2686
 4307SOL    HW224384   2.950   0.391   8.452 -1.3421  2.0499  1.0046
 4308SOL     OW24385   0.476   2.245  17.234  0.3889  0.0302  0.5311
 4308SOL    HW124386   0.460   2.168  17.181  1.0456 -0.0489  0.4432
 4308SOL    HW224387   0.502   2.209  17.319 -0.4712 -2.5492 -0.3279
 4309SOL     OW24388   4.416   1.612  17.682  0.0580  1.3807 -0.5536
 4309SOL    HW124389   4.472   1.682   0.015  0.2266  0.9126  0.1653
 4309SOL    HW224390   4.446   1.585  17.595  0.3619 -2.1277  0.6362
 4310SOL     OW24391   1.776   2.301   8.886  0.2193  0.6497  0.1734
 4310SOL    HW124392   1.824   2.244   8.947  0.7206 -0.0974 -0.9100
 4310SOL    HW224393   1.717   2.346   8.947 -0.8886 -0.2713 -0.2093
 4311SOL     OW24394   4.574   3.889  14.101  0.4724 -0.6830 -0.0945
 4311SOL    HW124395   4.644   3.885  14.036 -0.1875  0.3867 -0.8669
 4311SOL    HW224396   4.614   3.943  14.169  0.7253  0.4864 -1.1887
 4312SOL     OW24397   0.557   3.100   1.651  0.2018 -0.1535 -0.4433
 4312SOL    HW124398   0.487   3.165   1.662  2.8197  2.1261  2.7104
 4312SOL    HW224399   0.615   3.155   1.599 -0.3541  0.7229 -0.1433
 4313SOL     OW24400   4.343   4.418   0.474 -0.4517  0.4364 -0.1688
 4313SOL    HW124401   4.362   4.385   0.386  0.7604  2.3858 -0.6250
 4313SOL    HW224402   4.321   4.509   0.456  0.1186  1.0851  2.4527
 4314SOL     OW24403   4.581   0.648   3.382 -0.1137  0.6896 -0.0881
 4314SOL    HW124404   4.594   0.735   3.419 -0.7434  0.7995 -0.1179
 4314SOL    HW224405   4.582   0.589   3.457  1.1676  0.1309 -0.5535
 4315SOL     OW24406   4.716   1.542   7.592  0.3292  0.0467  0.2315
 4315SOL    HW124407   0.042   1.570   7.668  0.7120  1.1585 -0.4291
 4315SOL    HW224408   0.058   1.499   7.538 -1.4806 -2.2743 -0.1609
 4316SOL     OW24409   0.447   3.744  10.931  0.8839 -0.3172  0.3279
 4316SOL    HW124410   0.479   3.832  10.910  0.1458 -0.1778 -0.2310
 4316SOL    HW224411   0.475   3.730  11.021 -1.1277 -2.3956  0.6004
 4317SOL     OW24412   0.716   1.745   7.496 -0.1177  0.2246 -0.1210
 4317SOL    HW124413   0.801   1.785   7.512  0.6073 -0.5657 -1.9282
 4317SOL    HW224414   0.655   1.819   7.490 -1.7249 -1.1608 -0.9779
 4318SOL     OW24415   4.235   2.793  10.571 -0.6731 -0.3574 -0.6363
 4318SOL    HW124416   4.314   2.802  10.517 -0.8802 -1.6135 -1.1692
 4318SOL    HW224417   4.226   2.877  10.616  1.3252  0.5196 -1.9072
 4319SOL     OW24418   2.865   0.159   5.751 -0.0351  0.2230 -0.6915
 4319SOL    HW124419   2.894   0.242   5.789 -0.8847  0.2940 -0.2055
 4319SOL    HW224420   2.933   0.137   5.687 -0.7347  0.8822 -1.6453
 4320SOL     OW24421   2.781   0.437  12.121 -0.3685  0.1329  1.3900
 4320SOL    HW124422   2.757   0.383  12.196 -1.1538 -0.6730  0.5596
 4320SOL    HW224423   2.818   0.510  12.171  2.4380  0.5889 -1.3735
 4321SOL     OW24424   1.221   4.724   0.226 -0.4041  0.1354 -0.1107
 4321SOL    HW124425   1.283   4.705   0.297  0.1758  0.2942 -0.5745
 4321SOL    HW224426   1.142   0.035   0.267 -1.1102  1.9889 -3.0793
 4322SOL     OW24427   2.485   1.089   7.430 -0.1904 -0.0693 -0.3074
 4322SOL    HW124428   2.495   1.160   7.366 -0.8323  0.7457  0.4954
 4322SOL    HW224429   2.571   1.047   7.422  0.6302  1.7215 -1.0238
 4323SOL     OW24430   3.584   1.480   2.101 -0.6000 -0.2434  0.0548
 4323SOL    HW124431   3.559   1.496   2.010  0.0509 -0.6996 -0.2017
 4323SOL    HW224432   3.517   1.532   2.146 -0.8816  1.2094 -2.0743
 4324SOL     OW24433   1.740   4.159   5.931 -0.3952 -0.1648  0.1916
 4324SOL    HW124434   1.778   4.147   5.844 -0.4977 -1.6027  0.3418
 4324SOL    HW224435   1.727   4.253   5.943 -1.7242 -0.7244  2.9636
 4325SOL     OW24436   4.146   2.517   6.459  0.1355  0.5191 -0.0162
 4325SOL    HW124437   4.077   2.469   6.413  1.2785 -1.6810  0.5994
 4325SOL    HW224438   4.220   2.491   6.404  0.4573  0.9383  0.2219
 4326SOL     OW24439   4.664   0.391   6.200 -0.1426  0.3238 -0.4496
 4326SOL    HW124440   4.628   0.308   6.232 -0.2193  0.8407  0.8114
 4326SOL    HW224441   4.645   0.453   6.271  2.0355  0.6565 -0.1701
 4327SOL     OW24442   0.989   4.052   8.980  0.0740 -0.3215  0.6464
 4327SOL    HW124443   1.064   4.098   8.941 -0.5450  0.7089  0.6512
 4327SOL    HW224444   0.921   4.117   8.962  0.0968 -0.5464 -0.2490
 4328SOL     OW24445   4.225   0.657  14.474  0.2361 -0.0844 -0.0038
 4328SOL    HW124446   4.174   0.734  14.497 -1.4961 -0.5009 -2.5123
 4328SOL    HW224447   4.307   0.676  14.519  0.3072  0.0827 -0.2050
 4329SOL     OW24448   1.479   0.748   4.184 -0.4223 -0.4811 -0.2301
 4329SOL    HW124449   1.455   0.835   4.152 -0.2936 -0.6563 -0.7981
 4329SOL    HW224450   1.444   0.740   4.273 -0.7924 -0.4190 -0.3714
 4330SOL     OW24451   2.493   2.293   5.770 -0.2497  0.1081 -0.3990
 4330SOL    HW124452   2.414   2.340   5.796 -0.1524  0.0365  0.0138
 4330SOL    HW224453   2.495   2.226   5.838  1.4286  1.6490  1.0691
 4331SOL     OW24454   2.863   3.268   4.845 -0.0557  0.1466 -0.0622
 4331SOL    HW124455   2.924   3.328   4.802  0.1668 -0.3539 -0.4528
 4331SOL    HW224456   2.909   3.247   4.926 -0.5237 -3.6688 -0.7475
 4332SOL     OW24457   0.455   3.188   6.036  0.2730  0.3678  0.0627
 4332SOL    HW124458   0.368   3.156   6.015  0.0241  1.1763 -0.1320
 4332SOL    HW224459   0.445   3.199   6.130 -1.5989  0.4000 -0.1417
 4333SOL     OW24460   3.524   2.868  10.241  0.1040 -0.3893  0.6171
 4333SOL    HW124461   3.442   2.913  10.219  0.0678 -0.7050  0.1084
 4333SOL    HW224462   3.533   2.834  10.152  0.6622 -1.4763  1.0918
 4334SOL     OW24463   3.212   3.641  15.688 -0.2499  0.0274 -0.4896
 4334SOL    HW124464   3.150   3.650  15.761 -0.3254  1.4916 -0.7261
 4334SOL    HW224465   3.177   3.567  15.639 -0.9071  0.2452 -0.3470
 4335SOL     OW24466   1.500   3.895   2.589  0.1499 -0.2519  0.1490
 4335SOL    HW124467   1.426   3.913   2.646  1.0119  1.1324  0.8327
 4335SOL    HW224468   1.467   3.937   2.510  0.0532  0.6292  0.6699
 4336SOL     OW24469   1.556   3.338   1.660  0.1588  0.3235 -0.3223
 4336SOL    HW124470   1.463   3.354   1.673  0.3635  1.0545  0.1821
 4336SOL    HW224471   1.588   3.424   1.635  1.9947 -0.1599  0.3894
 4337SOL     OW24472   3.515   3.878   3.077 -0.0549 -0.2601  0.3934
 4337SOL    HW124473   3.464   3.958   3.090 -0.3595 -0.6592  1.6381
 4337SOL    HW224474   3.592   3.888   3.133  0.6718 -1.1350 -0.4590
 4338SOL     OW24475   3.211   1.114   1.014  0.0362  0.2576  0.4896
 4338SOL    HW124476   3.192   1.143   0.925  1.9234 -1.5720 -0.4977
 4338SOL    HW224477   3.277   1.176   1.046  0.0112 -0.0110  1.0573
 4339SOL     OW24478   3.285   0.534   0.695 -0.2130  0.3862  0.7989
 4339SOL    HW124479   3.357   0.494   0.744  0.8069 -0.0226 -1.0536
 4339SOL    HW224480   3.340   0.595   0.646 -1.5707 -0.5621 -1.9053
 4340SOL     OW24481   4.446   4.201   7.557 -0.7087 -0.0698  0.5001
 4340SOL    HW124482   4.489   4.121   7.589 -1.2155 -0.8260 -0.7178
 4340SOL    HW224483   4.449   4.256   7.635 -1.0660 -0.6763  0.9497
 4341SOL     OW24484   0.685   2.425   7.651 -0.0305 -0.1414  0.3266
 4341SOL    HW124485   0.650   2.442   7.738  1.0478 -0.0605  0.7441
 4341SOL    HW224486   0.647   2.337   7.646 -2.9995  1.2132 -1.0282
 4342SOL     OW24487   1.282   1.403   4.198 -0.1454  0.0870  0.2958
 4342SOL    HW124488   1.368   1.437   4.175  0.7824 -0.7025  2.6095
 4342SOL    HW224489   1.251   1.457   4.271  0.7504 -0.2105  0.8931
 4343SOL     OW24490   0.219   1.034   3.612  0.3042 -0.3683  0.3419
 4343SOL    HW124491   0.172   1.057   3.532  0.9404  1.0865  0.3972
 4343SOL    HW224492   0.169   1.087   3.673  2.5719  0.2969  1.6380
 4344SOL     OW24493   3.162   1.479   3.872  0.2965  0.6612  0.5653
 4344SOL    HW124494   3.082   1.485   3.923 -0.0250 -0.9394  0.2528
 4344SOL    HW224495   3.180   1.386   3.886  0.4406  0.5020 -0.7386
 4345SOL     OW24496   0.569   3.209   6.756 -0.0037  0.3826  0.0078
 4345SOL    HW124497   0.489   3.183   6.802  0.5216 -1.5306 -0.1682
 4345SOL    HW224498   0.542   3.246   6.672 -0.1726  2.1381  0.8315
 4346SOL     OW24499   4.451   3.160  16.460 -0.0384  0.2295 -0.5900
 4346SOL    HW124500   4.516   3.181  16.393 -0.1333 -1.5713 -1.2184
 4346SOL    HW224501   4.439   3.067  16.443  1.2508 -0.0148 -0.1267
 4347SOL     OW24502   4.213   3.715   2.540  0.6711  0.2548 -0.1792
 4347SOL    HW124503   4.264   3.766   2.477 -0.4108  1.4302 -0.1198
 4347SOL    HW224504   4.162   3.662   2.479  2.1216  1.2850 -2.2748
 4348SOL     OW24505   3.962   1.899   0.524  0.7258  0.0147 -0.1287
 4348SOL    HW124506   3.889   1.866   0.471  1.4519  0.8481 -1.6471
 4348SOL    HW224507   4.005   1.817   0.551 -2.4068 -0.9870  1.8655
 4349SOL     OW24508   2.736   1.280  15.538  0.8591 -0.3571 -0.3284
 4349SOL    HW124509   2.755   1.316  15.624  0.8200 -2.1384  0.4143
 4349SOL    HW224510   2.659   1.330  15.512  0.3734  0.7117  3.1982
 4350SOL     OW24511   4.694   2.563  10.816 -0.2079  0.3744 -0.2596
 4350SOL    HW124512   4.663   2.491  10.871  0.7427 -0.2549 -0.5642
 4350SOL    HW224513   4.627   2.568  10.748  2.2386  0.5061 -2.6496
 4351SOL     OW24514   0.240   3.883   9.866  0.2787  0.0597  0.3836
 4351SOL    HW124515   0.176   3.830   9.819  1.0079 -1.2902  0.8981
 4351SOL    HW224516   0.322   3.846   9.834  0.0401  1.7381 -2.2241
 4352SOL     OW24517   4.131   2.166  13.948  0.6302  0.4009  0.6918
 4352SOL    HW124518   4.207   2.149  13.892  1.6098  1.0256  1.8385
 4352SOL    HW224519   4.120   2.260  13.934 -0.6805 -0.0914 -1.4306
 4353SOL     OW24520   1.488   0.412  15.644 -0.3864 -0.0703  0.1584
 4353SOL    HW124521   1.580   0.441  15.638 -0.3592 -0.4509 -1.3701
 4353SOL    HW224522   1.452   0.441  15.560  2.5016 -0.0035 -1.0539
 4354SOL     OW24523   0.347   4.329   5.483 -0.0170 -0.3249 -0.6208
 4354SOL    HW124524   0.315   4.343   5.573 -0.3192  1.2820 -0.9951
 4354SOL    HW224525   0.399   4.407   5.465 -1.2156  0.3990 -0.9576
 4355SOL     OW24526   0.382   3.607   7.020  0.3023 -0.2530  0.0476
 4355SOL    HW124527   0.434   3.620   6.941 -0.3107  1.3181 -0.1092
 4355SOL    HW224528   0.409   3.687   7.066  0.6919  0.5156 -1.5232
 4356SOL     OW24529   2.031   2.618   6.406  0.7326  0.3940  0.4514
 4356SOL    HW124530   2.103   2.563   6.374 -0.0031  1.0039 -2.3108
 4356SOL    HW224531   1.969   2.606   6.333  1.2864 -1.1871  0.2493
 4357SOL     OW24532   4.178   3.088   9.463 -0.1448  0.2341  0.2795
 4357SOL    HW124533   4.100   3.143   9.454  1.3545  2.2770 -0.2795
 4357SOL    HW224534   4.227   3.110   9.383  1.1416 -1.0963  0.7101
 4358SOL     OW24535   4.692   2.259   4.390  0.1435  1.0546  0.3202
 4358SOL    HW124536   4.687   2.351   4.414 -1.8531  0.8921  0.5148
 4358SOL    HW224537   4.659   2.221   4.471 -0.1208  0.6832  0.0447
 4359SOL     OW24538   2.666   4.462   5.472 -0.4247  0.0388 -0.0492
 4359SOL    HW124539   2.669   4.375   5.432 -0.6015  0.1337 -0.2705
 4359SOL    HW224540   2.585   4.496   5.435 -0.7793 -0.2359  0.4768
 4360SOL     OW24541   3.223   1.156  15.413 -0.2390  0.1073 -0.0988
 4360SOL    HW124542   3.309   1.129  15.382 -1.0113  0.7340 -2.8037
 4360SOL    HW224543   3.191   1.072  15.445 -0.1981 -0.0301 -0.4148
 4361SOL     OW24544   4.540   3.552   7.130  0.7388 -0.0088 -0.2709
 4361SOL    HW124545   4.573   3.505   7.206  1.8097 -1.5098 -1.6584
 4361SOL    HW224546   4.461   3.502   7.112  0.7703  0.0248 -0.5085
 4362SOL     OW24547   2.575   1.821   3.884  0.0560 -0.1161  0.2078
 4362SOL    HW124548   2.654   1.825   3.831 -0.1250 -2.0007 -0.2245
 4362SOL    HW224549   2.502   1.824   3.822  1.7616 -0.6353 -1.8260
 4363SOL     OW24550   1.574   3.911   7.240 -0.0968 -0.1754 -0.2837
 4363SOL    HW124551   1.635   3.982   7.222 -0.0800  0.0040  0.4511
 4363SOL    HW224552   1.637   3.845   7.267 -0.6014 -0.7410 -0.4811
 4364SOL     OW24553   0.673   1.391  15.288 -0.1026  0.4527  0.4246
 4364SOL    HW124554   0.681   1.315  15.346  0.3705 -0.9328 -1.4385
 4364SOL    HW224555   0.762   1.421  15.269  0.6318 -1.1393  1.3408
 4365SOL     OW24556   1.712   4.039   7.529  0.2425 -0.0278 -0.7585
 4365SOL    HW124557   1.637   4.021   7.585 -1.8091  2.1387 -2.7990
 4365SOL    HW224558   1.776   3.999   7.588 -0.7496 -0.6683 -0.1230
 4366SOL     OW24559   2.592   2.353  14.119  0.2037  0.0266  0.4922
 4366SOL    HW124560   2.628   2.287  14.178 -1.5363  0.3820  1.9725
 4366SOL    HW224561   2.505   2.315  14.111  0.0476  0.1729  1.4629
 4367SOL     OW24562   1.213   3.650  16.272 -0.1489 -0.3439 -0.1134
 4367SOL    HW124563   1.209   3.597  16.192 -1.3352 -2.4613  1.3434
 4367SOL    HW224564   1.237   3.571  16.321 -2.7935 -0.6133  0.7461
 4368SOL     OW24565   4.024   2.001   2.659 -0.2465 -0.4249 -0.5048
 4368SOL    HW124566   3.950   2.038   2.612 -2.0529 -1.5394  1.4782
 4368SOL    HW224567   3.976   1.961   2.732  1.4134 -1.9007 -0.2159
 4369SOL     OW24568   1.971   1.562   1.604 -0.0748 -0.1477 -0.2362
 4369SOL    HW124569   2.060   1.526   1.610  0.8714  1.7375 -2.8289
 4369SOL    HW224570   1.990   1.637   1.547  1.9082 -0.0571  0.5451
 4370SOL     OW24571   3.547   0.458   8.869 -0.2700 -0.0859  0.0261
 4370SOL    HW124572   3.581   0.548   8.864 -1.1009  0.1531 -1.4611
 4370SOL    HW224573   3.576   0.415   8.788  0.2692 -0.6468  0.5210
 4371SOL     OW24574   4.312   3.585  15.724 -0.1322 -0.5183 -0.0729
 4371SOL    HW124575   4.311   3.678  15.699  0.6314  0.0953  2.1747
 4371SOL    HW224576   4.386   3.588  15.784 -0.1961 -0.0925 -0.0131
 4372SOL     OW24577   3.199   3.892   9.588  0.0260 -0.5928 -0.3719
 4372SOL    HW124578   3.116   3.862   9.549 -0.3854 -1.5731  1.2964
 4372SOL    HW224579   3.177   3.894   9.681  1.0891  3.0739 -0.1741
 4373SOL     OW24580   1.570   4.509   2.348 -0.0575 -0.5658  0.0295
 4373SOL    HW124581   1.592   4.570   2.418  1.9632  1.2770 -2.2145
 4373SOL    HW224582   1.661   4.493   2.326  0.6015  1.7935  1.0701
 4374SOL     OW24583   3.039   4.508  11.829  0.2931  0.3603 -0.7331
 4374SOL    HW124584   3.032   4.463  11.745  0.1062 -0.9466 -0.0293
 4374SOL    HW224585   2.993   4.592  11.829 -1.6109 -0.6793 -1.3385
 4375SOL     OW24586   2.280   1.754   6.687 -0.0740  0.0428  0.7831
 4375SOL    HW124587   2.358   1.725   6.733 -0.1138  0.2136  0.9557
 4375SOL    HW224588   2.300   1.707   6.606  0.9157 -1.5343  1.9482
 4376SOL     OW24589   1.384   4.531   7.170  0.4801 -1.2377  0.2282
 4376SOL    HW124590   1.349   4.617   7.194 -1.1317 -2.4169  2.0458
 4376SOL    HW224591   1.476   4.557   7.184 -0.0952 -0.7183  2.9968
 4377SOL     OW24592   3.045   1.705   8.470 -0.3349  0.7411 -0.3392
 4377SOL    HW124593   2.970   1.665   8.426  1.4525 -0.8767 -1.8964
 4377SOL    HW224594   3.003   1.733   8.551  0.9991 -0.1862  0.6582
 4378SOL     OW24595   1.533   4.032  17.260  0.1323  0.1865 -0.4017
 4378SOL    HW124596   1.502   4.037  17.170  1.4644 -0.3002 -0.8837
 4378SOL    HW224597   1.525   3.937  17.275  0.3148 -0.0071 -1.5444
 4379SOL     OW24598   1.052   2.955  16.351 -0.5681  0.7963  0.0411
 4379SOL    HW124599   1.071   2.904  16.429 -1.2886  1.4913  0.6677
 4379SOL    HW224600   0.982   2.912  16.302  1.9784 -0.6396 -2.3524
 4380SOL     OW24601   2.837   3.125   7.262  0.1827 -0.1371 -0.4751
 4380SOL    HW124602   2.873   3.157   7.344 -1.2545  3.2526 -1.1744
 4380SOL    HW224603   2.895   3.176   7.206 -2.6168  1.2579 -2.1163
 4381SOL     OW24604   4.110   2.150   5.595 -0.3439 -0.3112 -0.3719
 4381SOL    HW124605   4.179   2.138   5.660 -0.5638  0.0653 -0.0712
 4381SOL    HW224606   4.159   2.162   5.513 -1.9066 -0.2793 -1.3110
 4382SOL     OW24607   0.735   1.980   5.832 -0.1266 -0.0912  0.2224
 4382SOL    HW124608   0.695   1.924   5.899 -1.8329  1.1509  0.2481
 4382SOL    HW224609   0.725   1.925   5.755 -1.5724 -1.6967  1.5535
 4383SOL     OW24610   3.199   4.288   5.697 -0.0395 -0.1199 -0.1162
 4383SOL    HW124611   3.105   4.269   5.699  0.0639 -0.3961  1.9748
 4383SOL    HW224612   3.220   4.290   5.791  0.8458 -1.1095 -0.2952
 4384SOL     OW24613   4.122   1.354  10.918 -0.2692  0.2699 -0.9172
 4384SOL    HW124614   4.091   1.425  10.862  1.8351  1.7281 -0.2413
 4384SOL    HW224615   4.104   1.283  10.856  0.4187  0.1089 -0.9321
 4385SOL     OW24616   1.903   1.370   5.975 -0.0297 -0.4498  0.0839
 4385SOL    HW124617   1.963   1.347   6.045 -0.5412 -2.4555 -0.1514
 4385SOL    HW224618   1.903   1.465   5.987  1.1795 -0.5123  0.5828
 4386SOL     OW24619   1.172   4.071   7.400 -0.4824 -0.6764 -0.1701
 4386SOL    HW124620   1.087   4.104   7.370  0.4950  0.7212 -1.3626
 4386SOL    HW224621   1.213   4.149   7.436  1.3844 -0.9306 -1.7308
 4387SOL     OW24622   2.552   1.101   5.700  0.1232  0.2120  0.0336
 4387SOL    HW124623   2.628   1.061   5.658 -1.3465 -1.3837 -1.0872
 4387SOL    HW224624   2.561   1.194   5.679  3.1266  0.2749  1.6742
 4388SOL     OW24625   4.520   2.316   3.640 -0.1775 -0.4166  0.3801
 4388SOL    HW124626   4.561   2.369   3.572 -3.2810 -1.7633 -2.5342
 4388SOL    HW224627   4.599   2.275   3.674 -0.6788  0.1083  2.1938
 4389SOL     OW24628   1.003   4.107   7.751 -0.1081  0.5387  0.7413
 4389SOL    HW124629   1.005   4.038   7.685  0.0908 -0.5894  1.9301
 4389SOL    HW224630   0.939   4.066   7.810 -0.5884  2.7423  1.7838
 4390SOL     OW24631   2.940   1.379   0.365 -0.3910 -0.1334  0.1893
 4390SOL    HW124632   2.998   1.396   0.439 -2.7899  0.0045  2.0349
 4390SOL    HW224633   2.862   1.344   0.407 -1.8880  1.7838 -0.9729
 4391SOL     OW24634   4.377   4.368   5.674  0.0226  0.1569  0.1541
 4391SOL    HW124635   4.404   4.287   5.630  0.9745  1.5475 -1.8048
 4391SOL    HW224636   4.410   4.372   5.764 -2.1456 -1.4587  1.0102
 4392SOL     OW24637   3.888   4.393   1.064 -0.0816  0.0095  0.5497
 4392SOL    HW124638   3.803   4.361   1.095 -1.2574  0.2556 -2.4262
 4392SOL    HW224639   3.944   4.346   1.126  0.0086 -1.0697 -0.3602
 4393SOL     OW24640   4.710   3.672  13.846  0.4265  0.3632 -0.0977
 4393SOL    HW124641   4.678   3.715  13.767  1.1833  1.3744  0.1512
 4393SOL    HW224642   4.631   3.651  13.897  0.2325  1.0447 -0.1269
 4394SOL     OW24643   2.680   1.062   2.682  0.3402  0.4248  0.0201
 4394SOL    HW124644   2.638   0.999   2.741  0.2215  1.1673  0.7303
 4394SOL    HW224645   2.769   1.027   2.671  0.3138 -0.9305  4.1254
 4395SOL     OW24646   0.443   0.342   6.365  0.4390 -0.7383  0.0994
 4395SOL    HW124647   0.359   0.354   6.320  0.5515  0.2594  0.1585
 4395SOL    HW224648   0.486   0.420   6.331  2.3390 -2.2745 -1.0883
 4396SOL     OW24649   1.425   3.091   5.025 -0.1114 -0.1747 -0.8280
 4396SOL    HW124650   1.502   3.092   4.968 -0.3289  1.3026 -1.0794
 4396SOL    HW224651   1.400   2.999   5.014  0.7741 -0.3790 -1.1419
 4397SOL     OW24652   2.490   4.180   4.593  0.2346  0.2082  0.5564
 4397SOL    HW124653   2.469   4.271   4.611 -0.7719  0.4374 -1.7094
 4397SOL    HW224654   2.493   4.180   4.497 -2.6780  1.1593  0.4640
 4398SOL     OW24655   0.610   2.377  15.101  0.5864  0.5437  0.9458
 4398SOL    HW124656   0.598   2.291  15.141 -0.3228  0.2091 -0.0471
 4398SOL    HW224657   0.704   2.391  15.114  1.0609 -0.0264 -1.7013
 4399SOL     OW24658   1.739   0.733  16.537  0.1859 -0.0820  0.3275
 4399SOL    HW124659   1.665   0.672  16.535 -0.8988  1.2700 -0.2267
 4399SOL    HW224660   1.727   0.782  16.455 -1.2642  0.3096  0.7772
 4400SOL     OW24661   3.209   4.442  12.005  0.0237 -0.0478 -0.1266
 4400SOL    HW124662   3.154   4.464  11.929  0.3116  1.8524  0.1951
 4400SOL    HW224663   3.277   4.510  12.004  0.8379 -0.8666  0.3241
 4401SOL     OW24664   3.862   1.626   3.982 -0.1993 -0.2690 -0.0764
 4401SOL    HW124665   3.814   1.603   4.062 -0.8877  1.3311 -0.0427
 4401SOL    HW224666   3.846   1.720   3.988  0.3312 -0.1777 -0.0081
 4402SOL     OW24667   0.993   1.980  15.898  0.3962  0.4927  0.0612
 4402SOL    HW124668   1.042   1.998  15.818  2.7224 -0.1046  1.3432
 4402SOL    HW224669   0.945   1.900  15.876  0.2391  0.6520 -0.1693
 4403SOL     OW24670   0.536   2.735   4.064 -0.2510 -0.3343 -0.3496
 4403SOL    HW124671   0.597   2.665   4.041 -0.3474 -0.1307 -1.2085
 4403SOL    HW224672   0.598   2.809   4.063  0.7046 -1.1204  1.1009
 4404SOL     OW24673   0.486   1.193  14.028  0.2420  0.0402  0.1091
 4404SOL    HW124674   0.558   1.196  14.092  0.6569 -1.1356 -0.3144
 4404SOL    HW224675   0.436   1.267  14.063  1.6769  2.1403 -2.2521
 4405SOL     OW24676   1.423   2.790   0.156 -0.1181 -0.8367  0.5968
 4405SOL    HW124677   1.430   2.851   0.229  2.6905 -1.4403  0.8336
 4405SOL    HW224678   1.507   2.748   0.177 -0.0227 -2.3856 -2.7224
 4406SOL     OW24679   0.048   2.893   5.686 -0.2392  0.0508  0.2101
 4406SOL    HW124680   4.723   2.965   5.727  0.1436 -0.1238  0.9871
 4406SOL    HW224681   0.050   2.834   5.762 -0.1223  0.7868  0.7772
 4407SOL     OW24682   4.320   0.631  10.213 -0.3726  0.3741  0.3133
 4407SOL    HW124683   4.250   0.612  10.275 -1.4310  1.0400 -0.6714
 4407SOL    HW224684   4.324   0.549  10.165 -0.2488  0.8463 -0.4939
 4408SOL     OW24685   2.053   3.391   6.928  0.0379 -0.5185 -0.0614
 4408SOL    HW124686   1.967   3.412   6.966 -0.7332 -1.3908 -1.2916
 4408SOL    HW224687   2.079   3.468   6.878 -1.6189 -0.3319 -0.6417
 4409SOL     OW24688   4.423   4.314   3.234  0.5156 -0.2606  0.8013
 4409SOL    HW124689   4.397   4.354   3.151 -0.4905 -0.3260  1.0897
 4409SOL    HW224690   4.348   4.342   3.285 -1.0901 -2.7718 -0.1851
 4410SOL     OW24691   3.613   0.853   0.210  0.3534 -0.3300 -0.3956
 4410SOL    HW124692   3.660   0.936   0.207 -0.6823  0.3190  1.6870
 4410SOL    HW224693   3.679   0.791   0.241  0.5894  0.1977  0.1381
 4411SOL     OW24694   0.138   3.685   9.687 -0.3027 -0.5642  0.3806
 4411SOL    HW124695   0.077   3.646   9.749 -1.7667  0.3344 -0.4933
 4411SOL    HW224696   0.144   3.619   9.617 -3.8698  0.7180 -1.1390
 4412SOL     OW24697   0.805   1.281   8.449  0.1302  0.4857 -0.5854
 4412SOL    HW124698   0.859   1.303   8.525 -0.1857 -0.1443 -0.1671
 4412SOL    HW224699   0.762   1.198   8.470 -0.3354  0.7510 -0.4828
 4413SOL     OW24700   1.621   3.371   7.881  0.6614  0.4513 -0.5143
 4413SOL    HW124701   1.627   3.391   7.975  3.1986  0.2822 -0.6267
 4413SOL    HW224702   1.586   3.282   7.885 -2.1715  1.4845 -2.8156
 4414SOL     OW24703   1.700   1.561   3.808 -0.2117 -0.4478  0.4969
 4414SOL    HW124704   1.756   1.608   3.869 -2.2530  1.0543  1.1928
 4414SOL    HW224705   1.615   1.587   3.842 -0.9124 -0.4428 -1.2514
 4415SOL     OW24706   2.169   0.953   3.140 -0.0953  0.0772  0.6295
 4415SOL    HW124707   2.179   0.883   3.076  0.1288  0.4406  0.2648
 4415SOL    HW224708   2.091   0.998   3.108 -0.4116 -0.0166  1.2645
 4416SOL     OW24709   0.401   4.048   8.484 -0.0743  0.5346  0.2404
 4416SOL    HW124710   0.420   4.139   8.506  0.6810  0.1982  0.9683
 4416SOL    HW224711   0.329   4.029   8.544 -0.2041  0.7710  0.1589
 4417SOL     OW24712   2.702   0.184  16.762  0.4033  0.5373 -0.2209
 4417SOL    HW124713   2.722   0.138  16.843  2.5272 -0.1529 -1.1504
 4417SOL    HW224714   2.666   0.269  16.790 -0.3537  1.3107 -3.5080
 4418SOL     OW24715   1.603   3.073   7.058  0.3105 -0.1857 -0.0763
 4418SOL    HW124716   1.582   3.143   7.120 -2.0832  0.5178 -1.6828
 4418SOL    HW224717   1.530   3.079   6.996 -0.3314  0.1751  0.7246
 4419SOL     OW24718   0.101   2.537   3.883  0.4615 -0.1345 -0.0219
 4419SOL    HW124719   0.115   2.464   3.823  0.8849  1.2040 -1.5521
 4419SOL    HW224720   0.187   2.549   3.925  0.9267  0.1580 -1.0656
 4420SOL     OW24721   2.028   1.112   6.561 -0.5018  0.1605  0.4537
 4420SOL    HW124722   1.957   1.049   6.577  0.3609 -0.5880  1.3257
 4420SOL    HW224723   2.106   1.064   6.589 -0.0048 -0.9156 -2.7456
 4421SOL     OW24724   3.593   4.524  10.816  0.0018 -0.3889 -0.1428
 4421SOL    HW124725   3.688   4.513  10.804  0.1590  1.1752 -0.3701
 4421SOL    HW224726   3.570   4.461  10.884 -1.2239  0.6682  0.4280
 4422SOL     OW24727   1.530   0.199  10.290 -0.0708  0.2594 -0.5006
 4422SOL    HW124728   1.588   0.138  10.245 -0.9494 -1.1842  0.3608
 4422SOL    HW224729   1.561   0.177  10.377  0.2033 -0.9219 -0.9069
 4423SOL     OW24730   4.686   3.631  12.068  0.4839 -0.5481  0.2597
 4423SOL    HW124731   4.605   3.582  12.081  0.7261 -1.6987 -2.5243
 4423SOL    HW224732   4.645   3.712  12.037 -1.2647 -0.9985  1.4810
 4424SOL     OW24733   1.360   4.376   3.638  0.0458 -0.1356 -0.2469
 4424SOL    HW124734   1.395   4.465   3.647 -0.0645 -0.3362  2.2576
 4424SOL    HW224735   1.433   4.334   3.592  1.0095 -2.0651  3.0524
 4425SOL     OW24736   0.994   2.097  15.174 -0.1394  0.8328 -0.3853
 4425SOL    HW124737   0.970   2.084  15.082  0.6534  0.7854 -0.5887
 4425SOL    HW224738   1.040   2.181  15.173 -0.3173  0.9305 -0.3508
 4426SOL     OW24739   3.161   4.704  10.487  0.2782 -0.1525 -0.7753
 4426SOL    HW124740   3.199   4.654  10.559  1.0487 -1.2558 -1.9463
 4426SOL    HW224741   3.069   4.707  10.516  0.4007 -2.3283 -0.1634
 4427SOL     OW24742   1.323   3.004   5.521 -0.7659 -0.4678  0.0179
 4427SOL    HW124743   1.269   2.927   5.502 -1.7784  0.3466 -0.3829
 4427SOL    HW224744   1.282   3.067   5.462  1.2552 -0.2322 -1.1316
 4428SOL     OW24745   0.327   1.973   3.602 -0.1025  0.7852 -0.2520
 4428SOL    HW124746   0.389   1.953   3.532  1.3121 -0.5247  1.3677
 4428SOL    HW224747   0.239   1.973   3.565 -0.8761  2.2757  1.5936
 4429SOL     OW24748   3.576   2.547   6.416 -0.5088 -0.9711  0.6490
 4429SOL    HW124749   3.626   2.476   6.455 -2.1696 -1.7850  1.3102
 4429SOL    HW224750   3.518   2.575   6.487 -0.6530 -0.0090  0.1455
 4430SOL     OW24751   1.595   0.400   7.288 -0.3245  0.2969 -0.0585
 4430SOL    HW124752   1.687   0.392   7.262 -0.0241  0.1568  1.0706
 4430SOL    HW224753   1.600   0.469   7.355 -0.0708  1.0452 -0.8444
 4431SOL     OW24754   0.889   4.142   2.123  0.3027 -0.2111  0.2661
 4431SOL    HW124755   0.960   4.204   2.112  0.5565 -0.7082 -0.8067
 4431SOL    HW224756   0.819   4.187   2.076  0.9214  1.0605  0.5609
 4432SOL     OW24757   4.491   3.957  11.041 -0.3446 -0.2602  0.5103
 4432SOL    HW124758   4.559   3.999  11.092 -0.6736  0.6854  0.1829
 4432SOL    HW224759   4.443   4.034  11.008  1.5408  0.8389  0.3550
 4433SOL     OW24760   3.668   2.797   2.776  0.0196  0.2364 -0.0673
 4433SOL    HW124761   3.579   2.810   2.744 -0.2015 -1.5103 -0.1851
 4433SOL    HW224762   3.718   2.857   2.721  1.1958 -0.3318  0.3809
 4434SOL     OW24763   3.232   4.140   7.518  0.1844 -0.4927 -0.1459
 4434SOL    HW124764   3.232   4.174   7.608  0.7832  1.5314 -0.9013
 4434SOL    HW224765   3.326   4.125   7.508  0.7888  2.7242  0.5813
 4435SOL     OW24766   3.392   3.723   6.961  0.0215  0.4499  0.7390
 4435SOL    HW124767   3.337   3.801   6.954  0.0620  0.5949  1.9263
 4435SOL    HW224768   3.436   3.732   6.876  0.5909 -0.5648  0.9203
 4436SOL     OW24769   1.770   2.894   4.995  0.9744  0.1911  0.4328
 4436SOL    HW124770   1.742   2.803   5.004 -0.9550  0.6371 -1.2137
 4436SOL    HW224771   1.740   2.915   4.907  1.0953  1.3719  0.6693
 4437SOL     OW24772   3.562   1.845   5.231  0.3483  0.7160  0.0163
 4437SOL    HW124773   3.581   1.921   5.176  0.2655  1.5213  1.1072
 4437SOL    HW224774   3.579   1.776   5.167 -3.1731  0.3664 -0.5640
 4438SOL     OW24775   3.647   0.372   9.120 -0.0991  0.1233  0.0206
 4438SOL    HW124776   3.625   0.434   9.050  0.2774  0.3219  0.0760
 4438SOL    HW224777   3.582   0.400   9.184 -1.9688 -0.9187 -1.3898
 4439SOL     OW24778   0.901   4.120   8.486  0.1587  0.5093  0.1540
 4439SOL    HW124779   0.840   4.055   8.521 -0.6358  1.4720  0.5927
 4439SOL    HW224780   0.853   4.203   8.495 -0.6341  0.1989 -1.1786
 4440SOL     OW24781   4.512   2.155   7.860  0.0105 -0.2687  0.1878
 4440SOL    HW124782   4.498   2.235   7.910  2.3344  0.2796 -0.0088
 4440SOL    HW224783   4.592   2.121   7.899 -0.5683 -0.0139  1.5925
 4441SOL     OW24784   4.135   4.290   8.484  0.5897 -0.3780 -0.3596
 4441SOL    HW124785   4.113   4.277   8.392 -3.1210 -2.3370  0.8165
 4441SOL    HW224786   4.210   4.232   8.497 -0.2450 -1.1662  0.8571
 4442SOL     OW24787   1.204   1.801   5.875 -0.3787 -0.2266  0.1339
 4442SOL    HW124788   1.135   1.743   5.844  0.2405  0.0182 -1.7485
 4442SOL    HW224789   1.155   1.877   5.906  0.6316 -0.4427  2.3008
 4443SOL     OW24790   4.193   4.358   3.378 -0.3504 -0.4466 -0.2392
 4443SOL    HW124791   4.164   4.304   3.452 -2.4195  0.0882 -0.6696
 4443SOL    HW224792   4.126   4.341   3.312 -0.7616  2.1583 -0.4909
 4444SOL     OW24793   3.612   1.422  17.319  0.2590  0.7507  0.2593
 4444SOL    HW124794   3.587   1.335  17.352 -1.7563  0.7066 -1.3610
 4444SOL    HW224795   3.634   1.398  17.228 -3.0821 -1.8378  0.0987
 4445SOL     OW24796   3.257   0.317   2.709 -0.0833  0.1214 -0.0392
 4445SOL    HW124797   3.267   0.338   2.802  0.2538 -0.3094  0.0215
 4445SOL    HW224798   3.348   0.306   2.682  0.3849  0.8002  1.2543
 4446SOL     OW24799   0.050   3.213   8.219 -0.3536  0.3912  0.2056
 4446SOL    HW124800   4.701   3.180   8.167  0.3434 -2.8777  1.2849
 4446SOL    HW224801   0.057   3.306   8.196 -0.0260 -0.2081 -2.0870
 4447SOL     OW24802   1.583   2.338  13.916  0.0427  0.2779 -0.5584
 4447SOL    HW124803   1.551   2.257  13.956 -0.8279  1.1987  0.6241
 4447SOL    HW224804   1.641   2.371  13.985 -1.1064  1.1688  0.0029
 4448SOL     OW24805   0.314   0.758   3.280 -0.0342  0.1393 -0.2201
 4448SOL    HW124806   0.355   0.685   3.325 -0.3974 -0.0351 -0.1749
 4448SOL    HW224807   0.347   0.736   3.194  0.8744  0.5638  0.0138
 4449SOL     OW24808   0.484   0.484   8.618  0.4267 -0.0075 -0.7338
 4449SOL    HW124809   0.490   0.464   8.711 -0.4667 -0.0925 -0.6954
 4449SOL    HW224810   0.568   0.529   8.610  0.2196  0.5090 -0.0278
 4450SOL     OW24811   0.376   4.564  14.308  0.7738  0.2953  0.1954
 4450SOL    HW124812   0.289   4.575  14.346  0.4071  0.3624 -0.6716
 4450SOL    HW224813   0.443   4.580  14.375 -0.1764 -0.4244  1.3100
 4451SOL     OW24814   3.425   2.464   3.184  0.0795  0.1023 -0.0383
 4451SOL    HW124815   3.461   2.512   3.110 -0.6743  1.4513  0.4859
 4451SOL    HW224816   3.339   2.439   3.151 -0.4020  0.1710  1.1636
 4452SOL     OW24817   2.989   1.000   6.195 -0.1034  0.8888 -0.0592
 4452SOL    HW124818   2.977   1.018   6.102 -2.6476 -0.1104  0.0779
 4452SOL    HW224819   2.940   1.070   6.238  0.5961  0.3362  1.6327
 4453SOL     OW24820   3.604   0.333  14.813  0.6484 -0.1208 -0.2995
 4453SOL    HW124821   3.565   0.387  14.881 -2.4475 -0.7572 -1.5974
 4453SOL    HW224822   3.600   0.243  14.845  1.9898 -0.3235 -0.6925
 4454SOL     OW24823   3.103   4.020   4.053 -0.3411  0.1015 -0.6215
 4454SOL    HW124824   3.019   4.066   4.046 -0.8107 -0.6249  0.3185
 4454SOL    HW224825   3.167   4.092   4.051  0.0825 -0.2716 -0.1876
 4455SOL     OW24826   0.050   1.766   9.808 -0.5819 -0.8513  0.0526
 4455SOL    HW124827   4.688   1.728   9.818 -2.5052  2.9755 -2.3834
 4455SOL    HW224828   0.073   1.738   9.719 -0.2960  2.2126 -0.8299
 4456SOL     OW24829   3.873   1.574   6.836  0.0247 -0.0301  0.0212
 4456SOL    HW124830   3.926   1.499   6.810  0.6829 -0.1264  1.5975
 4456SOL    HW224831   3.840   1.578   6.747 -0.1215 -0.3508  0.0611
 4457SOL     OW24832   1.098   4.601   7.074 -0.2060  0.2591  0.2593
 4457SOL    HW124833   1.153   4.522   7.082  0.9817  0.8344 -2.0924
 4457SOL    HW224834   1.149   4.679   7.094 -0.4206  0.6810 -0.8749
 4458SOL     OW24835   0.644   2.899   6.158  0.1759  0.2867 -0.6029
 4458SOL    HW124836   0.586   2.863   6.226  1.9106 -0.0044  0.7236
 4458SOL    HW224837   0.732   2.865   6.174  0.3098  1.6562  1.6673
 4459SOL     OW24838   3.975   0.811   7.420  0.1015 -0.3628 -0.0733
 4459SOL    HW124839   3.910   0.747   7.449  0.2723 -0.1053  0.9021
 4459SOL    HW224840   4.054   0.759   7.431  0.2940  0.2849  1.6299
 4460SOL     OW24841   4.215   3.090   6.573 -0.1707 -0.4945  0.2158
 4460SOL    HW124842   4.248   3.079   6.484 -0.3835 -0.2738  0.1116
 4460SOL    HW224843   4.302   3.114   6.605 -0.8419  0.5402  1.2497
 4461SOL     OW24844   0.678   4.438   8.436  0.1820 -0.1173  0.0158
 4461SOL    HW124845   0.606   4.460   8.377  1.3673  2.7697 -0.3801
 4461SOL    HW224846   0.743   4.499   8.402 -0.2885 -0.6277 -1.7756
 4462SOL     OW24847   2.277   2.771  11.583  0.0748  0.2876 -0.0870
 4462SOL    HW124848   2.191   2.730  11.597  0.5825 -0.1578  1.7578
 4462SOL    HW224849   2.286   2.733  11.495 -0.5594 -1.3640  0.5558
 4463SOL     OW24850   1.317   0.814   5.735 -0.0015  0.0826  0.1207
 4463SOL    HW124851   1.273   0.778   5.812 -0.7297  1.5035  0.3548
 4463SOL    HW224852   1.363   0.733   5.713 -1.7557 -1.1270  0.8419
 4464SOL     OW24853   0.252   4.546   1.521 -0.6608  0.3469  0.2388
 4464SOL    HW124854   0.221   4.603   1.451 -1.9934 -0.7079 -0.0260
 4464SOL    HW224855   0.298   4.615   1.568  1.7034 -0.7228 -0.4984
 4465SOL     OW24856   1.956   3.744   1.156  0.2239 -0.1487 -0.1828
 4465SOL    HW124857   2.022   3.812   1.142  0.1782  0.1192  0.9259
 4465SOL    HW224858   1.891   3.796   1.203 -0.1506  0.0930 -0.9637
 4466SOL     OW24859   4.333   2.182   4.428  0.2036 -0.1406  0.2255
 4466SOL    HW124860   4.369   2.270   4.441  0.4163  0.1412 -2.3247
 4466SOL    HW224861   4.390   2.136   4.367 -0.3425  2.5812 -2.3257
 4467SOL     OW24862   0.406   0.201   0.965  0.0239  0.0397  0.1762
 4467SOL    HW124863   0.450   0.177   0.884 -1.6640  0.2422 -0.7939
 4467SOL    HW224864   0.356   0.275   0.929 -1.9531 -0.2474  2.3217
 4468SOL     OW24865   2.045   2.559   4.548 -0.3277 -0.7727  0.0629
 4468SOL    HW124866   2.080   2.509   4.621  0.6164  0.2013  0.2755
 4468SOL    HW224867   1.960   2.516   4.556 -0.8169  0.2336  0.3033
 4469SOL     OW24868   1.890   3.774  14.731 -0.1623 -0.0859  0.3608
 4469SOL    HW124869   1.970   3.818  14.704 -1.2869  1.7701  0.0324
 4469SOL    HW224870   1.834   3.814  14.665 -1.3355 -0.3293  1.1924
 4470SOL     OW24871   1.054   1.548   4.728  0.2241 -0.0051 -0.5474
 4470SOL    HW124872   1.024   1.602   4.656 -0.8629 -0.4383 -0.4211
 4470SOL    HW224873   1.110   1.613   4.771  2.7284 -0.1051 -3.6473
 4471SOL     OW24874   1.496   3.077   9.138 -0.4008 -0.1428  0.4448
 4471SOL    HW124875   1.498   3.091   9.043  1.6226 -0.3436  0.4472
 4471SOL    HW224876   1.545   3.145   9.184 -1.5211  1.1693 -0.3124
 4472SOL     OW24877   2.861   3.825   6.307 -0.0360 -0.7870  0.0746
 4472SOL    HW124878   2.772   3.848   6.334  0.6153  1.7053  0.0339
 4472SOL    HW224879   2.845   3.764   6.234 -3.6662  1.3657 -0.9474
 4473SOL     OW24880   3.221   3.941  13.722  0.2505  0.3150 -0.1708
 4473SOL    HW124881   3.303   3.989  13.712  0.8884 -1.0282 -1.3522
 4473SOL    HW224882   3.203   3.927  13.629  0.4803  1.9523 -0.4645
 4474SOL     OW24883   0.855   3.645   7.113 -0.3141  0.1110 -0.0419
 4474SOL    HW124884   0.916   3.573   7.130  0.0793  0.3944 -0.2382
 4474SOL    HW224885   0.835   3.645   7.020 -0.7604  2.2743  0.0565
 4475SOL     OW24886   3.662   0.972  13.687 -0.4121 -0.3612  0.2530
 4475SOL    HW124887   3.586   0.980  13.630  0.6116 -1.1355 -1.1946
 4475SOL    HW224888   3.711   0.906  13.639  0.3310 -0.5294  1.2398
 4476SOL     OW24889   4.177   0.270   5.845 -0.5475 -0.0908 -0.1970
 4476SOL    HW124890   4.195   0.176   5.846 -2.2735 -0.4254 -2.0444
 4476SOL    HW224891   4.261   0.311   5.826 -0.9809 -0.3838 -2.7959
 4477SOL     OW24892   1.580   0.238   9.425 -0.2473 -0.2291  0.1358
 4477SOL    HW124893   1.628   0.185   9.488  1.3488 -2.1178 -2.6857
 4477SOL    HW224894   1.632   0.319   9.421 -0.9023  0.1723 -0.2485
 4478SOL     OW24895   4.627   3.089   5.769 -0.1079  0.1014 -0.1125
 4478SOL    HW124896   4.592   3.175   5.792 -2.2899 -0.1898 -2.3392
 4478SOL    HW224897   4.543   3.044   5.756  1.7043 -2.9692 -1.0482
 4479SOL     OW24898   0.462   1.733  16.974  0.1417  0.3599 -0.2354
 4479SOL    HW124899   0.503   1.673  17.036  0.8341 -0.1326 -1.1521
 4479SOL    HW224900   0.421   1.789  17.039  4.0347  2.1876  0.6420
 4480SOL     OW24901   3.812   4.141   7.732  0.6028 -0.7041 -0.0414
 4480SOL    HW124902   3.717   4.129   7.725  0.5989  0.0157 -1.4290
 4480SOL    HW224903   3.825   4.235   7.743 -2.8838 -0.4109  1.4979
 4481SOL     OW24904   3.752   0.045   5.925 -0.0334  0.4345 -0.1109
 4481SOL    HW124905   3.754   4.722   5.842 -0.6014  0.3273 -0.0594
 4481SOL    HW224906   3.788   0.131   5.903 -1.3389  1.3117  1.2281
 4482SOL     OW24907   3.236   4.241   8.039  0.5223  0.4769 -0.1128
 4482SOL    HW124908   3.251   4.281   8.124  1.9115  2.0908 -1.1041
 4482SOL    HW224909   3.174   4.308   8.009 -0.5534  0.3465  1.7882
 4483SOL     OW24910   2.327   4.148  11.727 -0.2858 -0.3280  0.4232
 4483SOL    HW124911   2.265   4.202  11.679  0.5733 -0.4681 -0.8274
 4483SOL    HW224912   2.372   4.217  11.776  1.7565 -0.9439 -0.6105
 4484SOL     OW24913   3.577   2.615  13.047 -0.4025 -0.0558 -0.2668
 4484SOL    HW124914   3.575   2.692  12.990  1.1130 -1.0335 -1.6503
 4484SOL    HW224915   3.649   2.644  13.102 -2.1152 -1.2846  2.6269
 4485SOL     OW24916   0.715   1.033   3.835 -0.1139  0.5303  0.7134
 4485SOL    HW124917   0.632   0.987   3.848 -1.0904  1.6352 -1.6195
 4485SOL    HW224918   0.684   1.124   3.838 -1.0122  0.3438 -2.8936
 4486SOL     OW24919   1.497   0.306  13.730  0.1300  0.5636  0.3272
 4486SOL    HW124920   1.485   0.378  13.792 -3.2356  0.7375 -0.5499
 4486SOL    HW224921   1.551   0.353  13.666 -0.4947  1.3065  0.3464
 4487SOL     OW24922   4.680   0.542   6.463 -0.1905 -0.4130  0.0106
 4487SOL    HW124923   4.614   0.606   6.491 -0.5947 -0.7679 -0.1276
 4487SOL    HW224924   0.026   0.580   6.516  0.6976 -1.1239 -0.6700
 4488SOL     OW24925   1.671   3.653   8.339 -0.4522  0.2780  0.5447
 4488SOL    HW124926   1.649   3.697   8.422 -2.1106 -2.6594  1.6290
 4488SOL    HW224927   1.642   3.564   8.355 -0.7041  0.4963  1.2930
 4489SOL     OW24928   0.575   2.060   5.172  0.5084 -0.1743 -0.1975
 4489SOL    HW124929   0.559   2.075   5.079 -1.6486 -2.4201 -0.1776
 4489SOL    HW224930   0.494   2.104   5.196  0.5431 -2.2399  3.5679
 4490SOL     OW24931   4.534   0.527   7.974  0.5632  0.1049  0.0365
 4490SOL    HW124932   4.476   0.451   7.973 -0.0070  0.5319  0.8846
 4490SOL    HW224933   4.593   0.494   7.906  0.4075  0.9311 -0.4970
 4491SOL     OW24934   4.131   4.500   5.658 -0.2855  0.3925 -0.3227
 4491SOL    HW124935   4.222   4.470   5.658 -0.6283 -0.6401  1.2110
 4491SOL    HW224936   4.102   4.485   5.747  0.4375  0.9790  0.0092
 4492SOL     OW24937   2.897   0.601   2.213  0.6681 -0.1586 -0.4316
 4492SOL    HW124938   2.943   0.679   2.244  0.0339 -0.3237  0.9210
 4492SOL    HW224939   2.922   0.542   2.284  0.0190  0.1042  0.0220
 4493SOL     OW24940   4.261   3.684   8.486 -0.2184 -0.1603 -0.4014
 4493SOL    HW124941   4.242   3.729   8.404  0.2025 -1.4026 -1.1897
 4493SOL    HW224942   4.239   3.747   8.554  0.0419  1.1709 -1.5574
 4494SOL     OW24943   0.052   2.009   2.849  0.0490  0.0694 -0.1531
 4494SOL    HW124944   0.059   1.924   2.891  0.3383  0.7010  1.0773
 4494SOL    HW224945   0.140   2.038   2.873 -0.2827  0.5933  0.4076
 4495SOL     OW24946   3.743   1.549  14.054  0.0514 -0.6139 -0.0103
 4495SOL    HW124947   3.726   1.459  14.024 -0.5563 -0.9274  1.2672
 4495SOL    HW224948   3.722   1.591  13.971  0.5092 -0.6695 -0.1556
 4496SOL     OW24949   0.041   1.532   1.473 -0.7722  0.4140  0.5522
 4496SOL    HW124950   0.110   1.471   1.445 -1.7074  1.0206 -3.0834
 4496SOL    HW224951   4.716   1.482   1.538 -0.7230 -0.3811 -0.0238
 4497SOL     OW24952   0.581   0.441  12.614 -0.9594  0.1185 -0.4186
 4497SOL    HW124953   0.575   0.359  12.565  2.1897 -1.0734  1.2058
 4497SOL    HW224954   0.567   0.403  12.701  0.5250 -1.7076 -0.9633
 4498SOL     OW24955   0.455   1.198   2.284  0.2082 -0.3280 -0.0580
 4498SOL    HW124956   0.498   1.115   2.305 -0.6740 -0.8686 -0.3867
 4498SOL    HW224957   0.511   1.243   2.221 -0.3114 -0.2305 -0.4453
 4499SOL     OW24958   3.580   2.474   7.317  0.4677 -0.1173 -0.1920
 4499SOL    HW124959   3.509   2.409   7.315  0.4127 -0.0918  0.9802
 4499SOL    HW224960   3.602   2.473   7.410  0.2308  0.5659 -0.1360
 4500SOL     OW24961   4.535   0.455   0.975 -0.3270  0.0891 -0.3350
 4500SOL    HW124962   4.507   0.405   1.052  0.6383 -1.1616 -0.7785
 4500SOL    HW224963   4.459   0.432   0.921  0.6155 -1.0901 -1.1550
 4501SOL     OW24964   2.370   3.414  12.572  0.2643  0.0245  0.7078
 4501SOL    HW124965   2.333   3.326  12.562  0.5124  0.2709 -2.3401
 4501SOL    HW224966   2.300   3.455  12.520 -0.0667 -0.2941  0.8985
 4502SOL     OW24967   1.647   1.402   7.042  0.0735  0.4051  0.4997
 4502SOL    HW124968   1.568   1.443   7.007  0.8335  2.0029  0.6459
 4502SOL    HW224969   1.712   1.420   6.973 -0.3981  0.9356  0.1883
 4503SOL     OW24970   0.624   3.771   9.995  0.1285  0.4359 -0.3125
 4503SOL    HW124971   0.587   3.683   9.989  1.3901 -0.0902 -0.3765
 4503SOL    HW224972   0.585   3.810   9.916 -0.2325 -1.6097 -1.1333
 4504SOL     OW24973   4.216   1.655   0.247 -0.2148  0.3723 -0.3029
 4504SOL    HW124974   4.169   1.738   0.247 -2.4328 -0.8850  1.4808
 4504SOL    HW224975   4.300   1.691   0.274 -0.3703  2.5620 -2.8033
 4505SOL     OW24976   2.680   0.616   6.695 -0.2143  0.0273 -0.3443
 4505SOL    HW124977   2.738   0.543   6.674 -0.8785  0.2190 -2.8344
 4505SOL    HW224978   2.610   0.581   6.750  1.5950 -1.9461  0.7190
 4506SOL     OW24979   0.860   2.419   5.591 -0.7429 -0.0873  0.6185
 4506SOL    HW124980   0.804   2.345   5.568  0.5957 -0.5604 -1.1052
 4506SOL    HW224981   0.911   2.375   5.659 -1.6879 -0.8404  0.8404
 4507SOL     OW24982   2.262   3.639   3.281  0.1398  0.0044  0.4863
 4507SOL    HW124983   2.307   3.716   3.245 -0.3010  0.4476  0.8797
 4507SOL    HW224984   2.201   3.616   3.212 -0.2584  0.3043  0.7369
 4508SOL     OW24985   1.495   2.479   6.763 -1.1163  0.2284 -0.1532
 4508SOL    HW124986   1.554   2.456   6.691  0.0521 -0.9881  1.1853
 4508SOL    HW224987   1.505   2.408   6.826 -2.6698  2.0337  2.1164
 4509SOL     OW24988   1.142   4.458  13.434  1.4479 -0.1250 -0.2579
 4509SOL    HW124989   1.154   4.393  13.366 -2.7393 -0.8487 -0.3458
 4509SOL    HW224990   1.111   4.408  13.511  0.7680  1.6311  0.6216
 4510SOL     OW24991   0.141   3.265   5.126 -0.4590 -0.3212 -0.3424
 4510SOL    HW124992   0.228   3.226   5.127 -0.6721 -0.7911 -0.0600
 4510SOL    HW224993   0.171   3.349   5.159  1.0054 -0.6278 -0.9154
 4511SOL     OW24994   0.620   0.553   5.839  0.2835  0.8415 -0.8820
 4511SOL    HW124995   0.569   0.563   5.759  0.8858  0.1763 -1.3523
 4511SOL    HW224996   0.680   0.483   5.813 -1.3222 -0.6852 -0.4405
 4512SOL     OW24997   0.669   1.933   9.129 -0.7047  0.1827  0.5208
 4512SOL    HW124998   0.720   1.854   9.111  0.6337  0.7640  1.7110
 4512SOL    HW224999   0.611   1.901   9.197 -0.6218 -1.2447 -0.0879
 4513SOL     OW25000   3.784   2.768   9.081 -0.4304 -0.6639  0.6669
 4513SOL    HW125001   3.853   2.715   9.040 -1.6954 -1.7050 -0.1214
 4513SOL    HW225002   3.826   2.780   9.166  3.5369  0.3130 -1.4431
 4514SOL     OW25003   2.288   0.045   5.352 -0.0034 -0.5405  0.8780
 4514SOL    HW125004   2.199   0.064   5.383 -0.2830 -1.8398  0.8661
 4514SOL    HW225005   2.299   0.134   5.316 -1.0879 -0.7540  0.0040
 4515SOL     OW25006   2.205   2.519  11.138  0.3152  0.5649  0.2094
 4515SOL    HW125007   2.227   2.604  11.177  0.0856  1.0139 -0.6350
 4515SOL    HW225008   2.282   2.470  11.167 -0.7656 -3.2656 -3.3100
 4516SOL     OW25009   3.887   3.655  10.099 -0.5440 -0.4069  0.1700
 4516SOL    HW125010   3.844   3.708  10.166  1.5287  0.1717  1.0478
 4516SOL    HW225011   3.901   3.727  10.038 -0.6477  1.0003  1.8211
 4517SOL     OW25012   1.882   2.888   9.541  0.0742 -0.3140 -0.3035
 4517SOL    HW125013   1.924   2.929   9.465  0.2679  0.0817  0.0186
 4517SOL    HW225014   1.791   2.875   9.514  0.2494  0.1253 -1.0862
 4518SOL     OW25015   4.661   4.465  12.665 -0.5086 -0.1884  0.6407
 4518SOL    HW125016   0.015   4.487  12.715 -0.6429 -0.1154  0.8198
 4518SOL    HW225017   4.635   4.549  12.628  0.9761  1.5784  3.5595
 4519SOL     OW25018   1.243   3.835   7.489 -0.1743 -0.1533  0.4652
 4519SOL    HW125019   1.326   3.835   7.535  0.6650  0.4725 -1.0475
 4519SOL    HW225020   1.242   3.927   7.462 -1.0585 -1.7278 -5.0026
 4520SOL     OW25021   4.029   4.270   1.264  0.7640 -0.7851 -0.0071
 4520SOL    HW125022   4.015   4.294   1.355 -0.2653 -1.5177  0.0351
 4520SOL    HW225023   4.122   4.288   1.255  0.5596  0.2762  0.0539
 4521SOL     OW25024   2.811   3.076   6.346 -0.5081 -0.1971 -0.1988
 4521SOL    HW125025   2.725   3.034   6.340 -0.5952 -0.2659  1.4086
 4521SOL    HW225026   2.784   3.166   6.333 -0.6524  0.0124  1.5369
 4522SOL     OW25027   0.443   1.977  17.665 -0.0439  0.3682 -0.2512
 4522SOL    HW125028   0.466   1.925   0.041  3.5262  0.3817 -1.3084
 4522SOL    HW225029   0.464   2.066  17.694 -0.1500  1.1351 -2.5046
 4523SOL     OW25030   0.753   0.701   4.571  0.6351 -0.2035 -0.3450
 4523SOL    HW125031   0.797   0.730   4.491  1.1064 -0.5204 -0.2008
 4523SOL    HW225032   0.727   0.785   4.608 -0.1361 -1.4259  1.8640
 4524SOL     OW25033   2.118   2.021   3.925 -0.2281 -0.1855  0.1273
 4524SOL    HW125034   2.207   1.994   3.948 -0.2595 -1.4419 -1.1955
 4524SOL    HW225035   2.070   1.955   3.975  0.5198 -0.4703  0.4649
 4525SOL     OW25036   0.796   3.226  11.606  0.2498  0.3048  0.2125
 4525SOL    HW125037   0.887   3.227  11.579 -0.1459  1.5306 -1.0830
 4525SOL    HW225038   0.754   3.174  11.537  0.0418  2.5768 -1.3834
 4526SOL     OW25039   1.796   2.175  10.532  0.2834 -0.0709  0.1499
 4526SOL    HW125040   1.801   2.080  10.526  1.5552 -0.1346  2.1495
 4526SOL    HW225041   1.889   2.195  10.523  0.4612  0.0439  2.1366
 4527SOL     OW25042   3.432   0.724   0.553  0.5043  0.4107 -0.4709
 4527SOL    HW125043   3.421   0.766   0.467  2.0817 -2.5497 -2.1079
 4527SOL    HW225044   3.431   0.792   0.621  1.8309  3.1331 -3.1853
 4528SOL     OW25045   0.374   2.313   6.522  0.6013 -0.3138  0.5440
 4528SOL    HW125046   0.408   2.372   6.455 -0.0083 -0.4225  0.1516
 4528SOL    HW225047   0.449   2.253   6.523  1.7724  1.1240  0.3218
 4529SOL     OW25048   0.975   1.402  11.806  0.1240  0.0009 -0.3068
 4529SOL    HW125049   0.980   1.437  11.894 -0.0308 -1.1448  0.1640
 4529SOL    HW225050   1.064   1.377  11.781  0.8056  1.9772  0.2076
 4530SOL     OW25051   0.355   4.106   0.989 -0.2160  0.0892  0.1366
 4530SOL    HW125052   0.332   4.034   1.048  0.3649 -1.2154 -1.2204
 4530SOL    HW225053   0.295   4.175   1.017 -0.5957  0.4952 -1.6581
 4531SOL     OW25054   1.043   3.940   9.244  0.2754  0.3440  0.3272
 4531SOL    HW125055   1.054   3.956   9.151  2.4947 -0.8035  0.3985
 4531SOL    HW225056   1.077   3.854   9.269  0.3344 -0.0275 -1.0332
 4532SOL     OW25057   3.690   4.373   6.213  0.3051  0.3275  0.1881
 4532SOL    HW125058   3.621   4.322   6.256 -0.4579  0.8268 -0.4443
 4532SOL    HW225059   3.653   4.459   6.193 -2.4583 -0.8638  0.1572
 4533SOL     OW25060   0.240   4.121   7.981  0.2264 -0.6055  0.0254
 4533SOL    HW125061   0.322   4.095   7.938  1.5790  1.4902  1.3573
 4533SOL    HW225062   0.229   4.050   8.044  0.4369 -0.6260  0.0410
 4534SOL     OW25063   0.571   0.167   4.099  0.3977  0.5301 -0.1384
 4534SOL    HW125064   0.536   0.231   4.161  0.4146  2.8660 -2.5011
 4534SOL    HW225065   0.604   0.229   4.033 -0.9094  0.0652 -1.2376
 4535SOL     OW25066   0.233   4.492   2.989 -0.4900  0.2875  0.5805
 4535SOL    HW125067   0.297   4.437   2.943  0.0789  0.0115  1.7013
 4535SOL    HW225068   0.275   4.542   3.059 -2.3799 -0.9898  2.6228
 4536SOL     OW25069   0.030   0.548  13.988  0.3702 -0.7019  0.4314
 4536SOL    HW125070   0.070   0.465  14.014 -0.7637 -1.5826 -0.6186
 4536SOL    HW225071   4.687   0.551  14.055  1.5633 -2.1603  1.6886
 4537SOL     OW25072   2.719   4.717   4.450  0.9417  0.7077 -0.4361
 4537SOL    HW125073   2.655   4.693   4.517 -0.1738  1.0245 -1.3848
 4537SOL    HW225074   2.678   4.682   4.371  4.1743  0.8983 -2.1885
 4538SOL     OW25075   0.446   0.971   7.442  0.3506  0.6046 -0.0262
 4538SOL    HW125076   0.373   1.032   7.430  0.7603  1.1842  0.3747
 4538SOL    HW225077   0.445   0.928   7.357 -1.4243  0.0929  0.2547
 4539SOL     OW25078   3.240   0.123  10.114 -0.3938  0.1026  0.2082
 4539SOL    HW125079   3.206   0.119  10.024 -3.7688 -2.9203  1.6124
 4539SOL    HW225080   3.334   0.135  10.101 -0.1234 -1.3088  0.8284
 4540SOL     OW25081   3.153   0.342  17.282  0.0483  0.1703 -0.0660
 4540SOL    HW125082   3.216   0.296  17.226  0.8973  1.2784 -0.0249
 4540SOL    HW225083   3.121   0.401  17.215  2.8622  2.0839  0.2587
 4541SOL     OW25084   0.556   3.403  12.334  0.1058 -0.3656  0.7075
 4541SOL    HW125085   0.508   3.325  12.304  0.4867 -0.7243  1.0291
 4541SOL    HW225086   0.508   3.417  12.416 -1.4905  0.1082 -0.3048
 4542SOL     OW25087   4.583   1.665   5.801 -0.3344  0.1146 -0.1342
 4542SOL    HW125088   4.617   1.577   5.817  0.8206  0.4205 -0.9670
 4542SOL    HW225089   4.567   1.691   5.892  1.8559  1.4055 -0.1251
 4543SOL     OW25090   2.697   2.341   2.150 -0.1059  0.7985  0.2544
 4543SOL    HW125091   2.710   2.409   2.084 -2.7279  1.5240  0.4596
 4543SOL    HW225092   2.603   2.323   2.146  0.4129 -2.1900  1.4328
 4544SOL     OW25093   0.321   3.664   6.413 -0.0610 -0.1245 -0.0727
 4544SOL    HW125094   0.413   3.640   6.420 -0.2597 -0.6394  0.7893
 4544SOL    HW225095   0.313   3.683   6.506  2.5178  1.3388 -0.1461
 4545SOL     OW25096   0.023   4.059   3.378  0.5737 -0.5326  0.3221
 4545SOL    HW125097   0.101   4.106   3.350  0.8831 -0.0919  1.9223
 4545SOL    HW225098   4.694   4.137   3.396 -0.3112 -1.5683  2.1980
 4546SOL     OW25099   0.437   1.077  10.410  0.3819 -0.1270  0.2406
 4546SOL    HW125100   0.380   1.000  10.415 -0.8002  0.6695 -1.0701
 4546SOL    HW225101   0.520   1.039  10.439 -0.0814 -0.8877  0.5900
 4547SOL     OW25102   1.002   0.236   3.852 -0.3093 -0.3295 -0.1384
 4547SOL    HW125103   0.955   0.300   3.798  1.5369  1.1130 -0.0272
 4547SOL    HW225104   1.093   0.251   3.826 -0.1421 -0.3880  0.4142
 4548SOL     OW25105   3.011   3.424  11.790 -0.2195 -0.1660  0.0727
 4548SOL    HW125106   2.975   3.389  11.708 -0.8066  0.4687  0.0628
 4548SOL    HW225107   2.975   3.509  11.817  0.9199 -0.4172  2.3557
 4549SOL     OW25108   4.421   1.433   6.658  0.0815  0.1602 -0.2453
 4549SOL    HW125109   4.370   1.415   6.579  0.7725 -0.0449 -0.6376
 4549SOL    HW225110   4.465   1.348   6.661  0.2478  0.2046 -1.3883
 4550SOL     OW25111   3.696   4.041  11.710  0.0521 -0.4683  0.3114
 4550SOL    HW125112   3.725   4.055  11.620  1.4164 -1.5129  0.5785
 4550SOL    HW225113   3.666   4.130  11.728  0.2952  0.1454 -2.3284
 4551SOL     OW25114   1.240   2.660   8.474  0.3165 -0.7337 -0.5198
 4551SOL    HW125115   1.162   2.715   8.485 -0.4945 -2.4318  2.3793
 4551SOL    HW225116   1.274   2.687   8.389  0.7000  1.1563  0.2451
 4552SOL     OW25117   3.087   0.930   4.914 -0.1420  0.2018  0.4044
 4552SOL    HW125118   3.101   0.964   5.002 -1.0666  0.6971  0.3618
 4552SOL    HW225119   3.006   0.968   4.881 -1.1146 -2.5732 -0.3176
 4553SOL     OW25120   2.465   0.247   5.050  0.4207  0.1538  0.0039
 4553SOL    HW125121   2.525   0.234   4.977  1.6296  1.0532  0.8402
 4553SOL    HW225122   2.513   0.215   5.127 -0.8886 -2.5228 -0.2684
 4554SOL     OW25123   3.094   3.904   2.792  0.0072 -0.2418 -0.4781
 4554SOL    HW125124   3.041   3.978   2.762  0.1585  0.3611  0.7485
 4554SOL    HW225125   3.104   3.928   2.884  0.5946 -1.4081 -0.2353
 4555SOL     OW25126   0.782   4.670   2.865 -0.0572 -0.2379  0.0664
 4555SOL    HW125127   0.708   4.621   2.900 -0.6981  1.2698  0.8566
 4555SOL    HW225128   0.852   4.672   2.930 -0.4400  2.0314  0.4222
 4556SOL     OW25129   3.788   1.128  16.942  0.8205  0.0911 -0.6705
 4556SOL    HW125130   3.771   1.167  17.028 -1.5953 -0.6557 -0.7995
 4556SOL    HW225131   3.735   1.183  16.884  0.3233  0.5492  0.2144
 4557SOL     OW25132   2.521   2.664   4.781  0.0883 -0.0646 -0.2682
 4557SOL    HW125133   2.502   2.718   4.858  0.2228  0.3363 -0.5177
 4557SOL    HW225134   2.446   2.676   4.723  0.0300 -0.2726 -0.2353
 4558SOL     OW25135   0.864   3.832   2.597  0.5642  0.6364 -0.1137
 4558SOL    HW125136   0.905   3.752   2.565 -1.3708  0.1899 -1.5120
 4558SOL    HW225137   0.856   3.808   2.689  0.0916  2.3437  0.2857
 4559SOL     OW25138   3.664   3.052   5.892  0.0991 -0.0601 -0.4655
 4559SOL    HW125139   3.624   3.062   5.979 -0.2727 -1.0124 -0.5303
 4559SOL    HW225140   3.681   3.145   5.878  2.3489 -0.3587  0.1459
 4560SOL     OW25141   0.418   4.659  14.078  0.2472  0.2659  0.3073
 4560SOL    HW125142   0.451   4.586  14.026 -3.5776  1.7321 -4.1499
 4560SOL    HW225143   0.407   4.622  14.166  2.4646  0.1008  0.5084
 4561SOL     OW25144   0.743   3.674  11.325 -0.7122 -0.4429  0.0551
 4561SOL    HW125145   0.785   3.712  11.403 -0.7170  2.5217 -1.3759
 4561SOL    HW225146   0.775   3.740  11.264 -0.1010  0.8334  1.7235
 4562SOL     OW25147   0.176   4.535  12.804 -0.4333 -0.0060 -0.4139
 4562SOL    HW125148   0.259   4.542  12.852 -1.1223  0.6585  0.6754
 4562SOL    HW225149   0.115   4.577  12.865 -0.9409  0.7589 -1.4492
 4563SOL     OW25150   3.089   3.593   1.755 -0.5559  0.1897  0.7780
 4563SOL    HW125151   3.095   3.499   1.736  1.5790  0.6609 -0.8174
 4563SOL    HW225152   3.011   3.615   1.705 -0.0005  1.0374  0.2954
 4564SOL     OW25153   4.128   0.422   7.978 -0.3238 -0.2956 -0.2078
 4564SOL    HW125154   4.092   0.506   7.948 -2.1855 -0.7694  0.7216
 4564SOL    HW225155   4.068   0.389   8.045 -0.8473 -2.7181 -1.8973
 4565SOL     OW25156   4.449   1.635   5.579  0.0063 -0.5665 -0.1909
 4565SOL    HW125157   4.500   1.571   5.529 -0.3570 -1.4901  0.6054
 4565SOL    HW225158   4.506   1.636   5.656 -1.0360 -0.8333  0.5786
 4566SOL     OW25159   2.777   0.803   1.618 -0.3068  0.3449  0.6296
 4566SOL    HW125160   2.822   0.719   1.628  1.3311  1.0315 -0.9052
 4566SOL    HW225161   2.845   0.871   1.619 -0.3466  0.3657  1.9472
 4567SOL     OW25162   1.550   3.482   4.467  0.0321 -0.0645  0.7973
 4567SOL    HW125163   1.596   3.518   4.543  0.0067  0.0021  0.7818
 4567SOL    HW225164   1.613   3.417   4.436 -0.0841 -0.5626  1.5950
 4568SOL     OW25165   4.030   4.369   8.722  0.0580  0.0230  0.4785
 4568SOL    HW125166   4.001   4.451   8.682 -1.8633 -0.5443  0.7209
 4568SOL    HW225167   4.084   4.335   8.651  1.9228  0.9198  1.4512
 4569SOL     OW25168   1.744   3.390   4.933 -0.0063  0.2758  0.0163
 4569SOL    HW125169   1.696   3.404   5.015  1.6462  0.1030  1.0247
 4569SOL    HW225170   1.801   3.316   4.957 -1.4218 -0.5976  0.7421
 4570SOL     OW25171   4.028   0.878   8.663  0.1765 -0.5440  0.4998
 4570SOL    HW125172   4.096   0.885   8.596  0.0127  0.0371  0.3928
 4570SOL    HW225173   4.079   0.829   8.728  1.5691  1.2273  0.7426
 4571SOL     OW25174   2.194   2.920   8.571  1.1478 -0.5346  0.2273
 4571SOL    HW125175   2.186   2.978   8.496 -2.3012  0.8105  1.6560
 4571SOL    HW225176   2.287   2.897   8.569  0.7643 -2.0003 -0.9593
 4572SOL     OW25177   1.176   1.666   8.160 -0.1589  0.1216  0.3217
 4572SOL    HW125178   1.254   1.612   8.148 -1.3488 -1.6976  0.8368
 4572SOL    HW225179   1.111   1.616   8.111 -0.7960  1.4042 -0.1517
 4573SOL     OW25180   0.469   2.496   3.528  0.1495 -0.2467  0.0930
 4573SOL    HW125181   0.468   2.558   3.602 -1.9246 -0.3144  0.1218
 4573SOL    HW225182   0.379   2.464   3.521  0.0328  0.3716 -1.2630
 4574SOL     OW25183   0.893   1.390   5.465 -0.1077 -0.6467 -0.4093
 4574SOL    HW125184   0.970   1.437   5.495 -0.3980  0.2219 -1.0250
 4574SOL    HW225185   0.910   1.399   5.371  1.5071 -1.6847 -0.2252
 4575SOL     OW25186   2.713   2.731  11.054 -0.3568 -0.0743 -0.1820
 4575SOL    HW125187   2.779   2.756  11.119 -0.9636 -0.1774  0.4809
 4575SOL    HW225188   2.775   2.682  11.000  1.0521 -0.4190  1.7245
 4576SOL     OW25189   3.204   1.106  17.584 -0.1768 -0.4489  0.3328
 4576SOL    HW125190   3.131   1.067  17.537 -0.7161  0.1290  0.6889
 4576SOL    HW225191   3.173   1.092  17.674 -2.1208 -3.1589 -0.7587
 4577SOL     OW25192   3.463   3.785   6.657  0.3272  0.1616 -0.2105
 4577SOL    HW125193   3.542   3.822   6.696  1.0912 -1.4739 -0.2042
 4577SOL    HW225194   3.433   3.851   6.594  1.3902 -0.6289 -1.5277
 4578SOL     OW25195   2.883   4.231   6.197  0.4953  0.4045  0.8444
 4578SOL    HW125196   2.868   4.162   6.131 -0.0594  0.2940  1.0872
 4578SOL    HW225197   2.912   4.184   6.275  0.6816 -1.0234 -0.0686
 4579SOL     OW25198   3.909   0.357  15.331  0.2747 -0.1359  0.3961
 4579SOL    HW125199   3.828   0.327  15.289  1.3737  0.0127 -1.8020
 4579SOL    HW225200   3.875   0.404  15.407 -1.8492  0.0972 -0.6740
 4580SOL     OW25201   2.257   4.012   7.773  0.2230  0.0407 -0.3800
 4580SOL    HW125202   2.290   3.991   7.686  1.4780 -1.3343  0.4342
 4580SOL    HW225203   2.258   4.108   7.770  1.5451 -0.0017 -1.5282
 4581SOL     OW25204   3.219   3.294   9.379  0.0343  0.3663 -0.5660
 4581SOL    HW125205   3.162   3.369   9.395 -2.2517 -1.4317 -0.1724
 4581SOL    HW225206   3.286   3.307   9.446  0.8839 -0.4587 -1.2660
 4582SOL     OW25207   1.254   3.592   7.633  0.0383  0.2591 -0.1882
 4582SOL    HW125208   1.205   3.644   7.697 -2.2315 -1.2614 -0.7154
 4582SOL    HW225209   1.233   3.659   7.568 -3.0493  0.0248  0.5608
 4583SOL     OW25210   0.699   1.922  15.066  0.0039  0.2390  0.4652
 4583SOL    HW125211   0.739   1.952  14.984  1.1998 -1.2026  0.5197
 4583SOL    HW225212   0.722   1.829  15.072  0.5330  0.1058 -3.3390
 4584SOL     OW25213   3.850   1.266  11.130 -0.3135  0.4027  0.3752
 4584SOL    HW125214   3.866   1.204  11.201  0.2659  2.0750  1.7061
 4584SOL    HW225215   3.827   1.199  11.065  1.1198 -0.3104  0.5947
 4585SOL     OW25216   0.486   2.172  15.840  0.4143  0.3742  0.2434
 4585SOL    HW125217   0.468   2.127  15.923  2.2126  1.2438  1.0876
 4585SOL    HW225218   0.460   2.258  15.873 -0.8089  0.6021 -1.2842
 4586SOL     OW25219   0.502   4.609   5.812 -0.0589 -0.7127 -0.2225
 4586SOL    HW125220   0.484   4.600   5.719  0.9965 -4.9553  0.0039
 4586SOL    HW225221   0.415   4.608   5.852 -0.6734  0.0014 -1.5285
 4587SOL     OW25222   2.398   0.520   7.922 -0.1639  0.6291  0.0045
 4587SOL    HW125223   2.329   0.578   7.954 -0.7394 -0.3780  0.5585
 4587SOL    HW225224   2.341   0.465   7.868  0.5417 -0.4844  0.4082
 4588SOL     OW25225   3.906   1.398   3.144  0.2574 -0.3855  0.5031
 4588SOL    HW125226   3.984   1.428   3.098  0.1947 -0.1469  0.5482
 4588SOL    HW225227   3.915   1.304   3.128  0.6857 -0.3642  0.6193
 4589SOL     OW25228   4.484   3.273  11.084  0.0214 -0.4021  0.6243
 4589SOL    HW125229   4.462   3.266  11.176 -1.3127  2.1176  0.4918
 4589SOL    HW225230   4.416   3.336  11.059  0.1468 -1.0270 -1.3804
 4590SOL     OW25231   2.891   4.053   6.845 -0.0432  0.8301  0.1251
 4590SOL    HW125232   2.869   3.983   6.907 -0.0109 -0.4555 -1.3220
 4590SOL    HW225233   2.858   4.026   6.760 -1.7783 -1.9452  1.6873
 4591SOL     OW25234   3.077   0.661   3.358  0.7022 -0.1239  0.2618
 4591SOL    HW125235   3.008   0.698   3.413 -0.9499 -2.5285 -0.1558
 4591SOL    HW225236   3.100   0.589   3.418  0.0686 -0.2858  0.3123
 4592SOL     OW25237   0.280   2.477  15.099  0.2603  0.8207  0.8408
 4592SOL    HW125238   0.338   2.518  15.035  1.1954 -1.6253  0.1229
 4592SOL    HW225239   0.295   2.388  15.068  0.1668  1.0780  0.0606
 4593SOL     OW25240   1.053   0.126   2.376 -0.2263  0.2921  0.2868
 4593SOL    HW125241   1.021   0.092   2.460 -0.1790 -0.5646 -0.0423
 4593SOL    HW225242   1.147   0.109   2.377  0.2122  2.7616  0.8133
 4594SOL     OW25243   3.371   3.572   7.201  0.4315  0.4790  0.3257
 4594SOL    HW125244   3.454   3.528   7.220 -0.0626 -0.1472  1.0637
 4594SOL    HW225245   3.403   3.629   7.132  0.3965  0.6743  0.4689
 4595SOL     OW25246   2.858   4.110   7.159  0.1599  0.4537 -0.3390
 4595SOL    HW125247   2.875   4.018   7.140 -1.3424  0.0067  0.4584
 4595SOL    HW225248   2.768   4.115   7.125 -0.7500 -1.3136  1.7933
 4596SOL     OW25249   4.671   4.517   1.194 -0.1370 -0.0613  0.1191
 4596SOL    HW125250   0.028   4.545   1.154  0.3043 -0.0791  1.0064
 4596SOL    HW225251   4.673   4.421   1.188  0.6252  0.1612 -3.1764
 4597SOL     OW25252   0.091   2.705  16.410  0.6162  0.2224  0.6887
 4597SOL    HW125253   0.165   2.723  16.352  0.3047  0.2975  0.3173
 4597SOL    HW225254   0.095   2.782  16.468  0.5080 -0.2478  1.3276
 4598SOL     OW25255   3.959   1.290   4.069  0.9203  1.3487 -0.3237
 4598SOL    HW125256   3.949   1.299   4.164 -2.8628 -0.1256 -0.5972
 4598SOL    HW225257   4.008   1.371   4.055  1.0350  1.0307 -1.7648
 4599SOL     OW25258   3.828   3.853   6.244  0.7514 -0.4721  0.1665
 4599SOL    HW125259   3.846   3.915   6.174 -0.6063 -1.3004 -0.9148
 4599SOL    HW225260   3.909   3.801   6.246  0.5770 -0.7457  0.1033
 4600SOL     OW25261   3.846   2.782  10.674 -0.9042 -0.6042  0.0438
 4600SOL    HW125262   3.780   2.716  10.696 -1.0121  0.4530  2.8773
 4600SOL    HW225263   3.929   2.748  10.707 -0.4165  2.0071  1.5551
 4601SOL     OW25264   1.852   2.443   3.603 -0.0594 -0.1951 -0.2447
 4601SOL    HW125265   1.829   2.515   3.546  3.8097  0.0393 -1.5135
 4601SOL    HW225266   1.812   2.482   3.681 -2.6452  0.3158 -1.8423
 4602SOL     OW25267   2.866   3.275   7.876 -0.1556 -0.4256 -0.4506
 4602SOL    HW125268   2.905   3.307   7.957  1.0650  1.0098 -1.6124
 4602SOL    HW225269   2.947   3.265   7.826  0.4146 -2.3255  0.8335
 4603SOL     OW25270   1.787   4.176   6.314  0.3294 -0.0168  0.3060
 4603SOL    HW125271   1.716   4.114   6.335 -1.9979  2.2882 -0.7804
 4603SOL    HW225272   1.813   4.137   6.231  0.4732  0.4412  0.1400
 4604SOL     OW25273   3.539   3.412   9.044 -0.4677 -0.3812  0.0361
 4604SOL    HW125274   3.446   3.404   9.063 -0.3639 -2.1409 -0.1914
 4604SOL    HW225275   3.557   3.322   9.016  1.7526  0.3586 -0.9941
 4605SOL     OW25276   3.053   3.291  16.243  0.8751  0.2667  0.0294
 4605SOL    HW125277   3.028   3.278  16.152  1.1174 -1.4559  0.2044
 4605SOL    HW225278   2.987   3.234  16.285  2.3161 -0.5790  1.1503
 4606SOL     OW25279   2.515   2.084   1.588 -0.0625 -0.9604  0.0089
 4606SOL    HW125280   2.609   2.069   1.581 -0.0491 -0.2274 -1.4427
 4606SOL    HW225281   2.504   2.125   1.674 -2.9490 -1.0370 -0.3296
 4607SOL     OW25282   2.135   1.605   0.850  0.2939 -0.5591 -0.5516
 4607SOL    HW125283   2.094   1.520   0.831  1.2656 -1.3417  0.8324
 4607SOL    HW225284   2.068   1.668   0.825  1.6425  0.6417 -1.0959
 4608SOL     OW25285   0.866   3.120   5.543  0.5459 -0.2709 -0.3290
 4608SOL    HW125286   0.793   3.058   5.532  0.2310 -0.5093  3.2807
 4608SOL    HW225287   0.927   3.089   5.476  1.4062  1.3260 -0.2700
 4609SOL     OW25288   4.587   3.637   4.164  0.5332  0.1228  0.3141
 4609SOL    HW125289   4.619   3.558   4.120 -1.7452  0.2113 -1.5066
 4609SOL    HW225290   4.662   3.693   4.147  1.1745 -0.7699  0.1821
 4610SOL     OW25291   1.556   0.774   2.175  0.4316  0.6260 -0.3707
 4610SOL    HW125292   1.586   0.722   2.100 -0.4094  1.0049 -0.9730
 4610SOL    HW225293   1.632   0.831   2.185 -0.9117  2.2670  0.5123
 4611SOL     OW25294   0.287   3.615  13.299 -0.0678  0.0226  0.2211
 4611SOL    HW125295   0.274   3.521  13.312  0.5203 -0.0139  0.5724
 4611SOL    HW225296   0.307   3.643  13.388 -0.1076 -1.8676  0.8294
 4612SOL     OW25297   1.053   1.481  12.482  0.5194 -0.5020  0.2993
 4612SOL    HW125298   1.047   1.566  12.439 -0.9138  0.1512  1.7767
 4612SOL    HW225299   1.060   1.419  12.409 -0.2476  0.7037 -0.7887
 4613SOL     OW25300   4.547   2.131  16.040  0.0994  0.1750  0.3363
 4613SOL    HW125301   4.554   2.040  16.012 -1.9941  0.4237 -1.0266
 4613SOL    HW225302   4.566   2.176  15.958 -0.7904 -1.7258 -0.8967
 4614SOL     OW25303   1.135   3.900  16.223  0.3727 -0.0335  0.3324
 4614SOL    HW125304   1.148   3.900  16.128 -0.6088 -1.4897  0.2119
 4614SOL    HW225305   1.183   3.818  16.234  2.8183  1.4998  1.0539
 4615SOL     OW25306   2.434   0.730  13.111  0.1338  0.4565  0.2989
 4615SOL    HW125307   2.496   0.801  13.098 -1.1572  1.5547  0.0911
 4615SOL    HW225308   2.442   0.717  13.205  1.8729  1.0736  0.2325
 4616SOL     OW25309   2.510   1.088   7.995  0.0961  0.1220 -0.3842
 4616SOL    HW125310   2.509   1.158   7.929  1.7750 -0.7549 -1.3583
 4616SOL    HW225311   2.435   1.034   7.972 -1.6743  1.3998  2.5045
 4617SOL     OW25312   0.907   4.434   3.162  0.6497  0.0673  0.2316
 4617SOL    HW125313   0.960   4.509   3.133  0.8361 -0.6318 -1.2464
 4617SOL    HW225314   0.969   4.363   3.173  1.1662  0.4485 -0.1824
 4618SOL     OW25315   4.317   1.028   1.401  0.2087  0.5686  0.3263
 4618SOL    HW125316   4.247   1.051   1.340 -0.0603 -1.5084 -0.1252
 4618SOL    HW225317   4.391   1.052   1.346  1.3487 -1.6268  0.9135
 4619SOL     OW25318   3.427   4.292   5.512 -0.1852 -0.4683  0.5337
 4619SOL    HW125319   3.401   4.351   5.442  2.6157  0.0378 -0.0864
 4619SOL    HW225320   3.354   4.296   5.574 -0.9590  1.6141 -0.5113
 4620SOL     OW25321   0.551   1.216   4.054 -0.1325 -0.4005  0.0543
 4620SOL    HW125322   0.586   1.168   4.129 -0.0854  0.6591  0.7097
 4620SOL    HW225323   0.470   1.168   4.037 -0.9281  0.6905  0.7598
 4621SOL     OW25324   2.317   1.847   2.347 -0.3772  0.5211  0.1765
 4621SOL    HW125325   2.348   1.769   2.302 -0.5980 -0.2857  1.4170
 4621SOL    HW225326   2.300   1.815   2.436 -1.8401 -0.5587 -0.4868
 4622SOL     OW25327   2.669   0.085   2.027  0.1471 -0.1198  0.8533
 4622SOL    HW125328   2.624   0.138   2.092 -0.1273  0.9648 -0.2236
 4622SOL    HW225329   2.754   0.128   2.028 -0.8832  1.9144 -0.4314
 4623SOL     OW25330   3.065   4.424   7.830  0.5586  0.8785  0.2075
 4623SOL    HW125331   3.101   4.486   7.894 -0.6439  1.6099  0.1662
 4623SOL    HW225332   3.060   4.477   7.751  2.4206  1.6736  0.6180
 4624SOL     OW25333   2.247   3.267   5.164  0.1560 -0.8275  0.3075
 4624SOL    HW125334   2.310   3.195   5.170  0.3834 -0.5976  0.7019
 4624SOL    HW225335   2.166   3.219   5.146  2.5310 -4.3862 -0.7906
 4625SOL     OW25336   0.946   3.596  10.045 -0.2351 -0.2509  0.0639
 4625SOL    HW125337   0.952   3.502  10.034 -1.0660 -0.4769  1.6220
 4625SOL    HW225338   1.013   3.612   9.978 -0.1963  2.7498  0.7867
 4626SOL     OW25339   2.630   3.522   3.925 -0.1372  0.5740  0.1855
 4626SOL    HW125340   2.652   3.598   3.979 -0.4613  0.7545  0.0629
 4626SOL    HW225341   2.707   3.466   3.936  0.2294  0.5284 -2.6912
 4627SOL     OW25342   3.994   3.678   7.091 -0.0792 -0.1349  0.4226
 4627SOL    HW125343   3.932   3.727   7.146 -1.0482  1.0847 -1.7932
 4627SOL    HW225344   4.069   3.697   7.148  0.4565 -2.6747  0.5778
 4628SOL     OW25345   2.603   1.986   2.248 -0.5367  0.0721  1.1825
 4628SOL    HW125346   2.619   1.970   2.341  0.4105 -0.8850  0.8497
 4628SOL    HW225347   2.686   2.029   2.228 -0.4071 -0.6725  0.1172
 4629SOL     OW25348   0.180   4.082  10.799  0.0519 -0.0561 -0.0088
 4629SOL    HW125349   0.187   4.127  10.883  0.0556 -0.4379  0.1987
 4629SOL    HW225350   0.242   4.129  10.744 -0.5282 -0.8301 -1.3275
 4630SOL     OW25351   2.604   0.403   0.638  0.2924  0.8310 -0.6378
 4630SOL    HW125352   2.560   0.368   0.560  3.3759 -0.3297 -1.8880
 4630SOL    HW225353   2.535   0.399   0.704  1.1136 -2.0484  0.0385
 4631SOL     OW25354   0.750   3.106  11.328 -0.3557  0.2110 -0.2207
 4631SOL    HW125355   0.738   3.201  11.335 -0.0525  0.4469 -2.8313
 4631SOL    HW225356   0.753   3.099  11.232  3.2035  0.3925 -0.1383
 4632SOL     OW25357   2.236   3.837   3.746  0.1611  0.1385  0.2060
 4632SOL    HW125358   2.254   3.816   3.654  0.6763 -0.5048  0.4530
 4632SOL    HW225359   2.174   3.770   3.776  1.5778 -0.2675  2.1934
 4633SOL     OW25360   3.973   4.481   3.815  0.0436 -0.1066  0.6679
 4633SOL    HW125361   3.894   4.498   3.865 -1.4404 -2.5313 -0.8456
 4633SOL    HW225362   3.949   4.399   3.771 -0.1312 -1.2010  2.8225
 4634SOL     OW25363   0.409   2.078  16.084  0.1902 -0.0523 -0.6511
 4634SOL    HW125364   0.408   2.094  16.178 -1.9291  0.0070 -0.6817
 4634SOL    HW225365   0.320   2.092  16.051  0.3667 -0.3101 -1.2342
 4635SOL     OW25366   3.357   0.274  13.402 -0.1956  0.5642  0.1695
 4635SOL    HW125367   3.270   0.282  13.441  0.5753  2.5006  1.5320
 4635SOL    HW225368   3.386   0.189  13.434 -0.1590  0.4192 -0.2510
 4636SOL     OW25369   0.045   4.380   2.750  0.1732  0.3715 -0.3513
 4636SOL    HW125370   0.109   4.320   2.711  1.8138  0.7364  1.7913
 4636SOL    HW225371   0.081   4.466   2.731  0.8103  0.0427 -0.6741
 4637SOL     OW25372   4.691   0.585   5.227  0.3302 -0.1434  0.3282
 4637SOL    HW125373   4.645   0.652   5.176  0.8920  2.8633  3.7689
 4637SOL    HW225374   4.623   0.542   5.279 -0.0313 -0.1844 -0.1755
 4638SOL     OW25375   1.401   1.384   6.097  0.3380  0.5764  0.1912
 4638SOL    HW125376   1.430   1.450   6.160  0.1695  0.1663  0.7039
 4638SOL    HW225377   1.395   1.433   6.015 -1.1757  0.6131  0.3145
 4639SOL     OW25378   1.016   1.928   2.918  0.5029  0.0260  0.4468
 4639SOL    HW125379   1.022   1.913   2.824 -0.7221 -1.2978  0.5804
 4639SOL    HW225380   0.972   2.013   2.926  0.6554  0.1455  0.0263
 4640SOL     OW25381   2.436   3.309   3.301  0.5610 -0.0597 -0.0231
 4640SOL    HW125382   2.368   3.309   3.234 -1.2005 -0.0676  1.7894
 4640SOL    HW225383   2.513   3.271   3.258 -0.8270 -2.3212 -0.4912
 4641SOL     OW25384   0.129   4.164   4.888  0.6153  0.2034 -0.0219
 4641SOL    HW125385   0.130   4.117   4.971  0.0680  1.0699  0.4713
 4641SOL    HW225386   0.062   4.122   4.835  1.0590  0.2930 -0.6548
 4642SOL     OW25387   0.454   1.630   2.914 -0.4205 -0.6417  0.0730
 4642SOL    HW125388   0.480   1.720   2.934  1.2448 -1.1769  0.3165
 4642SOL    HW225389   0.502   1.584   2.983 -0.3603 -1.2043 -0.3423
 4643SOL     OW25390   4.043   1.528   1.823 -0.3066 -0.2592  0.0267
 4643SOL    HW125391   4.036   1.610   1.774  0.4049 -0.0309  0.3112
 4643SOL    HW225392   3.992   1.463   1.773  1.7742 -0.6100 -1.6729
 4644SOL     OW25393   2.386   0.638  12.780 -0.0343  0.0368 -0.0223
 4644SOL    HW125394   2.468   0.663  12.738  0.4627 -0.1759  0.8225
 4644SOL    HW225395   2.390   0.684  12.864 -0.1851  0.0298 -0.0108
 4645SOL     OW25396   1.393   4.625   4.076  0.1962  0.1172 -0.0206
 4645SOL    HW125397   1.321   4.580   4.121 -2.2258  3.6846 -0.2486
 4645SOL    HW225398   1.393   4.710   4.121  0.4676  0.0658  0.0741
 4646SOL     OW25399   2.688   1.837   7.172  0.5407  0.7047  0.5055
 4646SOL    HW125400   2.611   1.803   7.217 -1.1270 -1.3602 -3.9188
 4646SOL    HW225401   2.747   1.763   7.165  1.7104  2.0102 -3.3160
 4647SOL     OW25402   1.228   0.436   0.284  0.2301 -0.0829 -0.1265
 4647SOL    HW125403   1.207   0.515   0.334  0.6143  0.0246 -0.1313
 4647SOL    HW225404   1.323   0.428   0.296  0.3430  0.7076 -0.5016
 4648SOL     OW25405   2.417   2.509   9.306  0.0442  0.1513  0.1141
 4648SOL    HW125406   2.463   2.469   9.379  0.7813  3.7460  1.5979
 4648SOL    HW225407   2.331   2.491   9.344 -0.2422 -1.3413 -1.2616
 4649SOL     OW25408   0.088   4.028  10.390 -0.2996  0.5698 -0.3377
 4649SOL    HW125409   0.055   4.062  10.473  1.0602  0.0163  0.4332
 4649SOL    HW225410   0.016   3.984  10.345  0.7648 -0.4830 -1.0076
 4650SOL     OW25411   3.037   2.437   0.166  0.1846 -0.0296 -0.2267
 4650SOL    HW125412   3.035   2.497   0.240 -0.2678  1.7756 -1.6984
 4650SOL    HW225413   3.106   2.482   0.118  1.9739 -1.5519  0.9430
 4651SOL     OW25414   1.931   0.338  12.141 -0.1389 -0.1577 -0.2683
 4651SOL    HW125415   1.906   0.245  12.142  3.2353 -1.0548  0.1430
 4651SOL    HW225416   1.879   0.379  12.071 -0.3967 -1.5078 -0.8792
 4652SOL     OW25417   2.255   2.563   8.446  0.1541  0.0801 -0.1674
 4652SOL    HW125418   2.343   2.554   8.483  0.2426  1.4293 -0.0577
 4652SOL    HW225419   2.266   2.525   8.359 -0.0382 -0.5550  0.0797
 4653SOL     OW25420   0.348   3.784   4.971  0.0954 -0.6621  0.0410
 4653SOL    HW125421   0.416   3.742   5.025 -1.4418 -0.3142  2.2603
 4653SOL    HW225422   0.370   3.761   4.881  1.4612 -0.5153  0.3295
 4654SOL     OW25423   4.023   4.127   1.868  0.0486  0.0546 -0.2307
 4654SOL    HW125424   4.114   4.149   1.890  0.4839 -2.1907  0.2569
 4654SOL    HW225425   4.019   4.083   1.783 -0.5112  1.4993 -0.9401
 4655SOL     OW25426   2.522   4.053   5.502  0.2297 -0.0600 -0.2540
 4655SOL    HW125427   2.596   3.993   5.510 -1.0569 -1.5776  0.2749
 4655SOL    HW225428   2.453   3.989   5.520  0.1554 -0.1349 -0.8003
 4656SOL     OW25429   4.348   0.576  15.139  0.5453 -0.3305 -0.6932
 4656SOL    HW125430   4.346   0.591  15.045  1.7992  1.6141 -0.4176
 4656SOL    HW225431   4.258   0.553  15.159  0.4259  0.5321 -0.2586
 4657SOL     OW25432   0.240   1.132   2.466 -0.1250  0.4410 -0.1478
 4657SOL    HW125433   0.252   1.226   2.451  0.1205  0.1230 -1.8523
 4657SOL    HW225434   0.300   1.097   2.400  0.1420  2.3962 -0.9288
 4658SOL     OW25435   4.329   4.366   4.174  0.0814 -0.2196  0.2061
 4658SOL    HW125436   4.376   4.378   4.257  1.3302  0.1351 -0.5547
 4658SOL    HW225437   4.329   4.271   4.165 -1.1507 -0.0033 -2.0925
 4659SOL     OW25438   3.570   0.678   6.920  0.0835 -0.3984  0.5115
 4659SOL    HW125439   3.561   0.614   6.849  0.2955  1.5716 -1.2997
 4659SOL    HW225440   3.602   0.754   6.871 -0.3653 -0.1522  0.6040
 4660SOL     OW25441   4.463   3.537   8.377 -0.7918  0.2249  0.5512
 4660SOL    HW125442   4.383   3.584   8.401  1.4620  3.5840  1.4038
 4660SOL    HW225443   4.491   3.589   8.302 -1.0920  1.6402  1.4175
 4661SOL     OW25444   2.810   0.849   8.622 -0.2162 -0.1796 -0.0380
 4661SOL    HW125445   2.862   0.836   8.701 -3.2906  2.6648  2.4575
 4661SOL    HW225446   2.785   0.757   8.609 -2.3293  0.4952 -0.6620
 4662SOL     OW25447   3.655   0.887  10.805  0.1960 -0.0706 -0.1820
 4662SOL    HW125448   3.641   0.792  10.803  0.0095 -0.0700  1.1546
 4662SOL    HW225449   3.579   0.920  10.757 -0.2098 -0.3125  0.2850
 4663SOL     OW25450   4.454   0.700   9.428  0.1077  0.6147  0.5676
 4663SOL    HW125451   4.525   0.714   9.490  1.9690  3.1618 -2.1725
 4663SOL    HW225452   4.502   0.730   9.351  0.8019 -3.4816 -0.5836
 4664SOL     OW25453   4.290   2.929   5.219 -0.4251 -0.0013 -0.0028
 4664SOL    HW125454   4.232   3.000   5.247 -2.0675 -1.0257 -0.8522
 4664SOL    HW225455   4.361   2.977   5.176 -0.2948  0.9961  1.3186
 4665SOL     OW25456   2.439   3.881  11.000 -0.3676  0.0790  0.1586
 4665SOL    HW125457   2.395   3.874  10.915  0.9857 -0.7209 -0.4744
 4665SOL    HW225458   2.484   3.965  10.995 -3.5584  1.7436 -0.8460
 4666SOL     OW25459   0.883   1.142   6.821  0.1130  0.2508  0.5914
 4666SOL    HW125460   0.824   1.083   6.774  0.1252  0.9420 -0.2946
 4666SOL    HW225461   0.969   1.102   6.819 -1.0077 -2.0679 -1.2693
 4667SOL     OW25462   4.421   3.509   2.659  0.2617 -0.0414 -0.1212
 4667SOL    HW125463   4.381   3.588   2.622 -0.2028 -0.3769 -0.3237
 4667SOL    HW225464   4.394   3.445   2.594 -1.2857 -0.0937  0.5818
 4668SOL     OW25465   3.444   3.286   0.839  0.2145 -0.5473 -0.0779
 4668SOL    HW125466   3.367   3.244   0.803 -0.5291 -0.0611  0.9624
 4668SOL    HW225467   3.422   3.369   0.797 -0.0838 -0.4815  0.2126
 4669SOL     OW25468   1.357   2.061   6.145  0.1209 -0.3461 -0.3816
 4669SOL    HW125469   1.314   2.142   6.117 -1.2342 -0.8541  0.2309
 4669SOL    HW225470   1.393   2.019   6.067  0.2022  1.2072 -1.1838
 4670SOL     OW25471   2.955   2.862   8.068  0.3635  0.3765  0.1221
 4670SOL    HW125472   2.935   2.900   8.154  2.2422  3.1635 -0.6847
 4670SOL    HW225473   2.946   2.769   8.087 -1.4628  0.6389  0.5385
 4671SOL     OW25474   0.627   1.598   8.708  0.2131  0.0814 -0.7587
 4671SOL    HW125475   0.588   1.510   8.702  0.0604  0.0352  0.8763
 4671SOL    HW225476   0.559   1.636   8.763  1.5412  0.8724  0.3344
 4672SOL     OW25477   2.142   0.300   2.973 -0.4963  0.3513 -0.2160
 4672SOL    HW125478   2.132   0.281   2.879 -1.3539  0.7423 -0.2063
 4672SOL    HW225479   2.074   0.240   3.005 -0.5218 -0.3272 -1.5035
 4673SOL     OW25480   2.102   4.335  14.385  0.9508 -0.2319  0.6072
 4673SOL    HW125481   2.109   4.427  14.362 -0.1468 -0.2095  0.3476
 4673SOL    HW225482   2.100   4.303  14.295  4.6157  1.1396  0.0612
 4674SOL     OW25483   1.166   2.292   6.198 -0.0676 -0.2179  0.8826
 4674SOL    HW125484   1.098   2.359   6.205 -0.1031 -0.0270 -1.3112
 4674SOL    HW225485   1.181   2.288   6.292 -0.6854  0.1530  0.9927
 4675SOL     OW25486   0.662   3.548   2.652 -0.6071 -0.0067 -0.2623
 4675SOL    HW125487   0.602   3.622   2.667 -1.8953 -1.0109 -0.4460
 4675SOL    HW225488   0.736   3.590   2.609 -0.2638 -2.1168 -1.7180
 4676SOL     OW25489   2.522   0.471   8.892  0.0029  0.8286  0.2698
 4676SOL    HW125490   2.553   0.492   8.980  0.4575 -0.3253  0.3828
 4676SOL    HW225491   2.543   0.378   8.885  1.8978  1.3869 -1.6539
 4677SOL     OW25492   2.338   3.114  11.530  0.4495 -0.1748  0.1015
 4677SOL    HW125493   2.395   3.190  11.540  0.5569 -0.0627 -1.3498
 4677SOL    HW225494   2.336   3.082  11.621 -0.8309 -0.0879  0.1033
 4678SOL     OW25495   3.131   2.794   8.897  0.2600  0.5117 -0.2699
 4678SOL    HW125496   3.188   2.780   8.821 -1.2137  1.0340 -1.4601
 4678SOL    HW225497   3.201   2.810   8.960 -1.7604 -0.4888  2.1997
 4679SOL     OW25498   1.965   2.753   3.893  0.2987  0.3761 -0.0190
 4679SOL    HW125499   2.009   2.818   3.838  0.0481  0.3944 -0.1949
 4679SOL    HW225500   2.038   2.696   3.919 -0.0482  0.7712  1.8134
 4680SOL     OW25501   0.228   1.062   6.735 -0.1247 -0.0776  0.1890
 4680SOL    HW125502   0.259   0.978   6.699  1.5194  0.4785  0.2954
 4680SOL    HW225503   0.134   1.045   6.729  0.0262  0.4669 -3.8798
 4681SOL     OW25504   3.847   2.806   1.256 -0.0206  0.4080  0.0281
 4681SOL    HW125505   3.807   2.720   1.241 -0.9683  0.6467  1.1627
 4681SOL    HW225506   3.939   2.789   1.274  0.2840  0.1444 -1.8738
 4682SOL     OW25507   4.264   2.104   5.805 -0.6289  0.2072 -0.4819
 4682SOL    HW125508   4.344   2.061   5.836 -0.3589  0.4573 -0.8320
 4682SOL    HW225509   4.304   2.189   5.824 -0.0611 -0.5381  1.6474
 4683SOL     OW25510   0.202   0.223   5.755  0.3034  0.4787 -0.0810
 4683SOL    HW125511   0.117   0.211   5.713  0.1997 -0.0931  0.2989
 4683SOL    HW225512   0.216   0.131   5.779  0.9428  0.8716  1.0280
 4684SOL     OW25513   4.187   0.629  17.103  0.1800  0.0605 -0.0694
 4684SOL    HW125514   4.133   0.590  17.172 -1.2090  0.9248 -0.6767
 4684SOL    HW225515   4.240   0.557  17.068  4.0488  1.7786  2.3557
 4685SOL     OW25516   0.390   4.093  10.374  0.0174 -0.4060  0.0870
 4685SOL    HW125517   0.300   4.095  10.341  0.3140  0.2481 -0.6809
 4685SOL    HW225518   0.440   4.040  10.312  2.9435  1.6530  0.6965
 4686SOL     OW25519   0.923   0.208   4.126 -0.2817  0.3204  0.1112
 4686SOL    HW125520   0.894   0.128   4.082  0.9358 -0.9544  1.6598
 4686SOL    HW225521   0.932   0.267   4.051 -0.6040  1.3213  0.8570
 4687SOL     OW25522   1.291   4.256   3.337 -0.1744 -0.0811  0.4530
 4687SOL    HW125523   1.353   4.328   3.333 -0.5171  0.1703 -0.4327
 4687SOL    HW225524   1.305   4.209   3.418  1.7790 -0.0233  0.1493
 4688SOL     OW25525   4.262   0.525   0.452  0.4978 -0.3513  0.2315
 4688SOL    HW125526   4.353   0.529   0.423 -0.4959  2.6967 -2.4718
 4688SOL    HW225527   4.209   0.546   0.375  0.8319  0.2542  0.1679
 4689SOL     OW25528   2.998   2.217   6.323  0.3337 -0.5690 -0.0439
 4689SOL    HW125529   3.080   2.201   6.276  0.1131 -0.8730 -0.3280
 4689SOL    HW225530   3.007   2.294   6.379  0.9254  0.3440 -1.4024
 4690SOL     OW25531   4.240   1.159   8.068 -0.0974  0.0773 -0.1003
 4690SOL    HW125532   4.237   1.065   8.083  2.0506  0.2114  1.1338
 4690SOL    HW225533   4.297   1.154   7.991 -1.1510 -3.6213 -0.6314
 4691SOL     OW25534   0.682   3.040   9.245 -0.0419 -0.4225  0.2179
 4691SOL    HW125535   0.673   2.945   9.248 -0.8779 -0.4023 -1.8251
 4691SOL    HW225536   0.762   3.045   9.193  0.0437  0.8813  0.4723
 4692SOL     OW25537   4.665   1.456   1.722 -0.0966  0.6248 -0.0420
 4692SOL    HW125538   4.682   1.361   1.719 -1.6125  0.3081  1.3288
 4692SOL    HW225539   4.662   1.464   1.818  1.5389  0.3326  0.0306
 4693SOL     OW25540   4.409   2.342  10.603 -0.4002 -0.7570  0.4576
 4693SOL    HW125541   4.332   2.399  10.617  0.0515 -0.3990  1.4971
 4693SOL    HW225542   4.478   2.408  10.604 -0.7846 -0.3138 -1.1252
 4694SOL     OW25543   0.753   3.598   4.696 -0.1831  0.6803  0.6296
 4694SOL    HW125544   0.754   3.556   4.782 -1.5536 -1.4191 -0.3960
 4694SOL    HW225545   0.657   3.595   4.690 -0.2919  1.2037  1.9835
 4695SOL     OW25546   2.264   0.508   8.765 -0.4933  0.7476 -0.1010
 4695SOL    HW125547   2.199   0.527   8.833  0.8786 -0.1796  1.4649
 4695SOL    HW225548   2.343   0.503   8.818  0.1394 -0.1335 -1.1355
 4696SOL     OW25549   4.701   0.995   4.227 -0.0724 -0.1092 -0.1855
 4696SOL    HW125550   4.721   1.083   4.259  1.4785 -1.1829  1.7748
 4696SOL    HW225551   0.065   0.959   4.222  0.7109  1.8990 -0.7974
 4697SOL     OW25552   2.561   0.123   6.725 -0.1685 -0.4334  0.3121
 4697SOL    HW125553   2.586   0.054   6.663 -1.6448 -1.0363  0.3753
 4697SOL    HW225554   2.512   0.060   6.779 -0.8606  1.7572  2.2177
 4698SOL     OW25555   4.346   2.822   6.753  0.7646 -0.4332 -0.2789
 4698SOL    HW125556   4.428   2.831   6.800 -0.4083  1.0479  1.4749
 4698SOL    HW225557   4.385   2.782   6.675 -0.8176  0.6553 -1.6270
 4699SOL     OW25558   1.720   3.878   3.153  0.1238 -0.2670 -0.6028
 4699SOL    HW125559   1.760   3.794   3.177 -1.1559 -1.5398 -2.9361
 4699SOL    HW225560   1.777   3.894   3.078  1.5503 -0.6389  0.4109
 4700SOL     OW25561   4.059   1.745   1.665 -0.3312  0.4649 -0.3175
 4700SOL    HW125562   4.011   1.745   1.583 -1.1485  0.7860  0.1556
 4700SOL    HW225563   4.142   1.790   1.648 -0.7158  1.2090 -0.2413
 4701SOL     OW25564   0.841   0.601  13.123  0.6458 -0.4484  0.0026
 4701SOL    HW125565   0.827   0.567  13.035  0.7433 -0.9927  0.1982
 4701SOL    HW225566   0.870   0.686  13.091 -0.7599 -0.4347 -1.2294
 4702SOL     OW25567   3.601   0.770   1.090 -0.0330 -0.5621  0.1181
 4702SOL    HW125568   3.536   0.705   1.120  0.5753 -0.9512  0.5973
 4702SOL    HW225569   3.594   0.761   0.995  1.0200  0.7576 -0.0716
 4703SOL     OW25570   3.135   0.216  13.953 -0.0923  0.2610  0.0626
 4703SOL    HW125571   3.194   0.175  14.017 -0.5582  0.2295  0.4762
 4703SOL    HW225572   3.079   0.139  13.939 -1.8841  1.5474  0.1305
 4704SOL     OW25573   2.433   0.505   4.594  0.2787 -0.2446 -0.1848
 4704SOL    HW125574   2.411   0.576   4.654 -1.3587 -0.7665 -0.1602
 4704SOL    HW225575   2.525   0.491   4.618  0.1658  0.0782  0.4448
 4705SOL     OW25576   2.928   1.628   3.452  0.0735 -0.2049  0.3247
 4705SOL    HW125577   2.996   1.694   3.464  0.0368 -0.0741 -0.1854
 4705SOL    HW225578   2.940   1.573   3.530 -0.5256  1.3787  1.5234
 4706SOL     OW25579   1.886   4.168   1.978 -0.3834 -0.6830 -0.1345
 4706SOL    HW125580   1.950   4.232   2.009 -0.8381 -1.4966  2.4722
 4706SOL    HW225581   1.844   4.139   2.059 -0.1794 -0.2849  0.1123
 4707SOL     OW25582   3.014   2.953  11.097  0.1654  0.1105 -0.4425
 4707SOL    HW125583   2.937   2.982  11.146  1.5471  0.2418  1.6435
 4707SOL    HW225584   3.018   2.864  11.134  2.0910  0.6748  0.6675
 4708SOL     OW25585   0.502   1.569   3.838  0.0624  0.3214  0.2848
 4708SOL    HW125586   0.542   1.596   3.755  0.8462 -1.9381 -0.0954
 4708SOL    HW225587   0.409   1.555   3.820  0.0084  1.8769 -0.6399
 4709SOL     OW25588   2.628   2.998   7.394 -0.2828 -0.2637  0.4590
 4709SOL    HW125589   2.698   3.034   7.341  0.2317  0.8845  1.9134
 4709SOL    HW225590   2.551   3.046   7.362  0.0589  0.0385  0.0869
 4710SOL     OW25591   1.780   3.796  17.655  0.0442  0.4801  0.3938
 4710SOL    HW125592   1.875   3.804  17.655  0.0340  0.6143 -0.5050
 4710SOL    HW225593   1.775   3.785   0.050  2.0069  0.9651  0.5618
 4711SOL     OW25594   4.622   2.318   3.007 -0.6372  0.1128  0.3002
 4711SOL    HW125595   4.548   2.377   3.021 -0.6506  0.1764 -0.0411
 4711SOL    HW225596   4.577   2.248   2.959  1.5783 -2.0787  1.4065
 4712SOL     OW25597   0.068   3.776   1.274 -0.6137  0.3626  0.0506
 4712SOL    HW125598   4.716   3.724   1.250  0.5063 -0.5399 -1.5496
 4712SOL    HW225599   0.073   3.740   1.363 -1.6097  0.6170  0.2077
 4713SOL     OW25600   3.399   3.217   4.605  0.0358  0.2874 -0.3423
 4713SOL    HW125601   3.402   3.147   4.671 -1.3031 -0.1954 -0.7885
 4713SOL    HW225602   3.437   3.290   4.653  2.9323 -1.2887 -0.2247
 4714SOL     OW25603   4.107   0.805   2.790 -0.1323 -0.0369  0.4337
 4714SOL    HW125604   4.016   0.792   2.763 -0.4017 -1.1751  1.9374
 4714SOL    HW225605   4.158   0.800   2.709 -1.9320 -0.6323 -0.6692
 4715SOL     OW25606   0.207   1.619   1.708 -0.6973 -1.0441 -0.1337
 4715SOL    HW125607   0.245   1.707   1.706  0.4049 -1.4878  1.2747
 4715SOL    HW225608   0.126   1.639   1.663  0.3473  1.7731 -0.7413
 4716SOL     OW25609   3.310   4.069  17.601  0.8183 -0.4723 -0.1008
 4716SOL    HW125610   3.273   3.985  17.627  2.3476 -0.4611  2.0514
 4716SOL    HW225611   3.242   4.092  17.537  0.2738  0.4207  0.7909
 4717SOL     OW25612   0.437   1.240   0.244  0.2917 -0.2390 -0.1264
 4717SOL    HW125613   0.362   1.206   0.196 -1.1933  1.5624  0.9345
 4717SOL    HW225614   0.418   1.200   0.328 -0.8538 -0.2594 -0.3959
 4718SOL     OW25615   1.664   3.284  16.149 -0.0180  0.5286  0.1232
 4718SOL    HW125616   1.658   3.191  16.169  0.4062  0.6278  0.7242
 4718SOL    HW225617   1.699   3.325  16.229  0.1689 -0.5150  0.5802
 4719SOL     OW25618   1.355   0.796   2.369 -0.2559  0.6361 -0.2946
 4719SOL    HW125619   1.264   0.807   2.341 -0.5923  0.1201  0.5956
 4719SOL    HW225620   1.407   0.786   2.289 -1.2310  0.9787 -0.9713
 4720SOL     OW25621   1.105   3.014   8.913  0.3727  0.6489  0.6310
 4720SOL    HW125622   1.093   3.059   8.829  1.5963 -0.1007  0.0436
 4720SOL    HW225623   1.098   2.923   8.883 -0.7154  0.7018  0.7252
 4721SOL     OW25624   2.769   2.963   6.108  0.3292 -0.1713  0.9298
 4721SOL    HW125625   2.853   2.921   6.088 -0.9990 -2.7189  0.7809
 4721SOL    HW225626   2.795   3.008   6.188 -0.2576  3.3169 -0.8366
 4722SOL     OW25627   0.173   3.787   4.702 -0.1370 -0.1194  0.3007
 4722SOL    HW125628   0.263   3.755   4.696  0.2130  0.7505  0.9427
 4722SOL    HW225629   0.130   3.702   4.702  0.5426 -0.4615 -0.0214
 4723SOL     OW25630   3.327   2.799   3.540  0.1292 -0.1018  0.0423
 4723SOL    HW125631   3.402   2.745   3.563  0.1864  0.5925  1.4588
 4723SOL    HW225632   3.282   2.741   3.478  1.1111 -0.4229 -0.3654
 4724SOL     OW25633   3.463   4.711   2.234 -0.5847 -0.5642 -0.0462
 4724SOL    HW125634   3.499   4.698   2.322 -3.2705  1.4514  1.3592
 4724SOL    HW225635   3.438   4.620   2.216 -2.2856 -0.3631  1.2590
 4725SOL     OW25636   0.330   2.005  17.413 -0.1152 -0.0391 -0.1194
 4725SOL    HW125637   0.260   2.069  17.407  0.7157  0.8878  0.0877
 4725SOL    HW225638   0.364   2.021  17.501  1.7136 -0.2647 -0.7725
 4726SOL     OW25639   3.505   3.593   4.023  0.3574  0.2489  0.1881
 4726SOL    HW125640   3.509   3.676   3.976 -0.6960  0.0630 -0.2205
 4726SOL    HW225641   3.529   3.613   4.114  1.7039 -0.1355 -0.0725
 4727SOL     OW25642   3.966   3.374   4.755  0.2465  0.2866 -0.0852
 4727SOL    HW125643   3.927   3.288   4.766 -2.0623  1.2886 -0.5568
 4727SOL    HW225644   3.898   3.420   4.706 -1.4099 -1.9220  0.1420
 4728SOL     OW25645   3.632   0.984   4.574  0.3340  0.0764  0.0325
 4728SOL    HW125646   3.595   0.969   4.487  0.0169 -1.0344  0.3615
 4728SOL    HW225647   3.632   1.078   4.559 -1.4557 -0.1724 -1.5044
 4729SOL     OW25648   2.007   0.085  12.338  0.0934 -0.3960 -0.4497
 4729SOL    HW125649   2.058   0.072  12.418 -0.5581  0.1469  0.0564
 4729SOL    HW225650   1.946   0.014  12.358  0.8743 -1.1541 -0.7841
 4730SOL     OW25651   2.589   1.853  16.059  0.3392 -0.1374 -0.2953
 4730SOL    HW125652   2.558   1.929  16.010  0.6025  0.1533 -0.0155
 4730SOL    HW225653   2.601   1.890  16.146 -0.6022 -0.0287 -0.2186
 4731SOL     OW25654   1.084   0.085   2.899  0.2578 -0.7386 -0.1134
 4731SOL    HW125655   1.065   0.097   2.992  0.3790  0.6677 -0.2734
 4731SOL    HW225656   1.081   0.173   2.862  2.9604 -0.6218 -0.0217
 4732SOL     OW25657   2.669   4.375   6.274 -0.2077 -0.1981  0.2341
 4732SOL    HW125658   2.732   4.400   6.342  0.5453 -0.9018 -0.2061
 4732SOL    HW225659   2.722   4.309   6.229 -1.4372  0.6135 -2.4133
 4733SOL     OW25660   4.162   0.002   0.286 -0.1040  0.7161 -0.5983
 4733SOL    HW125661   4.187   0.027   0.374  0.3685 -0.7515 -0.3149
 4733SOL    HW225662   4.066   0.007   0.287 -0.2260 -1.5334 -1.4386
 4734SOL     OW25663   2.663   0.235   8.527  0.1918  0.0188 -0.8091
 4734SOL    HW125664   2.612   0.290   8.468  2.1010  1.9949 -0.5849
 4734SOL    HW225665   2.617   0.155   8.500 -1.1149  0.4090  0.2671
 4735SOL     OW25666   1.262   3.975  13.296 -0.7613 -0.4228  0.8515
 4735SOL    HW125667   1.294   4.022  13.373 -0.0707 -0.3188  0.4996
 4735SOL    HW225668   1.259   3.886  13.333 -0.8117 -0.8608 -0.2303
 4736SOL     OW25669   4.270   4.379   2.512  0.7178 -0.0159 -0.5519
 4736SOL    HW125670   4.244   4.444   2.446  2.1319  0.3773 -0.7159
 4736SOL    HW225671   4.362   4.400   2.525  0.8178  0.5027 -2.1207
 4737SOL     OW25672   1.542   2.715  11.805  0.1848  0.1229  0.1108
 4737SOL    HW125673   1.614   2.765  11.844  0.4125 -0.1438  0.0345
 4737SOL    HW225674   1.471   2.771  11.835 -1.2500 -0.3511 -2.4690
 4738SOL     OW25675   3.134   3.216  15.773 -0.7435  0.4104  0.1809
 4738SOL    HW125676   3.214   3.267  15.763  0.5079 -1.9403 -2.0468
 4738SOL    HW225677   3.107   3.242  15.861 -0.3597 -0.8378  0.6695
 4739SOL     OW25678   1.414   3.287   6.118 -0.2615  0.1192 -0.7652
 4739SOL    HW125679   1.336   3.304   6.065 -0.5867 -1.1790 -0.6979
 4739SOL    HW225680   1.378   3.286   6.206  0.7302 -1.2280 -0.3772
 4740SOL     OW25681   3.813   3.155   7.500  0.0310  0.2291 -0.1141
 4740SOL    HW125682   3.803   3.164   7.405 -2.0465  0.6788  0.1521
 4740SOL    HW225683   3.722   3.151   7.528  0.5311  1.4439  1.6702
 4741SOL     OW25684   3.802   1.749   2.769  0.7291 -0.0650 -0.0528
 4741SOL    HW125685   3.795   1.835   2.809 -1.5734  0.3147 -1.2986
 4741SOL    HW225686   3.734   1.746   2.702 -0.5876 -0.1852  1.2927
 4742SOL     OW25687   0.117   0.062   2.608  0.0208 -0.4148  0.5386
 4742SOL    HW125688   0.059   0.037   2.679  0.0611  1.1900  1.1329
 4742SOL    HW225689   0.055   0.109   2.551  1.1987 -1.3398 -1.5268
 4743SOL     OW25690   2.544   1.313   9.254 -0.3202 -0.4109 -0.3020
 4743SOL    HW125691   2.477   1.377   9.229 -0.1791  0.3857  1.3420
 4743SOL    HW225692   2.483   1.250   9.293 -0.5425  0.3026  0.5151
 4744SOL     OW25693   3.033   1.135  14.071  0.4839  0.1896  0.1703
 4744SOL    HW125694   3.025   1.214  14.125 -2.3140 -1.1045  1.6811
 4744SOL    HW225695   2.983   1.173  13.998  0.3849  1.9753  1.1472
 4745SOL     OW25696   4.572   2.947   4.661  0.0802 -0.4580  0.6361
 4745SOL    HW125697   4.514   2.934   4.587  0.6697  1.4260 -0.1713
 4745SOL    HW225698   4.555   3.038   4.687 -1.0509 -0.5511  0.2092
 4746SOL     OW25699   4.139   3.991   1.020 -0.2503 -0.0829 -0.2126
 4746SOL    HW125700   4.167   4.070   0.975 -1.9116  0.7943  0.2883
 4746SOL    HW225701   4.115   4.013   1.110  0.6503 -1.4884  0.3797
 4747SOL     OW25702   3.306   2.825   7.647  0.1589  0.0743  0.0810
 4747SOL    HW125703   3.390   2.793   7.680 -1.2761 -2.4411  1.3184
 4747SOL    HW225704   3.284   2.898   7.704 -1.3571 -1.1630  1.1023
 4748SOL     OW25705   2.247   2.254   3.313  0.1233 -0.0420 -0.4058
 4748SOL    HW125706   2.303   2.230   3.388  1.5264  4.2069 -0.1339
 4748SOL    HW225707   2.303   2.236   3.238 -0.1523 -0.6596 -0.4707
 4749SOL     OW25708   0.768   1.241  14.573  0.2090 -0.4581  0.3391
 4749SOL    HW125709   0.772   1.211  14.483  0.1121 -0.9012  0.4828
 4749SOL    HW225710   0.692   1.299  14.570  0.5088 -0.0788  0.0410
 4750SOL     OW25711   4.126   2.556   5.334  0.1510  0.3259  0.0192
 4750SOL    HW125712   4.145   2.598   5.418  1.0702 -2.4159  1.1909
 4750SOL    HW225713   4.173   2.474   5.347  0.6277  0.4919 -0.6457
 4751SOL     OW25714   0.126   1.402   7.919 -0.3396  0.3622  0.1344
 4751SOL    HW125715   0.056   1.460   7.947 -1.5834 -1.9030  1.7214
 4751SOL    HW225716   0.180   1.465   7.872  0.5444 -0.9909 -0.6508
 4752SOL     OW25717   3.984   3.427   7.754  0.2770 -0.2554  0.8889
 4752SOL    HW125718   3.890   3.411   7.764  0.0000 -0.0668 -1.3876
 4752SOL    HW225719   4.014   3.341   7.724  0.2406 -0.3320  1.0707
 4753SOL     OW25720   2.910   3.768  17.667 -0.6467 -0.5303  0.3849
 4753SOL    HW125721   2.913   3.724   0.052 -0.4580 -2.1407 -0.4458
 4753SOL    HW225722   2.821   3.742  17.644 -0.2051 -0.4720 -1.4130
 4754SOL     OW25723   2.974   3.446   5.359 -0.1061 -0.0633 -0.2940
 4754SOL    HW125724   3.018   3.434   5.275 -2.3719  1.5049 -1.7241
 4754SOL    HW225725   2.885   3.438   5.324 -0.2988 -0.2874  0.2480
 4755SOL     OW25726   3.260   3.943   9.114 -0.2523  0.1880 -0.0813
 4755SOL    HW125727   3.232   4.022   9.067  1.3145  1.0766  0.4733
 4755SOL    HW225728   3.184   3.919   9.167  0.3154 -3.2988 -0.9034
 4756SOL     OW25729   2.384   3.406   7.808 -0.1722 -0.2737  0.1411
 4756SOL    HW125730   2.431   3.323   7.802  0.8477  0.3401 -0.5173
 4756SOL    HW225731   2.297   3.371   7.786 -0.0136 -1.0680  0.7681
 4757SOL     OW25732   1.072   3.407   3.916 -0.0916 -0.7578 -0.3167
 4757SOL    HW125733   0.990   3.447   3.948  1.0535  0.2782  1.3513
 4757SOL    HW225734   1.055   3.421   3.823 -0.1684 -1.3430 -0.3940
 4758SOL     OW25735   3.811   3.296   8.146 -0.4293  0.5150 -0.6074
 4758SOL    HW125736   3.809   3.286   8.051 -3.3114 -0.3251 -0.4528
 4758SOL    HW225737   3.840   3.208   8.173  1.5081  2.1324  2.7106
 4759SOL     OW25738   1.615   0.010   9.598 -0.0036  0.3197 -0.3197
 4759SOL    HW125739   1.580   4.645   9.592 -2.8953  1.5021 -1.3035
 4759SOL    HW225740   1.545   0.057   9.552  0.4979  1.6780  0.3210
 4760SOL     OW25741   1.550   4.045   9.622  0.0062  0.0419  0.0348
 4760SOL    HW125742   1.462   4.039   9.586  0.4908  1.0958 -1.3666
 4760SOL    HW225743   1.546   4.124   9.677  0.3226  0.4001 -0.4499
 4761SOL     OW25744   0.828   3.757  11.583 -0.1502  0.0848 -0.2060
 4761SOL    HW125745   0.799   3.845  11.603  1.3988  0.7545 -0.9302
 4761SOL    HW225746   0.922   3.766  11.596 -0.3567  0.0154  1.3417
 4762SOL     OW25747   2.217   1.179  16.624 -0.0490 -0.4468  0.1321
 4762SOL    HW125748   2.145   1.243  16.625  2.0479  1.9345 -0.1149
 4762SOL    HW225749   2.257   1.187  16.711  0.9597 -1.8284 -0.2173
 4763SOL     OW25750   3.777   3.295   7.037  1.0771  0.3620  0.1304
 4763SOL    HW125751   3.762   3.389   7.038  1.2523  0.3936 -0.5873
 4763SOL    HW225752   3.795   3.283   6.944 -1.0168 -2.4254  0.0764
 4764SOL     OW25753   1.174   3.287   8.339 -1.2834 -0.0825 -0.0223
 4764SOL    HW125754   1.180   3.339   8.259  1.1264 -0.9016 -0.3844
 4764SOL    HW225755   1.236   3.216   8.320 -0.7891  0.6313 -1.0632
 4765SOL     OW25756   3.010   2.561   5.778 -0.1411  0.2006  0.5504
 4765SOL    HW125757   3.086   2.617   5.762  0.6375 -0.7488  0.8778
 4765SOL    HW225758   3.053   2.479   5.805 -0.3789  0.6794  2.3860
 4766SOL     OW25759   1.043   0.896   6.842  0.2790  0.0974 -0.5639
 4766SOL    HW125760   0.970   0.835   6.856  0.0391  0.5452  0.1531
 4766SOL    HW225761   1.078   0.869   6.757  0.1549 -0.8633 -0.3047
 4767SOL     OW25762   1.881   4.163   9.002  0.7283  0.0216  0.4734
 4767SOL    HW125763   1.961   4.210   9.028  0.0950  1.7092 -0.6123
 4767SOL    HW225764   1.846   4.231   8.944  1.0972 -2.2966 -2.5052
 4768SOL     OW25765   4.264   1.249   2.907 -0.0282 -0.2141  0.2702
 4768SOL    HW125766   4.335   1.292   2.955  0.3795  0.1792 -0.7015
 4768SOL    HW225767   4.231   1.185   2.971  0.7103  0.3944  1.2705
 4769SOL     OW25768   4.577   1.794  17.032 -0.4146  0.3271  0.1164
 4769SOL    HW125769   4.556   1.727  16.967  1.7521  1.7161 -2.0282
 4769SOL    HW225770   4.646   1.843  16.988 -1.1862 -0.9430 -2.5319
 4770SOL     OW25771   0.233   1.841   3.203  0.4406  0.2388 -0.4119
 4770SOL    HW125772   0.301   1.908   3.197 -1.5057  2.2048 -0.4777
 4770SOL    HW225773   0.170   1.890   3.256  0.2231  0.1604 -0.6046
 4771SOL     OW25774   1.175   0.439   5.577 -0.0281  0.4702 -0.1772
 4771SOL    HW125775   1.249   0.500   5.573  0.1393  0.1934 -1.3821
 4771SOL    HW225776   1.158   0.425   5.670  0.4733 -1.0560 -0.3184
 4772SOL     OW25777   0.928   1.452  14.650  0.3282 -0.0585 -0.0238
 4772SOL    HW125778   0.853   1.392  14.644  0.7032 -0.5550  0.2727
 4772SOL    HW225779   1.006   1.402  14.627 -0.3087 -0.6898 -0.7950
 4773SOL     OW25780   4.485   1.029  13.744 -0.1299  0.0148  0.0277
 4773SOL    HW125781   4.522   1.045  13.831  1.2790  0.4793 -0.6631
 4773SOL    HW225782   4.490   0.933  13.745  1.2582  0.0897 -0.8659
 4774SOL     OW25783   2.487   0.063   8.385  0.3277  0.6027  0.4297
 4774SOL    HW125784   2.468   4.715   8.444  1.2834  2.2050  2.6770
 4774SOL    HW225785   2.399   0.100   8.371 -1.3267 -3.8283 -0.8659
 4775SOL     OW25786   1.090   3.782  15.983 -0.0468  0.1855  0.2007
 4775SOL    HW125787   1.118   3.741  15.901  0.0073 -0.6139  0.6256
 4775SOL    HW225788   1.087   3.708  16.043  1.7536  0.5240  0.7149
 4776SOL     OW25789   0.353   3.845   2.947 -0.3439  0.4373  0.1800
 4776SOL    HW125790   0.397   3.807   3.023  3.5049  0.0492 -2.2891
 4776SOL    HW225791   0.261   3.841   2.976 -0.1227 -0.1381  0.8088
 4777SOL     OW25792   0.836   0.129   9.305  0.1330  0.0877 -0.3898
 4777SOL    HW125793   0.823   0.037   9.325  0.1800  0.7397  2.6938
 4777SOL    HW225794   0.825   0.131   9.210  1.0406 -0.8714 -0.5181
 4778SOL     OW25795   3.871   3.767   0.240 -0.2075 -0.2271  0.0031
 4778SOL    HW125796   3.777   3.775   0.225 -0.3329 -2.6380 -0.4083
 4778SOL    HW225797   3.885   3.802   0.328  1.4203  1.2845 -0.8484
 4779SOL     OW25798   3.432   2.691  14.617 -0.0963 -0.0742  0.4100
 4779SOL    HW125799   3.513   2.667  14.661 -0.2147  1.1905  1.3110
 4779SOL    HW225800   3.413   2.601  14.589  2.0380 -0.5338  0.4012
 4780SOL     OW25801   3.495   3.742   6.368  0.2149  0.1806 -0.1279
 4780SOL    HW125802   3.476   3.679   6.437  1.9606 -0.8512 -0.6188
 4780SOL    HW225803   3.558   3.702   6.309  1.2535  0.9631  0.4564
 4781SOL     OW25804   3.976   2.354   9.353 -0.7509 -0.6491  0.3818
 4781SOL    HW125805   4.069   2.341   9.373 -0.3843  0.9766 -0.2221
 4781SOL    HW225806   3.981   2.448   9.336  2.1327 -1.1328 -1.4200
 4782SOL     OW25807   4.152   1.789   1.065 -0.6143  0.2287 -0.3295
 4782SOL    HW125808   4.068   1.750   1.042 -0.9926  1.6800 -1.4207
 4782SOL    HW225809   4.175   1.727   1.134  0.5330  0.3869 -0.5691
 4783SOL     OW25810   0.404   4.210   9.951 -0.2295 -0.4617  0.5667
 4783SOL    HW125811   0.480   4.248   9.994 -0.5091  0.3530  0.3357
 4783SOL    HW225812   0.443   4.156   9.882  0.7886  1.0273 -0.0014
 4784SOL     OW25813   2.100   2.281  10.737 -0.3680  0.1818  0.1359
 4784SOL    HW125814   2.079   2.269  10.644  0.1231 -1.3815  0.2218
 4784SOL    HW225815   2.054   2.365  10.737 -2.6465 -1.0564 -1.2483
 4785SOL     OW25816   0.748   1.904  10.118 -0.3223 -0.6636  0.0725
 4785SOL    HW125817   0.788   1.981  10.159 -2.3177  0.3210  0.1760
 4785SOL    HW225818   0.673   1.887  10.175 -1.1443 -0.1272 -0.8430
 4786SOL     OW25819   1.127   0.314  13.239 -0.5218  0.8619  0.1053
 4786SOL    HW125820   1.206   0.292  13.289 -0.6056  2.5873  1.0226
 4786SOL    HW225821   1.132   0.407  13.262  0.9462  0.7368  0.2833
 4787SOL     OW25822   2.653   4.536  16.911 -0.2385  0.2010  0.0124
 4787SOL    HW125823   2.668   4.452  16.954 -2.2413  0.1651  0.6330
 4787SOL    HW225824   2.670   4.502  16.824 -0.4540 -0.6285  0.2918
 4788SOL     OW25825   2.632   3.170  14.839  0.7886 -0.1537  0.0320
 4788SOL    HW125826   2.680   3.173  14.922 -1.3423 -1.4175  1.3383
 4788SOL    HW225827   2.579   3.091  14.832 -0.1986  0.8485 -3.5769
 4789SOL     OW25828   0.067   4.045   0.450 -0.3412 -0.2760  0.4552
 4789SOL    HW125829   0.053   4.121   0.506 -0.1260  0.6286 -0.7269
 4789SOL    HW225830   0.001   4.063   0.384 -0.4647 -0.8614  0.4216
 4790SOL     OW25831   1.787   4.033   2.700  0.6831 -0.4257  0.2514
 4790SOL    HW125832   1.708   4.031   2.754 -1.9241  1.0813 -3.5258
 4790SOL    HW225833   1.844   4.091   2.751  2.2317 -1.6986 -0.0394
 4791SOL     OW25834   4.016   1.449   2.859 -0.6412  0.0134 -0.0356
 4791SOL    HW125835   4.050   1.364   2.888  0.1491 -0.5259 -2.5946
 4791SOL    HW225836   4.072   1.508   2.911  1.6605 -2.0765 -0.1279
 4792SOL     OW25837   1.846   1.755   4.577 -0.0996 -0.2007 -0.0692
 4792SOL    HW125838   1.758   1.754   4.539 -0.1166 -2.4046  0.0191
 4792SOL    HW225839   1.829   1.708   4.659 -0.2078  1.3099  0.7747
 4793SOL     OW25840   3.699   0.863  15.313  0.4538 -0.1685  0.0947
 4793SOL    HW125841   3.742   0.789  15.270 -1.9290 -1.3661 -0.1919
 4793SOL    HW225842   3.772   0.906  15.358  0.3472 -1.3537  1.4172
 4794SOL     OW25843   2.321   1.623  12.945  0.7172  0.2646  0.2035
 4794SOL    HW125844   2.329   1.719  12.939 -0.1134  0.2968 -0.3976
 4794SOL    HW225845   2.337   1.621  13.039  0.4722 -2.4547  0.1654
 4795SOL     OW25846   0.767   4.510   1.125 -0.2602  0.3439 -0.0103
 4795SOL    HW125847   0.749   4.604   1.129 -1.3914  0.1110  0.7209
 4795SOL    HW225848   0.687   4.488   1.077  0.0330  0.2359 -0.4470
 4796SOL     OW25849   2.401   1.131   6.407 -0.7044  0.1354  0.5552
 4796SOL    HW125850   2.389   1.133   6.312 -1.8595  1.0649  0.7215
 4796SOL    HW225851   2.494   1.151   6.416 -0.0645 -2.3948 -0.4643
 4797SOL     OW25852   2.432   3.847   7.592  0.5403  0.2616  0.1792
 4797SOL    HW125853   2.467   3.758   7.593  3.1254  1.2597 -1.6278
 4797SOL    HW225854   2.347   3.839   7.548  1.7638  2.0650 -2.5646
 4798SOL     OW25855   0.358   0.496   1.627 -0.3804 -0.4181  0.1058
 4798SOL    HW125856   0.430   0.444   1.592  0.0419 -0.1606  0.6039
 4798SOL    HW225857   0.378   0.520   1.717 -2.6254 -2.0615  1.0511
 4799SOL     OW25858   0.538   2.153   1.225 -0.0989  0.3772  0.6006
 4799SOL    HW125859   0.480   2.179   1.153  1.3548  0.2615 -0.6102
 4799SOL    HW225860   0.485   2.080   1.258 -1.4477  0.9110 -0.3759
 4800SOL     OW25861   2.499   4.692   5.152  0.0053  0.3367 -0.0838
 4800SOL    HW125862   2.512   0.049   5.200  2.6035  1.4254 -2.6470
 4800SOL    HW225863   2.526   4.629   5.218  1.9158  2.0825  0.7959
 4801SOL     OW25864   0.464   3.794  17.338  0.2446  0.1283 -0.2638
 4801SOL    HW125865   0.385   3.789  17.393 -0.2808  0.4968 -0.9793
 4801SOL    HW225866   0.468   3.704  17.306  0.9114  0.7772 -1.9869
 4802SOL     OW25867   3.920   0.507   6.010  0.1151 -0.1316  0.6609
 4802SOL    HW125868   3.857   0.509   6.082 -0.5992  0.9628  0.0166
 4802SOL    HW225869   3.917   0.601   5.992  0.2043 -0.1450  0.5768
 4803SOL     OW25870   2.600   1.386   4.728  0.2335 -0.2523  0.0764
 4803SOL    HW125871   2.668   1.341   4.679 -0.1117  1.3936 -1.8896
 4803SOL    HW225872   2.538   1.407   4.659 -0.7092 -1.8109  0.4406
 4804SOL     OW25873   3.743   1.750   9.632  0.3128 -0.0734 -0.0382
 4804SOL    HW125874   3.813   1.793   9.680 -1.0362  0.8616  1.0792
 4804SOL    HW225875   3.667   1.791   9.673 -0.3226  0.2529 -1.5191
 4805SOL     OW25876   1.926   4.671   8.497  0.1309 -0.2118 -0.2615
 4805SOL    HW125877   1.936   0.016   8.432  3.5099 -0.5961 -0.1442
 4805SOL    HW225878   1.990   4.681   8.568 -0.8289  2.3699  0.2451
 4806SOL     OW25879   1.045   1.306  14.025 -0.4031 -0.2868  0.1966
 4806SOL    HW125880   0.956   1.280  14.051  0.1015 -1.7267  0.5069
 4806SOL    HW225881   1.038   1.401  14.036 -1.7383 -0.6687  2.5699
 4807SOL     OW25882   4.408   1.356   0.133  0.0509  0.0004  0.6964
 4807SOL    HW125883   4.387   1.433   0.080  0.9528  0.7751  1.4672
 4807SOL    HW225884   4.490   1.386   0.173  0.8941  0.0856 -1.1092
 4808SOL     OW25885   2.405   3.643   4.132 -0.4602 -0.1196 -0.1366
 4808SOL    HW125886   2.457   3.564   4.140 -0.5878 -0.3008 -1.1119
 4808SOL    HW225887   2.321   3.614   4.096 -0.2550 -2.5333  1.3646
 4809SOL     OW25888   2.644   3.966   4.616  0.3983  0.0197 -0.1310
 4809SOL    HW125889   2.710   4.008   4.560  1.2209 -0.3340  0.5700
 4809SOL    HW225890   2.593   4.047   4.619  0.9385  0.3023  1.7031
 4810SOL     OW25891   2.044   1.619  17.492  0.2487  0.3796 -0.1284
 4810SOL    HW125892   1.949   1.608  17.488  0.5193 -1.8261 -0.3269
 4810SOL    HW225893   2.073   1.528  17.483 -0.2168  0.2862 -0.7227
 4811SOL     OW25894   1.593   1.235   2.920  0.3832 -0.2548 -0.2972
 4811SOL    HW125895   1.583   1.249   3.014 -0.1632  1.0496 -0.5523
 4811SOL    HW225896   1.556   1.315   2.883 -0.8639 -0.3119  0.8403
 4812SOL     OW25897   0.180   1.762  10.360  0.1489  0.1201  0.0850
 4812SOL    HW125898   0.258   1.709  10.378  0.4629  0.8452  0.8390
 4812SOL    HW225899   0.160   1.735  10.270 -2.3543  1.1076  0.3692
 4813SOL     OW25900   3.695   3.529  13.739  0.2656  0.8334 -0.7466
 4813SOL    HW125901   3.765   3.554  13.679  0.6498  0.1103 -0.6071
 4813SOL    HW225902   3.643   3.609  13.745  2.3017  1.9809  1.6907
 4814SOL     OW25903   2.733   2.179   6.169 -0.5589 -0.2290  0.1363
 4814SOL    HW125904   2.774   2.182   6.083 -0.7859  0.0574  0.0383
 4814SOL    HW225905   2.810   2.175   6.225  2.0743  0.2585 -3.5138
 4815SOL     OW25906   4.079   2.434  13.879 -0.4375  0.0469 -0.2322
 4815SOL    HW125907   4.142   2.503  13.854 -1.0894  0.7398  0.0297
 4815SOL    HW225908   4.018   2.447  13.806 -1.0505  0.0621  0.2802
 4816SOL     OW25909   2.718   3.936   6.661  0.1871 -0.4392 -0.6910
 4816SOL    HW125910   2.683   4.008   6.609 -2.8210  0.5848  2.7399
 4816SOL    HW225911   2.647   3.932   6.725  2.2427  3.6383  1.8367
 4817SOL     OW25912   0.902   3.140   4.061 -0.3301 -0.6462  1.0395
 4817SOL    HW125913   0.895   3.181   3.975  1.7891 -0.7261  0.8258
 4817SOL    HW225914   0.904   3.219   4.115  0.1560 -0.5060  0.8099
 4818SOL     OW25915   2.598   2.502   9.708 -0.4108  0.1476 -0.0631
 4818SOL    HW125916   2.684   2.531   9.679 -0.0405 -0.9017 -0.0133
 4818SOL    HW225917   2.559   2.454   9.635 -2.0537  0.3131  0.7167
 4819SOL     OW25918   4.158   0.527  11.858  0.3197  0.3189 -0.1343
 4819SOL    HW125919   4.118   0.445  11.828  1.9857  0.3619 -2.4865
 4819SOL    HW225920   4.244   0.523  11.816  1.3809  0.5097  1.9901
 4820SOL     OW25921   3.264   3.760   3.103  0.5654 -0.3285 -0.3090
 4820SOL    HW125922   3.338   3.818   3.086  0.5102 -0.7380 -1.9291
 4820SOL    HW225923   3.269   3.693   3.035 -0.1641 -3.6907  2.9331
 4821SOL     OW25924   3.973   3.739   8.380  0.3551 -0.6084  0.2569
 4821SOL    HW125925   3.972   3.677   8.307 -0.1119  0.3731 -0.5840
 4821SOL    HW225926   3.901   3.707   8.434  1.5191 -1.7669  1.0982
 4822SOL     OW25927   0.717   1.992  10.814  0.1761 -0.1001 -0.4920
 4822SOL    HW125928   0.736   1.998  10.908 -0.4111 -0.0992 -0.3726
 4822SOL    HW225929   0.750   1.902  10.814 -0.7730 -0.4380 -0.8024
 4823SOL     OW25930   3.014   4.138   1.514  0.0112  0.4894 -0.8722
 4823SOL    HW125931   3.082   4.083   1.554 -1.2701 -2.9065 -3.3420
 4823SOL    HW225932   3.020   4.105   1.424 -0.2365  1.2430 -1.1584
 4824SOL     OW25933   1.103   2.150  14.118  0.3481  0.0140 -0.1216
 4824SOL    HW125934   1.140   2.076  14.166  0.9012  0.5718  0.3104
 4824SOL    HW225935   1.054   2.108  14.048  0.1054  0.6698 -0.3507
 4825SOL     OW25936   4.594   2.157   4.013  0.0460 -0.4098 -0.3075
 4825SOL    HW125937   4.608   2.243   4.052 -2.3146 -1.6625  3.3011
 4825SOL    HW225938   4.647   2.100   4.068  0.7821 -0.3166 -0.9147
 4826SOL     OW25939   4.196   3.768   5.169  0.1993 -0.3456 -0.7150
 4826SOL    HW125940   4.232   3.695   5.119 -0.3099 -0.1605 -1.3466
 4826SOL    HW225941   4.262   3.837   5.163 -2.1402  2.0727  1.2236
 4827SOL     OW25942   3.469   3.818   2.192  0.3095 -0.2753 -0.0509
 4827SOL    HW125943   3.543   3.851   2.244  0.0475 -0.8959  0.7185
 4827SOL    HW225944   3.522   3.767   2.130 -1.2788 -1.8528 -0.1207
 4828SOL     OW25945   1.811   0.876  14.230  0.4848 -0.7761  0.7866
 4828SOL    HW125946   1.725   0.906  14.262  0.4413 -0.2907  0.2334
 4828SOL    HW225947   1.811   0.918  14.143 -1.1858 -1.4094  0.4788
 4829SOL     OW25948   1.716   3.811   9.838  0.3290  0.3323  0.6099
 4829SOL    HW125949   1.697   3.905   9.839  0.1743  0.3094 -0.5813
 4829SOL    HW225950   1.696   3.782   9.927 -1.1054  1.4418  0.6487
 4830SOL     OW25951   0.921   3.833   4.686 -0.5312  0.0916 -0.3283
 4830SOL    HW125952   0.859   3.761   4.696  1.0998 -1.2371  0.4459
 4830SOL    HW225953   1.002   3.798   4.723  0.5306  2.1192 -0.7227
 4831SOL     OW25954   0.263   3.607   1.788 -0.4439  0.2838 -0.5643
 4831SOL    HW125955   0.350   3.596   1.749  0.0538 -0.1498  0.6869
 4831SOL    HW225956   0.263   3.703   1.786 -0.4898  0.3260  1.4191
 4832SOL     OW25957   1.896   0.062  11.898 -0.0981 -0.0813 -0.3984
 4832SOL    HW125958   1.979   0.084  11.855  0.3239 -0.2311  0.3289
 4832SOL    HW225959   1.851   0.056  11.814 -2.5635  2.8687  0.7154
 4833SOL     OW25960   1.635   2.676   0.271 -0.6886  0.2809 -0.0067
 4833SOL    HW125961   1.680   2.760   0.262 -1.0346  0.7599  2.6474
 4833SOL    HW225962   1.698   2.617   0.312  0.3356 -0.5697 -2.8249
 4834SOL     OW25963   3.960   0.530  10.632 -0.4476  0.3254 -0.5216
 4834SOL    HW125964   3.911   0.529  10.715 -0.6707  1.3065 -0.6451
 4834SOL    HW225965   3.882   0.512  10.579 -2.0363 -0.5874  2.1089
 4835SOL     OW25966   2.662   2.104   9.519 -0.1650  0.6968  0.1409
 4835SOL    HW125967   2.671   2.061   9.604 -1.6123 -1.2309 -0.6847
 4835SOL    HW225968   2.745   2.077   9.478 -1.0966 -0.6948 -0.8233
 4836SOL     OW25969   0.725   0.750   9.767  0.1336  0.1840  0.4789
 4836SOL    HW125970   0.693   0.730   9.855  0.1216  0.0446  0.4420
 4836SOL    HW225971   0.818   0.728   9.779  0.4103  1.6799  1.1235
 4837SOL     OW25972   0.264   3.110   8.376  0.5261 -0.1529 -0.2072
 4837SOL    HW125973   0.196   3.145   8.319  0.0618  0.3219  0.6413
 4837SOL    HW225974   0.327   3.177   8.348 -0.0752  0.4598 -0.0733
 4838SOL     OW25975   1.190   4.609   3.170 -0.1034  0.1799  0.0381
 4838SOL    HW125976   1.229   4.620   3.084  0.2462  1.8452  0.4140
 4838SOL    HW225977   1.101   4.643   3.159 -0.6412 -1.0455  0.5341
 4839SOL     OW25978   0.219   1.127   7.405  0.0736  0.0934 -0.3820
 4839SOL    HW125979   0.161   1.170   7.468 -1.2139 -2.2440  0.0472
 4839SOL    HW225980   0.244   1.197   7.346 -0.0063  0.8895  0.5248
 4840SOL     OW25981   3.067   0.053   1.697 -0.0895 -0.2683 -0.0585
 4840SOL    HW125982   3.040   0.025   1.784  3.8958 -1.4640  0.7915
 4840SOL    HW225983   3.075   0.148   1.699  1.1365 -0.4569  3.1846
 4841SOL     OW25984   4.566   0.629  13.733  0.1750 -0.4818  0.0625
 4841SOL    HW125985   4.651   0.628  13.689 -0.2250  0.3032 -0.7188
 4841SOL    HW225986   4.579   0.684  13.811 -3.1219  1.4421 -0.7808
 4842SOL     OW25987   0.747   1.851   8.403  0.6266  0.5765 -0.5706
 4842SOL    HW125988   0.658   1.855   8.438  0.3518  1.8962 -1.4301
 4842SOL    HW225989   0.743   1.758   8.378 -0.1689  0.4409  0.0567
 4843SOL     OW25990   3.486   2.661   6.116 -0.3339  0.6798 -0.4193
 4843SOL    HW125991   3.498   2.753   6.136 -1.1741  0.4222  1.3064
 4843SOL    HW225992   3.575   2.625   6.115 -0.7537 -0.3643 -0.3200
 4844SOL     OW25993   1.509   2.838   3.113 -0.3970 -0.6427 -0.8285
 4844SOL    HW125994   1.455   2.787   3.053 -0.5967  0.9298 -1.9993
 4844SOL    HW225995   1.472   2.805   3.195 -2.2958  1.5038 -0.8295
 4845SOL     OW25996   1.115   2.866  12.126 -0.4428 -0.1991 -0.2490
 4845SOL    HW125997   1.123   2.857  12.031  0.1150  0.8935 -0.2965
 4845SOL    HW225998   1.033   2.820  12.144 -0.7936  0.6099  0.1736
 4846SOL     OW25999   1.548   4.368   8.127 -0.3748 -0.5098 -0.3367
 4846SOL    HW126000   1.627   4.410   8.161 -2.0258  0.8381  1.8624
 4846SOL    HW226001   1.507   4.354   8.212  0.3395 -0.2883  0.0395
 4847SOL     OW26002   0.663   2.654   2.690 -0.3788  0.0825 -0.1204
 4847SOL    HW126003   0.593   2.698   2.642 -1.9883  0.9849  3.0442
 4847SOL    HW226004   0.676   2.729   2.748  0.3182 -0.5254  0.4989
 4848SOL     OW26005   2.959   4.133   2.746  0.2266 -0.5454 -0.7654
 4848SOL    HW126006   3.002   4.217   2.764 -1.2303  0.2827 -1.0699
 4848SOL    HW226007   2.900   4.173   2.682  1.2334  2.4213  0.1283
 4849SOL     OW26008   0.995   0.994   0.491  0.3512  0.2272 -0.0266
 4849SOL    HW126009   0.904   0.964   0.489  0.3677  0.0860  0.9855
 4849SOL    HW226010   1.014   1.006   0.398  0.0795  0.9414  0.0164
 4850SOL     OW26011   4.721   4.590   7.752  0.7259  0.6950  0.1940
 4850SOL    HW126012   4.723   4.594   7.656 -0.0861 -0.5901  0.1274
 4850SOL    HW226013   0.090   4.584   7.771  0.5425  1.2365  1.2897
 4851SOL     OW26014   2.746   2.865  15.906  0.2334  0.3957  0.1973
 4851SOL    HW126015   2.794   2.782  15.904 -1.3860 -0.4670 -2.6566
 4851SOL    HW226016   2.664   2.837  15.865  0.1893  0.4328  0.2612
 4852SOL     OW26017   3.537   2.212   3.234  0.3837  0.6790  0.5050
 4852SOL    HW126018   3.467   2.277   3.245 -0.7291 -0.2371 -1.1758
 4852SOL    HW226019   3.555   2.176   3.321 -1.2764 -1.6671 -0.0972
 4853SOL     OW26020   4.391   4.541   9.117  0.5598  0.0978  0.6217
 4853SOL    HW126021   4.306   4.506   9.144  1.1750  0.4195  2.9700
 4853SOL    HW226022   4.362   4.572   9.031 -0.4761 -1.9320  0.2290
 4854SOL     OW26023   3.950   4.307  17.485  0.1256  0.1049 -0.1052
 4854SOL    HW126024   3.912   4.257  17.557  3.2734  0.6405  1.9154
 4854SOL    HW226025   3.959   4.397  17.518  2.0570  0.4131 -1.4202
 4855SOL     OW26026   0.401   1.839  13.361  0.3541  0.3926 -0.0619
 4855SOL    HW126027   0.438   1.901  13.423 -0.9406  1.1421 -0.0460
 4855SOL    HW226028   0.318   1.809  13.399  0.9372  0.6260  1.4095
 4856SOL     OW26029   0.800   4.160   8.803  0.3604 -0.1436 -0.4558
 4856SOL    HW126030   0.715   4.186   8.839  1.2469  0.5248  1.1912
 4856SOL    HW226031   0.778   4.074   8.767  0.8058 -0.8848  1.0451
 4857SOL     OW26032   0.831   3.485   3.976  0.6846  0.1807 -0.1371
 4857SOL    HW126033   0.752   3.477   3.924  1.5824 -2.5893 -1.0668
 4857SOL    HW226034   0.793   3.530   4.052 -0.0691 -1.3423  0.3831
 4858SOL     OW26035   2.210   4.279  14.123  0.5432  0.5231 -0.7081
 4858SOL    HW126036   2.251   4.359  14.090 -1.0091  2.0828  1.1151
 4858SOL    HW226037   2.287   4.249  14.172  0.6791 -0.3856 -1.4943
 4859SOL     OW26038   3.773   0.286   0.840 -0.4033 -0.3449 -0.2192
 4859SOL    HW126039   3.820   0.310   0.761  1.7581 -1.3067  0.7699
 4859SOL    HW226040   3.797   0.193   0.837 -1.1930 -0.4616 -3.0029
 4860SOL     OW26041   1.409   4.425  14.607  0.3594 -0.5226 -0.0495
 4860SOL    HW126042   1.326   4.415  14.654 -0.4552  0.5512 -1.2635
 4860SOL    HW226043   1.385   4.415  14.515  0.9123  0.5512 -0.3048
 4861SOL     OW26044   3.093   1.217  12.552  0.2797 -0.0340 -0.2851
 4861SOL    HW126045   3.181   1.238  12.520 -0.0800  0.8313 -0.7043
 4861SOL    HW226046   3.047   1.188  12.474 -0.6244 -0.6704  0.4936
 4862SOL     OW26047   2.635   0.531   5.282 -0.1718 -0.5036  0.1407
 4862SOL    HW126048   2.583   0.571   5.352 -0.4167  1.1469 -0.9831
 4862SOL    HW226049   2.712   0.587   5.267 -0.3874 -0.1424  0.3747
 4863SOL     OW26050   0.303   4.446   6.816 -0.0457 -0.4445 -0.0032
 4863SOL    HW126051   0.265   4.446   6.728 -0.2602  0.8659  0.0889
 4863SOL    HW226052   0.215   4.472   6.844 -0.2433  0.3888 -1.3833
 4864SOL     OW26053   2.804   0.526   3.220  0.1003 -0.6057  0.2925
 4864SOL    HW126054   2.723   0.553   3.178 -1.3856  0.3254  3.7500
 4864SOL    HW226055   2.856   0.497   3.145 -3.0399 -1.5143 -1.4937
 4865SOL     OW26056   4.148   2.426  15.470 -0.0850  0.3132  0.2491
 4865SOL    HW126057   4.208   2.395  15.402  1.6672 -1.1411  2.4491
 4865SOL    HW226058   4.179   2.371  15.542  1.1498 -1.3117 -1.4988
 4866SOL     OW26059   0.923   3.670  10.818 -0.5446  0.6392  0.1295
 4866SOL    HW126060   0.862   3.731  10.860 -1.6464 -0.4055  0.0259
 4866SOL    HW226061   1.009   3.712  10.831 -0.3500  1.0259 -2.4715
 4867SOL     OW26062   0.195   0.248   6.275 -0.4246  0.0831  0.5814
 4867SOL    HW126063   0.147   0.170   6.303 -0.2832 -0.5362 -0.8918
 4867SOL    HW226064   0.126   0.312   6.259  0.9524  0.4038 -3.9266
 4868SOL     OW26065   2.881   3.027   2.112  0.2167  0.2117  0.0445
 4868SOL    HW126066   2.796   3.015   2.070 -0.9199 -1.8457  2.9507
 4868SOL    HW226067   2.938   2.984   2.048  0.9865  0.6500  0.4416
 4869SOL     OW26068   4.084   2.525   8.352 -0.4983 -0.3398 -0.4469
 4869SOL    HW126069   4.044   2.590   8.409  1.8698  0.7392 -0.0230
 4869SOL    HW226070   4.047   2.555   8.268  0.6748  2.3607 -0.0126
 4870SOL     OW26071   2.894   1.871   0.539 -0.1442 -0.6721  0.0248
 4870SOL    HW126072   2.878   1.833   0.453  3.4789 -0.2658 -0.8163
 4870SOL    HW226073   2.898   1.793   0.594  0.4144 -0.8692 -0.2975
 4871SOL     OW26074   2.777   3.635   8.587 -0.1973  0.0413 -0.3120
 4871SOL    HW126075   2.698   3.653   8.637 -0.3050  1.0213 -0.8378
 4871SOL    HW226076   2.803   3.549   8.619 -0.7330 -0.2691 -0.7040
 4872SOL     OW26077   0.500   1.192   3.548  0.5715  0.3703 -0.0373
 4872SOL    HW126078   0.415   1.174   3.588  1.4630 -2.3867  0.5711
 4872SOL    HW226079   0.558   1.213   3.622  2.6777 -0.7005 -1.3935
 4873SOL     OW26080   2.197   4.515   3.578  0.0495  0.1855  0.2834
 4873SOL    HW126081   2.212   4.472   3.662 -1.0195  1.3618  1.0829
 4873SOL    HW226082   2.127   4.457   3.550 -1.7385  1.4848  2.0501
 4874SOL     OW26083   0.516   0.990   0.851 -0.2217 -0.3739  0.1509
 4874SOL    HW126084   0.495   0.994   0.945  1.1700 -1.2848  0.4903
 4874SOL    HW226085   0.557   0.904   0.846  1.2422  0.2472  1.5270
 4875SOL     OW26086   0.241   3.977  11.421 -0.1403 -0.2205 -0.4200
 4875SOL    HW126087   0.240   3.943  11.332  0.0020 -1.3582  0.0071
 4875SOL    HW226088   0.164   4.034  11.422 -0.4617 -0.6805  3.8267
 4876SOL     OW26089   3.780   0.545  10.427  0.3587  0.2692 -0.1172
 4876SOL    HW126090   3.746   0.465  10.388 -1.0828  1.5376 -1.4583
 4876SOL    HW226091   3.715   0.612  10.406 -0.6665 -1.0495 -1.1469
 4877SOL     OW26092   0.354   4.696   3.138 -0.0074  0.6116 -0.5218
 4877SOL    HW126093   0.384   0.029   3.067  2.5028  1.0510  0.8924
 4877SOL    HW226094   0.342   0.031   3.213 -0.8206 -0.1149 -0.0756
 4878SOL     OW26095   2.257   1.018   7.549  0.3770  0.1903  0.3546
 4878SOL    HW126096   2.329   1.046   7.493  1.4376  2.3136  2.7414
 4878SOL    HW226097   2.283   1.058   7.632  0.7451  0.8905 -0.0996
 4879SOL     OW26098   1.139   2.924   3.320 -0.0752 -0.1348  0.2398
 4879SOL    HW126099   1.070   2.901   3.382 -1.7021  1.7995 -0.8472
 4879SOL    HW226100   1.077   2.951   3.252 -0.7812 -1.8441  0.1936
 4880SOL     OW26101   1.374   4.550   4.594 -0.5281 -0.0732 -0.0286
 4880SOL    HW126102   1.465   4.564   4.619  0.0126 -2.3396 -0.7252
 4880SOL    HW226103   1.359   4.641   4.569  0.1669  0.6348  2.0600
 4881SOL     OW26104   1.130   4.286   8.132 -0.2790  0.0944 -0.8033
 4881SOL    HW126105   1.172   4.238   8.061  2.6439 -1.5639  2.0897
 4881SOL    HW226106   1.046   4.242   8.144 -0.9624  1.6734  0.3654
 4882SOL     OW26107   3.318   2.108   9.242 -0.1012  0.2910 -0.0705
 4882SOL    HW126108   3.264   2.112   9.163  0.9443  0.4598 -0.7876
 4882SOL    HW226109   3.257   2.070   9.305 -1.9001  1.5984 -1.0200
 4883SOL     OW26110   0.676   1.668   6.318  0.0633 -0.0883  0.6545
 4883SOL    HW126111   0.767   1.691   6.296  0.4478 -2.3065 -0.0766
 4883SOL    HW226112   0.637   1.756   6.312  0.4501  0.0432 -0.0622
 4884SOL     OW26113   4.671   0.012   2.789  0.6972 -0.5668  0.0040
 4884SOL    HW126114   4.585   4.711   2.755  0.5831 -1.0377  0.6571
 4884SOL    HW226115   4.683   4.709   2.879 -0.5592 -2.1764 -0.3169
 4885SOL     OW26116   1.847   4.210   9.812 -0.0535 -0.1694  0.0411
 4885SOL    HW126117   1.927   4.243   9.853 -1.5453  2.4614  0.8020
 4885SOL    HW226118   1.892   4.134   9.774  0.1650  0.1663 -0.3688
 4886SOL     OW26119   0.597   2.482  16.612 -0.5649  0.3773 -0.1422
 4886SOL    HW126120   0.574   2.574  16.599  1.0045  0.3913 -2.8080
 4886SOL    HW226121   0.680   2.487  16.565  1.8169  1.0536  4.1410
 4887SOL     OW26122   2.901   3.855   7.090  0.1898 -0.4822  0.2930
 4887SOL    HW126123   2.922   3.800   7.015 -1.0645 -1.4737  0.6699
 4887SOL    HW226124   2.839   3.804   7.142 -0.0313  0.4975  0.9781
 4888SOL     OW26125   3.569   2.991   8.024 -0.0373 -0.0852 -0.1338
 4888SOL    HW126126   3.520   2.912   8.003 -1.1599  0.2094  1.4091
 4888SOL    HW226127   3.608   2.962   8.107 -0.7854  0.2105  0.3207
 4889SOL     OW26128   2.161   0.697  15.386 -0.2900  0.2042  0.5198
 4889SOL    HW126129   2.112   0.647  15.320  1.4708 -0.4428 -0.3117
 4889SOL    HW226130   2.203   0.632  15.442 -2.4326 -1.1712  0.5385
 4890SOL     OW26131   0.302   4.497   7.091  0.0183  0.6656 -0.1814
 4890SOL    HW126132   0.288   4.591   7.079 -0.7790  0.4104 -1.3337
 4890SOL    HW226133   0.292   4.465   7.001  0.9038 -1.6261  0.5475
 4891SOL     OW26134   1.166   1.639   3.947 -0.3961  0.1621 -0.0846
 4891SOL    HW126135   1.094   1.685   3.989 -0.3303  1.1107 -1.0018
 4891SOL    HW226136   1.131   1.606   3.865 -0.2103  0.2430 -0.1987
 4892SOL     OW26137   3.373   0.350   2.229 -0.2876  0.5561 -0.2731
 4892SOL    HW126138   3.347   0.348   2.136  2.2054  1.7547 -0.9862
 4892SOL    HW226139   3.460   0.312   2.229 -0.7061 -0.3767  1.5085
 4893SOL     OW26140   4.515   1.818   3.986  0.5889  0.6376  0.2594
 4893SOL    HW126141   4.463   1.743   4.014  0.4476  0.3994 -0.6348
 4893SOL    HW226142   4.597   1.770   3.975  0.8645  1.4284 -1.0849
 4894SOL     OW26143   2.572   3.159   8.232 -0.2316 -0.4210  0.3708
 4894SOL    HW126144   2.545   3.251   8.234 -1.6081 -0.7470 -2.9291
 4894SOL    HW226145   2.492   3.110   8.248 -2.0032  2.8667  1.7506
 4895SOL     OW26146   3.451   1.993   7.994  0.2174 -0.2228  0.1154
 4895SOL    HW126147   3.370   1.947   7.972 -0.5654  0.6668  1.1286
 4895SOL    HW226148   3.446   2.023   8.085 -1.5473  1.0735 -0.4147
 4896SOL     OW26149   4.675   4.209   5.794  0.4366  0.4001 -0.9297
 4896SOL    HW126150   4.615   4.159   5.739  0.6115  0.6195 -1.3233
 4896SOL    HW226151   4.623   4.207   5.873  1.2183 -0.0538 -0.4235
 4897SOL     OW26152   1.809   3.233   8.295  0.0549  0.2586 -0.3929
 4897SOL    HW126153   1.883   3.266   8.245  0.4737  1.1500  0.8307
 4897SOL    HW226154   1.813   3.137   8.292  2.6093  0.4240 -1.9725
 4898SOL     OW26155   2.692   0.539   1.513  0.3169 -0.0817  0.1751
 4898SOL    HW126156   2.780   0.503   1.503  0.4876  0.8655 -1.6681
 4898SOL    HW226157   2.689   0.629   1.480 -2.0887  0.1278  0.9839
 4899SOL     OW26158   1.359   4.190   6.889 -0.3265  0.4247  0.2955
 4899SOL    HW126159   1.329   4.218   6.803  0.1286  0.2837  0.0912
 4899SOL    HW226160   1.448   4.161   6.871  0.3912  2.7317  0.0670
 4900SOL     OW26161   2.286   3.362   8.772  0.1332  0.4473  0.1367
 4900SOL    HW126162   2.201   3.380   8.732 -0.2963  0.0953  0.8883
 4900SOL    HW226163   2.261   3.298   8.838 -0.9696  3.4380  2.6014
 4901SOL     OW26164   0.446   1.719   8.868  0.6715  0.3117  0.5478
 4901SOL    HW126165   0.356   1.742   8.891  1.0919  2.2654  0.2393
 4901SOL    HW226166   0.493   1.799   8.891  1.2859  0.0926  0.0540
 4902SOL     OW26167   1.225   2.035   4.034  0.1999 -0.3190 -0.3142
 4902SOL    HW126168   1.189   2.099   3.973  1.3452 -0.0927 -0.7409
 4902SOL    HW226169   1.154   1.998   4.087  0.5556  0.0965  0.4462
 4903SOL     OW26170   0.914   0.862   6.526 -0.0512  0.1749  0.1217
 4903SOL    HW126171   0.833   0.840   6.479 -1.5682  0.2807  2.7199
 4903SOL    HW226172   0.907   0.957   6.534 -3.5420  0.0605 -1.3978
 4904SOL     OW26173   4.225   0.352   2.522  0.0270  0.4191  0.4921
 4904SOL    HW126174   4.279   0.409   2.467  0.3476  0.1439  0.5267
 4904SOL    HW226175   4.292   0.293   2.557  0.7849  0.5023 -0.8280
 4905SOL     OW26176   2.380   4.070   8.161  0.7804  0.6806 -0.2519
 4905SOL    HW126177   2.454   4.027   8.204  2.8413  3.6310 -0.7548
 4905SOL    HW226178   2.357   3.995   8.106  2.2237  0.1589 -0.1437
 4906SOL     OW26179   0.297   0.904   4.168 -0.4854 -0.7249 -0.5149
 4906SOL    HW126180   0.279   0.810   4.175  0.3081 -0.8505 -0.1840
 4906SOL    HW226181   0.273   0.942   4.252  1.3359 -2.2172  0.6906
 4907SOL     OW26182   1.707   3.735   2.604  0.2189  0.4010  0.1773
 4907SOL    HW126183   1.624   3.782   2.600 -1.2810 -2.5028 -2.8104
 4907SOL    HW226184   1.692   3.670   2.535  0.6071 -1.7336  2.1108
 4908SOL     OW26185   2.761   1.325   5.379 -0.6364 -0.1355 -0.0015
 4908SOL    HW126186   2.761   1.294   5.288  1.5509  2.3680 -0.8554
 4908SOL    HW226187   2.669   1.347   5.393 -0.6989 -0.3642 -0.0525
 4909SOL     OW26188   4.170   1.017   3.000  0.4472  0.1436 -0.0418
 4909SOL    HW126189   4.239   0.962   3.037  1.0052  0.6569 -0.3434
 4909SOL    HW226190   4.138   0.964   2.927 -1.7272  0.9716  0.2916
 4910SOL     OW26191   1.521   2.878   6.620  0.0152 -0.4446  0.1123
 4910SOL    HW126192   1.521   2.832   6.704 -0.8237 -0.2395  0.2339
 4910SOL    HW226193   1.596   2.937   6.619 -1.0251  0.8402 -1.7797
 4911SOL     OW26194   0.697   1.028   6.153  0.0325 -0.1076  0.0393
 4911SOL    HW126195   0.785   1.025   6.192 -0.0027  1.6322  0.2718
 4911SOL    HW226196   0.635   1.032   6.225  1.1892 -1.4149  1.1034
 4912SOL     OW26197   3.437   3.686   7.525  0.3967 -0.3625  0.0475
 4912SOL    HW126198   3.380   3.622   7.483  0.3372 -0.9956  1.0988
 4912SOL    HW226199   3.412   3.760   7.470 -2.2814 -1.6847 -0.5163
 4913SOL     OW26200   0.899   3.352   4.867 -0.0668 -0.2809 -0.4126
 4913SOL    HW126201   0.854   3.338   4.784 -1.3703 -1.3183  0.4721
 4913SOL    HW226202   0.939   3.265   4.877  2.0880  0.3643 -3.3440
 4914SOL     OW26203   3.800   1.673   1.948  0.3117  0.1440 -0.6710
 4914SOL    HW126204   3.840   1.656   1.863  0.2730 -0.8216 -0.4971
 4914SOL    HW226205   3.708   1.653   1.930 -0.0030 -0.7988  1.9737
 4915SOL     OW26206   3.596   3.167   8.929  0.0800 -0.5143 -0.0501
 4915SOL    HW126207   3.683   3.181   8.891  1.7441 -0.5960  3.7357
 4915SOL    HW226208   3.626   3.107   8.998  1.0027  0.1066  0.0877
 4916SOL     OW26209   4.382   4.636  16.243  0.3422 -0.2240  0.3539
 4916SOL    HW126210   4.368   0.006  16.233  0.6146 -0.2687 -0.4085
 4916SOL    HW226211   4.400   4.619  16.151 -0.2387  1.6072 -0.0997
 4917SOL     OW26212   3.016   3.909   9.263  0.0472 -0.4457  0.6670
 4917SOL    HW126213   2.958   3.984   9.274 -0.1600 -0.5641  0.3955
 4917SOL    HW226214   2.996   3.866   9.346  0.0820 -0.7854  0.5005
 4918SOL     OW26215   4.227   1.509  11.343  0.0838 -0.4363 -0.9794
 4918SOL    HW126216   4.170   1.553  11.280 -1.2282  0.2089  0.6470
 4918SOL    HW226217   4.202   1.419  11.324 -1.3471  0.3548 -2.8534
 4919SOL     OW26218   1.933   1.659   3.269 -0.3114 -0.3301  0.1275
 4919SOL    HW126219   1.970   1.586   3.317 -1.3971 -0.2243  1.1259
 4919SOL    HW226220   1.966   1.639   3.181 -0.9837  0.1304 -0.2351
 4920SOL     OW26221   3.478   3.823   1.147  0.2883  0.3814  0.4835
 4920SOL    HW126222   3.472   3.798   1.055 -0.1798  1.8529  0.1057
 4920SOL    HW226223   3.411   3.761   1.176 -0.5695 -0.5878 -3.6308
 4921SOL     OW26224   2.326   2.572  12.724 -0.5924  1.1017  0.0189
 4921SOL    HW126225   2.374   2.527  12.794  1.1960  1.2806 -1.0958
 4921SOL    HW226226   2.238   2.560  12.760 -0.3517  1.0800  0.6082
 4922SOL     OW26227   2.000   4.004  11.871 -0.1487  0.2219 -0.4724
 4922SOL    HW126228   1.998   4.038  11.782 -2.9986  1.1785 -0.0420
 4922SOL    HW226229   1.994   3.910  11.851  2.0348  0.4933 -2.3115
 4923SOL     OW26230   4.706   0.555   2.681  0.1071  0.4873  0.0632
 4923SOL    HW126231   4.717   0.460   2.677 -0.1075  0.3917  2.1792
 4923SOL    HW226232   0.005   0.578   2.771  2.1936  0.9652 -0.5910
 4924SOL     OW26233   0.009   4.599  17.133 -0.1244 -0.5369  0.7378
 4924SOL    HW126234   4.664   4.653  17.096 -0.9234 -2.5350 -0.6664
 4924SOL    HW226235   4.679   4.523  17.152  0.7555 -1.7756 -1.7405
 4925SOL     OW26236   2.593   4.068   2.279  0.0140  0.8296  0.4491
 4925SOL    HW126237   2.633   4.070   2.192 -1.3753 -1.3984 -0.2621
 4925SOL    HW226238   2.517   4.013   2.260  1.4672  0.5535 -4.5853
 4926SOL     OW26239   3.532   0.108   6.442 -0.0161  0.5446 -0.5410
 4926SOL    HW126240   3.495   0.148   6.520 -2.3265 -3.6684  0.5197
 4926SOL    HW226241   3.543   0.019   6.475 -1.3223  0.1349 -1.2262
 4927SOL     OW26242   2.527   1.766  17.111 -0.0410  0.0066  0.1389
 4927SOL    HW126243   2.503   1.745  17.021 -0.4008 -2.9729  0.9212
 4927SOL    HW226244   2.551   1.680  17.145 -1.9067  0.6299  3.0031
 4928SOL     OW26245   1.815   1.932   8.437  0.2309  0.3281  0.1800
 4928SOL    HW126246   1.899   1.945   8.394  0.4659  2.0376  1.1769
 4928SOL    HW226247   1.799   2.023   8.460 -2.9979 -0.7040  2.0033
 4929SOL     OW26248   0.098   1.226   8.666 -0.3248 -0.4007 -0.5234
 4929SOL    HW126249   0.076   1.285   8.738 -1.0247 -0.1726 -0.9311
 4929SOL    HW226250   0.129   1.159   8.728  0.2605  1.7898  1.5337
 4930SOL     OW26251   2.663   4.246   8.264  0.1014  0.0838  0.0495
 4930SOL    HW126252   2.646   4.176   8.327 -1.4252 -0.5839 -1.1077
 4930SOL    HW226253   2.724   4.207   8.202 -2.0563 -1.9618 -0.7836
 4931SOL     OW26254   1.583   2.982   9.586 -0.1203  0.0663 -0.4598
 4931SOL    HW126255   1.600   3.075   9.571 -0.7456  0.5033  1.4751
 4931SOL    HW226256   1.597   2.939   9.502 -1.2173 -2.3337  0.5926
 4932SOL     OW26257   3.583   2.421   6.682 -0.1687 -0.0458  0.8370
 4932SOL    HW126258   3.611   2.333   6.655  0.3895  0.7705 -1.2205
 4932SOL    HW226259   3.488   2.412   6.683 -0.3385  1.5145 -1.5021
 4933SOL     OW26260   3.304   3.915   5.523 -0.0737  0.4481  0.2339
 4933SOL    HW126261   3.293   3.834   5.473  1.4837 -0.6782  1.7049
 4933SOL    HW226262   3.288   3.973   5.449  0.7088 -0.4567 -0.6508
 4934SOL     OW26263   0.155   0.904   5.834 -0.1653 -0.3383 -0.8913
 4934SOL    HW126264   0.228   0.891   5.895  0.2744  0.5827 -1.2153
 4934SOL    HW226265   0.194   0.872   5.752  0.9458 -1.0169 -0.1029
 4935SOL     OW26266   3.820   1.597   6.550  0.3125 -0.5550 -0.3833
 4935SOL    HW126267   3.883   1.539   6.507 -2.2131 -3.0775 -0.6186
 4935SOL    HW226268   3.832   1.661   6.479 -0.7275  1.0655  0.8915
 4936SOL     OW26269   2.968   3.036   3.358 -0.6131  0.6200 -0.2652
 4936SOL    HW126270   3.052   3.021   3.314 -0.5096 -0.4025  0.2660
 4936SOL    HW226271   2.952   3.124   3.325 -0.3482  1.0146  0.6752
 4937SOL     OW26272   2.156   2.307   6.436 -0.0346 -0.4740  0.7546
 4937SOL    HW126273   2.078   2.255   6.415  1.1684 -1.9315 -0.0352
 4937SOL    HW226274   2.172   2.360   6.358 -1.0373 -0.4558  0.5524
 4938SOL     OW26275   3.837   2.282   4.999  0.3734 -0.6146  0.6973
 4938SOL    HW126276   3.925   2.301   4.966 -0.5647 -0.4486 -1.7114
 4938SOL    HW226277   3.838   2.186   4.992 -0.8387 -0.5635 -0.1834
 4939SOL     OW26278   1.605   1.297   3.223  0.5929  0.0383 -0.1300
 4939SOL    HW126279   1.575   1.388   3.220 -0.6817 -0.3200  2.2616
 4939SOL    HW226280   1.533   1.269   3.280  0.9173 -0.6819 -0.0804
 4940SOL     OW26281   1.496   1.343  12.259 -0.0964  0.2069 -0.0072
 4940SOL    HW126282   1.534   1.260  12.232  2.0959  1.0645  0.4131
 4940SOL    HW226283   1.474   1.324  12.350  1.6965 -0.6849  0.2337
 4941SOL     OW26284   1.197   0.654   0.422 -0.6180 -0.3300 -0.0253
 4941SOL    HW126285   1.177   0.675   0.513  1.0627 -0.9903  0.4897
 4941SOL    HW226286   1.292   0.666   0.424 -0.0349 -4.6468 -1.2843
 4942SOL     OW26287   3.546   0.701  12.174  0.3580  0.5812 -0.0667
 4942SOL    HW126288   3.498   0.695  12.256 -2.1716  1.1681 -1.4893
 4942SOL    HW226289   3.513   0.789  12.155  1.0648  0.8024 -0.2871
 4943SOL     OW26290   4.146   1.577   3.392  0.7742  0.6732  0.4240
 4943SOL    HW126291   4.133   1.646   3.458  0.5804  0.4695  0.5993
 4943SOL    HW226292   4.057   1.559   3.362  1.1510 -1.4899  0.6303
 4944SOL     OW26293   0.821   3.344   7.918 -0.6924 -0.0833 -0.1575
 4944SOL    HW126294   0.782   3.258   7.933 -1.8003  0.7211  1.5072
 4944SOL    HW226295   0.856   3.333   7.829  1.6143 -2.7793  1.0677
 4945SOL     OW26296   2.464   1.363   0.516  0.1727 -0.1058  0.2803
 4945SOL    HW126297   2.403   1.333   0.583 -1.8640  0.0394 -1.5211
 4945SOL    HW226298   2.417   1.343   0.435  2.8099 -0.6134 -1.1135
 4946SOL     OW26299   3.133   0.872   5.335 -0.6962  0.0924 -0.0670
 4946SOL    HW126300   3.133   0.942   5.271 -3.2242 -1.2335 -1.4956
 4946SOL    HW226301   3.159   0.913   5.418 -2.8328 -1.5036  1.3817
 4947SOL     OW26302   0.766   1.513  16.444  0.1024 -0.0843  0.1458
 4947SOL    HW126303   0.696   1.448  16.434  0.3424 -0.1092 -1.4062
 4947SOL    HW226304   0.733   1.574  16.510  2.0883  0.6224  0.4856
 4948SOL     OW26305   4.189   1.124   2.639  0.1452 -0.0605 -0.2827
 4948SOL    HW126306   4.219   1.208   2.605  0.1591 -0.0850 -0.3308
 4948SOL    HW226307   4.196   1.148   2.731  0.0982 -1.7397  0.1477
 4949SOL     OW26308   2.281   4.458   8.381 -0.2213 -0.1827 -0.0106
 4949SOL    HW126309   2.354   4.491   8.433 -0.7518 -0.1063  0.6995
 4949SOL    HW226310   2.322   4.454   8.295  0.2906  0.6472  0.1884
 4950SOL     OW26311   3.967   2.177   2.992  0.2868 -0.3623 -0.2809
 4950SOL    HW126312   3.890   2.212   3.037  1.4599  1.5669  0.2412
 4950SOL    HW226313   4.028   2.251   2.991 -2.0827  1.5428 -1.4842
 4951SOL     OW26314   3.405   1.053   4.955  0.4546  0.3403  0.2095
 4951SOL    HW126315   3.481   1.011   4.915  0.3065 -0.5517  0.8554
 4951SOL    HW226316   3.328   1.027   4.904 -0.2374 -1.0444  1.9902
 4952SOL     OW26317   4.056   4.625   6.390 -0.7764  0.3003 -0.6569
 4952SOL    HW126318   4.100   4.690   6.444  1.5435  0.6863 -3.0461
 4952SOL    HW226319   3.963   4.637   6.412 -0.4818 -0.1206  0.8312
 4953SOL     OW26320   1.560   1.472   1.830 -0.1464  0.0016 -0.6534
 4953SOL    HW126321   1.553   1.445   1.738 -0.2919  0.4075 -0.7627
 4953SOL    HW226322   1.509   1.406   1.876  0.5600 -1.5877 -2.1567
 4954SOL     OW26323   0.134   3.751   8.228  0.0803  0.6045  0.4401
 4954SOL    HW126324   0.157   3.830   8.277 -0.7862 -0.2599  2.2225
 4954SOL    HW226325   0.202   3.743   8.161  1.7066  3.9764  1.6556
 4955SOL     OW26326   4.695   3.413  17.025 -0.1033 -0.5275  0.0177
 4955SOL    HW126327   4.687   3.460  17.107  1.3781 -0.9802  0.4242
 4955SOL    HW226328   4.689   3.324  17.059 -1.7162 -0.0941  0.8741
 4956SOL     OW26329   2.127   1.867  15.426  0.4426  0.0152  0.0120
 4956SOL    HW126330   2.139   1.782  15.468 -1.7550 -0.3929 -0.1766
 4956SOL    HW226331   2.056   1.850  15.365 -0.7641  0.8085  1.2041
 4957SOL     OW26332   0.884   0.594   6.103  0.1816 -0.0851  0.4431
 4957SOL    HW126333   0.942   0.666   6.124 -0.9789  0.1864  2.6749
 4957SOL    HW226334   0.944   0.538   6.054  0.7649 -1.6701  2.9919
 4958SOL     OW26335   3.840   4.123   5.661  0.5136 -0.2537 -0.4339
 4958SOL    HW126336   3.913   4.175   5.628 -0.1833  1.4759  0.7455
 4958SOL    HW226337   3.772   4.190   5.673 -0.1916 -0.8521 -1.0446
 4959SOL     OW26338   1.992   4.640  11.376  0.2709  0.2236 -0.2668
 4959SOL    HW126339   2.052   4.707  11.342  0.6255 -0.4171 -0.8963
 4959SOL    HW226340   2.058   4.590  11.424  1.1273  1.8638  0.2895
 4960SOL     OW26341   1.826   3.727  11.317  0.1923 -0.0639  0.4724
 4960SOL    HW126342   1.764   3.674  11.367  0.3578 -0.0276  0.7149
 4960SOL    HW226343   1.871   3.769  11.390  1.1349  0.1594 -0.2436
 4961SOL     OW26344   0.335   1.607   7.006 -0.0870 -0.9355 -0.5916
 4961SOL    HW126345   0.310   1.584   6.917 -0.8722  0.0395 -0.6205
 4961SOL    HW226346   0.264   1.566   7.057  0.3674  0.3868  1.0974
 4962SOL     OW26347   3.530   2.596  10.985  0.1218 -0.1851 -0.0361
 4962SOL    HW126348   3.470   2.591  10.911  1.9622 -1.0702 -1.4809
 4962SOL    HW226349   3.539   2.690  10.995  2.5341 -0.4779  0.6788
 4963SOL     OW26350   4.412   1.205   6.098 -0.1441  0.2257  0.2330
 4963SOL    HW126351   4.345   1.154   6.053 -0.3378 -0.9166  1.8344
 4963SOL    HW226352   4.456   1.139   6.151 -1.5761 -0.7012  0.2744
 4964SOL     OW26353   4.647   3.057  13.379 -0.4067  0.0090 -0.1843
 4964SOL    HW126354   4.705   3.083  13.451 -0.7535 -2.3123  0.9199
 4964SOL    HW226355   4.617   3.142  13.346 -0.0994  0.4897  0.7898
 4965SOL     OW26356   3.651   1.809   8.859 -0.9924 -0.1419  0.4206
 4965SOL    HW126357   3.743   1.784   8.848 -1.9603 -3.6632  0.3373
 4965SOL    HW226358   3.655   1.854   8.943 -0.3575  0.5120  0.0421
 4966SOL     OW26359   2.822   3.760  15.547  0.0779 -0.5528 -0.6739
 4966SOL    HW126360   2.743   3.788  15.502 -0.5880 -3.5732 -1.4014
 4966SOL    HW226361   2.793   3.671  15.569 -1.4061 -0.4424 -2.2022
 4967SOL     OW26362   0.585   1.344   6.058  0.3931  0.1802 -0.1503
 4967SOL    HW126363   0.659   1.283   6.060  0.9073  0.7882 -0.8509
 4967SOL    HW226364   0.616   1.407   5.993 -1.0680  0.7023 -0.3345
 4968SOL     OW26365   2.315   4.484   6.835  0.3284 -0.3601 -0.3746
 4968SOL    HW126366   2.307   4.415   6.901  1.3312  1.7130  1.9091
 4968SOL    HW226367   2.327   4.432   6.755  2.0739 -1.0781  0.3381
 4969SOL     OW26368   3.136   3.811   7.521 -0.0500  0.8095  0.5824
 4969SOL    HW126369   3.092   3.894   7.540 -0.8738  0.3930  0.5024
 4969SOL    HW226370   3.202   3.832   7.455 -2.3554  2.2102 -1.2672
 4970SOL     OW26371   1.462   4.386   4.380 -0.3067  0.4481 -0.2896
 4970SOL    HW126372   1.435   4.386   4.472  1.5632  1.1549  0.2583
 4970SOL    HW226373   1.395   4.447   4.349 -2.0225 -0.5903  1.3227
 4971SOL     OW26374   4.014   2.460   8.759  0.3291 -0.0879 -0.2512
 4971SOL    HW126375   3.923   2.429   8.760  1.5310 -3.7391 -1.1858
 4971SOL    HW226376   4.007   2.516   8.836  1.3157  1.1955 -1.0984
 4972SOL     OW26377   1.899   2.568  12.980 -0.3495  0.6738  0.2597
 4972SOL    HW126378   1.978   2.594  13.028 -0.2335  0.2783  0.2826
 4972SOL    HW226379   1.913   2.484  12.938 -1.3738  1.1763 -1.0941
 4973SOL     OW26380   1.241   4.650   2.456  0.7389 -0.1171  0.4005
 4973SOL    HW126381   1.307   4.610   2.513  1.4516 -0.8174 -0.9094
 4973SOL    HW226382   1.249   4.587   2.385 -0.2856  0.9925 -0.6887
 4974SOL     OW26383   1.143   3.334   2.889 -0.2992  0.1464  0.0506
 4974SOL    HW126384   1.135   3.406   2.951 -0.5287 -0.2294  0.4641
 4974SOL    HW226385   1.104   3.377   2.814 -0.6785  0.2534  0.3049
 4975SOL     OW26386   2.733   4.386   8.588 -0.6621  0.0606  0.1020
 4975SOL    HW126387   2.688   4.324   8.532 -2.0726  0.8765  0.3451
 4975SOL    HW226388   2.720   4.339   8.670 -0.8156 -0.0357  0.0214
 4976SOL     OW26389   0.797   1.096   4.794 -0.0985 -0.3530 -0.3003
 4976SOL    HW126390   0.877   1.047   4.774 -0.5270 -0.2818 -2.1318
 4976SOL    HW226391   0.738   1.073   4.723 -1.2249  0.3159  0.4187
 4977SOL     OW26392   3.048   0.470   9.537 -0.4126 -0.2590 -0.6646
 4977SOL    HW126393   3.093   0.554   9.548 -0.0219 -0.9258  2.7402
 4977SOL    HW226394   3.042   0.485   9.442  2.0311  0.8473 -0.6651
 4978SOL     OW26395   3.229   3.179   4.380  0.0489 -0.3679  0.4864
 4978SOL    HW126396   3.135   3.187   4.401 -0.9197 -3.7581 -2.6253
 4978SOL    HW226397   3.268   3.193   4.467  0.0397 -1.1748  0.6228
 4979SOL     OW26398   2.608   1.446   3.269  1.0230  0.1100  0.0402
 4979SOL    HW126399   2.699   1.416   3.276 -0.3286 -3.4214  2.6760
 4979SOL    HW226400   2.586   1.419   3.180 -0.8511 -0.5847  0.7109
 4980SOL     OW26401   2.933   1.978  10.736  0.3214  0.0071 -0.2392
 4980SOL    HW126402   3.009   1.930  10.703  2.4716  1.4064  2.7260
 4980SOL    HW226403   2.872   1.906  10.748 -0.1080  0.3057 -0.6210
 4981SOL     OW26404   3.714   2.276   3.051  0.2428 -0.0055 -0.4752
 4981SOL    HW126405   3.631   2.278   3.003 -0.4823  1.9087  0.8405
 4981SOL    HW226406   3.688   2.242   3.137 -0.7850  1.5636 -0.1692
 4982SOL     OW26407   1.800   3.928   4.865  0.3065  0.3955  0.1964
 4982SOL    HW126408   1.832   3.934   4.775 -0.7628  0.2893 -0.1906
 4982SOL    HW226409   1.706   3.913   4.853  0.0926  0.4826  1.6552
 4983SOL     OW26410   1.557   0.880   7.680  0.4107  0.3502 -0.2213
 4983SOL    HW126411   1.552   0.938   7.603  0.4380  0.1015 -0.4089
 4983SOL    HW226412   1.465   0.860   7.696  1.1871 -2.1675  1.0502
 4984SOL     OW26413   3.024   2.676   2.764 -0.1869  0.5844 -0.9504
 4984SOL    HW126414   2.996   2.585   2.773  0.8301  0.2687 -0.9134
 4984SOL    HW226415   3.051   2.701   2.852 -0.8165 -1.3799 -0.2138
 4985SOL     OW26416   0.801   2.601   3.026 -0.0393 -0.2925  0.5072
 4985SOL    HW126417   0.848   2.592   3.109 -1.0866  0.9839  1.2513
 4985SOL    HW226418   0.755   2.684   3.038 -2.3289 -1.8160  2.3491
 4986SOL     OW26419   2.712   1.596  16.121  0.4231 -0.3679  0.1714
 4986SOL    HW126420   2.642   1.533  16.137  0.8879 -1.3125 -1.5386
 4986SOL    HW226421   2.666   1.668  16.080  1.3402  0.9404  1.4378
 4987SOL     OW26422   3.193   4.094  17.349  0.7301 -0.2025 -0.2874
 4987SOL    HW126423   3.194   4.178  17.302  0.9224 -0.7260 -1.1974
 4987SOL    HW226424   3.115   4.060  17.305  1.0868  0.0038 -1.0853
 4988SOL     OW26425   2.818   4.559   4.927 -0.6060 -0.1296 -0.2330
 4988SOL    HW126426   2.735   4.516   4.950  1.3674 -2.1750  2.9550
 4988SOL    HW226427   2.887   4.508   4.969  1.9563  1.1640 -2.9695
 4989SOL     OW26428   0.491   0.708  10.053  0.6853 -0.0033 -0.1028
 4989SOL    HW126429   0.586   0.701  10.062  0.7892  0.8269 -0.5859
 4989SOL    HW226430   0.453   0.629  10.015  1.9885 -1.3567  1.4358
 4990SOL     OW26431   2.438   1.749   5.108  0.5370 -0.1457  0.0238
 4990SOL    HW126432   2.447   1.723   5.016 -1.1039  1.5871 -0.6205
 4990SOL    HW226433   2.518   1.800   5.112 -0.6517  1.6612  0.6881
 4991SOL     OW26434   3.239   1.717   4.011  0.4601 -0.3503  0.3295
 4991SOL    HW126435   3.200   1.662   3.943 -0.7972  0.8117  0.0927
 4991SOL    HW226436   3.192   1.678   4.085  0.6634  1.7013  1.5528
 4992SOL     OW26437   3.781   2.503   3.176 -0.0638 -0.4677  0.1116
 4992SOL    HW126438   3.854   2.457   3.217 -0.9335  0.0085  2.1681
 4992SOL    HW226439   3.747   2.432   3.121 -2.4832  1.0906 -0.3931
 4993SOL     OW26440   0.930   0.590   2.270 -0.3249 -0.1376  0.0343
 4993SOL    HW126441   0.929   0.606   2.364 -1.4915 -1.0326  0.1705
 4993SOL    HW226442   0.839   0.561   2.271 -1.1354  2.3556 -1.5080
 4994SOL     OW26443   2.511   3.302   1.699  0.1572  0.5089 -0.0953
 4994SOL    HW126444   2.515   3.249   1.779  0.5036  0.5088 -0.1093
 4994SOL    HW226445   2.480   3.384   1.738 -0.1062  1.1616 -1.6878
 4995SOL     OW26446   3.484   0.465   3.387  0.1364 -0.3202  0.1665
 4995SOL    HW126447   3.528   0.540   3.426  1.9714 -1.5503  0.4430
 4995SOL    HW226448   3.469   0.407   3.462 -0.1639  2.7105  2.4362
 4996SOL     OW26449   1.721   3.947   8.882 -0.4368  0.6334 -0.0178
 4996SOL    HW126450   1.774   4.026   8.894  0.0996  0.0424  1.4878
 4996SOL    HW226451   1.745   3.899   8.961 -3.7628  0.3964  0.8351
 4997SOL     OW26452   2.772   0.121   3.204 -0.2667  0.0222  0.5589
 4997SOL    HW126453   2.723   0.062   3.261 -0.2609 -0.0709  0.4668
 4997SOL    HW226454   2.706   0.137   3.137  0.0146 -0.7929  0.0881
 4998SOL     OW26455   0.406   0.321   5.591 -0.6101 -0.3450 -0.4454
 4998SOL    HW126456   0.336   0.297   5.653 -1.8429 -0.7818 -2.0180
 4998SOL    HW226457   0.417   0.239   5.544  0.2002 -0.5088  0.0298
 4999SOL     OW26458   0.759   4.474   6.764  0.5268  0.1715  0.1016
 4999SOL    HW126459   0.738   4.391   6.807 -0.9219  0.5071  0.0369
 4999SOL    HW226460   0.708   4.526   6.826  1.3154  0.3778  0.5722
 5000SOL     OW26461   1.412   2.013  11.062  0.0227  0.5724 -0.4321
 5000SOL    HW126462   1.350   2.043  11.128  0.8734 -0.9262  1.0417
 5000SOL    HW226463   1.391   1.920  11.065 -0.2683  0.6826  1.1223
 5001SOL     OW26464   2.033   1.557  10.839 -0.1908  0.4684 -0.7638
 5001SOL    HW126465   2.060   1.517  10.922 -2.0862  1.1807  0.2101
 5001SOL    HW226466   1.978   1.630  10.865  2.2285  2.0536 -0.1479
 5002SOL     OW26467   0.129   3.430   5.975 -0.1530  0.0649 -0.0838
 5002SOL    HW126468   0.191   3.484   6.024  0.2632 -1.0765  0.6473
 5002SOL    HW226469   0.049   3.462   6.018  0.9331 -1.1045  2.8536
 5003SOL     OW26470   3.089   2.579  13.793 -0.3679 -0.2404 -0.0115
 5003SOL    HW126471   3.057   2.593  13.704  0.1676  0.2672 -0.1232
 5003SOL    HW226472   3.023   2.521  13.830 -3.7391  2.9211 -1.0964
 5004SOL     OW26473   2.790   3.269   3.853  0.3598 -0.2913  0.0483
 5004SOL    HW126474   2.848   3.198   3.882  0.3179 -0.6639 -0.7962
 5004SOL    HW226475   2.855   3.320   3.805 -1.3135  2.1700  0.4159
 5005SOL     OW26476   3.932   1.680   8.061  0.1927  0.1094 -0.3627
 5005SOL    HW126477   3.971   1.761   8.094  0.3210  0.1180 -0.5363
 5005SOL    HW226478   3.845   1.690   8.100  0.1556  3.7258 -1.3679
 5006SOL     OW26479   1.674   0.224  11.929  0.5005  0.2336  0.1910
 5006SOL    HW126480   1.658   0.260  12.017 -0.7591 -0.8810  0.4082
 5006SOL    HW226481   1.748   0.164  11.942  1.7891  1.0371 -3.4337
 5007SOL     OW26482   3.902   0.336  14.744 -0.2880  0.4074 -0.3025
 5007SOL    HW126483   3.909   0.409  14.681 -0.3932  2.0044  1.5310
 5007SOL    HW226484   3.811   0.337  14.773 -0.5545 -0.9712 -1.1047
 5008SOL     OW26485   0.596   3.778  12.108 -0.4703 -0.3733 -0.2542
 5008SOL    HW126486   0.581   3.790  12.014 -2.9730  1.0267  0.3323
 5008SOL    HW226487   0.657   3.704  12.103 -0.1687 -0.1928  0.7772
 5009SOL     OW26488   1.421   4.697   6.380 -0.2221 -0.5321  0.1598
 5009SOL    HW126489   1.353   4.653   6.430 -2.2283  2.2651 -0.0751
 5009SOL    HW226490   1.426   0.052   6.433 -2.2181  1.0270 -2.0042
 5010SOL     OW26491   0.959   4.708  15.478  0.3665  0.7298 -0.3102
 5010SOL    HW126492   1.017   4.661  15.419 -0.1774  1.0331 -1.0917
 5010SOL    HW226493   0.930   4.635  15.533  0.1789  0.2988 -0.9824
 5011SOL     OW26494   3.979   1.154  14.733  0.5266 -0.4938 -0.5217
 5011SOL    HW126495   4.041   1.227  14.740  0.2661 -0.3007 -0.2120
 5011SOL    HW226496   3.919   1.200  14.674  1.4841  0.4828 -0.7364
 5012SOL     OW26497   4.721   1.970   7.734 -0.2668  0.2424  0.1486
 5012SOL    HW126498   0.068   1.922   7.693 -1.1817 -2.0974  1.3102
 5012SOL    HW226499   0.032   2.058   7.741 -0.7669  0.4668 -0.1169
 5013SOL     OW26500   2.189   4.496   3.147  0.1736  0.4815 -0.1428
 5013SOL    HW126501   2.285   4.491   3.145  0.2877  2.6675 -0.6047
 5013SOL    HW226502   2.168   4.549   3.070  0.4925 -0.1384 -0.6556
 5014SOL     OW26503   0.758   1.855   8.729  0.8000 -0.4505 -0.8555
 5014SOL    HW126504   0.730   1.764   8.720  2.0233 -0.7961 -1.0685
 5014SOL    HW226505   0.841   1.859   8.682  2.5354  0.9734  2.3864
 5015SOL     OW26506   0.809   1.175  13.849 -0.6563 -0.0568  0.1929
 5015SOL    HW126507   0.848   1.087  13.850 -0.5621  0.0225  2.4378
 5015SOL    HW226508   0.777   1.181  13.938  1.0254  4.3775  0.5145
 5016SOL     OW26509   1.161   4.296   1.748  0.4550 -0.0231  0.2768
 5016SOL    HW126510   1.108   4.252   1.814 -4.2892  2.3414 -1.9704
 5016SOL    HW226511   1.104   4.369   1.727  0.5935  0.1456  0.4873
 5017SOL     OW26512   0.462   0.793   7.220 -0.2565  0.3275 -0.4264
 5017SOL    HW126513   0.545   0.746   7.209 -0.1728  0.4585 -0.3507
 5017SOL    HW226514   0.446   0.837   7.137 -2.5460  3.6939  1.7971
 5018SOL     OW26515   2.347   0.583   3.481 -0.2121  0.4811  0.5620
 5018SOL    HW126516   2.260   0.573   3.518 -0.9802  1.4263 -0.9893
 5018SOL    HW226517   2.339   0.599   3.387 -1.3659 -0.4665  0.5133
 5019SOL     OW26518   1.381   3.712   3.500 -0.0171 -0.0909  0.2353
 5019SOL    HW126519   1.432   3.690   3.422 -0.6847  0.1141 -0.2606
 5019SOL    HW226520   1.333   3.787   3.465  0.4155  0.5039  0.9217
 5020SOL     OW26521   0.347   4.497   6.558 -0.0218 -0.2133  0.2263
 5020SOL    HW126522   0.420   4.470   6.614  0.2410 -2.1233 -1.0364
 5020SOL    HW226523   0.387   4.496   6.471  0.1196  3.4604  0.2541
 5021SOL     OW26524   2.161   0.535   5.742  0.1229  0.1007 -0.6238
 5021SOL    HW126525   2.254   0.555   5.754  0.0980  0.4522 -1.0087
 5021SOL    HW226526   2.147   0.476   5.815  2.1711 -0.1581 -0.4272
 5022SOL     OW26527   1.587   0.606   7.459  0.2165 -0.2585 -0.1397
 5022SOL    HW126528   1.629   0.683   7.419 -0.1945  0.2115  0.3462
 5022SOL    HW226529   1.625   0.609   7.547 -0.3232  1.1989  0.0349
 5023SOL     OW26530   0.623   0.061  14.206 -0.4113 -0.2641  0.0843
 5023SOL    HW126531   0.540   0.035  14.166  0.3684  1.6001 -2.7660
 5023SOL    HW226532   0.636   0.144  14.160  1.0493 -0.8229 -0.5056
 5024SOL     OW26533   3.853   1.321  10.725  0.0805  0.2926 -0.5710
 5024SOL    HW126534   3.862   1.241  10.673 -2.6194 -1.0241  1.0047
 5024SOL    HW226535   3.762   1.312  10.752 -0.0287 -1.3665 -1.5222
 5025SOL     OW26536   0.922   4.615   5.159 -0.1838 -0.2359 -0.3140
 5025SOL    HW126537   0.893   4.683   5.097 -1.4556 -0.5834 -0.0975
 5025SOL    HW226538   0.916   4.536   5.106 -0.3286 -0.5718  0.2157
 5026SOL     OW26539   2.735   0.600   2.007  0.0369 -0.2792 -0.4731
 5026SOL    HW126540   2.781   0.597   2.091 -2.5818 -1.3291  0.9056
 5026SOL    HW226541   2.752   0.693   1.991 -0.9742 -0.0942 -0.4617
 5027SOL     OW26542   0.059   4.534   6.892 -0.4440 -0.0353 -0.5066
 5027SOL    HW126543   0.051   4.603   6.958  0.5626  0.7548 -1.2157
 5027SOL    HW226544   4.698   4.493   6.888 -1.5249  2.0400  1.3409
 5028SOL     OW26545   0.776   0.881  14.209  0.4213  0.2762  0.3396
 5028SOL    HW126546   0.814   0.842  14.130 -2.0682 -0.4642 -0.4749
 5028SOL    HW226547   0.683   0.865  14.193 -0.0782  0.7821  2.6713
 5029SOL     OW26548   1.597   0.297  12.175 -0.7460 -0.0151 -0.9327
 5029SOL    HW126549   1.571   0.388  12.157 -0.9105  0.0145 -0.5349
 5029SOL    HW226550   1.533   0.278  12.243  0.1967  2.1832  0.5841
 5030SOL     OW26551   3.729   2.585   9.928 -0.1493 -0.0104  0.4299
 5030SOL    HW126552   3.814   2.630   9.929 -0.0713 -0.1644  0.6854
 5030SOL    HW226553   3.704   2.603   9.837 -0.8351  2.5850  1.1157
 5031SOL     OW26554   2.020   2.107   7.898  0.0763  0.0662  0.1738
 5031SOL    HW126555   1.963   2.158   7.956  0.4011 -0.2933  0.8142
 5031SOL    HW226556   2.031   2.032   7.955  1.9146  1.5503  1.7876
 5032SOL     OW26557   3.074   0.572   1.398  0.0318  0.2579 -0.3331
 5032SOL    HW126558   3.082   0.668   1.394  2.7157  0.0445 -0.0012
 5032SOL    HW226559   3.073   0.559   1.303  0.9830 -1.3071 -0.1094
 5033SOL     OW26560   4.198   1.290   6.483 -0.2759 -0.0019 -0.2565
 5033SOL    HW126561   4.178   1.209   6.531  3.8192 -0.3781  0.7678
 5033SOL    HW226562   4.109   1.325   6.476 -0.9270 -1.8354 -1.3571
 5034SOL     OW26563   0.189   3.081   2.179 -0.0404 -0.4420 -0.0737
 5034SOL    HW126564   0.174   3.141   2.252  0.0179  1.5055 -1.6847
 5034SOL    HW226565   0.283   3.063   2.188 -0.3253 -2.3172 -0.9574
 5035SOL     OW26566   4.069   3.723   6.281 -0.3735 -0.1273  0.3970
 5035SOL    HW126567   4.149   3.674   6.262 -0.7022 -1.0864  1.5109
 5035SOL    HW226568   4.107   3.811   6.273 -0.3599 -0.2744 -1.2743
 5036SOL     OW26569   2.713   1.782   6.713 -0.1829  0.5101 -0.0301
 5036SOL    HW126570   2.653   1.707   6.711 -1.7484  1.7647  0.9957
 5036SOL    HW226571   2.794   1.731   6.716 -0.6751 -0.1814  1.2402
 5037SOL     OW26572   3.427   1.624   5.872  0.2886 -0.3278  0.5811
 5037SOL    HW126573   3.456   1.547   5.921  1.4948 -0.5712 -0.5068
 5037SOL    HW226574   3.385   1.593   5.792  2.1374  0.4395 -0.6919
 5038SOL     OW26575   0.655   1.641  16.636  0.3012  0.1438  0.5847
 5038SOL    HW126576   0.601   1.720  16.630 -0.9594 -0.6916  0.9887
 5038SOL    HW226577   0.664   1.635  16.731 -1.2557  0.3776  0.7499
 5039SOL     OW26578   1.615   4.447   9.461 -0.4663  0.1126 -0.2035
 5039SOL    HW126579   1.647   4.509   9.397  2.5514  1.2942  2.4498
 5039SOL    HW226580   1.671   4.372   9.440 -0.6380 -0.3640  1.0114
 5040SOL     OW26581   3.096   1.876   7.218  0.0904  0.7925  0.4797
 5040SOL    HW126582   3.004   1.897   7.237 -0.0442  1.4050 -0.8464
 5040SOL    HW226583   3.102   1.902   7.126 -0.8990 -2.5977 -0.5421
 5041SOL     OW26584   4.611   1.324   8.505 -0.5146 -0.5303  0.0745
 5041SOL    HW126585   4.647   1.408   8.534 -0.8526  0.4621 -2.3793
 5041SOL    HW226586   4.677   1.263   8.537  0.9306  0.9453 -0.0754
 5042SOL     OW26587   1.986   1.815   7.649  0.2147 -0.1189 -0.1057
 5042SOL    HW126588   2.037   1.866   7.586  0.6550 -1.2999 -0.7233
 5042SOL    HW226589   1.917   1.874   7.677  0.5543 -0.5279  1.6117
 5043SOL     OW26590   2.164   3.908  14.809 -0.1791 -0.7329  0.3304
 5043SOL    HW126591   2.175   3.826  14.856 -0.8987 -1.4010 -0.6429
 5043SOL    HW226592   2.208   3.977  14.858  1.5694 -0.1643 -2.0212
 5044SOL     OW26593   1.343   2.384  10.971  0.3994 -0.0580  0.5141
 5044SOL    HW126594   1.343   2.373  10.876  0.1330 -2.7434  0.8398
 5044SOL    HW226595   1.431   2.351  10.988 -0.3163 -1.3465  1.7226
 5045SOL     OW26596   2.381   2.460  16.447 -0.0528  0.0324 -0.0917
 5045SOL    HW126597   2.288   2.463  16.429  0.1244 -2.2321 -1.4445
 5045SOL    HW226598   2.420   2.543  16.418 -0.5122 -0.1464 -1.2032
 5046SOL     OW26599   0.509   2.010   8.101  0.6925  0.2222  0.3326
 5046SOL    HW126600   0.571   2.072   8.140  1.0831  0.0359 -0.0034
 5046SOL    HW226601   0.498   2.041   8.011  0.9827  1.0548  0.5805
 5047SOL     OW26602   3.187   1.649   7.731  0.5460  0.2812  0.5537
 5047SOL    HW126603   3.161   1.741   7.733 -0.2685  0.0803 -0.9697
 5047SOL    HW226604   3.148   1.632   7.645  2.6100 -0.7478 -0.1962
 5048SOL     OW26605   2.599   2.077  13.930 -0.3406  0.3403  0.3259
 5048SOL    HW126606   2.672   2.079  13.868  0.1944  0.6047  0.9638
 5048SOL    HW226607   2.639   2.117  14.007 -1.9931  1.2521  0.6979
 5049SOL     OW26608   0.452   2.532  11.615 -0.4335  0.7982 -0.0105
 5049SOL    HW126609   0.466   2.589  11.540  2.6471  1.6744  1.2326
 5049SOL    HW226610   0.439   2.591  11.690 -0.9444 -0.2113  0.6857
 5050SOL     OW26611   2.915   1.414  15.972 -0.4623 -0.2276  0.1593
 5050SOL    HW126612   2.856   1.485  15.997 -0.1838  0.1990 -0.3843
 5050SOL    HW226613   2.970   1.422  16.050  0.0813  0.6695 -0.3106
 5051SOL     OW26614   3.313   3.775  13.071  0.0678 -0.1244  0.0100
 5051SOL    HW126615   3.311   3.746  13.162 -0.9773 -3.0782 -0.9631
 5051SOL    HW226616   3.219   3.764  13.053  0.8739 -1.1865 -3.3839
 5052SOL     OW26617   3.659   2.012   9.046 -0.7219  0.6519 -0.2517
 5052SOL    HW126618   3.740   2.058   9.068  0.0534  0.1438 -2.1162
 5052SOL    HW226619   3.617   2.002   9.132  0.0817 -2.2781 -0.1774
 5053SOL     OW26620   3.567   3.687   2.789  0.4842  0.2076  0.5580
 5053SOL    HW126621   3.510   3.753   2.749  2.1753  0.2401 -1.7875
 5053SOL    HW226622   3.617   3.641   2.721  0.7233 -0.4876  1.2074
 5054SOL     OW26623   0.926   2.685   1.342  0.4952 -0.0124 -0.1262
 5054SOL    HW126624   0.980   2.754   1.379 -1.8000  0.7567  1.7839
 5054SOL    HW226625   0.848   2.733   1.314  0.2347  0.6570  1.7876
 5055SOL     OW26626   3.933   3.835   2.690 -0.4244 -0.5104  0.0185
 5055SOL    HW126627   3.921   3.911   2.634  2.6365  0.1492  0.3012
 5055SOL    HW226628   3.960   3.769   2.627 -0.1577 -0.8363  0.4754
 5056SOL     OW26629   2.907   1.236  13.859  0.3173  0.1166  0.3229
 5056SOL    HW126630   2.926   1.251  13.766  1.8599  0.5639  0.7042
 5056SOL    HW226631   2.869   1.322  13.880  1.8696  0.9212 -0.1825
 5057SOL     OW26632   2.198   1.131  12.072  0.3456  0.8627 -0.2549
 5057SOL    HW126633   2.266   1.146  12.138 -0.0433  0.5775  0.2100
 5057SOL    HW226634   2.129   1.085  12.120 -0.7609 -0.1699 -2.8309
 5058SOL     OW26635   1.716   0.092   6.826  0.4168  0.4776 -0.1308
 5058SOL    HW126636   1.633   0.092   6.874  1.1271  1.1749  1.1043
 5058SOL    HW226637   1.771   0.167   6.848  0.6646  0.4606 -0.6929
 5059SOL     OW26638   2.789   4.470   2.300  0.1059 -0.0390 -0.2546
 5059SOL    HW126639   2.770   4.563   2.290  0.6539  0.2839  1.6949
 5059SOL    HW226640   2.817   4.474   2.391  0.0535 -0.8692 -0.1999
 5060SOL     OW26641   0.284   1.856  16.568 -0.0985  0.5864  0.9345
 5060SOL    HW126642   0.189   1.840  16.571 -0.1553  0.9282  0.9489
 5060SOL    HW226643   0.295   1.932  16.624 -0.5078  1.8121 -0.6434
 5061SOL     OW26644   1.036   2.342   8.150  0.3184  0.4435  0.2483
 5061SOL    HW126645   1.122   2.352   8.191 -0.3359 -0.8886  1.9754
 5061SOL    HW226646   1.055   2.268   8.093  1.3054  0.9708 -0.0993
 5062SOL     OW26647   4.104   3.563   9.282  0.6011 -0.6408  0.0910
 5062SOL    HW126648   4.120   3.471   9.258 -2.2435 -1.6201  1.9696
 5062SOL    HW226649   4.186   3.584   9.325 -0.4328 -0.0733  1.7880
 5063SOL     OW26650   3.295   4.597  12.751  0.3465 -0.0841  0.0346
 5063SOL    HW126651   3.376   4.559  12.716  1.2711  0.0050  2.0491
 5063SOL    HW226652   3.243   4.599  12.671 -0.7854  0.8106  0.7851
 5064SOL     OW26653   3.206   2.461   5.462 -0.0901  0.0293  0.1635
 5064SOL    HW126654   3.142   2.402   5.503  1.8126 -1.5100  0.9096
 5064SOL    HW226655   3.255   2.394   5.414  3.3530  1.7647  1.2416
 5065SOL     OW26656   0.491   3.801  13.802 -0.1848  0.5296 -0.2917
 5065SOL    HW126657   0.519   3.882  13.760  0.0509  0.7179  0.2299
 5065SOL    HW226658   0.451   3.767  13.722 -0.3232 -3.0036  1.2421
 5066SOL     OW26659   0.334   2.166   5.258  0.4238 -0.5169 -0.6079
 5066SOL    HW126660   0.282   2.233   5.213 -2.5942 -1.6382  1.2944
 5066SOL    HW226661   0.338   2.207   5.344  0.4235 -1.1228 -0.3234
 5067SOL     OW26662   3.921   3.429   1.520  0.0764 -0.1858 -0.7219
 5067SOL    HW126663   3.853   3.431   1.587 -0.2542  4.0883 -1.1633
 5067SOL    HW226664   3.872   3.443   1.438 -0.0134 -1.5574 -0.8918
 5068SOL     OW26665   1.877   2.736   4.448  0.7199  0.8451 -0.2380
 5068SOL    HW126666   1.952   2.718   4.504  0.9563 -0.1632 -0.8719
 5068SOL    HW226667   1.879   2.659   4.391 -0.0209  1.6924 -1.4065
 5069SOL     OW26668   3.504   0.055   5.748  0.1195 -0.1103  0.1874
 5069SOL    HW126669   3.515   0.033   5.840 -1.2173  0.3014  0.4497
 5069SOL    HW226670   3.580   0.013   5.709 -0.0072  0.3811 -0.6059
 5070SOL     OW26671   3.215   0.072   7.413  0.3454  0.0577  0.0927
 5070SOL    HW126672   3.173   0.105   7.333 -0.5567 -0.1318  0.4908
 5070SOL    HW226673   3.142   0.016   7.442  1.1135  0.2787  2.4225
 5071SOL     OW26674   0.765   0.843   8.172  0.3278 -0.1783  0.2003
 5071SOL    HW126675   0.751   0.934   8.197 -1.0194 -0.7064  1.3540
 5071SOL    HW226676   0.770   0.851   8.077 -1.7177  0.2628  0.1444
 5072SOL     OW26677   3.968   1.265   7.939  0.6518  0.1799 -0.1603
 5072SOL    HW126678   3.970   1.206   7.864  0.6343  1.3062 -1.0545
 5072SOL    HW226679   4.051   1.246   7.983  1.2194  1.1323 -0.8114
 5073SOL     OW26680   3.094   0.944   8.909 -0.4364 -0.6566 -0.3996
 5073SOL    HW126681   3.079   1.037   8.928 -3.3226 -1.0014 -0.8523
 5073SOL    HW226682   3.162   0.940   8.842  0.5242  2.6450  0.3480
 5074SOL     OW26683   3.630   2.638   8.763  0.4592 -0.0293 -0.6041
 5074SOL    HW126684   3.595   2.601   8.844 -0.7399  2.0844 -0.1591
 5074SOL    HW226685   3.669   2.559   8.727  1.3548  0.3251 -0.4131
 5075SOL     OW26686   4.686   0.359  12.845 -0.0093 -0.5068 -0.1659
 5075SOL    HW126687   4.692   0.431  12.781  0.2781 -0.2364  0.1613
 5075SOL    HW226688   0.050   0.355  12.882  0.6853 -0.2073 -1.7733
 5076SOL     OW26689   2.116   3.641   6.859  0.3930 -0.3284  0.5210
 5076SOL    HW126690   2.150   3.683   6.780 -1.2148  0.9862  0.5339
 5076SOL    HW226691   2.121   3.718   6.916  1.6959 -0.5408  0.6840
 5077SOL     OW26692   1.341   2.155  16.833 -0.2401  0.3809  0.7959
 5077SOL    HW126693   1.248   2.132  16.829  0.2049 -1.5829  1.8710
 5077SOL    HW226694   1.333   2.208  16.913 -1.0991 -0.6324  1.3771
 5078SOL     OW26695   2.203   2.623   6.823 -0.2794 -0.2492 -0.1673
 5078SOL    HW126696   2.116   2.647   6.791 -0.0981  0.3382 -0.2120
 5078SOL    HW226697   2.190   2.536   6.862 -0.0528 -0.5159 -0.6940
 5079SOL     OW26698   2.811   0.384   2.382 -0.0741 -0.0359  0.1005
 5079SOL    HW126699   2.731   0.363   2.431  0.4529 -0.8744  0.6184
 5079SOL    HW226700   2.871   0.375   2.456 -0.1610  1.1029  0.3013
 5080SOL     OW26701   0.831   0.982   0.751 -0.3529 -0.4058  0.0413
 5080SOL    HW126702   0.810   0.926   0.825 -0.1213 -0.5568 -0.0074
 5080SOL    HW226703   0.863   0.927   0.680 -0.4158  0.1729 -0.4383
 5081SOL     OW26704   3.986   0.545   0.933  0.2427 -0.3674 -0.9269
 5081SOL    HW126705   4.035   0.609   0.984 -2.0123 -0.3254  1.1420
 5081SOL    HW226706   4.056   0.486   0.903 -1.3439 -2.0062 -1.4277
 5082SOL     OW26707   3.788   3.158  15.964  0.1241  0.0454 -0.0597
 5082SOL    HW126708   3.857   3.160  16.030  0.0122  0.4948  0.0447
 5082SOL    HW226709   3.798   3.064  15.949 -0.4983 -0.0914  0.3740
 5083SOL     OW26710   0.370   1.400   4.922  0.3652  0.1577  0.1688
 5083SOL    HW126711   0.401   1.310   4.920 -0.5895 -0.1747  0.7370
 5083SOL    HW226712   0.283   1.380   4.956  0.9202 -2.4347  0.0189
 5084SOL     OW26713   4.130   0.001   3.034  0.5071  0.4545  0.1455
 5084SOL    HW126714   4.133   4.700   2.942  0.9828 -0.5848  0.4506
 5084SOL    HW226715   4.201   4.672   3.071 -1.6898 -1.3950  1.6737
 5085SOL     OW26716   0.808   3.779  10.204  0.2303  0.4633  0.0460
 5085SOL    HW126717   0.864   3.725  10.148 -1.2687 -1.8278  0.7716
 5085SOL    HW226718   0.733   3.780  10.145 -0.3052  1.2335  0.7376
 5086SOL     OW26719   3.573   2.252  11.618  0.2404 -0.5208 -0.2141
 5086SOL    HW126720   3.625   2.308  11.560  0.6934  0.1830  0.8656
 5086SOL    HW226721   3.511   2.210  11.558 -1.2397 -1.2802  1.8583
 5087SOL     OW26722   3.280   3.720   6.080 -0.4562 -0.0361  0.5292
 5087SOL    HW126723   3.309   3.810   6.071  0.8131 -0.5012 -0.0270
 5087SOL    HW226724   3.321   3.705   6.166 -0.6611  1.2138  0.8374
 5088SOL     OW26725   3.433   3.855   8.229 -0.2447  0.7413  0.3173
 5088SOL    HW126726   3.441   3.864   8.134  1.8113 -0.0626  0.3961
 5088SOL    HW226727   3.483   3.935   8.244 -0.6179  1.3532 -1.7386
 5089SOL     OW26728   3.477   0.271   7.123  0.4202  0.0530  0.2956
 5089SOL    HW126729   3.488   0.176   7.122  0.2999  0.0005  3.3464
 5089SOL    HW226730   3.569   0.297   7.116  1.1170 -2.2503  1.0334
 5090SOL     OW26731   4.609   3.991   7.688  0.0087 -0.0690  0.0967
 5090SOL    HW126732   4.601   3.968   7.781  2.8916  0.1869  0.3903
 5090SOL    HW226733   4.549   3.924   7.656 -0.9357  1.2935 -0.9856
 5091SOL     OW26734   2.532   0.632   6.039 -0.4214 -0.0176  0.2891
 5091SOL    HW126735   2.554   0.636   6.132  1.7071  2.8981 -0.3560
 5091SOL    HW226736   2.493   0.718   6.021  0.2706  0.3727  0.6436
 5092SOL     OW26737   3.056   3.701   9.065 -0.3789  0.1504 -0.1619
 5092SOL    HW126738   3.035   3.620   9.111  0.1048 -0.6984 -1.4229
 5092SOL    HW226739   3.032   3.771   9.126  0.8271 -0.2018  0.7098
 5093SOL     OW26740   3.911   2.993   3.534 -1.0828 -0.2346  0.2300
 5093SOL    HW126741   4.002   2.983   3.563 -1.4728 -1.9032  0.8268
 5093SOL    HW226742   3.920   3.088   3.530  1.5106 -0.4215  1.7416
 5094SOL     OW26743   1.151   3.713   9.372  0.0193 -0.1424  0.2650
 5094SOL    HW126744   1.072   3.690   9.421 -0.7303 -0.3545 -1.0406
 5094SOL    HW226745   1.159   3.628   9.327  1.8594  0.8875 -1.3696
 5095SOL     OW26746   0.614   3.708   4.279 -0.5107 -0.4563 -0.0372
 5095SOL    HW126747   0.700   3.692   4.241 -0.3622 -0.6562  0.3801
 5095SOL    HW226748   0.614   3.793   4.324  2.2527 -1.3652  1.6648
 5096SOL     OW26749   0.315   0.341   4.067  0.2082  0.5684 -0.7496
 5096SOL    HW126750   0.297   0.248   4.056 -1.9881  0.8779  0.0622
 5096SOL    HW226751   0.225   0.373   4.074 -0.1168 -0.6862  0.7324
 5097SOL     OW26752   3.038   2.306   3.822  0.5512  0.1061 -0.5005
 5097SOL    HW126753   3.011   2.318   3.913  2.1251 -0.9129  0.0794
 5097SOL    HW226754   3.075   2.390   3.796 -1.1024  1.1971  0.6753
 5098SOL     OW26755   3.793   1.103  10.536 -0.1535 -0.1760 -0.4806
 5098SOL    HW126756   3.820   1.132  10.449 -0.6980  0.3044 -0.4825
 5098SOL    HW226757   3.700   1.084  10.533 -0.5348  1.1487  2.2078
 5099SOL     OW26758   3.772   3.183   4.817  0.2276  0.3451  0.5356
 5099SOL    HW126759   3.726   3.114   4.864  1.6672  0.2184  1.7522
 5099SOL    HW226760   3.690   3.214   4.779  0.2277  1.8294  1.7295
 5100SOL     OW26761   1.608   4.388   6.284  0.1147 -0.2241  0.1336
 5100SOL    HW126762   1.659   4.310   6.304  0.4981 -0.4707 -1.8067
 5100SOL    HW226763   1.600   4.387   6.188 -2.4433 -0.5116  0.3529
 5101SOL     OW26764   1.760   2.385   5.178 -0.4355  0.2048 -0.0597
 5101SOL    HW126765   1.667   2.383   5.200 -0.4612 -0.3357 -0.2298
 5101SOL    HW226766   1.791   2.352   5.262 -0.6720  0.9633  0.3290
 5102SOL     OW26767   4.334   2.598   6.988 -0.4954 -0.0124 -0.1094
 5102SOL    HW126768   4.252   2.572   6.945 -0.6769  1.3392 -0.5951
 5102SOL    HW226769   4.309   2.568   7.076 -1.8015  2.8719  0.5095
 5103SOL     OW26770   0.053   1.498   2.243 -0.2702 -0.6176 -0.1924
 5103SOL    HW126771   0.103   1.579   2.237  1.5327 -1.8006 -1.2570
 5103SOL    HW226772   0.124   1.435   2.232 -0.2327 -0.5127 -0.5553
 5104SOL     OW26773   3.983   0.360  11.751 -0.0028 -0.5558 -0.1494
 5104SOL    HW126774   3.933   0.365  11.833  0.1843 -0.5116 -0.0372
 5104SOL    HW226775   3.988   0.264  11.750 -2.6540 -0.7102 -0.1183
 5105SOL     OW26776   0.179   0.495   3.500 -0.7493 -0.3367 -0.5719
 5105SOL    HW126777   0.157   0.581   3.535  0.1988 -1.1210  1.9241
 5105SOL    HW226778   0.253   0.518   3.442  0.6751 -2.6393  0.3333
 5106SOL     OW26779   0.295   0.688  16.369  0.4884 -0.4760 -0.2994
 5106SOL    HW126780   0.389   0.704  16.365  0.1805  1.4001 -0.0820
 5106SOL    HW226781   0.258   0.774  16.389 -0.8902 -0.8889 -1.0874
 5107SOL     OW26782   0.767   0.426   4.605  0.0005 -0.0944  0.2047
 5107SOL    HW126783   0.815   0.399   4.527 -1.2204  0.0717 -0.5927
 5107SOL    HW226784   0.758   0.519   4.584  0.2381 -0.3908 -1.1990
 5108SOL     OW26785   4.635   1.957  17.532 -0.0669  0.3032  0.0287
 5108SOL    HW126786   4.633   1.951  17.437 -1.3239 -1.1902  0.1526
 5108SOL    HW226787   4.647   2.050  17.554  2.2837 -0.2643  1.2002
 5109SOL     OW26788   2.263   3.958  12.005 -0.4879 -0.2917  0.0327
 5109SOL    HW126789   2.356   3.943  11.986 -0.0657 -1.2550  2.8364
 5109SOL    HW226790   2.228   4.007  11.931  0.6460  0.4237 -0.0332
 5110SOL     OW26791   0.626   1.421  16.054 -0.1158 -0.1107  0.0061
 5110SOL    HW126792   0.644   1.509  16.021 -2.7184  0.7169  0.8109
 5110SOL    HW226793   0.718   1.402  16.073  0.3663  0.3310 -1.9681
 5111SOL     OW26794   1.693   0.288   4.577 -0.2964  0.4408 -0.3097
 5111SOL    HW126795   1.766   0.227   4.592 -0.0028  1.1657  1.2121
 5111SOL    HW226796   1.686   0.268   4.484  0.1324 -0.5717 -0.1372
 5112SOL     OW26797   4.529   4.719   3.687 -0.3075  0.2386  0.5540
 5112SOL    HW126798   4.472   0.056   3.640  0.0695  0.5686  0.5249
 5112SOL    HW226799   4.484   4.639   3.662 -1.8254  1.3307 -0.2372
 5113SOL     OW26800   4.081   1.914   4.762  0.4149 -0.6352  0.0336
 5113SOL    HW126801   4.098   1.906   4.855 -3.2901 -2.4034  0.5278
 5113SOL    HW226802   4.140   1.988   4.747  0.6827 -0.9937 -0.6964
 5114SOL     OW26803   1.984   3.830   1.498 -0.4060  0.1444 -0.3337
 5114SOL    HW126804   2.005   3.738   1.482 -1.5543 -0.1837  0.0537
 5114SOL    HW226805   1.955   3.825   1.589 -1.5514  1.7527 -0.5982
 5115SOL     OW26806   1.009   2.457   2.881 -0.1458 -0.2658  0.3966
 5115SOL    HW126807   1.094   2.480   2.918  0.1901 -1.7862  0.5629
 5115SOL    HW226808   0.934   2.503   2.918 -0.8687 -0.4111 -0.8841
 5116SOL     OW26809   2.024   0.097   7.587  0.1996 -0.3734  0.1311
 5116SOL    HW126810   2.034   0.188   7.557  0.2158 -1.3537 -2.8990
 5116SOL    HW226811   1.956   0.108   7.654  0.2340 -0.8765  0.2472
 5117SOL     OW26812   3.111   4.047   0.352 -0.6064  0.4284  0.0931
 5117SOL    HW126813   3.034   4.007   0.312 -0.3330  0.8917 -0.9065
 5117SOL    HW226814   3.084   4.136   0.330  3.1691  1.0461 -2.0672
 5118SOL     OW26815   4.369   2.950  13.568  0.1299  0.5465  0.3071
 5118SOL    HW126816   4.292   2.899  13.594 -0.6718  0.9754 -1.2521
 5118SOL    HW226817   4.447   2.907  13.603 -0.5216 -0.0032  1.0845
 5119SOL     OW26818   4.049   2.725  10.991  0.2324  0.7172  0.4854
 5119SOL    HW126819   4.005   2.659  11.044 -2.3249  0.5241 -1.8373
 5119SOL    HW226820   4.130   2.677  10.972  0.0389  0.7629 -0.4693
 5120SOL     OW26821   2.161   4.512   4.261  0.1051  0.3388 -0.0530
 5120SOL    HW126822   2.095   4.458   4.219  0.3149 -0.2768  0.4016
 5120SOL    HW226823   2.162   4.472   4.348 -0.7908 -0.1767 -0.2823
 5121SOL     OW26824   1.861   3.787  12.983  0.0082 -0.7825 -0.8739
 5121SOL    HW126825   1.929   3.847  13.013  1.3852 -2.3370 -0.8759
 5121SOL    HW226826   1.889   3.696  12.991  1.6769  0.0868  2.9567
 5122SOL     OW26827   2.809   2.561   4.849  0.2599  0.0785  0.1928
 5122SOL    HW126828   2.783   2.492   4.909  0.3825 -0.1714 -0.0417
 5122SOL    HW226829   2.731   2.582   4.798  0.1998 -3.0246 -0.9687
 5123SOL     OW26830   0.931   1.435   4.149 -0.2536  0.2524 -0.2866
 5123SOL    HW126831   0.886   1.411   4.230 -0.5750 -0.7070 -0.7563
 5123SOL    HW226832   1.019   1.405   4.170 -0.2376  1.2867  1.1619
 5124SOL     OW26833   4.094   4.328  16.414  0.1255 -0.1727 -0.2047
 5124SOL    HW126834   4.162   4.292  16.357 -0.7006 -2.6787  0.3852
 5124SOL    HW226835   4.086   4.419  16.388 -1.6674 -0.5455 -0.9738
 5125SOL     OW26836   1.571   0.842   8.895 -0.4172 -0.1200 -0.3301
 5125SOL    HW126837   1.509   0.771   8.914 -0.3585  0.4433  1.9582
 5125SOL    HW226838   1.653   0.799   8.871  0.5294 -0.5208  3.6537
 5126SOL     OW26839   2.021   2.157   8.665 -0.8462  0.1577 -0.4236
 5126SOL    HW126840   1.941   2.209   8.658 -0.4097  0.9607  0.5825
 5126SOL    HW226841   2.060   2.186   8.582 -1.0145 -1.0989 -0.9388
 5127SOL     OW26842   4.373   0.436  10.561 -0.4138 -0.2200  0.0038
 5127SOL    HW126843   4.428   0.381  10.617  0.1618  0.4877  0.1257
 5127SOL    HW226844   4.364   0.380  10.483  1.9355  0.9159 -1.0740
 5128SOL     OW26845   1.312   1.247   3.008  0.1055 -0.0915  0.0431
 5128SOL    HW126846   1.295   1.317   3.072 -0.4336  1.2370 -1.5589
 5128SOL    HW226847   1.355   1.292   2.935 -0.0920  1.3676  0.8193
 5129SOL     OW26848   2.123   4.079  14.569  0.1732  0.4116 -0.8874
 5129SOL    HW126849   2.127   4.029  14.651 -0.3761  0.0628 -1.0705
 5129SOL    HW226850   2.112   4.000  14.516 -1.6506 -1.4060  2.2138
 5130SOL     OW26851   3.607   2.292   9.535 -0.3565 -0.0125  0.1913
 5130SOL    HW126852   3.592   2.291   9.629  1.4241  2.3842  0.4878
 5130SOL    HW226853   3.700   2.309   9.523 -0.8569  2.4636 -0.2235
 5131SOL     OW26854   0.918   0.821   8.580  0.1210 -0.1496 -0.1221
 5131SOL    HW126855   0.972   0.749   8.611 -1.9474 -0.3551  3.0281
 5131SOL    HW226856   0.970   0.850   8.505 -0.6319 -0.5991 -0.8167
 5132SOL     OW26857   3.780   4.557  17.376 -0.1899  0.3418  0.2555
 5132SOL    HW126858   3.874   4.537  17.379 -0.7149 -1.9100  1.0672
 5132SOL    HW226859   3.772   4.527  17.285  0.2047  0.8240  0.0555
 5133SOL     OW26860   0.850   0.397  15.069 -0.0717 -0.2125 -0.0304
 5133SOL    HW126861   0.797   0.446  15.006  1.9637  2.5721  0.4200
 5133SOL    HW226862   0.911   0.460  15.107 -0.9353  2.1912 -2.6428
 5134SOL     OW26863   0.089   2.686   8.954 -0.4484 -0.0246 -0.2338
 5134SOL    HW126864   0.158   2.725   9.007 -1.8278  0.4045  1.2247
 5134SOL    HW226865   0.008   2.723   8.988 -0.0371  0.8161 -0.1747
 5135SOL     OW26866   0.322   4.081  14.901 -0.0186  0.0968  0.8614
 5135SOL    HW126867   0.412   4.054  14.921  0.2763 -0.2325 -0.9298
 5135SOL    HW226868   0.308   4.021  14.827 -1.2268 -1.4461  2.3368
 5136SOL     OW26869   0.027   0.537   3.800 -0.7514 -0.4617  0.3066
 5136SOL    HW126870   4.711   0.538   3.714  3.8752  1.4222 -1.8503
 5136SOL    HW226871   0.087   0.463   3.809  0.0912  0.0983 -0.8118
 5137SOL     OW26872   1.249   0.976   1.031 -0.0245  0.2937  0.3495
 5137SOL    HW126873   1.231   0.892   0.989  0.8036 -0.0521  0.6928
 5137SOL    HW226874   1.160   1.011   1.035  0.5958  1.7242  1.5986
 5138SOL     OW26875   4.228   0.893   8.119 -0.1741 -0.0561  0.4039
 5138SOL    HW126876   4.302   0.836   8.098 -1.8030 -1.3686 -1.7623
 5138SOL    HW226877   4.158   0.827   8.108 -2.7202  2.6004  0.6294
 5139SOL     OW26878   3.729   4.461  17.110 -0.2681 -0.1757 -0.1422
 5139SOL    HW126879   3.754   4.396  17.045  1.1154 -1.7267  1.9655
 5139SOL    HW226880   3.685   4.518  17.047 -0.2359  0.0709  0.0577
 5140SOL     OW26881   0.348   0.461  14.475  0.0398  0.4674  0.5202
 5140SOL    HW126882   0.276   0.496  14.423  0.6921  0.3489 -0.4555
 5140SOL    HW226883   0.327   0.504  14.558  0.3752 -2.2992  2.0082
 5141SOL     OW26884   0.247   2.032   5.640 -0.3264  0.3845  0.0187
 5141SOL    HW126885   0.254   1.967   5.570 -1.3659  0.2176  0.0711
 5141SOL    HW226886   0.338   2.038   5.667 -1.0437  2.2464  2.0598
 5142SOL     OW26887   0.341   2.445   4.370  0.2282  0.8688  0.1185
 5142SOL    HW126888   0.436   2.448   4.382  0.5909 -2.7521 -1.9232
 5142SOL    HW226889   0.331   2.482   4.282  1.5912  1.5043  0.2301
 5143SOL     OW26890   3.007   3.698  10.355  0.2340 -0.4703 -0.3313
 5143SOL    HW126891   2.977   3.784  10.324  0.0574 -0.1273  0.8007
 5143SOL    HW226892   2.920   3.669  10.381  1.5868 -2.6960  1.7225
 5144SOL     OW26893   0.936   3.868   6.654 -0.1833 -0.5276  0.0825
 5144SOL    HW126894   0.958   3.945   6.602 -1.0651  0.6458  1.4484
 5144SOL    HW226895   0.885   3.902   6.727 -1.1858 -0.3752 -0.6869
 5145SOL     OW26896   3.824   1.547   4.496 -0.3099  0.1237 -0.4341
 5145SOL    HW126897   3.843   1.624   4.549  0.8267  1.7191 -3.1519
 5145SOL    HW226898   3.768   1.587   4.429 -0.4202 -0.3682 -0.6389
 5146SOL     OW26899   0.750   2.469   0.056  0.1961 -0.3222 -0.2361
 5146SOL    HW126900   0.778   2.398  17.698 -2.8073  0.3866 -2.5314
 5146SOL    HW226901   0.835   2.502   0.086 -0.1946  1.0582 -0.6569
 5147SOL     OW26902   3.409   0.891   8.084  0.5794  0.5538  0.3110
 5147SOL    HW126903   3.315   0.907   8.081  0.2402 -2.1681 -2.8483
 5147SOL    HW226904   3.408   0.816   8.025 -0.0177 -0.0055  1.0390
 5148SOL     OW26905   2.915   1.604  16.291  0.3263 -0.3247  0.2281
 5148SOL    HW126906   2.846   1.565  16.237 -1.0149  0.4205  1.4229
 5148SOL    HW226907   2.862   1.613  16.370  0.2145  0.9239  0.0045
 5149SOL     OW26908   0.598   2.220   8.350  0.2163 -0.5346 -0.1781
 5149SOL    HW126909   0.690   2.243   8.358 -0.0730 -0.7018  3.6891
 5149SOL    HW226910   0.592   2.142   8.405 -1.1114 -0.1165  0.2727
 5150SOL     OW26911   0.572   1.164   0.605 -0.1171  0.6154 -0.3338
 5150SOL    HW126912   0.589   1.082   0.558 -0.6019  0.8132 -0.8567
 5150SOL    HW226913   0.583   1.148   0.698  0.2323  1.1854 -0.2835
 5151SOL     OW26914   1.118   2.124  12.052 -0.8034  0.3897 -0.0124
 5151SOL    HW126915   1.026   2.137  12.028 -1.1245 -0.6165  0.7120
 5151SOL    HW226916   1.167   2.184  11.996  0.0543  0.4573  0.8176
 5152SOL     OW26917   0.720   3.895   8.772 -0.1580  0.5067  0.0421
 5152SOL    HW126918   0.629   3.885   8.801  0.3177  0.1279  1.4069
 5152SOL    HW226919   0.770   3.839   8.832  0.6275  1.8858  0.6795
 5153SOL     OW26920   4.409   1.068   9.513  0.0896  0.5248  0.3319
 5153SOL    HW126921   4.345   1.074   9.584 -0.2624 -0.9319  0.1449
 5153SOL    HW226922   4.484   1.041   9.566 -0.4654  0.8412  1.2814
 5154SOL     OW26923   4.159   4.260   7.573 -0.0762  0.4966  0.2623
 5154SOL    HW126924   4.250   4.290   7.576 -0.2246  1.1788 -2.3424
 5154SOL    HW226925   4.147   4.275   7.667  1.3224  3.3877 -0.0329
 5155SOL     OW26926   1.819   0.470   6.726  0.5648 -0.2466 -0.4579
 5155SOL    HW126927   1.872   0.402   6.767 -0.3968 -0.0727  1.0819
 5155SOL    HW226928   1.782   0.509   6.806  0.1999  0.0802 -0.7831
 5156SOL     OW26929   0.216   0.199   4.866  0.0610  0.3736  0.1791
 5156SOL    HW126930   0.173   0.133   4.920  0.0084 -0.1717 -0.5372
 5156SOL    HW226931   0.306   0.185   4.897 -0.5016  0.8760  2.0438
 5157SOL     OW26932   4.291   2.699   5.977 -0.5413  0.6021 -0.3171
 5157SOL    HW126933   4.249   2.720   5.894 -0.4236  1.2027 -0.2225
 5157SOL    HW226934   4.217   2.685   6.036  0.2549 -1.8480  0.0827
 5158SOL     OW26935   4.264   3.964   3.748  0.3209 -0.0825  0.3386
 5158SOL    HW126936   4.358   3.946   3.752  0.6197  1.5893  0.9816
 5158SOL    HW226937   4.230   3.879   3.774 -0.5624  0.6361  1.5124
 5159SOL     OW26938   1.573   4.676  15.996 -0.9460 -0.7349  0.0877
 5159SOL    HW126939   1.564   4.724  15.913 -0.4209 -0.1862  0.3505
 5159SOL    HW226940   1.485   4.674  16.032 -0.6175 -1.7681  0.8406
 5160SOL     OW26941   4.672   1.755   0.711 -0.6689  0.1055 -0.2059
 5160SOL    HW126942   4.659   1.843   0.673 -0.6265  0.0953 -0.2440
 5160SOL    HW226943   4.651   1.702   0.634 -0.6225  0.8446 -0.7323
 5161SOL     OW26944   2.697   2.453   0.478 -0.1566 -0.0622 -0.0258
 5161SOL    HW126945   2.611   2.417   0.502 -0.0347 -0.3947 -0.0761
 5161SOL    HW226946   2.676   2.451   0.385  0.9176 -1.0296 -0.2462
 5162SOL     OW26947   4.242   2.804   4.371  1.1171  0.2686 -0.0709
 5162SOL    HW126948   4.307   2.749   4.327  3.0999  0.6991  2.3609
 5162SOL    HW226949   4.304   2.873   4.391  1.5516  0.0242 -0.5724
 5163SOL     OW26950   1.419   1.250   5.213  0.1682 -0.0260  0.5346
 5163SOL    HW126951   1.364   1.175   5.189  1.2197 -0.4661 -0.5206
 5163SOL    HW226952   1.498   1.198   5.228  0.0828 -0.1346  0.6084
 5164SOL     OW26953   4.277   1.858   9.386 -0.1158 -0.4021 -0.1012
 5164SOL    HW126954   4.285   1.876   9.293 -1.1461  1.7955  0.2475
 5164SOL    HW226955   4.336   1.923   9.425 -2.4279  1.1435  0.7769
 5165SOL     OW26956   4.427   2.428   4.102 -0.1218  0.1501  0.0536
 5165SOL    HW126957   4.506   2.394   4.058 -0.8888  0.1034 -1.2961
 5165SOL    HW226958   4.356   2.419   4.038 -0.1969 -0.7563  0.2700
 5166SOL     OW26959   2.280   4.004   9.918  0.6310  0.1137  0.1627
 5166SOL    HW126960   2.305   3.919   9.882  1.3838  0.8854 -1.1318
 5166SOL    HW226961   2.319   4.002  10.006 -0.1331 -0.6278  0.4783
 5167SOL     OW26962   2.194   2.535   1.315 -0.3184  0.2751  0.1232
 5167SOL    HW126963   2.177   2.629   1.325 -0.7640  0.3413 -1.2064
 5167SOL    HW226964   2.270   2.530   1.372  2.0100  2.1384 -2.8506
 5168SOL     OW26965   2.960   0.115  10.293 -0.4082 -0.0403 -0.2038
 5168SOL    HW126966   2.875   0.074  10.308 -0.3666  0.7156  2.0809
 5168SOL    HW226967   2.930   0.205  10.281 -2.7411 -0.6093  1.4969
 5169SOL     OW26968   1.226   3.639  15.757  0.1702  0.1311  0.0423
 5169SOL    HW126969   1.312   3.659  15.794  0.1487 -1.6279  0.9848
 5169SOL    HW226970   1.243   3.552  15.723  0.8907 -0.1189  1.0499
 5170SOL     OW26971   1.432   0.285  13.073 -0.1056 -0.3238  0.0551
 5170SOL    HW126972   1.382   0.258  13.151  0.1622 -1.4778 -0.1751
 5170SOL    HW226973   1.370   0.278  13.000 -2.1614  1.0852  1.6402
 5171SOL     OW26974   0.578   2.374  12.565  0.3646  0.3567  0.3104
 5171SOL    HW126975   0.661   2.338  12.596 -0.1823 -0.1276  1.2034
 5171SOL    HW226976   0.595   2.378  12.471  1.0453 -1.4444  0.3653
 5172SOL     OW26977   2.954   2.724   5.017  0.4525 -0.2491 -0.1272
 5172SOL    HW126978   2.868   2.725   5.059 -0.2040 -0.2785 -1.4831
 5172SOL    HW226979   2.942   2.658   4.949  1.0363 -0.9082  0.4200
 5173SOL     OW26980   1.488   2.685   5.353  0.0377 -0.2374 -0.3730
 5173SOL    HW126981   1.424   2.719   5.416 -0.6902 -0.9500 -0.7352
 5173SOL    HW226982   1.487   2.752   5.285  0.7031 -0.2472 -0.3941
 5174SOL     OW26983   2.614   4.149   8.536  1.0139  0.9274  0.3933
 5174SOL    HW126984   2.687   4.125   8.593  1.6433  2.5659  0.2971
 5174SOL    HW226985   2.553   4.076   8.534  3.3638 -0.9853 -0.7246
 5175SOL     OW26986   1.954   0.587   4.929  0.2870 -0.2177 -0.5498
 5175SOL    HW126987   2.013   0.586   5.004  1.9727 -1.9136 -1.8800
 5175SOL    HW226988   1.992   0.661   4.881  2.3555 -0.0965  1.2738
 5176SOL     OW26989   2.074   3.741   7.615  0.0518 -0.0210  0.2448
 5176SOL    HW126990   2.097   3.678   7.683 -3.6363 -0.7119  0.8413
 5176SOL    HW226991   2.048   3.678   7.547 -0.7266 -0.2866  0.7950
 5177SOL     OW26992   3.640   0.824   3.206 -0.3799  0.4326 -0.3685
 5177SOL    HW126993   3.713   0.763   3.220 -1.2048 -0.5805 -0.4369
 5177SOL    HW226994   3.654   0.895   3.269  1.9555  0.0781 -0.4772
 5178SOL     OW26995   0.790   0.508   0.130  0.2212  0.0701 -0.2372
 5178SOL    HW126996   0.855   0.445   0.099  0.6086  0.7797 -0.8607
 5178SOL    HW226997   0.718   0.446   0.142 -0.0667  0.3686 -0.4239
 5179SOL     OW26998   4.615   4.431   9.197  0.1568 -0.0583  0.0032
 5179SOL    HW126999   4.535   4.468   9.160  0.5883  1.3925  0.5242
 5179SOL    HW227000   4.582   4.393   9.279  1.7430  0.0652  0.6925
 5180SOL     OW27001   4.360   2.415   3.830 -0.0433  0.1855 -0.6860
 5180SOL    HW127002   4.427   2.483   3.831 -1.1297  1.2654 -0.6879
 5180SOL    HW227003   4.380   2.380   3.743  0.3062  1.5921 -1.1766
 5181SOL     OW27004   0.397   3.374   2.322  0.0192 -0.2566  0.4866
 5181SOL    HW127005   0.422   3.465   2.308  0.4719 -0.3091  0.9687
 5181SOL    HW227006   0.475   3.329   2.290 -0.3789 -0.0494 -0.7754
 5182SOL     OW27007   0.337   3.596  12.445 -0.0791 -0.0162 -0.1351
 5182SOL    HW127008   0.249   3.632  12.442 -0.7540 -1.5481  1.4383
 5182SOL    HW227009   0.328   3.505  12.472  0.5255 -0.4165 -1.2643
 5183SOL     OW27010   4.546   2.921  17.256  0.4133  0.4845  0.8170
 5183SOL    HW127011   4.547   2.841  17.309 -0.0174 -1.7547 -2.5549
 5183SOL    HW227012   4.456   2.954  17.265 -0.6197 -2.4360  1.4732
 5184SOL     OW27013   3.697   1.434  11.361 -0.3317 -0.0961  0.0210
 5184SOL    HW127014   3.744   1.357  11.394  2.5989  0.0852 -3.7199
 5184SOL    HW227015   3.630   1.434  11.429  0.3445  1.5313  0.6912
 5185SOL     OW27016   1.780   3.372   4.398  0.0809  0.6677 -0.0591
 5185SOL    HW127017   1.833   3.415   4.331 -0.2914 -1.2515 -1.5787
 5185SOL    HW227018   1.817   3.285   4.383 -1.0938  0.4580 -1.6166
 5186SOL     OW27019   2.570   3.681   5.692  0.1542 -0.0424 -0.7694
 5186SOL    HW127020   2.653   3.652   5.730 -0.1295 -0.1544 -0.2477
 5186SOL    HW227021   2.561   3.611   5.627 -0.0207 -0.0320 -0.7549
 5187SOL     OW27022   4.663   3.165   7.844  0.0768  0.0800  0.2160
 5187SOL    HW127023   4.660   3.091   7.904 -1.8051 -0.1929 -0.2002
 5187SOL    HW227024   4.572   3.194   7.841  0.8930  2.6305  0.5455
 5188SOL     OW27025   0.845   1.256   5.971 -0.2602  0.0339  0.0753
 5188SOL    HW127026   0.829   1.168   5.937  1.0354 -0.5606  0.9890
 5188SOL    HW227027   0.874   1.299   5.891  1.3075 -0.9991  0.0670
 5189SOL     OW27028   3.324   1.583  13.906 -0.2408  0.0288 -0.1864
 5189SOL    HW127029   3.397   1.619  13.857  0.8908 -2.2988 -0.2063
 5189SOL    HW227030   3.315   1.661  13.960  3.0220  1.3321 -1.5232
 5190SOL     OW27031   3.847   2.018  11.857 -0.4814 -0.0375 -0.5323
 5190SOL    HW127032   3.914   2.086  11.859 -0.2655 -0.3092  0.9723
 5190SOL    HW227033   3.839   2.002  11.951  0.5276  1.1721 -0.2485
 5191SOL     OW27034   3.955   2.827   3.068  0.3002 -0.3135 -0.5614
 5191SOL    HW127035   3.983   2.896   3.009  0.3971  0.9196  0.9391
 5191SOL    HW227036   3.976   2.756   3.007  0.5661 -0.8560  0.1495
 5192SOL     OW27037   3.973   2.802   0.217  0.1760  0.0110 -0.4463
 5192SOL    HW127038   3.990   2.783   0.309 -1.7281  2.0786  0.3154
 5192SOL    HW227039   4.038   2.751   0.168  0.1728 -1.2759  0.8906
 5193SOL     OW27040   2.935   1.639  15.495  0.2939  0.0501  0.1611
 5193SOL    HW127041   2.953   1.552  15.532  0.0119 -0.2479 -0.3948
 5193SOL    HW227042   2.994   1.635  15.419 -1.4610 -1.9513 -1.1229
 5194SOL     OW27043   0.720   1.848   3.647 -0.0441 -0.1163 -0.1148
 5194SOL    HW127044   0.707   1.905   3.571  0.0628 -2.3906 -1.8315
 5194SOL    HW227045   0.677   1.766   3.623 -0.1967 -0.1552  0.2944
 5195SOL     OW27046   0.101   4.317   0.587  0.0143  0.4034 -0.0479
 5195SOL    HW127047   0.159   4.329   0.511 -0.1463  1.6208  0.0291
 5195SOL    HW227048   0.161   4.351   0.653 -1.9308  1.1207  1.3198
 5196SOL     OW27049   1.109   4.455   8.653  0.1174 -0.0568  0.0658
 5196SOL    HW127050   1.024   4.456   8.696 -0.9086  0.5378 -1.9925
 5196SOL    HW227051   1.091   4.447   8.560 -1.0710  0.8732  0.2084
 5197SOL     OW27052   0.098   3.503   1.064  0.2214 -0.1260 -0.1782
 5197SOL    HW127053   0.043   3.484   0.988  1.7856  1.3834 -1.6906
 5197SOL    HW227054   0.175   3.547   1.028  0.1825  1.1836  1.3597
 5198SOL     OW27055   0.752   4.327   4.051 -0.5315 -0.3204 -0.1835
 5198SOL    HW127056   0.785   4.307   3.963  1.5814  0.4240  0.4542
 5198SOL    HW227057   0.662   4.354   4.031 -0.3934  0.4438  0.2063
 5199SOL     OW27058   4.453   4.706   4.550 -0.0734 -0.0563  0.0613
 5199SOL    HW127059   4.421   4.617   4.563  0.7194 -0.2924  0.3714
 5199SOL    HW227060   4.542   4.684   4.524 -0.1372 -1.0297  0.6977
 5200SOL     OW27061   3.107   0.519  12.517  0.0378 -0.6323  0.4117
 5200SOL    HW127062   3.143   0.596  12.561  0.0749  0.8512 -2.2279
 5200SOL    HW227063   3.172   0.457  12.549  1.0823  0.8614  1.1958
 5201SOL     OW27064   2.513   4.722   7.447 -0.1340 -0.1388 -0.2621
 5201SOL    HW127065   2.437   4.720   7.505 -0.6762 -0.7054 -1.0054
 5201SOL    HW227066   2.570   4.654   7.484 -2.1371 -1.7748 -0.2103
 5202SOL     OW27067   2.462   0.353   6.619  0.4481 -0.2530 -0.2060
 5202SOL    HW127068   2.479   0.264   6.650  1.4670  0.0534  0.0919
 5202SOL    HW227069   2.474   0.404   6.699 -1.5991  0.3151 -0.2701
 5203SOL     OW27070   2.824   4.453   6.464 -0.2511  0.2761 -0.1601
 5203SOL    HW127071   2.895   4.392   6.483 -0.2888 -0.2614 -1.7682
 5203SOL    HW227072   2.878   4.530   6.478  0.6702 -0.7272  1.8621
 5204SOL     OW27073   0.024   4.497   8.382 -0.1768 -0.3395 -0.9683
 5204SOL    HW127074   4.653   4.494   8.372  0.0200 -0.7312 -2.6812
 5204SOL    HW227075   0.025   4.581   8.428 -0.5124 -1.2012  0.6200
 5205SOL     OW27076   4.660   3.206   3.078  0.0966 -0.3788  0.8994
 5205SOL    HW127077   4.617   3.260   3.012  1.0533  0.6000  1.0872
 5205SOL    HW227078   0.011   3.259   3.101  0.1472  0.1963 -0.6386
 5206SOL     OW27079   2.791   4.057   4.384 -0.0360  0.0176 -0.1308
 5206SOL    HW127080   2.774   4.034   4.292  1.3208 -0.5890 -0.2356
 5206SOL    HW227081   2.828   4.144   4.370  0.1096 -0.1376 -0.7299
 5207SOL     OW27082   3.773   2.100   2.536  0.3246  0.3063  0.1931
 5207SOL    HW127083   3.751   2.145   2.454 -1.4216  1.3578  1.2430
 5207SOL    HW227084   3.775   2.181   2.587  0.7937  0.1906  0.3570
 5208SOL     OW27085   0.050   1.631   6.430 -0.1151  0.1881 -0.2628
 5208SOL    HW127086   0.063   1.654   6.338 -0.0589 -3.9568 -1.2994
 5208SOL    HW227087   0.136   1.594   6.446  0.1567  0.6505 -0.6603
 5209SOL     OW27088   3.266   2.720   3.873 -0.1442  0.1385 -0.6182
 5209SOL    HW127089   3.267   2.746   3.781  0.0091  0.2665 -0.5804
 5209SOL    HW227090   3.284   2.627   3.882 -1.2820 -0.3472 -3.4825
 5210SOL     OW27091   3.525   1.280  10.448 -0.4518  0.1252  0.2152
 5210SOL    HW127092   3.518   1.184  10.449 -1.5152  0.1959 -0.4784
 5210SOL    HW227093   3.437   1.317  10.443 -0.6092 -0.4687 -1.6141
 5211SOL     OW27094   1.369   0.090   4.532  0.3641 -0.3307 -0.7958
 5211SOL    HW127095   1.366   0.169   4.479 -0.8378  0.1006 -0.0857
 5211SOL    HW227096   1.296   0.106   4.592  0.7444 -0.4711 -0.2865
 5212SOL     OW27097   0.649   4.547   8.924  0.2309 -0.4900  0.3924
 5212SOL    HW127098   0.573   4.520   8.975 -0.2459  1.0703  0.5216
 5212SOL    HW227099   0.629   4.505   8.841  1.7534  2.3796 -1.4448
 5213SOL     OW27100   2.339   2.126   8.841  0.3644 -0.0273  0.6124
 5213SOL    HW127101   2.363   2.173   8.921 -0.5390  0.0484  0.8444
 5213SOL    HW227102   2.392   2.049   8.863  0.4047  0.2503  1.4967
 5214SOL     OW27103   1.537   2.138  13.392  0.3837  0.1842  0.1725
 5214SOL    HW127104   1.618   2.098  13.360  2.2175  2.6822  1.7184
 5214SOL    HW227105   1.568   2.217  13.436 -1.6062  0.6008  0.8373
 5215SOL     OW27106   3.697   1.340   3.378  0.4882  0.3554 -0.0527
 5215SOL    HW127107   3.762   1.283   3.418  2.0684  1.4165 -1.0664
 5215SOL    HW227108   3.660   1.283   3.311  2.1847  1.0806 -1.6292
 5216SOL     OW27109   0.924   1.685  14.833  0.3222 -0.0154 -0.2227
 5216SOL    HW127110   0.891   1.623  14.767 -1.0722 -0.7375  1.1603
 5216SOL    HW227111   0.885   1.659  14.916  2.9185  0.2953  1.1079
 5217SOL     OW27112   4.161   4.699   4.171  0.3041  0.2108  0.1543
 5217SOL    HW127113   4.066   4.701   4.176  0.1414 -1.5992 -2.6527
 5217SOL    HW227114   4.178   0.053   4.224 -0.0712 -0.6035  1.4589
 5218SOL     OW27115   2.656   1.659   6.258  0.2725 -0.0384  0.1158
 5218SOL    HW127116   2.680   1.589   6.318  0.2713  0.6316  0.8901
 5218SOL    HW227117   2.680   1.733   6.313 -0.3868 -1.0054  1.6902
 5219SOL     OW27118   0.228   0.779  15.223 -0.2780  0.4330  0.0617
 5219SOL    HW127119   0.149   0.833  15.214  0.2888  1.1381 -0.6752
 5219SOL    HW227120   0.193   0.714  15.283 -2.3597  1.5160  0.0067
 5220SOL     OW27121   1.403   3.475  13.277 -0.0761  0.6261 -0.1118
 5220SOL    HW127122   1.349   3.552  13.291 -2.2687 -0.8069 -0.6955
 5220SOL    HW227123   1.440   3.464  13.364 -0.6789  0.0553  0.0756
 5221SOL     OW27124   0.286   1.962   4.707  0.0921 -0.3300 -0.2018
 5221SOL    HW127125   0.292   1.888   4.646 -2.8016 -0.8512  0.1456
 5221SOL    HW227126   0.267   1.919   4.790 -0.4912 -0.3617 -0.3525
 5222SOL     OW27127   3.330   3.517  14.020  0.1610 -0.7446 -0.0659
 5222SOL    HW127128   3.328   3.583  13.950  4.4781  0.5118  0.9577
 5222SOL    HW227129   3.370   3.438  13.983  0.4928 -1.1657  1.2104
 5223SOL     OW27130   2.537   0.832   5.021  0.5346 -0.0245 -0.1959
 5223SOL    HW127131   2.603   0.839   4.953  0.8615  0.2957  0.1599
 5223SOL    HW227132   2.537   0.737   5.031 -1.7778  0.1685  1.8051
 5224SOL     OW27133   2.581   0.455  13.497  1.0688  0.6742  0.4927
 5224SOL    HW127134   2.648   0.515  13.462  4.0798 -2.0275  1.5859
 5224SOL    HW227135   2.510   0.489  13.443 -0.4606  0.1289  2.1799
 5225SOL     OW27136   3.648   4.681  17.585 -0.1027  0.6628 -0.3092
 5225SOL    HW127137   3.595   0.023  17.542 -1.6129 -0.2350  0.1334
 5225SOL    HW227138   3.688   4.628  17.515 -0.7677 -0.2327 -0.0081
 5226SOL     OW27139   2.244   3.343   6.183 -0.5103  0.0671 -0.1535
 5226SOL    HW127140   2.337   3.331   6.165 -0.5599  1.5027 -1.3723
 5226SOL    HW227141   2.231   3.282   6.256 -2.0640  0.3626 -0.1751
 5227SOL     OW27142   1.671   0.447   2.239  0.3070  0.0956  0.4165
 5227SOL    HW127143   1.672   0.536   2.204 -0.0463 -0.1296 -0.1650
 5227SOL    HW227144   1.597   0.407   2.194 -0.1423  0.8412  0.4929
 5228SOL     OW27145   0.719   2.540   4.042 -0.1753  0.6498 -0.2531
 5228SOL    HW127146   0.813   2.533   4.058 -0.3710 -1.3458 -0.0476
 5228SOL    HW227147   0.713   2.508   3.952 -1.8539  1.5160 -0.4510
 5229SOL     OW27148   2.043   4.473   5.113 -0.1768 -0.0810  0.5507
 5229SOL    HW127149   2.069   4.419   5.187 -1.3939 -2.0614 -0.4915
 5229SOL    HW227150   1.956   4.506   5.133 -0.7908 -2.0154  1.0490
 5230SOL     OW27151   0.827   1.007   5.882  0.2254 -0.1092  0.4970
 5230SOL    HW127152   0.773   0.975   5.954 -2.3150  2.5766 -0.1929
 5230SOL    HW227153   0.897   0.944   5.867  0.3193  0.2311 -0.4500
 5231SOL     OW27154   1.915   2.196   6.392 -0.1498  0.0964  0.1422
 5231SOL    HW127155   1.886   2.105   6.395 -1.1163  0.4580  1.5315
 5231SOL    HW227156   1.897   2.238   6.476 -0.6482 -1.5432  0.8294
 5232SOL     OW27157   3.480   0.365   2.537 -0.4450  0.0086 -0.6339
 5232SOL    HW127158   3.519   0.423   2.471 -2.6751  1.7942 -0.3798
 5232SOL    HW227159   3.447   0.427   2.601  0.8440 -0.2384  0.2892
 5233SOL     OW27160   4.169   0.508   6.754  0.0114  0.4380  0.5887
 5233SOL    HW127161   4.136   0.496   6.664  2.5986  1.7677 -0.5298
 5233SOL    HW227162   4.206   0.421   6.765  0.3266  0.2829 -1.6410
 5234SOL     OW27163   3.593   2.701   3.525 -0.5838  0.0760 -0.3087
 5234SOL    HW127164   3.637   2.637   3.582 -0.2951  0.6313  0.0856
 5234SOL    HW227165   3.594   2.650   3.444  2.2327  0.3556 -0.4713
 5235SOL     OW27166   2.443   2.913  14.790 -0.3953  0.1529  0.6657
 5235SOL    HW127167   2.416   2.990  14.741  0.9626 -1.0665 -2.0107
 5235SOL    HW227168   2.426   2.842  14.728  1.0793  1.6345 -1.4149
 5236SOL     OW27169   2.208   1.476   4.861 -0.3546  0.6432 -0.0320
 5236SOL    HW127170   2.203   1.549   4.923 -0.3479  0.4231  0.2310
 5236SOL    HW227171   2.237   1.516   4.780  1.6267 -0.3801  0.1663
 5237SOL     OW27172   4.210   0.334  16.683 -0.4663  0.0888 -0.3604
 5237SOL    HW127173   4.169   0.286  16.755 -0.4662 -1.8318 -1.6447
 5237SOL    HW227174   4.220   0.265  16.617 -0.0964 -1.5407  1.3898
 5238SOL     OW27175   0.587   1.442   0.882  0.0431 -0.2913 -0.6689
 5238SOL    HW127176   0.651   1.512   0.891 -0.3254  0.0238 -0.4935
 5238SOL    HW227177   0.646   1.382   0.836 -0.9238 -0.7516 -1.3095
 5239SOL     OW27178   4.595   2.502  13.780 -0.2652 -0.1432  0.2613
 5239SOL    HW127179   4.659   2.568  13.755 -1.7307  0.9335 -0.6340
 5239SOL    HW227180   4.550   2.488  13.697  0.1862 -1.0736  0.1654
 5240SOL     OW27181   1.320   3.665   8.645 -0.3747  0.5030  0.4193
 5240SOL    HW127182   1.357   3.748   8.676  1.7706 -1.0289  1.9574
 5240SOL    HW227183   1.345   3.597   8.708  0.7866 -0.0603 -0.6660
 5241SOL     OW27184   3.366   0.991   2.815 -0.0229  0.0425  0.2861
 5241SOL    HW127185   3.361   1.008   2.721  1.8720  3.2387  0.7629
 5241SOL    HW227186   3.275   1.006   2.840 -0.4136 -0.5737 -0.7987
 5242SOL     OW27187   3.877   3.412   1.863 -0.2314 -0.2322 -0.0634
 5242SOL    HW127188   3.825   3.384   1.938 -0.2558 -0.9431 -0.3462
 5242SOL    HW227189   3.808   3.414   1.797 -1.4958  0.3388  1.2809
 5243SOL     OW27190   1.715   1.452   8.525  0.3645  0.1222 -0.1854
 5243SOL    HW127191   1.717   1.545   8.545 -0.3223  0.0802  0.0836
 5243SOL    HW227192   1.643   1.423   8.582  0.6149  1.0946  0.6276
 5244SOL     OW27193   2.608   2.528   5.601 -0.7134  0.0206  0.3786
 5244SOL    HW127194   2.605   2.594   5.532 -1.4647 -0.1816  0.2258
 5244SOL    HW227195   2.526   2.548   5.645 -0.5455 -1.2709  1.2857
 5245SOL     OW27196   0.840   0.992   8.994  0.4266 -0.1090  0.0480
 5245SOL    HW127197   0.850   1.042   9.075 -1.1508  0.2604  0.0194
 5245SOL    HW227198   0.745   0.990   8.985  0.4938  0.5111 -0.8514
 5246SOL     OW27199   3.538   1.755   6.518  0.3419  0.6868  0.1804
 5246SOL    HW127200   3.603   1.792   6.577  0.5902 -2.2529  1.7672
 5246SOL    HW227201   3.520   1.681   6.576  1.1968 -0.4384 -0.9968
 5247SOL     OW27202   0.078   0.941   9.870  0.8436 -0.5549  0.2824
 5247SOL    HW127203   0.103   0.851   9.847  0.6136  0.3586 -3.3743
 5247SOL    HW227204   0.163   0.976   9.898  0.1884  1.2327  0.0192
 5248SOL     OW27205   4.441   1.832   8.473  0.4540  0.2200  0.3852
 5248SOL    HW127206   4.437   1.928   8.469  0.6630  0.2210  0.2296
 5248SOL    HW227207   4.376   1.807   8.408  0.5920  0.4579  0.1584
 5249SOL     OW27208   2.415   1.938   5.345  0.9473 -0.1598  0.0094
 5249SOL    HW127209   2.448   1.903   5.428 -0.3121  0.8411  0.9267
 5249SOL    HW227210   2.403   1.863   5.287  0.4159  1.0425 -1.4228
 5250SOL     OW27211   1.032   4.140  13.772 -0.0096 -0.2793  0.2343
 5250SOL    HW127212   0.945   4.169  13.743  0.6273  0.9693 -0.4093
 5250SOL    HW227213   1.021   4.160  13.865 -0.0392  2.2001 -0.2972
 5251SOL     OW27214   0.407   4.582   8.132  0.2283 -0.1405 -0.0894
 5251SOL    HW127215   0.416   4.488   8.146 -0.2943 -0.5846 -2.7778
 5251SOL    HW227216   0.468   4.612   8.065  0.2089  1.2085  0.5015
 5252SOL     OW27217   0.328   3.598  17.600  0.5021 -0.0962 -0.2803
 5252SOL    HW127218   0.272   3.543  17.546  0.7079 -0.2594 -0.3305
 5252SOL    HW227219   0.304   3.557  17.684  0.2447 -2.0903 -1.3246
 5253SOL     OW27220   2.958   1.637   1.274  0.4390 -0.0073 -0.2622
 5253SOL    HW127221   2.878   1.633   1.326  1.9455 -0.4755  2.0511
 5253SOL    HW227222   2.925   1.576   1.208 -0.5017 -2.1223  2.1792
 5254SOL     OW27223   3.948   1.027   2.503 -0.0068 -0.1022 -0.3625
 5254SOL    HW127224   4.002   0.970   2.448  0.5349  1.8635 -1.9135
 5254SOL    HW227225   4.007   1.057   2.572  0.3648 -1.9534  0.1059
 5255SOL     OW27226   2.297   1.649  12.573  0.1806  0.3402  0.0005
 5255SOL    HW127227   2.247   1.615  12.647  1.1221  1.1305  0.9874
 5255SOL    HW227228   2.235   1.643  12.499 -1.0872  0.4549  1.0463
 5256SOL     OW27229   1.081   3.789   1.367  0.0628 -0.3493  0.1502
 5256SOL    HW127230   1.053   3.776   1.276  0.0391 -0.3359  0.1555
 5256SOL    HW227231   1.174   3.800   1.349  0.0469 -0.9812 -0.3110
 5257SOL     OW27232   3.103   1.354   6.560 -0.0019 -0.0220 -0.0051
 5257SOL    HW127233   3.145   1.300   6.494  0.4022 -0.7082  0.8099
 5257SOL    HW227234   3.117   1.439   6.518 -0.9589 -0.0670 -0.4087
 5258SOL     OW27235   0.236   3.998   8.288  0.6005 -0.1287  0.4880
 5258SOL    HW127236   0.198   4.079   8.323  1.4609  0.4129  0.1499
 5258SOL    HW227237   0.324   3.998   8.325  0.2650 -0.0222  1.2823
 5259SOL     OW27238   1.993   0.887  16.996 -0.2184 -0.1304 -0.0947
 5259SOL    HW127239   1.977   0.966  17.046  3.2995  0.0707  0.7084
 5259SOL    HW227240   1.933   0.897  16.922 -1.8559 -1.7467  1.0118
 5260SOL     OW27241   3.353   4.163   4.412 -0.3060  0.9353 -0.4196
 5260SOL    HW127242   3.326   4.160   4.504  1.6281 -2.7807 -0.0043
 5260SOL    HW227243   3.305   4.088   4.378  0.2987  0.8547 -1.0977
 5261SOL     OW27244   3.709   1.155   2.436 -0.2645  0.2624 -0.3322
 5261SOL    HW127245   3.796   1.116   2.442 -1.0394 -1.4222 -0.0036
 5261SOL    HW227246   3.729   1.181   2.346  0.2541  1.8214  0.2343
 5262SOL     OW27247   2.690   2.755  13.560 -0.2137  0.3415  0.4122
 5262SOL    HW127248   2.669   2.764  13.468 -0.2204 -0.4201  0.3351
 5262SOL    HW227249   2.737   2.837  13.573  0.5671 -0.0928  0.3458
 5263SOL     OW27250   4.044   0.517   5.528  0.0394 -0.4361 -0.2384
 5263SOL    HW127251   3.967   0.507   5.584 -1.3954 -1.5387 -2.3835
 5263SOL    HW227252   4.118   0.523   5.587  2.0208  0.4524 -2.8123
 5264SOL     OW27253   3.599   3.403   1.108 -0.3588  1.0511  0.3328
 5264SOL    HW127254   3.549   3.322   1.118 -2.3433  1.8643 -2.8518
 5264SOL    HW227255   3.654   3.375   1.035 -0.0060  0.3163  0.8796
 5265SOL     OW27256   1.121   2.171   7.534 -0.1352 -0.2106  0.2122
 5265SOL    HW127257   1.175   2.157   7.456 -0.1422 -1.3321  0.4094
 5265SOL    HW227258   1.136   2.263   7.553  0.3162 -0.2287 -0.0397
 5266SOL     OW27259   1.586   0.986   8.136  0.0024  0.6854 -0.5385
 5266SOL    HW127260   1.638   1.066   8.136  0.1325  0.5970 -1.5385
 5266SOL    HW227261   1.626   0.940   8.209 -0.1164  1.8553  0.2725
 5267SOL     OW27262   3.571   2.551  15.506  0.0880 -0.3803 -0.4264
 5267SOL    HW127263   3.521   2.620  15.463  1.4902 -0.4599 -2.1556
 5267SOL    HW227264   3.626   2.526  15.432 -2.1401  0.6680 -2.4077
 5268SOL     OW27265   2.280   3.516   7.507 -0.3250 -0.1894  0.0434
 5268SOL    HW127266   2.269   3.510   7.602 -1.0120 -1.0228 -0.0887
 5268SOL    HW227267   2.348   3.450   7.496 -2.1771 -1.4219 -3.8751
 5269SOL     OW27268   3.492   3.673  12.829 -0.1950 -0.3231  0.3753
 5269SOL    HW127269   3.440   3.671  12.749  0.5225  2.7643 -0.1715
 5269SOL    HW227270   3.421   3.686  12.892  0.7144  0.8682  1.1490
 5270SOL     OW27271   3.648   0.112   8.042 -0.0562  0.2878  0.0810
 5270SOL    HW127272   3.648   0.151   8.129 -0.2855 -0.1016  0.2547
 5270SOL    HW227273   3.574   0.147   7.993  0.8193  1.7647 -0.1909
 5271SOL     OW27274   3.233   0.585  12.180  0.3322  0.2662 -0.5375
 5271SOL    HW127275   3.306   0.522  12.178 -1.5956 -1.9602 -0.9604
 5271SOL    HW227276   3.214   0.575  12.273  0.5873 -0.2473 -0.5365
 5272SOL     OW27277   4.124   0.537   8.563 -0.1166  0.0164  0.2532
 5272SOL    HW127278   4.202   0.582   8.533  0.1012 -0.6553 -0.1967
 5272SOL    HW227279   4.119   0.576   8.651 -0.0099  0.3409  0.1138
 5273SOL     OW27280   2.107   0.368   5.965  0.2601 -0.0135  0.4243
 5273SOL    HW127281   2.137   0.287   6.007 -2.2166 -0.8809  0.5458
 5273SOL    HW227282   2.071   0.409   6.044  1.2720  1.9801 -0.1530
 5274SOL     OW27283   2.802   2.644   9.351  0.3894 -0.6140 -0.2132
 5274SOL    HW127284   2.850   2.709   9.300  0.6407  0.8642  1.8877
 5274SOL    HW227285   2.796   2.567   9.294  1.6257 -2.2936  1.9508
 5275SOL     OW27286   1.787   0.934   6.784  0.1604  0.5080 -0.3306
 5275SOL    HW127287   1.794   0.876   6.708 -1.5784  1.1929 -1.0167
 5275SOL    HW227288   1.693   0.950   6.776  0.3712  1.0414 -1.7659
 5276SOL     OW27289   3.416   4.206   8.529 -0.2367 -0.1614  0.3686
 5276SOL    HW127290   3.371   4.236   8.608 -1.9358 -1.4855 -0.0991
 5276SOL    HW227291   3.404   4.112   8.544  2.3626 -0.0272  3.0737
 5277SOL     OW27292   0.469   2.341   7.201 -0.1800 -0.2223 -0.0010
 5277SOL    HW127293   0.538   2.398   7.166 -1.2130  2.0541  1.6849
 5277SOL    HW227294   0.506   2.259   7.169  0.3797  0.1618 -0.3562
 5278SOL     OW27295   3.941   2.776  12.427 -0.8228  0.2070  0.2378
 5278SOL    HW127296   3.859   2.761  12.378 -1.2132  1.5919  0.4564
 5278SOL    HW227297   3.980   2.850  12.381 -1.2902  0.6796  0.6107
 5279SOL     OW27298   2.353   4.059   5.080 -0.4543  0.0309  0.6253
 5279SOL    HW127299   2.412   4.039   5.007 -0.3598 -2.9268  1.5140
 5279SOL    HW227300   2.353   3.973   5.120  0.8099 -1.7906 -3.3024
 5280SOL     OW27301   2.758   0.346   7.900 -0.5613  0.0575  0.8668
 5280SOL    HW127302   2.751   0.351   7.805  0.9169 -0.2968  0.7450
 5280SOL    HW227303   2.669   0.315   7.919 -0.9401  1.2966  1.1776
 5281SOL     OW27304   4.497   2.308  13.962  0.6178  0.2764 -0.1463
 5281SOL    HW127305   4.498   2.395  13.923 -0.6900  0.5693  0.4672
 5281SOL    HW227306   4.466   2.331  14.050 -1.1993 -0.3878 -0.6030
 5282SOL     OW27307   3.761   4.059   3.853 -0.5646  0.8911 -0.0794
 5282SOL    HW127308   3.766   4.056   3.949  1.9653 -2.0399 -0.3192
 5282SOL    HW227309   3.728   3.970   3.841 -0.6582  0.8631  0.3761
 5283SOL     OW27310   0.383   3.340   8.290  0.4158  0.0653  0.4363
 5283SOL    HW127311   0.314   3.347   8.225  0.6194  0.5086  0.2671
 5283SOL    HW227312   0.462   3.367   8.243 -1.0205 -1.7256 -2.9759
 5284SOL     OW27313   2.444   1.059   4.775 -0.6426 -0.4518 -0.0318
 5284SOL    HW127314   2.396   1.106   4.707 -0.8770  2.1123  1.9293
 5284SOL    HW227315   2.398   1.105   4.846 -0.5516  0.3616 -0.5076
 5285SOL     OW27316   2.092   1.829  11.160 -0.2105  0.6794 -0.2836
 5285SOL    HW127317   2.160   1.767  11.135  2.2192  3.3716 -0.4015
 5285SOL    HW227318   2.148   1.904  11.179  0.9492 -0.0488 -0.8318
 5286SOL     OW27319   2.101   3.981   3.231  0.1973 -0.7120  0.1060
 5286SOL    HW127320   2.042   3.958   3.303  0.2592 -2.7204 -0.4776
 5286SOL    HW227321   2.048   4.048   3.190  0.5893 -0.9923 -0.8559
 5287SOL     OW27322   0.827   3.276   2.682  0.3825  0.3708  0.1803
 5287SOL    HW127323   0.812   3.262   2.589  1.0099 -0.2555  0.1647
 5287SOL    HW227324   0.775   3.353   2.703  0.0385  0.7983 -2.2781
 5288SOL     OW27325   1.538   0.719   3.498  0.4038  0.1585  0.7449
 5288SOL    HW127326   1.568   0.666   3.424  2.9637  2.6012  0.0449
 5288SOL    HW227327   1.443   0.711   3.486  0.1191  1.1255  2.3598
 5289SOL     OW27328   4.534   4.592   1.900  0.8140  0.9893  0.1234
 5289SOL    HW127329   4.475   4.648   1.850 -0.6527 -0.1890  0.5053
 5289SOL    HW227330   4.608   4.585   1.841  1.1131  2.3133  0.3571
 5290SOL     OW27331   0.862   1.154  13.549  0.3736  0.2467 -0.2517
 5290SOL    HW127332   0.925   1.083  13.565 -0.2370 -0.9420 -3.0268
 5290SOL    HW227333   0.833   1.162  13.640 -1.8343  1.4557 -1.0509
 5291SOL     OW27334   1.760   2.905   3.061 -0.7038 -0.2508  0.5971
 5291SOL    HW127335   1.674   2.863   3.066  0.5559 -2.9355 -0.3728
 5291SOL    HW227336   1.771   2.871   2.972  0.2079  0.4792  0.4315
 5292SOL     OW27337   2.364   3.877   2.498 -0.1565  0.1884  0.0279
 5292SOL    HW127338   2.309   3.801   2.518  1.7587 -1.7943 -2.1984
 5292SOL    HW227339   2.321   3.954   2.535  0.0624  0.0662  0.5416
 5293SOL     OW27340   3.040   1.431   0.899  0.0253 -0.6611  0.3356
 5293SOL    HW127341   2.981   1.481   0.843 -1.5676 -3.3065 -0.3578
 5293SOL    HW227342   3.007   1.431   0.989  0.7519 -0.0077  0.5986
 5294SOL     OW27343   1.348   4.539   6.804 -0.0523 -0.2157  0.0928
 5294SOL    HW127344   1.371   4.624   6.839 -1.9671  0.9281 -1.3863
 5294SOL    HW227345   1.289   4.506   6.871  1.2472 -2.3933  0.1610
 5295SOL     OW27346   4.082   2.747   0.668  0.4565  0.1216 -0.2173
 5295SOL    HW127347   4.065   2.825   0.614  0.7904  0.4699  0.1724
 5295SOL    HW227348   4.132   2.693   0.607  1.4861  1.4576 -0.5766
 5296SOL     OW27349   0.181   0.913   7.791  0.7160  0.2841 -0.5888
 5296SOL    HW127350   0.218   0.827   7.808 -2.2403 -0.8587 -0.0748
 5296SOL    HW227351   0.249   0.974   7.760 -1.3365  1.9986 -1.7316
 5297SOL     OW27352   2.197   1.309   3.563  0.0889 -0.1735  0.8166
 5297SOL    HW127353   2.278   1.323   3.613 -0.5393  0.0779  1.7537
 5297SOL    HW227354   2.200   1.214   3.552  1.6659  0.0467 -0.6842
 5298SOL     OW27355   0.539   0.931  10.657  0.6228 -0.3745  0.4310
 5298SOL    HW127356   0.618   0.979  10.682  0.8340 -0.6783  0.3551
 5298SOL    HW227357   0.476   1.001  10.671 -0.9365 -1.7899  0.5382
 5299SOL     OW27358   2.814   4.379  15.940  0.7021  0.0378 -0.2617
 5299SOL    HW127359   2.847   4.437  15.872 -1.4486  1.0070 -0.4905
 5299SOL    HW227360   2.874   4.304  15.939 -1.1230 -1.4295 -0.1676
 5300SOL     OW27361   3.450   3.167   1.077 -0.0628 -0.7403  0.1538
 5300SOL    HW127362   3.378   3.104   1.070  0.1853 -0.8827 -1.0623
 5300SOL    HW227363   3.439   3.216   0.995 -1.6902 -1.0707  0.1833
 5301SOL     OW27364   1.179   0.246  17.264 -0.1421  0.5390  0.2445
 5301SOL    HW127365   1.140   0.180  17.322  0.3538 -0.0609 -0.1070
 5301SOL    HW227366   1.119   0.318  17.286 -0.2717  1.2328 -2.4612
 5302SOL     OW27367   0.509   0.389  16.400  0.1121  0.0378  0.7627
 5302SOL    HW127368   0.510   0.331  16.476  1.2568  0.4655  1.0715
 5302SOL    HW227369   0.526   0.472  16.445 -1.7616  1.0431 -0.3822
 5303SOL     OW27370   4.337   3.086   6.028 -0.2087 -0.2292 -0.7920
 5303SOL    HW127371   4.397   3.012   6.023 -2.3241 -2.1192  2.2724
 5303SOL    HW227372   4.384   3.164   5.996 -1.8291  0.8247 -0.6189
 5304SOL     OW27373   2.244   1.709  14.031 -0.0065 -0.3231  0.1751
 5304SOL    HW127374   2.286   1.648  14.092  2.2651  0.2152 -0.8397
 5304SOL    HW227375   2.319   1.756  13.994  1.8388 -3.1404  0.3002
 5305SOL     OW27376   4.629   1.829   3.650 -0.2225  0.4595 -0.0184
 5305SOL    HW127377   4.538   1.801   3.637 -0.6597  0.7585  2.3546
 5305SOL    HW227378   4.656   1.774   3.723 -3.0932 -0.0096  0.7013
 5306SOL     OW27379   3.476   0.723   1.733  0.1211  0.4450 -0.1506
 5306SOL    HW127380   3.492   0.804   1.783  2.8348  0.2728 -0.7394
 5306SOL    HW227381   3.560   0.702   1.691  0.8352  1.6810  0.6588
 5307SOL     OW27382   3.682   0.023   3.163  0.6091 -0.7423  0.0478
 5307SOL    HW127383   3.770   0.046   3.193 -0.0645 -0.7068  1.9953
 5307SOL    HW227384   3.691   0.056   3.074  0.7032 -1.4071 -0.1942
 5308SOL     OW27385   0.688   1.829   7.154 -0.4150 -0.3104 -0.1789
 5308SOL    HW127386   0.615   1.815   7.213  0.3632  2.4919  1.4488
 5308SOL    HW227387   0.669   1.765   7.084 -1.4545 -2.3210  1.9615
 5309SOL     OW27388   2.962   1.656   6.733  0.0636 -0.6955  0.4363
 5309SOL    HW127389   2.975   1.573   6.779 -1.5102 -0.5514  1.1226
 5309SOL    HW227390   3.049   1.698   6.736 -0.6142  0.8128 -1.1273
 5310SOL     OW27391   4.021   3.063   2.859  0.1660 -0.0213  0.3175
 5310SOL    HW127392   4.061   2.988   2.815 -1.0541 -0.1233 -0.6120
 5310SOL    HW227393   4.094   3.124   2.862 -0.6920  0.9833  0.6771
 5311SOL     OW27394   1.153   2.609   6.759 -0.0087 -0.3813  1.0449
 5311SOL    HW127395   1.199   2.526   6.747  0.9924  0.1859  0.9312
 5311SOL    HW227396   1.176   2.624   6.851 -0.7975  0.0208  1.1719
 5312SOL     OW27397   1.548   1.508   7.329  0.4147  0.0565 -0.2527
 5312SOL    HW127398   1.475   1.486   7.272 -1.1499  1.0675  1.3863
 5312SOL    HW227399   1.598   1.562   7.268  1.9040  0.1006  1.0037
 5313SOL     OW27400   2.707   0.482  15.306  0.0157 -0.1221 -0.0451
 5313SOL    HW127401   2.631   0.534  15.330  0.3193  1.0374 -1.5831
 5313SOL    HW227402   2.726   0.520  15.220  2.7341 -0.7060  0.3033
 5314SOL     OW27403   1.499   2.749  13.213  0.2454 -0.4498  0.5779
 5314SOL    HW127404   1.434   2.684  13.187 -0.4122  0.1720  0.6588
 5314SOL    HW227405   1.486   2.744  13.308 -0.5379  5.0370  0.7906
 5315SOL     OW27406   2.413   0.035  12.321  0.1653  0.2915  0.1178
 5315SOL    HW127407   2.337   0.050  12.266 -0.4530  0.4857  1.0188
 5315SOL    HW227408   2.446   4.672  12.300  2.3011  0.7098  1.6353
 5316SOL     OW27409   3.612   2.454   3.402 -0.1690  0.5453  0.0794
 5316SOL    HW127410   3.704   2.454   3.430 -0.6604  0.4224  1.6854
 5316SOL    HW227411   3.622   2.439   3.308  0.0546  1.4423 -0.0334
 5317SOL     OW27412   3.382   3.381  15.174  0.4480  0.8564  0.3125
 5317SOL    HW127413   3.305   3.410  15.223  1.0093 -1.5943  2.6255
 5317SOL    HW227414   3.447   3.388  15.244 -1.2665  0.2383  1.9648
 5318SOL     OW27415   4.481   3.063   1.664  0.1837  0.0096  0.1518
 5318SOL    HW127416   4.430   3.091   1.588  0.4196 -0.7990 -0.3055
 5318SOL    HW227417   4.454   3.128   1.729 -0.4077 -0.6228  0.5457
 5319SOL     OW27418   2.438   0.487   1.349 -0.3533  0.1597  0.1518
 5319SOL    HW127419   2.366   0.499   1.412  0.2444 -0.7830  1.0083
 5319SOL    HW227420   2.508   0.474   1.413 -0.0643 -0.4494 -0.2966
 5320SOL     OW27421   4.695   0.980   7.640  0.2207 -0.2613  0.0234
 5320SOL    HW127422   4.690   1.076   7.633 -2.2858 -0.5660 -2.1949
 5320SOL    HW227423   0.046   0.966   7.698 -0.6728  1.3672  1.5935
 5321SOL     OW27424   3.835   1.011   5.821  0.6950 -0.3360  0.1542
 5321SOL    HW127425   3.874   1.056   5.747  0.9823 -1.9421 -0.6613
 5321SOL    HW227426   3.812   1.079   5.885 -0.7236 -1.5732  0.9706
 5322SOL     OW27427   4.609   4.696   9.952  0.2087  0.0692 -0.1233
 5322SOL    HW127428   4.644   4.688  10.041 -1.3659  0.9274  0.5814
 5322SOL    HW227429   4.603   4.604   9.924 -1.5357 -0.6612  2.6954
 5323SOL     OW27430   3.918   1.072  11.728 -0.5821  0.1680  0.0441
 5323SOL    HW127431   3.877   1.001  11.678 -0.3401  1.3164 -1.7697
 5323SOL    HW227432   4.011   1.055  11.711 -0.8449 -1.0697 -0.1980
 5324SOL     OW27433   1.491   1.255   8.339  0.1020 -0.1119 -0.2362
 5324SOL    HW127434   1.523   1.209   8.261 -1.2720 -1.3616 -0.0628
 5324SOL    HW227435   1.465   1.338   8.300 -2.2239 -2.2107 -3.1824
 5325SOL     OW27436   0.654   4.041   5.704 -0.2725 -0.4025 -0.6872
 5325SOL    HW127437   0.568   4.039   5.748 -0.3111  1.3137 -0.6866
 5325SOL    HW227438   0.698   3.974   5.757  1.0358  1.7855  1.0234
 5326SOL     OW27439   0.387   0.669  16.947  0.2231 -0.0273 -0.4875
 5326SOL    HW127440   0.379   0.760  16.920 -0.5162 -0.3949 -1.5279
 5326SOL    HW227441   0.369   0.676  17.041  1.9272  1.7503 -0.2840
 5327SOL     OW27442   4.105   2.807   2.769  0.3925  0.0947  0.2313
 5327SOL    HW127443   4.042   2.810   2.697  0.2603  1.2040  0.4021
 5327SOL    HW227444   4.079   2.722   2.806 -1.0505  0.6363  0.4472
 5328SOL     OW27445   0.269   3.068   4.378 -0.0110  0.9154  0.0993
 5328SOL    HW127446   0.316   2.992   4.344 -0.4973  0.8611 -0.4591
 5328SOL    HW227447   0.217   3.023   4.444  1.8725 -2.7229 -0.9420
 5329SOL     OW27448   3.644   2.268   8.890  0.2088 -0.1055 -0.9063
 5329SOL    HW127449   3.639   2.242   8.798 -3.0701 -0.4970 -0.6300
 5329SOL    HW227450   3.637   2.184   8.935  0.8988  0.7413  0.7836
 5330SOL     OW27451   2.691   1.152   7.098  0.1118  0.0607  0.1575
 5330SOL    HW127452   2.758   1.208   7.136  0.6893  0.3678 -1.3418
 5330SOL    HW227453   2.622   1.189   7.154 -0.8374  0.2882 -1.1656
 5331SOL     OW27454   2.142   2.287   1.595  0.1853 -0.1670  0.0759
 5331SOL    HW127455   2.196   2.330   1.661  0.2748  0.5296 -0.4672
 5331SOL    HW227456   2.071   2.263   1.655  0.0793 -2.7024 -1.0411
 5332SOL     OW27457   2.677   1.059   5.984 -0.0391  0.2999 -0.0380
 5332SOL    HW127458   2.771   1.068   5.998  0.1378  1.3504 -1.7608
 5332SOL    HW227459   2.662   1.094   5.896  1.7375 -1.6392 -1.0918
 5333SOL     OW27460   3.478   4.057  13.716  0.1432  0.2945 -0.1775
 5333SOL    HW127461   3.555   4.068  13.660 -0.9555 -0.7109 -1.9033
 5333SOL    HW227462   3.508   4.113  13.787  0.2242  1.7285 -1.3484
 5334SOL     OW27463   0.830   0.005   1.453 -0.0542  0.8633 -0.0884
 5334SOL    HW127464   0.796   4.646   1.486  0.2876  0.7823  0.0671
 5334SOL    HW227465   0.879   4.693   1.379 -0.6418  1.9494 -0.9997
 5335SOL     OW27466   1.974   4.177   4.261 -0.0904 -0.2412  0.6246
 5335SOL    HW127467   2.065   4.151   4.244 -0.3014 -1.1638  0.8838
 5335SOL    HW227468   1.947   4.125   4.185  0.0848 -0.8915  1.0057
 5336SOL     OW27469   0.812   0.522   5.085 -0.2534 -0.1955  0.1505
 5336SOL    HW127470   0.735   0.574   5.062 -1.1365 -1.2650  0.7336
 5336SOL    HW227471   0.881   0.584   5.059  0.9935 -1.0650  1.3829
 5337SOL     OW27472   1.003   2.355  14.703  0.0361 -0.0883  0.0636
 5337SOL    HW127473   1.049   2.434  14.731  1.2848 -0.9025  0.3235
 5337SOL    HW227474   0.978   2.371  14.612 -0.6068 -1.9755 -0.0970
 5338SOL     OW27475   2.850   0.463   3.858  0.1213  0.0940 -0.1453
 5338SOL    HW127476   2.791   0.400   3.816  0.4707 -0.8009  0.6988
 5338SOL    HW227477   2.835   0.445   3.951 -0.0465  1.4478  0.0934
 5339SOL     OW27478   0.114   4.704   5.465 -0.5822  0.6409  0.3618
 5339SOL    HW127479   0.045   4.663   5.413 -0.5811  0.8827  0.1710
 5339SOL    HW227480   0.184   4.707   5.399 -0.0940  1.9030  0.9416
 5340SOL     OW27481   2.636   3.913   7.800  0.2146 -0.3719  0.4336
 5340SOL    HW127482   2.583   3.874   7.730  0.3302 -0.9293  0.6614
 5340SOL    HW227483   2.655   4.001   7.768  1.1865 -0.4724  0.7540
 5341SOL     OW27484   0.131   2.571   1.886  0.5973 -0.1044  0.8250
 5341SOL    HW127485   0.082   2.653   1.878  0.9258  0.1483  1.3632
 5341SOL    HW227486   0.218   2.595   1.854  1.0426 -0.6416  1.6228
 5342SOL     OW27487   1.640   2.707   2.124  0.3039 -0.0942  0.2732
 5342SOL    HW127488   1.594   2.778   2.171 -0.2038 -0.8438  0.9220
 5342SOL    HW227489   1.731   2.727   2.145  0.0605  0.3513  0.9296
 5343SOL     OW27490   2.084   4.022   3.931  0.1151  0.2882 -0.4281
 5343SOL    HW127491   2.179   4.035   3.932 -0.0359  1.4525 -1.2524
 5343SOL    HW227492   2.083   3.955   4.000 -2.3859  2.1591  1.3419
 5344SOL     OW27493   3.373   2.823   2.034  0.6230 -0.4539  0.2245
 5344SOL    HW127494   3.459   2.782   2.048  0.5309 -0.7752 -0.1830
 5344SOL    HW227495   3.386   2.916   2.055 -1.8045 -0.0284 -0.2409
 5345SOL     OW27496   0.086   0.082   1.722 -0.0685 -0.1816  0.4585
 5345SOL    HW127497   0.011   0.127   1.683 -1.6945 -2.5281  0.8586
 5345SOL    HW227498   0.093   0.132   1.804 -3.0044 -0.6955  1.0307
 5346SOL     OW27499   0.675   3.269   3.199  0.1942 -0.9148  0.1742
 5346SOL    HW127500   0.743   3.222   3.249 -0.7039  0.1799  2.4473
 5346SOL    HW227501   0.643   3.202   3.138  1.8799 -1.3791 -0.1999
 5347SOL     OW27502   4.142   1.631  17.674 -0.6723  0.7805 -0.1531
 5347SOL    HW127503   4.142   1.648   0.068 -2.2646  0.4384 -0.0922
 5347SOL    HW227504   4.236   1.624  17.660 -0.6896  2.6787 -1.1553
 5348SOL     OW27505   0.966   2.663   3.672 -0.3153 -0.0899  0.0519
 5348SOL    HW127506   1.009   2.722   3.734  1.5031  0.5413 -1.8006
 5348SOL    HW227507   0.893   2.624   3.720  1.3404  0.8387  3.3801
 5349SOL     OW27508   0.663   0.546   8.128  0.3254 -0.4175  0.2061
 5349SOL    HW127509   0.578   0.560   8.170  0.8039  2.2133  0.2605
 5349SOL    HW227510   0.649   0.553   8.034 -1.7194 -0.3745  0.5167
 5350SOL     OW27511   3.912   2.204   8.436 -0.1212 -0.4701 -0.4061
 5350SOL    HW127512   3.997   2.187   8.478 -0.2194 -0.8757 -0.3751
 5350SOL    HW227513   3.861   2.266   8.488  1.4441 -1.4530  2.3493
 5351SOL     OW27514   1.779   1.214   8.861 -0.0153  0.7013  0.1197
 5351SOL    HW127515   1.701   1.265   8.884  0.5928  2.4915 -1.7952
 5351SOL    HW227516   1.724   1.144   8.824 -0.4495  0.8139  0.5554
 5352SOL     OW27517   0.141   1.938   1.480 -0.0445  0.4792 -0.1246
 5352SOL    HW127518   0.078   1.959   1.549 -0.6203 -3.9695  0.6976
 5352SOL    HW227519   0.078   1.919   1.411 -0.9546  0.1895  0.7949
 5353SOL     OW27520   2.485   1.703   7.301  0.6431 -0.8754  0.8493
 5353SOL    HW127521   2.480   1.741   7.388  2.3739  2.3378 -0.4431
 5353SOL    HW227522   2.398   1.663   7.292  0.1783  0.6227 -1.2985
 5354SOL     OW27523   3.302   2.422   8.892 -0.0673  0.2241 -0.3076
 5354SOL    HW127524   3.387   2.466   8.891 -0.0873  0.3174  1.8161
 5354SOL    HW227525   3.323   2.358   8.959  0.6487 -1.4376 -2.1226
 5355SOL     OW27526   0.884   4.353   7.887 -0.1555  0.5564  0.2344
 5355SOL    HW127527   0.939   4.292   7.839  0.8914  2.1313 -0.5685
 5355SOL    HW227528   0.891   4.435   7.839  2.1639 -0.2783 -0.8315
 5356SOL     OW27529   0.878   1.042  16.076 -0.6016 -0.0069 -0.2167
 5356SOL    HW127530   0.842   1.090  16.001  0.8732 -1.8424 -2.0751
 5356SOL    HW227531   0.824   0.964  16.064 -1.5383  0.8659 -1.7936
 5357SOL     OW27532   3.282   2.934   7.110  0.4510 -0.0205 -0.0993
 5357SOL    HW127533   3.242   3.021   7.113  0.4975  0.0230 -0.9509
 5357SOL    HW227534   3.313   2.914   7.199  0.6361 -0.4825 -0.2667
 5358SOL     OW27535   3.506   3.196   9.475  0.6784 -0.1027 -0.0595
 5358SOL    HW127536   3.447   3.256   9.523  1.5231  1.1525 -0.5946
 5358SOL    HW227537   3.552   3.254   9.415  0.6035  1.1241  1.0519
 5359SOL     OW27538   1.082   1.267  12.816  0.5823  0.3905  0.2454
 5359SOL    HW127539   1.001   1.262  12.767  1.6059 -1.0714 -1.2918
 5359SOL    HW227540   1.040   1.253  12.901  0.5012  2.3300  0.5386
 5360SOL     OW27541   2.135   4.271   6.492 -0.3022  0.1637 -0.1807
 5360SOL    HW127542   2.074   4.321   6.438  0.2279 -0.3362 -1.2600
 5360SOL    HW227543   2.189   4.249   6.415 -0.6777  0.5907 -0.5690
 5361SOL     OW27544   3.851   0.363   4.560  0.5691  0.2333  0.1334
 5361SOL    HW127545   3.793   0.300   4.517 -0.1734  1.3137 -0.4401
 5361SOL    HW227546   3.789   0.428   4.592  0.5392  1.4290 -2.3204
 5362SOL     OW27547   3.642   2.096   5.823  0.0060 -0.0240 -0.0192
 5362SOL    HW127548   3.667   2.014   5.780 -0.8661 -0.6030  0.5713
 5362SOL    HW227549   3.556   2.125   5.792 -0.3010  1.0751  1.9016
 5363SOL     OW27550   1.437   2.411   6.289 -0.7626  0.5867  0.2563
 5363SOL    HW127551   1.406   2.336   6.238 -0.5845  0.4546  0.3422
 5363SOL    HW227552   1.359   2.440   6.336 -1.4791 -1.9461  0.6404
 5364SOL     OW27553   3.443   3.219   7.106  0.0103  0.1611 -0.1629
 5364SOL    HW127554   3.417   3.282   7.039 -2.9777 -0.0797  0.7523
 5364SOL    HW227555   3.478   3.143   7.060  0.5583 -0.0697  0.6331
 5365SOL     OW27556   2.145   2.965   4.676  0.1167 -0.1023  0.2216
 5365SOL    HW127557   2.120   3.057   4.682 -0.6369 -0.1822 -1.7181
 5365SOL    HW227558   2.151   2.967   4.581 -2.3571  1.5326  0.0949
 5366SOL     OW27559   0.026   0.039   7.348  0.7388  0.6836  0.4175
 5366SOL    HW127560   0.022   4.681   7.395  0.6540  0.6767  0.3974
 5366SOL    HW227561   0.040   0.096   7.423  0.7353  1.5992 -0.2723
 5367SOL     OW27562   3.210   4.483   9.693 -0.2959  0.2426 -0.3388
 5367SOL    HW127563   3.226   4.498   9.786  1.9571 -1.2686 -0.4911
 5367SOL    HW227564   3.133   4.426   9.690  0.5538 -0.7638 -3.0385
 5368SOL     OW27565   4.058   2.798   1.478  0.3500 -0.2008 -0.2169
 5368SOL    HW127566   4.142   2.762   1.451 -0.0996 -1.2093 -0.3088
 5368SOL    HW227567   4.064   2.787   1.573  1.9990 -1.4583 -0.4678
 5369SOL     OW27568   2.927   2.733   3.843 -0.0561 -0.2011  0.2861
 5369SOL    HW127569   2.968   2.757   3.760 -1.5328  1.7419  0.1198
 5369SOL    HW227570   2.989   2.759   3.911  0.5279 -3.2205  0.9155
 5370SOL     OW27571   3.165   4.560  13.499  0.3482  0.0169  0.1986
 5370SOL    HW127572   3.215   4.479  13.510  1.0293  0.6493  1.7324
 5370SOL    HW227573   3.144   4.538  13.408  0.6514 -2.4057  0.7125
 5371SOL     OW27574   3.497   1.850   9.200  0.1718  0.0422 -0.3651
 5371SOL    HW127575   3.413   1.822   9.234  0.5985  0.1167  0.7343
 5371SOL    HW227576   3.562   1.783   9.223  0.2382  0.2190 -0.0363
 5372SOL     OW27577   2.577   3.934   7.389 -0.5406  0.3678 -0.7125
 5372SOL    HW127578   2.545   3.909   7.475 -1.1367 -1.7561 -1.5547
 5372SOL    HW227579   2.538   3.856   7.349 -0.3141  0.2074 -0.6218
 5373SOL     OW27580   4.042   3.977   2.231 -0.5422  0.3215 -0.4012
 5373SOL    HW127581   4.119   3.989   2.175 -0.2704  1.0690  0.1388
 5373SOL    HW227582   3.998   3.898   2.201 -0.9581  0.4834 -0.2203
 5374SOL     OW27583   3.975   3.989   1.330 -0.0589  0.1053  0.3336
 5374SOL    HW127584   3.955   4.081   1.310 -2.1455 -0.3110  0.5348
 5374SOL    HW227585   4.068   3.985   1.350  0.0777  0.9780 -0.0970
 5375SOL     OW27586   2.489   3.050  16.681 -0.6947 -0.4095 -0.1047
 5375SOL    HW127587   2.434   3.058  16.759  2.6174 -2.7751  2.4907
 5375SOL    HW227588   2.542   3.126  16.706 -0.1606 -1.2716  1.4124
 5376SOL     OW27589   1.542   4.134   1.156  0.0625 -0.7014 -0.2087
 5376SOL    HW127590   1.514   4.077   1.085 -0.7968 -2.0663  1.2329
 5376SOL    HW227591   1.465   4.187   1.178  0.7478  0.1816  0.0580
 5377SOL     OW27592   2.972   3.573   6.161  0.3985  0.2985 -0.2727
 5377SOL    HW127593   2.946   3.482   6.148  3.2085 -0.5666  0.2596
 5377SOL    HW227594   2.999   3.594   6.072 -0.3068  0.4987 -0.4409
 5378SOL     OW27595   0.120   0.054   5.970  0.1999 -0.2969  0.2470
 5378SOL    HW127596   0.127   0.002   5.890  1.9339  2.1785 -1.2111
 5378SOL    HW227597   0.030   0.084   5.980  0.5077  0.8598 -0.4856
 5379SOL     OW27598   1.467   4.636   2.878 -0.1645 -0.2139 -0.4149
 5379SOL    HW127599   1.488   4.713   2.930 -1.0402  0.5705 -1.2301
 5379SOL    HW227600   1.373   4.642   2.863 -0.1007  0.2245 -0.6168
 5380SOL     OW27601   2.174   0.795  14.474 -0.2944 -0.3731 -0.0336
 5380SOL    HW127602   2.092   0.843  14.465  0.1665  0.5081  0.4494
 5380SOL    HW227603   2.140   0.725  14.530 -0.0060 -0.8249 -0.4301
 5381SOL     OW27604   1.935   1.660   9.116  0.2823  0.1012 -0.1707
 5381SOL    HW127605   1.904   1.578   9.154  1.0556 -0.0975  0.0439
 5381SOL    HW227606   1.918   1.638   9.024 -1.1520  1.0787 -0.1299
 5382SOL     OW27607   3.843   3.015   4.293 -0.0651  0.1364  0.2056
 5382SOL    HW127608   3.772   2.950   4.288 -0.3469  0.4905 -0.3801
 5382SOL    HW227609   3.838   3.040   4.385 -0.0774  0.1299  0.2066
 5383SOL     OW27610   2.570   3.095   7.026  0.2809  0.0112  0.0191
 5383SOL    HW127611   2.656   3.095   6.984 -0.0870  0.3263 -0.7167
 5383SOL    HW227612   2.511   3.058   6.961 -0.9267  2.6651 -0.3925
 5384SOL     OW27613   1.475   2.601  17.215  0.7459  0.1355 -0.9794
 5384SOL    HW127614   1.397   2.615  17.161 -0.9339 -0.0722  1.3953
 5384SOL    HW227615   1.486   2.688  17.254  0.9335  0.4335 -1.7015
 5385SOL     OW27616   3.274   1.068  12.744  0.1275 -0.6161 -0.3314
 5385SOL    HW127617   3.354   1.120  12.751  0.1103 -0.4280 -1.5718
 5385SOL    HW227618   3.263   1.041  12.653 -3.7410 -1.6532  0.4520
 5386SOL     OW27619   1.263   1.283  15.299 -0.0649 -0.2016 -0.0229
 5386SOL    HW127620   1.347   1.266  15.341  0.3135 -2.1988 -1.5821
 5386SOL    HW227621   1.231   1.201  15.263 -0.3044  0.0274 -0.3331
 5387SOL     OW27622   2.185   0.847   4.522  0.1705  0.5474 -0.6533
 5387SOL    HW127623   2.175   0.836   4.616 -1.1827 -0.8098 -0.9502
 5387SOL    HW227624   2.096   0.856   4.486  0.1781  1.2999 -0.4730
 5388SOL     OW27625   1.133   4.119   8.620 -0.2340 -0.1961  0.3731
 5388SOL    HW127626   1.152   4.213   8.628 -2.6194  0.2936  0.4222
 5388SOL    HW227627   1.049   4.111   8.574  0.2690  1.3375 -0.8046
 5389SOL     OW27628   0.204   3.121  14.867 -0.1327 -0.0234  0.0954
 5389SOL    HW127629   0.218   3.122  14.962 -0.3774 -4.6066  0.1725
 5389SOL    HW227630   0.261   3.197  14.852  1.1342 -1.2836 -1.5001
 5390SOL     OW27631   2.270   0.520  13.652 -0.1037 -0.5792  0.2580
 5390SOL    HW127632   2.265   0.475  13.567  0.9713 -1.8371  0.8638
 5390SOL    HW227633   2.284   0.613  13.634  0.9827 -0.3411  2.4088
 5391SOL     OW27634   2.554   0.395   5.922  0.0770 -0.0660  0.2496
 5391SOL    HW127635   2.569   0.481   5.962 -0.4029  0.8981 -1.6415
 5391SOL    HW227636   2.516   0.424   5.839  0.0367  1.2575  0.7361
 5392SOL     OW27637   2.453   4.283   3.632 -0.1712  0.5731 -0.0001
 5392SOL    HW127638   2.468   4.369   3.592  1.3466 -0.3012 -1.3331
 5392SOL    HW227639   2.384   4.249   3.576 -1.2268 -1.5521  2.6451
 5393SOL     OW27640   2.812   2.361   8.634 -0.4578 -0.2407 -0.0944
 5393SOL    HW127641   2.882   2.419   8.666 -0.8899  0.5624 -0.6070
 5393SOL    HW227642   2.812   2.296   8.704 -0.5748 -0.5147 -0.3473
 5394SOL     OW27643   2.613   4.632   0.834 -0.0439 -0.0897  0.2491
 5394SOL    HW127644   2.542   4.613   0.772 -0.0428  3.8633 -0.9765
 5394SOL    HW227645   2.567   4.625   0.918  0.1753 -2.1355  0.1928
 5395SOL     OW27646   1.476   4.327   9.901 -0.2442 -0.1518 -0.9056
 5395SOL    HW127647   1.456   4.332   9.807  2.9595 -0.3106 -1.5963
 5395SOL    HW227648   1.385   4.329   9.931 -0.8283 -0.4251 -2.6168
 5396SOL     OW27649   2.592   1.713  13.707 -0.3570  0.0878 -0.4604
 5396SOL    HW127650   2.596   1.793  13.655  0.8050  0.0056 -0.4843
 5396SOL    HW227651   2.545   1.739  13.786  1.0146  1.2470 -0.0419
 5397SOL     OW27652   3.773   4.147   8.663 -0.0044  0.2428  0.0747
 5397SOL    HW127653   3.844   4.211   8.675  0.2786  0.1198 -0.9781
 5397SOL    HW227654   3.820   4.065   8.653  1.7721  1.0794  1.5044
 5398SOL     OW27655   0.342   1.438   5.522  0.8486  0.0958  0.1095
 5398SOL    HW127656   0.332   1.345   5.544 -0.6644 -0.3073 -2.2528
 5398SOL    HW227657   0.271   1.439   5.458 -1.1981 -1.7919  2.3407
 5399SOL     OW27658   0.342   4.638   0.712  0.0952 -0.7599 -1.2510
 5399SOL    HW127659   0.315   4.550   0.736  0.7428 -0.7807 -0.6071
 5399SOL    HW227660   0.268   4.688   0.748  1.7939  1.2354 -0.5047
 5400SOL     OW27661   2.498   1.215   3.392  0.6452  0.0911  0.2585
 5400SOL    HW127662   2.546   1.213   3.475  1.1706 -1.4944 -0.0850
 5400SOL    HW227663   2.534   1.295   3.356  2.5177 -1.9949 -2.4807
 5401SOL     OW27664   2.515   3.420   6.772 -0.5319 -0.2089 -0.0696
 5401SOL    HW127665   2.479   3.378   6.694  0.4875 -0.3055 -0.4956
 5401SOL    HW227666   2.461   3.386   6.843 -0.6018 -0.6530 -0.3350
 5402SOL     OW27667   3.344   3.650   7.797 -0.7418  0.3229 -0.0046
 5402SOL    HW127668   3.407   3.587   7.831 -0.9602  1.5337  2.6012
 5402SOL    HW227669   3.368   3.648   7.704 -1.0593 -0.8669 -0.0608
 5403SOL     OW27670   3.720   1.509   5.515  0.5898  0.8212  0.0094
 5403SOL    HW127671   3.805   1.494   5.472 -0.3668  1.0114 -1.9642
 5403SOL    HW227672   3.751   1.487   5.602 -2.6612 -2.9018  0.2049
 5404SOL     OW27673   2.192   3.443  15.224  0.0547 -0.5190  0.7227
 5404SOL    HW127674   2.231   3.358  15.242  2.7027  0.5268 -0.0479
 5404SOL    HW227675   2.196   3.480  15.312 -1.6693  0.3578  0.4409
 5405SOL     OW27676   4.070   2.247   4.438 -0.3082  0.0351  0.2975
 5405SOL    HW127677   4.114   2.318   4.485  1.1062 -0.8687  0.3436
 5405SOL    HW227678   4.147   2.201   4.404  0.9296  2.4848 -0.2653
 5406SOL     OW27679   1.525   4.216   5.648 -0.7017 -0.2640  0.1895
 5406SOL    HW127680   1.534   4.231   5.554 -0.7663 -0.2749  0.1814
 5406SOL    HW227681   1.584   4.276   5.694  0.3091 -1.0705 -0.0594
 5407SOL     OW27682   1.180   1.323  16.387 -0.0591 -0.3789  0.2301
 5407SOL    HW127683   1.211   1.362  16.305 -0.5641 -1.5131 -0.4933
 5407SOL    HW227684   1.103   1.277  16.354 -0.4798  0.3841  0.1537
 5408SOL     OW27685   2.363   3.009   3.026 -0.1078 -0.4652  0.0995
 5408SOL    HW127686   2.414   3.017   2.945  3.5749 -1.3464  2.3427
 5408SOL    HW227687   2.369   2.916   3.045  1.2086 -0.6224 -1.1124
 5409SOL     OW27688   4.439   3.795   4.367  0.6218 -0.5992  0.4495
 5409SOL    HW127689   4.480   3.756   4.290  1.7493  0.6126  0.4417
 5409SOL    HW227690   4.361   3.827   4.322  1.6037  0.7454 -0.2993
 5410SOL     OW27691   0.005   3.205   7.554  0.3368  0.3207 -0.1707
 5410SOL    HW127692   4.697   3.166   7.635 -0.0223 -4.3248 -2.6219
 5410SOL    HW227693   0.009   3.295   7.587 -0.1522 -0.0330  0.8711
 5411SOL     OW27694   0.496   2.778   6.446 -0.2138  0.1020 -0.5492
 5411SOL    HW127695   0.582   2.754   6.482  0.1239  1.1242 -0.6860
 5411SOL    HW227696   0.485   2.706   6.384  1.5699 -0.8182  0.1782
 5412SOL     OW27697   3.444   0.206   7.480 -1.1135  0.1620  0.1474
 5412SOL    HW127698   3.377   0.271   7.461 -0.4136  1.1084  0.9562
 5412SOL    HW227699   3.395   0.139   7.432  0.3629 -0.3519 -0.6389
 5413SOL     OW27700   0.156   3.608  17.277  0.1088 -0.0484  0.3081
 5413SOL    HW127701   0.172   3.541  17.343 -0.0832 -2.1945 -1.8356
 5413SOL    HW227702   0.063   3.623  17.295  0.2958 -0.2210  1.3920
 5414SOL     OW27703   4.624   4.263   8.134 -0.0608  0.2037 -0.2125
 5414SOL    HW127704   4.697   4.313   8.098  0.3530  0.1067  0.4929
 5414SOL    HW227705   4.553   4.327   8.140  1.1877  1.3074  3.2251
 5415SOL     OW27706   1.090   0.525   4.664  0.0531  0.4462  0.4844
 5415SOL    HW127707   1.175   0.566   4.681  1.7074 -2.1749 -1.5172
 5415SOL    HW227708   1.072   0.531   4.571 -1.6208 -0.3372  0.7555
 5416SOL     OW27709   0.103   2.299  11.928 -0.0679  0.0566  0.6000
 5416SOL    HW127710   0.058   2.215  11.923 -0.3823  0.3383 -1.3726
 5416SOL    HW227711   0.127   2.308  12.020  1.3444  2.7913 -0.0446
 5417SOL     OW27712   0.558   0.429  10.845 -0.1309 -0.5506  0.5400
 5417SOL    HW127713   0.517   0.500  10.796 -0.6529 -0.8355  0.5594
 5417SOL    HW227714   0.591   0.479  10.920  0.3396  0.3308 -0.2622
 5418SOL     OW27715   2.776   4.113   3.918  0.2896  0.4777  0.4788
 5418SOL    HW127716   2.727   4.034   3.937 -0.5382  0.8360 -0.1481
 5418SOL    HW227717   2.771   4.122   3.822 -1.2230  4.2856  0.9287
 5419SOL     OW27718   1.588   3.503   5.970 -0.0998 -0.3466 -0.0992
 5419SOL    HW127719   1.529   3.499   5.895 -0.2572  0.6253 -0.0215
 5419SOL    HW227720   1.540   3.450   6.033 -1.7280  0.0960 -0.9749
 5420SOL     OW27721   4.169   3.753  11.289  0.3186  0.1632 -0.2230
 5420SOL    HW127722   4.131   3.840  11.289 -0.2480 -0.0886 -1.5577
 5420SOL    HW227723   4.262   3.768  11.272  0.3542  1.7479  1.4380
 5421SOL     OW27724   3.985   2.980  10.525 -0.0256  0.1843 -0.2002
 5421SOL    HW127725   4.065   2.992  10.576 -0.1680 -1.0071  0.3239
 5421SOL    HW227726   3.988   2.891  10.491  1.2598  0.6601 -1.3022
 5422SOL     OW27727   0.650   3.579  11.749 -0.1745 -0.8629  0.3506
 5422SOL    HW127728   0.694   3.645  11.696 -0.3437 -1.2076 -0.2268
 5422SOL    HW227729   0.734   3.540  11.773 -0.0954 -0.3109  0.9777
 5423SOL     OW27730   0.872   0.935  15.384  0.6774 -0.5357  0.0765
 5423SOL    HW127731   0.866   0.862  15.445 -1.2166  0.8136  1.4869
 5423SOL    HW227732   0.903   0.883  15.309  2.8287  0.7724  0.0527
 5424SOL     OW27733   0.333   3.587   6.080 -0.0819 -0.2646  0.2499
 5424SOL    HW127734   0.396   3.636   6.133 -1.2463  0.9140  0.5335
 5424SOL    HW227735   0.331   3.653   6.011 -3.9384  1.3267  1.8998
 5425SOL     OW27736   3.948   1.525   7.851 -0.4254 -0.0862  1.0572
 5425SOL    HW127737   3.929   1.591   7.917  0.5898  1.2902 -0.0292
 5425SOL    HW227738   3.945   1.445   7.902 -0.3509  0.7313  2.3435
 5426SOL     OW27739   0.019   3.553   2.911 -0.0548 -0.5493  0.0630
 5426SOL    HW127740   4.704   3.471   2.880  0.6630 -0.3236 -1.4462
 5426SOL    HW227741   4.660   3.598   2.924  1.5672  2.4476 -0.0573
 5427SOL     OW27742   0.977   4.431   6.381  0.7292 -0.0195  0.3293
 5427SOL    HW127743   0.990   4.425   6.475 -0.9845  2.4736  0.7438
 5427SOL    HW227744   0.993   4.523   6.360 -2.2631  0.1599 -1.2166
 5428SOL     OW27745   1.312   1.517   7.160 -0.0468 -0.6880  0.4571
 5428SOL    HW127746   1.335   1.511   7.067 -1.2680 -0.1420  0.1121
 5428SOL    HW227747   1.256   1.442   7.182  0.6894 -1.2409  0.4331
 5429SOL     OW27748   3.677   3.816   1.311 -0.4070 -0.0171 -0.2716
 5429SOL    HW127749   3.601   3.821   1.253 -0.7356 -0.5269  0.1183
 5429SOL    HW227750   3.634   3.818   1.397 -1.1915 -1.2008 -0.6494
 5430SOL     OW27751   2.180   1.611   4.318  0.2954 -0.5242 -0.4386
 5430SOL    HW127752   2.233   1.672   4.368 -0.7383  0.2240 -0.2459
 5430SOL    HW227753   2.117   1.581   4.384 -0.5837  1.9563 -0.1661
 5431SOL     OW27754   1.039   2.080  11.703 -0.2483 -0.1178  0.3629
 5431SOL    HW127755   1.067   2.002  11.752  1.3756 -0.7406 -1.5505
 5431SOL    HW227756   0.951   2.097  11.737 -1.8098 -2.1705 -2.6787
 5432SOL     OW27757   1.074   2.089   2.647  0.2753  0.0559  0.2817
 5432SOL    HW127758   0.996   2.065   2.597  0.1444  0.2196  0.4055
 5432SOL    HW227759   1.078   2.180   2.618  1.0521  0.1853  0.7891
 5433SOL     OW27760   0.571   3.792  16.865 -0.1596 -0.7182  0.8053
 5433SOL    HW127761   0.638   3.835  16.811 -0.3620  0.6971  1.6829
 5433SOL    HW227762   0.494   3.799  16.808  0.2274 -1.5927  0.1656
 5434SOL     OW27763   0.155   2.034  15.544  0.0399  0.0957  0.4475
 5434SOL    HW127764   0.140   1.982  15.623  3.8126 -1.7253 -0.0339
 5434SOL    HW227765   0.246   2.013  15.522  0.5078  0.4784  2.0181
 5435SOL     OW27766   0.408   2.099   3.202  0.3930 -0.2374  0.5188
 5435SOL    HW127767   0.495   2.114   3.164 -1.0867  1.5195 -2.1516
 5435SOL    HW227768   0.425   2.117   3.294 -0.6703  3.5870 -0.0106
 5436SOL     OW27769   0.850   2.501   2.533 -0.3297 -0.3105  0.3705
 5436SOL    HW127770   0.783   2.558   2.569  0.7802  0.5355  1.1001
 5436SOL    HW227771   0.851   2.545   2.448 -1.2572 -0.3648  0.3312
 5437SOL     OW27772   4.662   0.234   8.173 -0.3822  0.0402 -0.0259
 5437SOL    HW127773   4.650   0.234   8.268 -1.3823  2.0704 -0.1553
 5437SOL    HW227774   0.005   0.165   8.169 -0.1394  0.0951  2.8389
 5438SOL     OW27775   0.092   2.342   3.236 -0.2248 -0.0420 -0.1331
 5438SOL    HW127776   0.047   2.308   3.159 -1.1460 -1.8795  1.2039
 5438SOL    HW227777   0.170   2.379   3.195  0.6069 -0.3233  1.1710
 5439SOL     OW27778   0.876   0.121   5.999  0.0771 -0.0618  0.3415
 5439SOL    HW127779   0.848   0.211   5.984 -0.0150 -0.0845  0.3756
 5439SOL    HW227780   0.786   0.091   5.988 -0.5745  1.7598  0.6055
 5440SOL     OW27781   1.902   1.690  16.389 -0.6277 -0.1786  0.0143
 5440SOL    HW127782   1.913   1.735  16.305 -0.6964  2.7888  1.5895
 5440SOL    HW227783   1.810   1.713  16.402 -0.6868  0.1036 -0.8871
 5441SOL     OW27784   3.250   3.038   7.784  0.0684 -0.4675 -0.8618
 5441SOL    HW127785   3.240   3.030   7.879  0.4674 -1.2345 -0.8801
 5441SOL    HW227786   3.160   3.043   7.754  0.5164 -0.5160 -2.2156
 5442SOL     OW27787   0.001   2.091   1.228 -0.2221  0.2047  0.4951
 5442SOL    HW127788   0.031   2.180   1.248  2.2241 -0.2383 -1.2722
 5442SOL    HW227789   0.081   2.041   1.211 -1.5812 -2.0352  0.6816
 5443SOL     OW27790   1.732   1.241   9.871 -0.6160 -0.6308  0.2046
 5443SOL    HW127791   1.758   1.261   9.961 -1.7023  0.9389  0.1531
 5443SOL    HW227792   1.637   1.254   9.870 -0.3068  1.4854 -1.1984
 5444SOL     OW27793   3.915   1.903   2.119  0.3265  0.0805  0.0206
 5444SOL    HW127794   3.917   1.937   2.030 -1.6070  1.3291  0.4400
 5444SOL    HW227795   3.914   1.811   2.096 -0.6411  0.3430 -0.9664
 5445SOL     OW27796   4.357   1.197   6.973 -0.4753 -0.0407  0.2268
 5445SOL    HW127797   4.313   1.226   7.053  1.2744 -1.6617  1.7618
 5445SOL    HW227798   4.449   1.220   6.981 -0.6605  1.2951 -1.5226
 5446SOL     OW27799   2.965   2.776   9.727 -0.2753 -0.3376  0.0326
 5446SOL    HW127800   2.955   2.792   9.821 -2.7190 -0.1471 -0.2590
 5446SOL    HW227801   2.913   2.847   9.688 -0.3554 -0.3969  0.0307
 5447SOL     OW27802   0.427   2.305   8.160  0.2752 -0.2240 -0.0385
 5447SOL    HW127803   0.475   2.251   8.222 -1.7458 -0.0669  1.6711
 5447SOL    HW227804   0.499   2.352   8.118  0.9902 -0.4278  0.9579
 5448SOL     OW27805   4.709   2.344   9.100  0.1699  0.7691  0.1018
 5448SOL    HW127806   4.709   2.297   9.017 -0.1459  2.2109 -0.7216
 5448SOL    HW227807   0.074   2.373   9.116  0.0523  0.0290  2.1441
 5449SOL     OW27808   3.825   1.006   1.770  0.9784 -0.1371  0.2212
 5449SOL    HW127809   3.887   0.936   1.791 -0.0708 -0.6727  1.5097
 5449SOL    HW227810   3.837   1.012   1.675  0.5400  1.7514  0.2703
 5450SOL     OW27811   2.565   4.652  11.503  0.1287  0.2175  0.0626
 5450SOL    HW127812   2.519   4.673  11.421 -1.4779 -0.8238  0.7178
 5450SOL    HW227813   2.492   4.617  11.553  0.9315  0.5761  1.4815
 5451SOL     OW27814   2.363   1.082  17.449 -0.2060 -0.4176 -0.0542
 5451SOL    HW127815   2.374   0.987  17.441 -2.3888 -0.5922 -0.9417
 5451SOL    HW227816   2.314   1.075  17.531  1.2008 -0.2580  0.8116
 5452SOL     OW27817   0.047   0.473   1.853 -0.6301 -0.2109 -0.5689
 5452SOL    HW127818   4.682   0.452   1.826 -1.7135  0.0685  2.8203
 5452SOL    HW227819   0.053   0.567   1.837  1.2255 -0.4832 -1.5648
 5453SOL     OW27820   4.086   3.451  15.784  0.1087 -0.3857 -0.4373
 5453SOL    HW127821   4.120   3.394  15.715 -2.1839 -3.0418  0.6072
 5453SOL    HW227822   4.145   3.526  15.771 -0.1117 -0.0379  0.6202
 5454SOL     OW27823   1.228   3.267  16.573  0.0174 -0.5021  0.4664
 5454SOL    HW127824   1.295   3.209  16.609  0.1018 -1.2339 -0.8885
 5454SOL    HW227825   1.148   3.249  16.621 -1.5315  1.7833 -1.2605
 5455SOL     OW27826   1.800   3.141   4.017 -0.1771 -0.6000 -0.1620
 5455SOL    HW127827   1.725   3.189   3.982 -0.5296 -0.8286  0.2815
 5455SOL    HW227828   1.868   3.184   3.965  2.2367 -2.0181  1.8499
 5456SOL     OW27829   0.413   1.945  15.455  0.1410  0.0910  0.2477
 5456SOL    HW127830   0.385   1.916  15.368  2.1108  2.5173 -1.1960
 5456SOL    HW227831   0.500   1.905  15.459  0.7933  1.4195 -0.7507
 5457SOL     OW27832   1.775   3.719   7.392  0.0568 -0.0740  0.3312
 5457SOL    HW127833   1.817   3.646   7.436  0.5505  0.7876  1.2929
 5457SOL    HW227834   1.854   3.771   7.373  0.9368 -1.7435 -0.5259
 5458SOL     OW27835   3.097   4.531  14.076 -0.2835  0.2361  0.3178
 5458SOL    HW127836   3.089   4.447  14.031 -0.4299 -1.0454  2.7380
 5458SOL    HW227837   3.074   4.590  14.004  1.4229  0.0953 -0.3363
 5459SOL     OW27838   3.647   1.545  11.652 -0.6979 -0.4920 -0.2192
 5459SOL    HW127839   3.645   1.612  11.583 -0.7118  0.6672  0.9051
 5459SOL    HW227840   3.586   1.573  11.721  1.1465 -1.2881  1.6894
 5460SOL     OW27841   0.338   0.338   5.175 -0.2320 -0.2640  0.1888
 5460SOL    HW127842   0.424   0.350   5.215  0.1865  0.7104 -0.9944
 5460SOL    HW227843   0.344   0.254   5.129  1.1843 -0.2097  0.2720
 5461SOL     OW27844   0.841   0.029   6.989  0.1846 -0.0720 -0.3649
 5461SOL    HW127845   0.758   4.707   6.983  0.1034 -0.0594  0.6801
 5461SOL    HW227846   0.901   4.693   7.033 -0.2130 -0.8988 -0.9686
 5462SOL     OW27847   1.245   2.961   5.942  0.0228  0.1452  0.5574
 5462SOL    HW127848   1.258   3.002   6.028  2.5193  3.1219 -1.2275
 5462SOL    HW227849   1.312   3.010   5.894 -2.3602  1.7537 -1.1356
 5463SOL     OW27850   0.213   2.394   6.241 -0.2029  0.1354  0.3768
 5463SOL    HW127851   0.178   2.354   6.161 -1.2520 -0.1989  0.9991
 5463SOL    HW227852   0.207   2.323   6.305  0.8599 -2.6324 -2.5721
 5464SOL     OW27853   2.154   4.244   9.084 -0.5846 -0.0448  0.0788
 5464SOL    HW127854   2.182   4.335   9.097  0.3642 -0.0386 -2.0709
 5464SOL    HW227855   2.152   4.221   9.177 -0.6294  1.0169  0.3489
 5465SOL     OW27856   3.991   0.580  10.113 -0.1080 -0.0208  0.0377
 5465SOL    HW127857   3.989   0.514  10.043 -3.9529 -0.4036  0.4637
 5465SOL    HW227858   4.042   0.653  10.079 -0.2000 -0.4159 -0.9531
 5466SOL     OW27859   3.788   4.695   6.351 -0.4011 -0.0155 -0.1418
 5466SOL    HW127860   3.742   4.664   6.429 -0.6606  0.0858 -0.2507
 5466SOL    HW227861   3.727   0.040   6.324  2.3000  1.3786 -2.6256
 5467SOL     OW27862   1.587   0.062   0.875 -0.1184  0.3454  0.1237
 5467SOL    HW127863   1.641   0.017   0.809 -3.4311 -0.6743 -1.8695
 5467SOL    HW227864   1.623   0.029   0.957 -1.3458 -4.1854 -1.1332
 5468SOL     OW27865   2.836   1.290   9.128  0.6862  0.0954  0.3517
 5468SOL    HW127866   2.918   1.260   9.090 -0.0280 -0.1613 -1.0084
 5468SOL    HW227867   2.818   1.366   9.072 -0.1075  0.7271  1.4669
 5469SOL     OW27868   3.285   1.821   4.638  0.7660  0.0130  0.1869
 5469SOL    HW127869   3.261   1.842   4.548  0.5110  2.0185  0.7174
 5469SOL    HW227870   3.302   1.908   4.674 -2.0361  0.0328  1.4877
 5470SOL     OW27871   3.371   0.583   2.842  0.2140 -0.0667 -0.3313
 5470SOL    HW127872   3.396   0.606   2.753  1.2031 -1.8255 -0.5048
 5470SOL    HW227873   3.446   0.622   2.888  2.1364 -0.8915 -2.7718
 5471SOL     OW27874   0.275   3.011   1.871 -0.3891 -0.4163  0.1842
 5471SOL    HW127875   0.369   3.031   1.878 -0.4070  0.3605 -1.9564
 5471SOL    HW227876   0.286   2.924   1.832  0.6393  0.4667 -1.4656
 5472SOL     OW27877   2.127   0.561  12.692  0.2329 -0.2204  0.1524
 5472SOL    HW127878   2.099   0.517  12.771  1.4988 -0.6987  0.3345
 5472SOL    HW227879   2.198   0.610  12.734  0.9919 -2.3724  1.3554
 5473SOL     OW27880   3.184   3.780  10.552  0.1884 -0.0299 -0.0486
 5473SOL    HW127881   3.114   3.789  10.616 -0.7945  2.1681 -1.4278
 5473SOL    HW227882   3.128   3.746  10.482 -0.0266  0.3484 -0.0625
 5474SOL     OW27883   0.976   1.129   3.174 -0.1863 -0.5448  0.3521
 5474SOL    HW127884   0.891   1.109   3.213 -0.3832  1.6719  1.0242
 5474SOL    HW227885   0.968   1.082   3.090  0.4640 -1.0334  0.5631
 5475SOL     OW27886   1.068   4.251   6.012  0.1342 -0.1470 -0.8167
 5475SOL    HW127887   1.108   4.198   5.943 -0.0871 -0.2352 -0.8779
 5475SOL    HW227888   0.979   4.217   6.006  0.3396 -0.7556 -0.4152
 5476SOL     OW27889   0.389   4.354  14.941 -0.0349  0.2117 -0.4452
 5476SOL    HW127890   0.369   4.390  14.855 -2.1041 -3.1176 -1.3550
 5476SOL    HW227891   0.341   4.272  14.928  1.1372 -0.1881 -2.3104
 5477SOL     OW27892   1.715   1.504   8.937  0.2655 -0.0631  0.3297
 5477SOL    HW127893   1.658   1.575   8.908  0.1942  0.3235  1.4499
 5477SOL    HW227894   1.789   1.525   8.880 -0.6381  1.3427 -0.3447
 5478SOL     OW27895   0.997   0.249   7.065 -0.5525  0.3280  0.3168
 5478SOL    HW127896   0.933   0.186   7.032 -1.3816  1.0303  0.5811
 5478SOL    HW227897   0.954   0.289   7.141 -1.2046 -0.0567  0.1419
 5479SOL     OW27898   2.267   2.069   1.493 -0.3978 -0.1252 -0.6588
 5479SOL    HW127899   2.218   2.150   1.508 -1.8797 -1.5664  2.2629
 5479SOL    HW227900   2.349   2.083   1.539  0.3790  1.2831 -2.4415
 5480SOL     OW27901   1.567   2.933  11.033  0.1598 -0.2352  0.3494
 5480SOL    HW127902   1.662   2.932  11.027  0.0391 -0.6501 -1.6287
 5480SOL    HW227903   1.539   2.993  10.964  1.0222 -1.3899 -1.0001
 5481SOL     OW27904   2.609   0.170   5.269  0.3823 -0.7023  0.5771
 5481SOL    HW127905   2.578   0.236   5.332 -2.6920 -1.1747 -0.4533
 5481SOL    HW227906   2.668   0.116   5.322 -0.6977  0.2923  2.8287
 5482SOL     OW27907   2.665   2.690  17.126 -0.1941 -0.2227  0.1359
 5482SOL    HW127908   2.733   2.641  17.173  1.0469  1.2532 -0.1023
 5482SOL    HW227909   2.611   2.618  17.093 -0.8321  0.4485 -0.2577
 5483SOL     OW27910   1.906   1.767   0.742  0.2666  0.1356 -0.3570
 5483SOL    HW127911   1.907   1.856   0.778  0.8612  0.0560 -0.1789
 5483SOL    HW227912   1.946   1.784   0.656  0.6929 -2.0015 -0.5793
 5484SOL     OW27913   4.384   0.024   9.286  0.5645  0.5422 -0.0414
 5484SOL    HW127914   4.288   0.029   9.291  0.5184 -2.1831  2.2986
 5484SOL    HW227915   4.397   4.683   9.218  0.9892  1.4160 -0.7901
 5485SOL     OW27916   2.401   0.064   4.695  0.6368  0.5355  0.3352
 5485SOL    HW127917   2.366   0.022   4.774 -3.6291  1.3747 -1.1379
 5485SOL    HW227918   2.465   0.129   4.724  0.3451  0.6216  0.7938
 5486SOL     OW27919   1.656   3.569  11.423 -0.3309 -0.2782 -0.8118
 5486SOL    HW127920   1.683   3.478  11.411 -2.9087 -1.5813  3.2388
 5486SOL    HW227921   1.567   3.562  11.390 -0.7732  1.2024  0.0794
 5487SOL     OW27922   2.509   3.223   3.911 -0.1689  0.0312 -0.1134
 5487SOL    HW127923   2.514   3.316   3.933  1.1461 -0.3093  1.0144
 5487SOL    HW227924   2.589   3.227   3.859 -0.7529 -0.3776 -1.0517
 5488SOL     OW27925   0.857   4.249   3.814 -0.2925  1.0590 -0.2807
 5488SOL    HW127926   0.934   4.227   3.761 -1.5055  3.3640 -2.9472
 5488SOL    HW227927   0.796   4.267   3.743 -1.1233  2.3716  0.7667
 5489SOL     OW27928   2.799   3.926  10.533  0.3225  0.3111  0.1592
 5489SOL    HW127929   2.834   3.926  10.444  0.8475  0.0009  0.3612
 5489SOL    HW227930   2.739   4.000  10.530  0.1174  0.0216 -2.9849
 5490SOL     OW27931   1.303   4.037   9.473 -0.9513 -0.6474  0.1734
 5490SOL    HW127932   1.246   3.969   9.509 -0.2455 -0.3247  1.9026
 5490SOL    HW227933   1.250   4.096   9.420  1.3830  0.8923 -0.4526
 5491SOL     OW27934   1.918   3.455  10.336 -0.4009  0.4143  1.0925
 5491SOL    HW127935   2.000   3.494  10.368  1.0912 -1.0267 -0.9932
 5491SOL    HW227936   1.890   3.426  10.423 -0.3530 -0.0908  0.9354
 5492SOL     OW27937   3.441   1.078   6.138 -0.3630  0.2315  0.6581
 5492SOL    HW127938   3.397   1.045   6.217  3.7475 -0.9089  2.4558
 5492SOL    HW227939   3.519   1.023   6.142 -0.8336 -0.4514  0.5161
 5493SOL     OW27940   1.495   0.568   8.743 -0.0204 -0.4566 -0.0881
 5493SOL    HW127941   1.565   0.502   8.746  0.2008 -0.3806 -3.8565
 5493SOL    HW227942   1.449   0.568   8.827  2.0457  0.2218  1.0503
 5494SOL     OW27943   4.645   1.036   9.648  0.0455 -0.5905  1.2110
 5494SOL    HW127944   4.724   1.087   9.635 -1.1893  1.0762  0.2697
 5494SOL    HW227945   4.669   0.992   9.729  1.7033  2.0315  2.1416
 5495SOL     OW27946   0.317   2.079   8.801 -0.5235 -0.7108  0.3102
 5495SOL    HW127947   0.322   2.105   8.709 -0.6652 -0.4160  0.3868
 5495SOL    HW227948   0.410   2.078   8.825 -0.5364 -0.6650  0.3632
 5496SOL     OW27949   0.126   2.816  11.350 -0.1018  0.1289  0.2396
 5496SOL    HW127950   0.041   2.781  11.321 -1.5491  2.4125  1.7593
 5496SOL    HW227951   0.116   2.842  11.441 -0.3701  2.0613 -0.3479
 5497SOL     OW27952   3.469   4.161   7.342 -0.0265  0.6067 -0.3654
 5497SOL    HW127953   3.532   4.129   7.407  1.0546  1.4083 -1.0276
 5497SOL    HW227954   3.523   4.235   7.316 -0.1266  0.7975 -0.0327
 5498SOL     OW27955   4.057   1.550   4.784  0.0631  0.5012 -0.7068
 5498SOL    HW127956   4.109   1.485   4.737  1.1837 -0.6116  2.1219
 5498SOL    HW227957   3.969   1.527   4.754 -0.3423 -0.6112  1.3566
 5499SOL     OW27958   3.463   3.234   8.522 -0.0536 -0.5949 -0.4450
 5499SOL    HW127959   3.550   3.253   8.558 -0.0298  1.2871 -1.4929
 5499SOL    HW227960   3.446   3.142   8.541  1.6748 -0.6438  0.8852
 5500SOL     OW27961   3.652   4.645   6.813  0.2915  0.0848 -0.6894
 5500SOL    HW127962   3.712   4.575   6.839 -1.4792 -1.3931 -0.5894
 5500SOL    HW227963   3.642   4.646   6.717 -1.5701 -1.1084 -0.5123
 5501SOL     OW27964   1.111   3.654  13.651  0.4692  0.4011 -0.0888
 5501SOL    HW127965   1.155   3.739  13.660  0.7292  0.2553  0.0296
 5501SOL    HW227966   1.123   3.613  13.737  0.2276 -1.2366 -0.8310
 5502SOL     OW27967   1.928   1.571   5.387  0.2812  0.8416 -0.1593
 5502SOL    HW127968   1.933   1.622   5.468 -0.2087 -1.0215  1.0528
 5502SOL    HW227969   2.002   1.511   5.385  1.0487  1.7257  2.2379
 5503SOL     OW27970   1.648   1.660   0.761  0.1769 -0.1138 -0.3841
 5503SOL    HW127971   1.662   1.566   0.769 -0.2255 -0.1313  0.1691
 5503SOL    HW227972   1.739   1.685   0.742  0.7549 -2.8796 -1.1971
 5504SOL     OW27973   1.377   3.617   2.631 -0.0179 -0.4259 -0.2014
 5504SOL    HW127974   1.427   3.535   2.633  2.1845  0.8939 -1.7169
 5504SOL    HW227975   1.436   3.692   2.635  0.3817 -0.5734 -3.1144
 5505SOL     OW27976   0.136   2.212   7.721 -0.0473 -0.3290  0.1467
 5505SOL    HW127977   0.153   2.197   7.628 -0.3630  0.8686 -0.1089
 5505SOL    HW227978   0.097   2.300   7.719 -0.5485 -0.4918  3.5473
 5506SOL     OW27979   0.829   0.060   5.363  0.2454  0.4274  0.1921
 5506SOL    HW127980   0.846   0.003   5.288 -0.9648 -1.2382  1.1649
 5506SOL    HW227981   0.850   0.147   5.330 -0.9955  0.4836 -0.4353
 5507SOL     OW27982   1.160   2.353  10.072  0.2066 -0.2822 -0.4363
 5507SOL    HW127983   1.114   2.430  10.104 -1.5876 -0.6698 -2.1032
 5507SOL    HW227984   1.142   2.366   9.979  0.2428  0.6821 -0.3063
 5508SOL     OW27985   1.708   2.369  15.911  0.4188  0.2354  0.2345
 5508SOL    HW127986   1.797   2.403  15.906  0.8508 -0.9485  0.0020
 5508SOL    HW227987   1.667   2.435  15.968 -0.3139  1.1452 -1.3407
 5509SOL     OW27988   1.643   4.147  10.253  0.6468 -0.1044 -0.2391
 5509SOL    HW127989   1.654   4.157  10.158  0.2942  0.1275 -0.2542
 5509SOL    HW227990   1.558   4.187  10.271 -0.0572 -1.1080 -1.3257
 5510SOL     OW27991   1.701   4.149  12.380 -0.3960 -0.4336  0.3872
 5510SOL    HW127992   1.642   4.094  12.431 -0.4127 -0.0605  0.7721
 5510SOL    HW227993   1.788   4.121  12.409 -0.5725 -0.4506  0.8946
 5511SOL     OW27994   1.372   1.778   7.157  0.5799 -0.7465  0.0679
 5511SOL    HW127995   1.356   1.686   7.181 -3.4400 -0.3694 -1.2316
 5511SOL    HW227996   1.288   1.805   7.194 -0.1203 -2.1127 -0.5397
 5512SOL     OW27997   2.286   2.696  15.309 -0.2409  0.0681  0.3051
 5512SOL    HW127998   2.331   2.757  15.250  1.3207 -2.1125 -0.7799
 5512SOL    HW227999   2.340   2.617  15.300  0.1633  0.1327  2.0571
 5513SOL     OW28000   0.610   3.928   5.113 -0.2228 -0.1428 -0.1613
 5513SOL    HW128001   0.655   3.944   5.196  0.0888 -0.5319 -0.2556
 5513SOL    HW228002   0.522   3.897   5.136 -0.0436 -0.2182  0.4133
 5514SOL     OW28003   4.584   2.309   5.331  0.4505 -0.3080 -0.0926
 5514SOL    HW128004   4.662   2.358   5.358  0.5524 -0.3848 -0.2495
 5514SOL    HW228005   4.521   2.378   5.353  0.3021 -0.4720 -0.0093
 5515SOL     OW28006   0.908   0.831   4.366  0.6678  0.1158  0.1319
 5515SOL    HW128007   0.891   0.918   4.331  3.2394  1.2365  1.6708
 5515SOL    HW228008   0.994   0.842   4.406 -0.3055  2.4635  1.5382
 5516SOL     OW28009   2.089   1.552   6.280 -0.3171 -0.4345 -0.0548
 5516SOL    HW128010   2.025   1.601   6.331 -0.0323  0.4178 -0.5349
 5516SOL    HW228011   2.054   1.464   6.295  0.2572 -0.7199 -0.3761
 5517SOL     OW28012   0.707   2.898   6.918 -0.4521 -0.4171  0.4946
 5517SOL    HW128013   0.684   2.910   6.825 -1.5519  0.1071  0.8262
 5517SOL    HW228014   0.634   2.861   6.967 -0.4665 -0.5094  0.4043
 5518SOL     OW28015   1.404   1.058   6.121 -0.1830  0.1163  0.1261
 5518SOL    HW128016   1.435   1.148   6.131  2.5124 -0.6699 -1.2199
 5518SOL    HW228017   1.354   1.063   6.202 -1.7084 -2.2796 -0.6507
 5519SOL     OW28018   0.728   0.199   8.835  0.3441 -0.0376  0.4902
 5519SOL    HW128019   0.723   0.292   8.857  2.1514  0.2555 -0.3236
 5519SOL    HW228020   0.761   0.169   8.920 -2.1551 -1.2696  1.0448
 5520SOL     OW28021   4.118   1.933   5.095 -0.4467  0.6975 -0.1654
 5520SOL    HW128022   4.153   1.847   5.076 -0.1379  0.5178  1.2535
 5520SOL    HW228023   4.052   1.901   5.157 -0.9751  1.7026 -0.2002
 5521SOL     OW28024   1.666   4.694   8.436  0.1137  0.3724 -0.1152
 5521SOL    HW128025   1.614   4.702   8.516 -1.4850 -0.6677 -1.0645
 5521SOL    HW228026   1.742   4.692   8.494 -0.1263 -1.0298  0.1405
 5522SOL     OW28027   0.535   0.354   1.481 -0.1632 -0.5425 -0.3219
 5522SOL    HW128028   0.607   0.294   1.502 -1.6230 -2.2413 -0.1960
 5522SOL    HW228029   0.495   0.317   1.403 -1.9034  0.2677  0.1878
 5523SOL     OW28030   2.172   1.284   5.652 -0.1198  0.0180  0.3243
 5523SOL    HW128031   2.200   1.196   5.680  0.1859 -0.7711 -2.4773
 5523SOL    HW228032   2.084   1.262   5.621  0.0039 -1.7418  1.2033
 5524SOL     OW28033   3.611   0.146   8.489  0.5663 -0.0180 -0.6963
 5524SOL    HW128034   3.579   0.097   8.414 -0.6616 -1.2561  0.6295
 5524SOL    HW228035   3.686   0.090   8.509  0.5253  0.1178 -0.1422
 5525SOL     OW28036   3.080   0.981   7.118  0.0286  0.6695  0.5996
 5525SOL    HW128037   3.093   1.052   7.181 -0.1178  1.1511  0.0858
 5525SOL    HW228038   3.001   0.944   7.158 -0.2460  0.4999 -0.1148
 5526SOL     OW28039   4.268   1.367   2.520  0.1042  0.6797  0.0046
 5526SOL    HW128040   4.334   1.324   2.466 -0.3208 -0.9489  0.7666
 5526SOL    HW228041   4.202   1.384   2.454 -0.1218 -0.2193 -0.0065
 5527SOL     OW28042   2.139   4.546   9.564  0.0951  0.1080 -0.0531
 5527SOL    HW128043   2.229   4.544   9.532  0.2557  0.9813  0.3197
 5527SOL    HW228044   2.115   4.637   9.543  0.5038  0.5718  1.4422
 5528SOL     OW28045   4.380   1.093   6.739  0.2469 -0.1593  0.0029
 5528SOL    HW128046   4.309   1.039   6.705 -2.7445  2.3590  2.2800
 5528SOL    HW228047   4.334   1.130   6.814  1.8356 -1.0447  1.4134
 5529SOL     OW28048   3.892   0.617   6.349 -0.0518  0.2923  0.0355
 5529SOL    HW128049   3.842   0.688   6.389  1.9363  1.5779  0.2216
 5529SOL    HW228050   3.836   0.581   6.279  0.5368  0.4820 -0.5273
 5530SOL     OW28051   1.755   2.586   3.812  0.6222  0.7103  0.3818
 5530SOL    HW128052   1.821   2.641   3.854 -0.0297  1.8907 -0.1670
 5530SOL    HW228053   1.696   2.651   3.775 -0.5386 -0.9804 -0.7623
 5531SOL     OW28054   3.723   3.462   4.645 -0.6911 -0.1288  0.3910
 5531SOL    HW128055   3.712   3.401   4.572  0.1201 -0.9629  0.9688
 5531SOL    HW228056   3.634   3.475   4.677 -0.8073  1.0716 -0.4066
 5532SOL     OW28057   0.187   1.771  15.999  0.8171  0.4663  0.2975
 5532SOL    HW128058   0.211   1.679  15.988  0.6006  0.3509  0.7985
 5532SOL    HW228059   0.166   1.808  15.913 -0.6640 -1.0088  0.0356
 5533SOL     OW28060   0.974   0.335   8.486  1.3497 -0.3573 -0.3541
 5533SOL    HW128061   0.882   0.338   8.457  0.7563 -1.1479  1.4661
 5533SOL    HW228062   0.970   0.372   8.574 -1.8356  0.5526 -0.8451
 5534SOL     OW28063   0.044   4.140   4.555 -0.3142 -0.7696 -1.0777
 5534SOL    HW128064   0.017   4.080   4.624 -1.4902  1.5901  0.5272
 5534SOL    HW228065   0.067   4.080   4.484 -0.1304 -1.4128 -0.4696
 5535SOL     OW28066   2.736   3.730   4.070  0.3956  0.0722 -0.0064
 5535SOL    HW128067   2.695   3.816   4.065 -1.3572 -0.7504  0.3834
 5535SOL    HW228068   2.767   3.736   4.161 -1.5153 -0.2186  0.6721
 5536SOL     OW28069   3.508   2.276  16.557 -0.0202 -0.2503 -0.6092
 5536SOL    HW128070   3.433   2.237  16.513 -0.4181  1.9970 -1.9142
 5536SOL    HW228071   3.520   2.231  16.640 -1.9140  0.9452  0.3174
 5537SOL     OW28072   1.702   2.751   5.684  0.1444  0.0365  0.3507
 5537SOL    HW128073   1.750   2.709   5.613  1.5143 -2.1264  2.5118
 5537SOL    HW228074   1.681   2.838   5.652 -0.2405  0.0328  0.5887
 5538SOL     OW28075   1.402   0.193   7.735 -0.1638  0.4459  0.0905
 5538SOL    HW128076   1.472   0.150   7.687 -0.9918 -0.8106  0.0074
 5538SOL    HW228077   1.329   0.133   7.752 -0.3588  0.5505 -0.3907
 5539SOL     OW28078   3.486   1.599  17.471 -0.2850 -0.2862 -0.0560
 5539SOL    HW128079   3.430   1.543  17.526  1.2042 -0.7750  0.9692
 5539SOL    HW228080   3.549   1.543  17.426 -0.9643 -0.4748 -0.7898
 5540SOL     OW28081   1.016   1.694   5.325  0.3953  0.1859  0.0420
 5540SOL    HW128082   1.068   1.714   5.247 -0.1905  2.4269  0.2243
 5540SOL    HW228083   0.966   1.627   5.279 -0.2106 -0.0184  0.9969
 5541SOL     OW28084   4.710   4.230  10.106 -0.0506  0.3267  0.1019
 5541SOL    HW128085   0.078   4.212  10.120  0.3036  0.4258 -1.9984
 5541SOL    HW228086   4.702   4.172  10.030  0.5517 -0.4970  0.6794
 5542SOL     OW28087   4.472   3.360  15.960  0.6849  0.7117 -0.0755
 5542SOL    HW128088   4.495   3.391  16.048 -1.2799  0.3699  0.5546
 5542SOL    HW228089   4.452   3.443  15.917 -0.9513  1.2576  1.7101
 5543SOL     OW28090   3.487   3.927  12.114  0.1069  0.1678  0.5213
 5543SOL    HW128091   3.465   3.936  12.207  1.4391 -0.1939  0.8740
 5543SOL    HW228092   3.399   3.923  12.077 -0.0937 -1.6171  1.1955
 5544SOL     OW28093   4.069   1.042   6.562 -0.2450 -0.3907 -0.6476
 5544SOL    HW128094   4.024   1.008   6.640  0.0776 -1.6025 -0.9896
 5544SOL    HW228095   4.073   0.960   6.513  0.7559  1.1340 -3.1017
 5545SOL     OW28096   1.631   1.992   2.963  0.7601  0.0679 -0.0838
 5545SOL    HW128097   1.575   1.992   3.041  1.8001  0.5605  0.6595
 5545SOL    HW228098   1.626   1.900   2.935 -0.8740  0.6105 -1.5677
 5546SOL     OW28099   0.931   4.009   4.459  0.0219 -0.0415  0.2170
 5546SOL    HW128100   0.880   3.955   4.520  1.8834  0.0090  1.8212
 5546SOL    HW228101   0.875   4.084   4.439 -2.0385 -2.1336 -1.9055
 5547SOL     OW28102   1.422   2.209   2.329  0.4367  0.2612  0.0343
 5547SOL    HW128103   1.469   2.144   2.381  3.1040  3.5179  1.6846
 5547SOL    HW228104   1.488   2.276   2.314 -0.0167  0.7697  0.3148
 5548SOL     OW28105   0.637   0.272  14.682  0.1368  0.1435 -0.0070
 5548SOL    HW128106   0.644   0.302  14.592  2.0477 -0.0212  0.0818
 5548SOL    HW228107   0.562   0.213  14.680 -1.2313  1.9818 -1.8761
 5549SOL     OW28108   2.082   0.453   7.044 -0.0374 -0.2590  0.5224
 5549SOL    HW128109   2.159   0.402   7.069 -0.4502 -2.0035 -1.7282
 5549SOL    HW228110   2.121   0.531   7.005 -1.5696  1.3616  2.2781
 5550SOL     OW28111   1.164   3.701   4.696  0.0294  0.0118 -0.5310
 5550SOL    HW128112   1.221   3.664   4.764 -0.6020  0.7378  0.3972
 5550SOL    HW228113   1.208   3.667   4.618 -0.6262  0.1486 -0.9609
 5551SOL     OW28114   4.364   0.248  10.381 -0.0366 -0.3644 -0.0804
 5551SOL    HW128115   4.421   0.211  10.314 -1.8867 -2.3010 -0.6073
 5551SOL    HW228116   4.284   0.254  10.330 -0.9262 -0.5297  1.2839
 5552SOL     OW28117   0.075   3.939  13.939  1.0390 -0.5361 -0.0440
 5552SOL    HW128118   0.057   3.855  13.897  1.8182 -0.8294  0.2257
 5552SOL    HW228119   0.167   3.934  13.963  0.6277 -1.2798  1.3880
 5553SOL     OW28120   0.106   1.872   2.137 -0.0414 -0.3717  0.3880
 5553SOL    HW128121   0.182   1.818   2.159 -0.7750 -1.9465 -0.9410
 5553SOL    HW228122   0.136   1.929   2.065 -2.1444 -1.4746 -1.3508
 5554SOL     OW28123   3.231   2.636  10.969  0.4521 -0.3074  0.0923
 5554SOL    HW128124   3.165   2.665  10.906 -1.2743  1.2149  2.6172
 5554SOL    HW228125   3.249   2.546  10.942  4.6610  0.5306  0.0821
 5555SOL     OW28126   3.404   2.264  15.603  0.2618 -0.2285  1.1083
 5555SOL    HW128127   3.496   2.242  15.589  0.0387 -0.0282 -0.7335
 5555SOL    HW228128   3.405   2.329  15.673 -0.6928  1.5677 -0.5517
 5556SOL     OW28129   2.903   2.934   4.471  0.1925 -0.6706 -0.1738
 5556SOL    HW128130   2.878   2.991   4.544 -1.2007 -0.4738 -0.8129
 5556SOL    HW228131   2.833   2.869   4.473 -0.9031  0.5554  0.8509
 5557SOL     OW28132   2.724   1.774   7.796 -0.4843 -0.0894  0.4226
 5557SOL    HW128133   2.705   1.849   7.853 -0.8485 -0.1139  0.3346
 5557SOL    HW228134   2.733   1.823   7.714 -1.6490 -0.0401  0.3173
 5558SOL     OW28135   4.073   0.774   0.125 -0.1646  0.1941 -0.0152
 5558SOL    HW128136   4.148   0.724   0.156  1.5507  2.0652 -1.1093
 5558SOL    HW228137   4.057   0.724   0.045  3.2308  2.1101 -1.8837
 5559SOL     OW28138   2.299   1.474  17.663 -0.6722  0.2583 -0.2780
 5559SOL    HW128139   2.254   1.425  17.595  0.2273  1.1465 -1.5226
 5559SOL    HW228140   2.291   1.412   0.035 -1.6008  0.3572 -0.3049
 5560SOL     OW28141   3.461   2.827  15.051 -0.7807 -0.0243  0.3390
 5560SOL    HW128142   3.493   2.884  14.981 -1.6928  0.4603  0.3210
 5560SOL    HW228143   3.376   2.863  15.076  0.6658  3.8766 -0.3772
 5561SOL     OW28144   0.490   2.261  15.363 -0.0424  0.3762 -0.7470
 5561SOL    HW128145   0.450   2.261  15.276 -0.4536  0.7838 -0.5609
 5561SOL    HW228146   0.535   2.177  15.362 -0.1144  0.3117  1.4310
 5562SOL     OW28147   1.998   1.421   4.444  0.3305 -0.0408  0.0536
 5562SOL    HW128148   2.049   1.408   4.524  0.6161 -2.9731 -0.6146
 5562SOL    HW228149   1.914   1.412   4.489  0.5923  0.5029  0.6518
 5563SOL     OW28150   1.007   1.711   6.559 -0.1329  0.5121 -0.6030
 5563SOL    HW128151   1.000   1.668   6.474 -0.4138  1.1338 -0.8928
 5563SOL    HW228152   1.017   1.803   6.536 -1.3478  1.2314  1.7449
 5564SOL     OW28153   0.461   2.981   0.049 -0.6994 -0.1752  0.6194
 5564SOL    HW128154   0.539   3.000  17.697 -0.8715  2.0421  1.1866
 5564SOL    HW228155   0.412   3.062   0.065  0.4080  0.8686 -1.3347
 5565SOL     OW28156   1.526   2.743   6.861 -0.2425 -0.0894  0.2907
 5565SOL    HW128157   1.486   2.666   6.821  1.7596  0.4918 -2.8055
 5565SOL    HW228158   1.493   2.737   6.951 -0.5076 -1.8238  0.0883
 5566SOL     OW28159   0.860   2.230   8.350  0.1558 -0.4933 -0.0123
 5566SOL    HW128160   0.914   2.174   8.406  2.8464  0.7768 -1.3816
 5566SOL    HW228161   0.917   2.265   8.282  0.5700  1.9216  1.5829
 5567SOL     OW28162   0.998   2.318  12.403  0.0556 -0.4901  0.1236
 5567SOL    HW128163   0.982   2.226  12.381  1.3691 -0.2121 -1.9680
 5567SOL    HW228164   1.086   2.313  12.440 -0.1331  0.7749  0.7682
 5568SOL     OW28165   1.981   2.042  12.838  0.3922  0.5797 -0.5939
 5568SOL    HW128166   2.071   2.041  12.868  0.2885 -0.5730 -0.3238
 5568SOL    HW228167   1.990   1.973  12.773 -1.3823 -0.0183 -0.2049
 5569SOL     OW28168   0.802   2.752   4.335  0.0005 -0.3771 -0.1642
 5569SOL    HW128169   0.795   2.827   4.276 -1.2947 -1.6081 -1.5662
 5569SOL    HW228170   0.825   2.680   4.275  2.2284 -0.1451  0.3880
 5570SOL     OW28171   4.384   0.893  15.143 -0.1888 -0.0149 -0.7093
 5570SOL    HW128172   4.382   0.798  15.157  0.3880  0.4931  2.8812
 5570SOL    HW228173   4.478   0.908  15.150 -0.3808  0.1437  1.5734
 5571SOL     OW28174   2.312   2.736   4.620  0.3741 -0.2052  0.1808
 5571SOL    HW128175   2.290   2.701   4.534  0.3868 -0.5806  0.3285
 5571SOL    HW228176   2.226   2.767   4.647  1.0436  0.5758  1.4060
 5572SOL     OW28177   0.486   4.578   4.980 -0.3383  0.5216 -0.2933
 5572SOL    HW128178   0.395   4.550   4.994 -0.1944 -0.2840 -0.9197
 5572SOL    HW228179   0.534   4.501   5.012 -1.3135  0.9620  2.2178
 5573SOL     OW28180   1.105   4.501  11.232 -0.1288  0.2764 -0.0517
 5573SOL    HW128181   1.135   4.451  11.308  1.9723 -0.8936 -1.6512
 5573SOL    HW228182   1.187   4.494  11.183 -1.0007  4.1737 -2.0735
 5574SOL     OW28183   0.876   1.548   1.454 -0.2561 -0.4680  0.3160
 5574SOL    HW128184   0.817   1.511   1.520 -0.1233  0.2341  0.8260
 5574SOL    HW228185   0.961   1.519   1.486  0.4209  0.5609 -0.5873
 5575SOL     OW28186   0.242   2.583  12.775  0.0683 -0.0028 -0.3248
 5575SOL    HW128187   0.170   2.629  12.817 -0.9077 -2.3317  0.4938
 5575SOL    HW228188   0.310   2.651  12.777  0.6921 -0.6132 -0.8166
 5576SOL     OW28189   4.384   0.773   1.289 -0.2776  0.0871 -0.2100
 5576SOL    HW128190   4.324   0.847   1.301 -1.8895 -1.2171 -0.1338
 5576SOL    HW228191   4.326   0.721   1.232  0.8428 -0.7040 -0.6221
 5577SOL     OW28192   1.220   2.517   4.413 -0.6513  0.7441  0.0291
 5577SOL    HW128193   1.253   2.438   4.455 -2.5303  0.4697  0.9910
 5577SOL    HW228194   1.125   2.501   4.408 -0.1749 -1.9646 -0.1314
 5578SOL     OW28195   2.064   4.011   9.733 -0.3195 -0.2421  0.1398
 5578SOL    HW128196   2.062   3.965   9.817 -0.1703  0.0932  0.3271
 5578SOL    HW228197   2.127   4.079   9.754 -0.4434 -0.3761  0.9779
 5579SOL     OW28198   1.376   2.826   4.263 -0.6707  0.3574  0.0296
 5579SOL    HW128199   1.398   2.919   4.255  2.6618 -0.4484 -0.1360
 5579SOL    HW228200   1.410   2.804   4.349  1.0239 -1.7453 -1.1916
 5580SOL     OW28201   2.193   4.638   2.901  0.0654 -0.2375 -0.6642
 5580SOL    HW128202   2.246   4.663   2.825  1.0673 -1.0883 -0.2386
 5580SOL    HW228203   2.129   4.707   2.884 -0.1332 -0.5480 -1.1904
 5581SOL     OW28204   0.109   1.982   3.459 -0.2008  0.2339 -0.9329
 5581SOL    HW128205   0.098   2.053   3.396 -0.7843 -0.6607 -1.8587
 5581SOL    HW228206   0.023   1.940   3.464 -0.1914  0.4885  1.1725
 5582SOL     OW28207   2.895   4.683   6.813 -0.4478 -0.2795 -0.3007
 5582SOL    HW128208   2.974   4.633   6.794  0.2011  0.6422 -0.0335
 5582SOL    HW228209   2.867   4.622   6.881 -0.0838 -0.0760  0.0315
 5583SOL     OW28210   0.801   2.400  11.789 -0.3167  0.0630  0.3510
 5583SOL    HW128211   0.872   2.427  11.730 -0.9813  0.2990 -0.3291
 5583SOL    HW228212   0.741   2.472  11.772  1.5816  1.3670 -0.8717
 5584SOL     OW28213   3.353   1.186  14.183  0.2731  0.1188 -0.0715
 5584SOL    HW128214   3.296   1.149  14.115  1.7791  1.2024 -1.9238
 5584SOL    HW228215   3.371   1.109  14.236  0.5521  1.5967  2.0085
 5585SOL     OW28216   0.615   1.320   3.778  0.6513  0.0353  0.0034
 5585SOL    HW128217   0.572   1.394   3.820 -0.2815 -0.4303 -0.1410
 5585SOL    HW228218   0.704   1.330   3.812  0.9639  0.3511 -0.8858
 5586SOL     OW28219   2.209   3.051   7.090  0.7605  0.3441 -0.3060
 5586SOL    HW128220   2.203   2.956   7.078  1.1234  0.2390  0.3328
 5586SOL    HW228221   2.117   3.077   7.102  0.5040 -0.5497 -0.3315
 5587SOL     OW28222   0.623   0.616   2.601  0.1151  0.1530 -0.1510
 5587SOL    HW128223   0.659   0.587   2.517  1.5112  2.7732 -0.4728
 5587SOL    HW228224   0.579   0.533   2.618 -0.3786  1.0198  2.7636
 5588SOL     OW28225   1.266   3.523   7.992 -0.7313  0.2228 -0.6510
 5588SOL    HW128226   1.277   3.428   7.992 -2.6799 -0.0087 -0.1440
 5588SOL    HW228227   1.317   3.541   8.070 -0.9777  0.8587 -0.6323
 5589SOL     OW28228   1.740   0.499  15.527  0.0280  0.0416 -0.7931
 5589SOL    HW128229   1.727   0.423  15.469 -0.1228 -0.7366  0.2697
 5589SOL    HW228230   1.743   0.570  15.463 -2.9225 -0.0261 -1.0372
 5590SOL     OW28231   3.844   3.702   2.904 -0.0114  0.6700 -0.2346
 5590SOL    HW128232   3.759   3.679   2.868  0.7767 -2.5571 -0.0293
 5590SOL    HW228233   3.880   3.723   2.818 -0.4554 -0.6035 -0.7283
 5591SOL     OW28234   4.291   1.373   8.224  0.0812 -0.0424  0.0200
 5591SOL    HW128235   4.255   1.294   8.184  0.3543  0.6278 -1.5661
 5591SOL    HW228236   4.382   1.374   8.195 -0.0541 -0.3471 -0.4064
 5592SOL     OW28237   2.531   0.250  12.135 -0.0787 -0.5114  0.0159
 5592SOL    HW128238   2.591   0.187  12.176  2.5468  1.7130 -0.4264
 5592SOL    HW228239   2.456   0.236  12.193 -0.7156 -0.4082 -0.7797
 5593SOL     OW28240   1.300   2.295  17.380  0.5634 -0.0534 -0.4648
 5593SOL    HW128241   1.240   2.223  17.401  2.2297 -1.7125 -1.3971
 5593SOL    HW228242   1.291   2.355  17.454 -0.6179 -0.3083 -0.3974
 5594SOL     OW28243   1.476   2.125  15.141 -0.2488 -0.1763  0.5626
 5594SOL    HW128244   1.544   2.065  15.173 -0.9466 -1.5978 -0.6714
 5594SOL    HW228245   1.432   2.067  15.079 -1.2705  0.9475  0.2328
 5595SOL     OW28246   0.980   2.582  12.419 -0.1057  0.1073  0.2882
 5595SOL    HW128247   0.991   2.631  12.338 -4.4882 -1.5799 -1.3864
 5595SOL    HW228248   0.979   2.489  12.396 -1.8262  0.7893 -2.4692
 5596SOL     OW28249   2.455   0.522   5.681  1.1188  0.4575 -0.0317
 5596SOL    HW128250   2.463   0.606   5.636 -1.5628  0.8784  0.2746
 5596SOL    HW228251   2.493   0.463   5.615  2.4957  1.9811 -0.5908
 5597SOL     OW28252   2.452   1.258   8.638 -0.0546 -0.3908  0.3609
 5597SOL    HW128253   2.373   1.208   8.656 -0.6473  0.1632 -0.6590
 5597SOL    HW228254   2.416   1.330   8.584 -1.0697  0.3318  1.9939
 5598SOL     OW28255   4.374   4.310   7.809  0.1994  0.2485  0.1510
 5598SOL    HW128256   4.298   4.349   7.852  0.3045 -0.0774  0.6275
 5598SOL    HW228257   4.432   4.386   7.816  0.9586 -0.0824 -2.3998
 5599SOL     OW28258   0.145   0.786   5.318  0.0662  0.2234 -0.3106
 5599SOL    HW128259   0.096   0.707   5.293  0.4578  0.5004 -1.8914
 5599SOL    HW228260   0.231   0.780   5.277  0.1888  0.2180 -0.0546
 5600SOL     OW28261   3.856   0.253   1.768  0.3875 -0.1645  0.1225
 5600SOL    HW128262   3.874   0.168   1.729  2.5048 -0.0150  0.7736
 5600SOL    HW228263   3.767   0.267   1.736  0.1408 -4.2925 -0.9512
 5601SOL     OW28264   2.623   2.392   0.919 -0.1261  0.5645 -0.3574
 5601SOL    HW128265   2.594   2.415   1.007 -0.9319 -1.4142 -0.0984
 5601SOL    HW228266   2.687   2.463   0.910  0.4391 -0.1747 -2.1679
 5602SOL     OW28267   3.217   2.476   4.362  0.1288  0.0493 -0.2800
 5602SOL    HW128268   3.126   2.505   4.362 -0.0879 -0.6308 -0.8314
 5602SOL    HW228269   3.234   2.483   4.456 -3.0425  2.6852  0.0961
 5603SOL     OW28270   2.843   1.487   6.460 -0.5899 -0.4798  0.0480
 5603SOL    HW128271   2.916   1.535   6.500  0.4785 -2.1212  0.0512
 5603SOL    HW228272   2.779   1.496   6.531 -1.2134  0.6511 -0.6501
 5604SOL     OW28273   3.765   0.598   1.953 -0.2417 -0.1800 -0.3586
 5604SOL    HW128274   3.682   0.644   1.970  1.1996  1.5117  2.1177
 5604SOL    HW228275   3.759   0.508   1.985  0.3414 -0.7731 -1.9590
 5605SOL     OW28276   1.585   3.250   3.430 -0.2679 -0.2109 -0.5721
 5605SOL    HW128277   1.596   3.261   3.335  0.7490 -0.0915 -0.4380
 5605SOL    HW228278   1.598   3.337   3.468  0.3385  0.5633 -2.5332
 5606SOL     OW28279   3.724   0.794   6.442 -0.5219 -0.3508  0.6595
 5606SOL    HW128280   3.630   0.785   6.430 -0.6295 -0.1795  1.3620
 5606SOL    HW228281   3.736   0.796   6.537 -0.0709  1.1090  0.5636
 5607SOL     OW28282   3.102   0.176   7.191  0.2217 -0.6212  0.2930
 5607SOL    HW128283   3.112   0.265   7.159  0.3963 -0.4838  0.7373
 5607SOL    HW228284   3.106   0.135   7.105  2.1923  1.3663 -0.5502
 5608SOL     OW28285   0.779   3.303   7.121  0.0474  0.1892 -0.0076
 5608SOL    HW128286   0.726   3.382   7.106  0.3943  0.2997 -0.6429
 5608SOL    HW228287   0.706   3.251   7.154  0.5634 -0.1218  0.6615
 5609SOL     OW28288   1.801   3.627   3.953  0.1065  0.2402 -0.0660
 5609SOL    HW128289   1.776   3.652   3.865  0.7837 -1.1076 -0.6475
 5609SOL    HW228290   1.727   3.661   4.004  1.3849  1.8421  0.7276
 5610SOL     OW28291   1.959   2.371   0.273  0.1440 -0.3060 -0.0581
 5610SOL    HW128292   1.892   2.404   0.332 -0.6253 -0.9788 -0.5470
 5610SOL    HW228293   1.970   2.440   0.207 -0.8599 -1.6595 -1.6578
 5611SOL     OW28294   2.832   4.659   8.423 -0.0201  0.0053  0.1396
 5611SOL    HW128295   2.910   4.706   8.392  0.8454 -1.3999  0.1709
 5611SOL    HW228296   2.785   4.663   8.339 -1.5183 -1.3550  0.9146
 5612SOL     OW28297   3.742   1.128  16.449  0.3617  0.3891  0.0041
 5612SOL    HW128298   3.769   1.068  16.519 -0.7309  0.9586  0.9086
 5612SOL    HW228299   3.716   1.205  16.499  2.2505 -0.3407  2.0949
 5613SOL     OW28300   4.031   3.197   6.264 -0.1068  0.1006  0.4239
 5613SOL    HW128301   4.096   3.126   6.264 -0.2228 -0.0043  1.3421
 5613SOL    HW228302   3.958   3.156   6.310  0.4172  0.9627  2.0327
 5614SOL     OW28303   3.384   0.941   7.620 -0.8354 -0.0548  0.0356
 5614SOL    HW128304   3.445   0.982   7.681 -0.0659 -0.9540 -0.1189
 5614SOL    HW228305   3.310   1.002   7.624 -1.2742 -0.6628  1.1640
 5615SOL     OW28306   0.395   3.020   3.035  0.1612  0.0954  0.5138
 5615SOL    HW128307   0.376   2.936   2.994  0.5843  1.0799 -1.7377
 5615SOL    HW228308   0.415   3.073   2.957 -1.3698  1.8154  1.2747
 5616SOL     OW28309   4.592   3.948   8.502  0.2637  0.2761  0.7399
 5616SOL    HW128310   4.614   3.869   8.550 -0.6420 -0.4664 -0.0659
 5616SOL    HW228311   4.619   3.924   8.414  3.5171 -0.2467  1.8832
 5617SOL     OW28312   3.456   4.036   0.755 -0.4278 -0.2989  0.6322
 5617SOL    HW128313   3.474   4.128   0.740 -1.9410  0.0805  1.0901
 5617SOL    HW228314   3.384   4.023   0.693  2.7718 -1.7906 -2.7397
 5618SOL     OW28315   4.256   3.243   1.798 -0.1378 -0.1680 -0.1497
 5618SOL    HW128316   4.272   3.316   1.859  1.3982 -2.2234  1.9253
 5618SOL    HW228317   4.208   3.179   1.851 -0.0443  0.1594  0.3349
 5619SOL     OW28318   1.683   0.828   0.520 -0.2562  0.4765 -0.0830
 5619SOL    HW128319   1.767   0.868   0.500 -0.0693 -0.4010 -1.0737
 5619SOL    HW228320   1.708   0.789   0.603  0.1640  0.8140 -0.0493
 5620SOL     OW28321   0.606   1.692   1.872 -0.2736 -0.2941  0.0326
 5620SOL    HW128322   0.674   1.721   1.934  0.5725 -0.5226 -0.7900
 5620SOL    HW228323   0.567   1.778   1.858  0.1619 -0.1516 -0.3069
 5621SOL     OW28324   3.885   2.952  10.067  0.3849 -0.4080 -0.0503
 5621SOL    HW128325   3.836   2.947  10.149 -0.8376 -0.8217 -0.8144
 5621SOL    HW228326   3.879   3.046  10.053 -0.6557 -0.0547  2.6124
 5622SOL     OW28327   4.657   4.644  16.744  0.6097 -0.3083  0.2979
 5622SOL    HW128328   4.587   4.584  16.719  0.5811 -0.7354  1.3779
 5622SOL    HW228329   4.667   4.699  16.667  0.0987 -0.9645 -0.2384
 5623SOL     OW28330   4.696   3.822   3.267 -0.5840  0.0775  0.0769
 5623SOL    HW128331   4.716   3.907   3.306  0.5501  0.1044 -0.5494
 5623SOL    HW228332   4.614   3.800   3.310 -0.3223 -3.1748 -1.0627
 5624SOL     OW28333   2.935   2.394   3.526 -0.6326 -0.2767 -0.2709
 5624SOL    HW128334   2.857   2.431   3.565 -1.3480 -3.6449  1.5316
 5624SOL    HW228335   2.940   2.445   3.446 -2.3963 -1.0855 -0.8843
 5625SOL     OW28336   0.883   3.964  17.413 -0.1105 -0.3688  0.3810
 5625SOL    HW128337   0.841   4.032  17.466 -1.2570 -1.9969  1.5623
 5625SOL    HW228338   0.829   3.888  17.432 -2.3012  1.1595  0.2498
 5626SOL     OW28339   3.616   4.048   4.641 -0.4861  0.1251  0.1931
 5626SOL    HW128340   3.635   4.077   4.552  1.2500 -1.2677  0.1028
 5626SOL    HW228341   3.695   4.000   4.666  0.8766  1.7744 -0.9480
 5627SOL     OW28342   0.485   4.589   5.483  0.4090  0.6248 -0.0077
 5627SOL    HW128343   0.514   4.680   5.492 -1.0114  1.3132 -2.4387
 5627SOL    HW228344   0.443   4.605   5.399  1.6326  2.3860 -0.2868
 5628SOL     OW28345   1.576   0.072   7.498 -0.2361 -0.4368  0.3502
 5628SOL    HW128346   1.621   0.156   7.489 -0.9205 -0.2135 -0.9762
 5628SOL    HW228347   1.643   0.008   7.474 -0.9447 -1.6863  1.6871
 5629SOL     OW28348   1.810   2.579   1.168  0.1543  0.2749 -0.2923
 5629SOL    HW128349   1.731   2.558   1.118 -1.4005 -1.1675  2.7445
 5629SOL    HW228350   1.820   2.670   1.143 -0.0190 -0.2201 -2.1911
 5630SOL     OW28351   3.828   2.375  17.392 -0.0708  0.2122  0.0444
 5630SOL    HW128352   3.748   2.335  17.359  1.4278 -1.5552 -1.4035
 5630SOL    HW228353   3.789   2.463  17.399 -0.1599  0.2154 -0.4944
 5631SOL     OW28354   3.525   4.554  14.639  0.0764 -0.0992 -0.8082
 5631SOL    HW128355   3.495   4.543  14.549 -0.8315 -0.5291 -0.4543
 5631SOL    HW228356   3.616   4.526  14.635  0.5097  1.0208  1.1012
 5632SOL     OW28357   0.244   2.694   8.280 -0.1758  0.0437  0.4519
 5632SOL    HW128358   0.255   2.679   8.186  1.5495  1.5784  0.4213
 5632SOL    HW228359   0.224   2.603   8.304 -0.9791  0.0041 -0.3558
 5633SOL     OW28360   1.301   2.106  15.410 -0.5064 -0.6705 -0.2840
 5633SOL    HW128361   1.367   2.128  15.344 -0.8085  1.4366  0.1291
 5633SOL    HW228362   1.275   2.016  15.390 -1.5408 -0.8915  2.0343
 5634SOL     OW28363   0.868   1.419  12.695  0.0367 -0.5201 -0.1294
 5634SOL    HW128364   0.882   1.496  12.750  0.8788 -1.5705  1.1511
 5634SOL    HW228365   0.928   1.431  12.622  0.3608  0.0612  0.2342
 5635SOL     OW28366   1.878   2.820   2.191  0.1862 -0.3909  0.5141
 5635SOL    HW128367   1.900   2.855   2.278  0.7278  2.1361 -0.6290
 5635SOL    HW228368   1.872   2.902   2.141 -1.8746 -0.8542  0.0189
 5636SOL     OW28369   0.097   4.669  12.414  0.8632 -0.3608 -0.5483
 5636SOL    HW128370   0.169   4.612  12.443  0.6657 -0.3921 -0.1180
 5636SOL    HW228371   0.063   4.700  12.498 -2.5949 -2.7977 -1.0500
 5637SOL     OW28372   3.179   3.410   4.735 -0.3613  0.2230  0.5398
 5637SOL    HW128373   3.248   3.366   4.785 -2.2786 -1.2122  1.9232
 5637SOL    HW228374   3.233   3.465   4.680  0.7788  0.1620  1.5941
 5638SOL     OW28375   4.302   2.604  13.931 -0.0167 -0.4558  0.2193
 5638SOL    HW128376   4.276   2.696  13.933 -1.6586 -0.9620  2.0408
 5638SOL    HW228377   4.303   2.572  14.021 -3.1556 -2.2448 -0.3712
 5639SOL     OW28378   4.343   1.315   1.592  0.1857  0.0728  0.2580
 5639SOL    HW128379   4.433   1.301   1.561 -0.3721 -1.2074 -0.7602
 5639SOL    HW228380   4.288   1.249   1.551  0.3122  1.3256 -1.9247
 5640SOL     OW28381   2.377   3.151   7.300 -0.0115 -0.7357 -0.0579
 5640SOL    HW128382   2.381   3.113   7.213 -0.1731 -1.7085  0.3548
 5640SOL    HW228383   2.382   3.245   7.284 -1.6244 -0.3463  1.6372
 5641SOL     OW28384   0.946   4.101   5.675 -0.0013 -0.8339  0.7402
 5641SOL    HW128385   1.021   4.129   5.622 -0.7223 -0.3736 -0.0465
 5641SOL    HW228386   0.889   4.056   5.612  1.4017  0.9520 -1.7981
 5642SOL     OW28387   1.851   3.192   2.270 -0.6322 -0.7835  0.2381
 5642SOL    HW128388   1.943   3.174   2.289 -0.0103  0.6731 -1.3806
 5642SOL    HW228389   1.842   3.129   2.199 -0.4190  1.2933 -1.6693
 5643SOL     OW28390   1.265   1.936  14.187 -0.6346 -0.5601 -0.7382
 5643SOL    HW128391   1.347   1.923  14.235  0.5028 -1.9602 -3.0780
 5643SOL    HW228392   1.235   1.851  14.220 -0.2333  0.2146  1.6593
 5644SOL     OW28393   1.299   1.114  10.301 -0.2296  0.2415 -0.0149
 5644SOL    HW128394   1.390   1.089  10.286 -0.1745 -0.6418  1.7750
 5644SOL    HW228395   1.260   1.091  10.217  1.4208  0.6685 -0.8760
 5645SOL     OW28396   2.536   3.166   9.806 -1.0140  0.2243  0.1105
 5645SOL    HW128397   2.600   3.114   9.854 -0.1027  1.1176 -0.1454
 5645SOL    HW228398   2.458   3.110   9.813  0.5335 -1.9341  0.0784
 5646SOL     OW28399   0.574   3.912  11.442  0.2238  0.0469  0.3189
 5646SOL    HW128400   0.625   3.858  11.503  0.7729  0.3481  0.1292
 5646SOL    HW228401   0.605   4.000  11.465 -0.2448 -0.5669  3.2620
 5647SOL     OW28402   4.289   0.195  16.207 -0.0149  0.6377 -0.0213
 5647SOL    HW128403   4.259   0.285  16.223 -0.0806  0.4071  1.1413
 5647SOL    HW228404   4.336   0.206  16.124  2.2143 -0.1232  1.1434
 5648SOL     OW28405   2.774   2.171   3.912 -0.0386  0.8881 -0.0125
 5648SOL    HW128406   2.864   2.204   3.908  0.1840  0.4450  1.4624
 5648SOL    HW228407   2.794   2.078   3.918  1.0467  1.2549  2.1151
 5649SOL     OW28408   1.512   1.205   5.812  0.4383 -0.5619  0.4593
 5649SOL    HW128409   1.503   1.289   5.766 -0.1288  0.2240  2.0130
 5649SOL    HW228410   1.426   1.181   5.845 -1.2457  0.9418 -2.8499
 5650SOL     OW28411   3.494   3.860   9.203 -0.9311 -0.4408  0.5329
 5650SOL    HW128412   3.520   3.925   9.269  0.7068  0.5613 -1.0922
 5650SOL    HW228413   3.407   3.890   9.178 -1.3919  0.0874  2.7462
 5651SOL     OW28414   2.744   0.399   4.120  0.3339 -0.5620 -0.1081
 5651SOL    HW128415   2.649   0.414   4.122  0.1814 -1.5130 -0.3126
 5651SOL    HW228416   2.753   0.331   4.186 -0.3851  1.5890  2.2193
 5652SOL     OW28417   1.714   0.900   3.792 -0.8063  0.0253 -0.1398
 5652SOL    HW128418   1.663   0.930   3.867  0.5697  0.8140  0.4823
 5652SOL    HW228419   1.664   0.945   3.724  1.1720 -0.4590 -1.9430
 5653SOL     OW28420   3.193   3.781   0.843  0.3166 -0.2358  0.1734
 5653SOL    HW128421   3.160   3.858   0.798  1.6724 -0.1276 -0.6109
 5653SOL    HW228422   3.147   3.709   0.800 -1.8880  1.6740 -0.6463
 5654SOL     OW28423   3.472   3.495   2.943  0.1137 -0.0577 -0.2216
 5654SOL    HW128424   3.511   3.566   2.893 -0.6850  0.7675  0.3253
 5654SOL    HW228425   3.412   3.459   2.877  0.6870 -1.1108 -0.1716
 5655SOL     OW28426   2.245   1.590   7.066  0.1903  0.5336  0.0439
 5655SOL    HW128427   2.321   1.546   7.029  0.0979  1.2932 -1.0571
 5655SOL    HW228428   2.273   1.678   7.041  0.9834  0.9672  2.4864
 5656SOL     OW28429   2.803   1.391   9.811  0.3006  0.1224  0.0956
 5656SOL    HW128430   2.834   1.315   9.761 -1.5615 -1.3423  1.1481
 5656SOL    HW228431   2.889   1.434   9.812  0.5104 -0.3051  0.7432
 5657SOL     OW28432   3.666   2.287  11.861  0.1185 -0.6168  0.3587
 5657SOL    HW128433   3.634   2.200  11.886 -2.8369  0.1497 -0.7272
 5657SOL    HW228434   3.649   2.281  11.767 -0.2629 -2.5086  0.5617
 5658SOL     OW28435   0.704   2.470   6.469  0.5420  0.3118 -0.5699
 5658SOL    HW128436   0.699   2.550   6.522 -3.8929  0.1619 -0.7330
 5658SOL    HW228437   0.682   2.505   6.383 -1.2921 -1.2842 -0.7485
 5659SOL     OW28438   1.545   1.472   4.155 -0.3953 -0.5060 -0.3997
 5659SOL    HW128439   1.638   1.453   4.160 -0.2280  0.5062  0.2903
 5659SOL    HW228440   1.536   1.534   4.083  0.5491 -0.6405 -0.6291
 5660SOL     OW28441   2.220   1.436   4.105  0.3648  0.4164 -0.2577
 5660SOL    HW128442   2.241   1.502   4.038  0.3566 -0.0497 -0.7195
 5660SOL    HW228443   2.231   1.500   4.175 -0.0730 -1.5342  1.5750
 5661SOL     OW28444   0.650   3.924  12.330 -0.0262 -0.2129  0.4118
 5661SOL    HW128445   0.573   3.980  12.333  0.6330  0.6306  1.8507
 5661SOL    HW228446   0.635   3.874  12.249 -2.1880 -1.3823  1.5365
 5662SOL     OW28447   0.981   3.143  15.338 -0.0294 -0.6087 -0.0031
 5662SOL    HW128448   0.955   3.178  15.253  0.5736  0.3913  0.2214
 5662SOL    HW228449   0.977   3.048  15.325 -2.2430 -0.2601 -1.8349
 5663SOL     OW28450   2.103   0.090   0.094 -0.1294  0.1977  0.0451
 5663SOL    HW128451   2.075   0.016   0.041  0.6361 -0.1574  0.1341
 5663SOL    HW228452   2.163   0.047   0.156 -0.3115  0.3022  0.2951
 5664SOL     OW28453   3.207   2.541  17.203 -0.1444  0.2629  0.1395
 5664SOL    HW128454   3.262   2.579  17.271 -1.8733 -0.2342  1.7888
 5664SOL    HW228455   3.124   2.527  17.248  0.1920  0.2606  0.7530
 5665SOL     OW28456   3.983   3.963   1.633  0.5005 -0.5864  0.4877
 5665SOL    HW128457   3.928   3.898   1.590 -0.5197  2.0201 -2.1033
 5665SOL    HW228458   4.071   3.956   1.595  1.0382 -1.5553  1.9046
 5666SOL     OW28459   3.984   0.560   9.455  0.0774 -0.1883  0.1238
 5666SOL    HW128460   4.060   0.570   9.397  0.9106 -0.0259  1.2429
 5666SOL    HW228461   3.953   0.481   9.409 -2.5970  0.9362 -0.0087
 5667SOL     OW28462   1.488   3.095   8.872  0.4262 -0.3110  0.0197
 5667SOL    HW128463   1.576   3.113   8.839  0.0011 -0.1788 -1.0482
 5667SOL    HW228464   1.446   3.124   8.791 -0.2413 -1.0981  0.0868
 5668SOL     OW28465   3.710   1.467  10.483 -0.6872  0.0993 -0.1140
 5668SOL    HW128466   3.673   1.380  10.474  2.1604 -0.9222 -2.1767
 5668SOL    HW228467   3.660   1.524  10.425 -1.4270 -0.1107  0.3256
 5669SOL     OW28468   2.145   2.125   5.367  0.1553 -0.3194  0.1636
 5669SOL    HW128469   2.086   2.056   5.337  0.5417 -0.5627 -0.0498
 5669SOL    HW228470   2.231   2.089   5.392 -0.5277 -2.5231 -0.6743
 5670SOL     OW28471   0.972   3.286  16.717 -0.1728  0.1924  0.3334
 5670SOL    HW128472   0.899   3.271  16.777  0.0005 -0.6146  0.3531
 5670SOL    HW228473   0.923   3.273  16.636 -0.1882  0.4494  0.3015
 5671SOL     OW28474   2.684   1.758   3.414  0.1863 -0.3739 -0.2207
 5671SOL    HW128475   2.767   1.721   3.444 -0.3955 -0.9369  0.7021
 5671SOL    HW228476   2.675   1.718   3.328  0.1326  0.5834 -0.6650
 5672SOL     OW28477   4.199   2.021  12.132  0.0934  0.2273  0.6882
 5672SOL    HW128478   4.220   2.056  12.219 -1.2861  0.6945  0.8374
 5672SOL    HW228479   4.275   1.969  12.109  0.0168  0.2422  0.4006
 5673SOL     OW28480   1.967   4.666  16.552 -0.2386 -0.2761 -0.3687
 5673SOL    HW128481   2.009   4.688  16.635 -1.0779 -2.4907  0.6429
 5673SOL    HW228482   1.880   4.652  16.589 -0.4793 -0.8157 -1.1543
 5674SOL     OW28483   2.693   0.318  17.369  0.4339 -0.1561  0.2742
 5674SOL    HW128484   2.635   0.365  17.429  0.6444 -1.3435  1.4164
 5674SOL    HW228485   2.674   0.225  17.379  0.3089 -0.4226 -2.3932
 5675SOL     OW28486   3.847   4.358  11.469  0.3004 -0.3117 -0.7089
 5675SOL    HW128487   3.778   4.292  11.470  0.8243 -0.8265  1.9169
 5675SOL    HW228488   3.849   4.388  11.378  0.6983 -0.0089 -0.5999
 5676SOL     OW28489   2.097   4.397  11.856  0.1096 -0.3105  0.1215
 5676SOL    HW128490   2.149   4.476  11.871 -0.0345 -0.2496  0.3147
 5676SOL    HW228491   2.118   4.365  11.769  2.8303  0.0223  0.6724
 5677SOL     OW28492   3.983   2.589  13.671  0.5630 -0.5341  0.2469
 5677SOL    HW128493   3.992   2.571  13.577  0.3522 -0.9012  0.2992
 5677SOL    HW228494   3.892   2.620  13.679  0.9711  0.4336  1.1280
 5678SOL     OW28495   2.005   0.434   7.620 -0.3607  0.4196  0.2563
 5678SOL    HW128496   1.930   0.492   7.633 -2.0411 -1.6733 -0.0751
 5678SOL    HW228497   2.071   0.487   7.577 -1.0062  1.6075  0.7246
 5679SOL     OW28498   1.984   3.956   7.757  0.2816 -0.1520 -0.1439
 5679SOL    HW128499   1.995   3.883   7.696  0.1686 -0.7640  0.5717
 5679SOL    HW228500   2.076   3.970   7.778  1.1443 -1.4251 -2.9809
 5680SOL     OW28501   3.430   3.547   5.922 -0.0017 -0.0283  0.9911
 5680SOL    HW128502   3.387   3.616   5.972  2.6163  1.7675  0.7528
 5680SOL    HW228503   3.469   3.486   5.985 -2.3454 -0.3579  2.1332
 5681SOL     OW28504   4.231   0.742   9.964  0.5160  1.0344  0.2595
 5681SOL    HW128505   4.264   0.832   9.964 -0.4788  1.3983 -0.0689
 5681SOL    HW228506   4.259   0.724  10.054 -1.9943  0.0232  0.8265
 5682SOL     OW28507   0.020   1.426   3.041  0.7515 -0.2519  0.2264
 5682SOL    HW128508   0.116   1.429   3.037  0.7661 -2.6100 -1.7326
 5682SOL    HW228509   0.004   1.355   2.978 -1.1575  1.0381 -0.7462
 5683SOL     OW28510   1.610   4.475  16.785  0.0102  0.0567  0.4511
 5683SOL    HW128511   1.692   4.470  16.834  0.9665  2.9187 -0.8675
 5683SOL    HW228512   1.622   4.535  16.711 -1.8044  0.0972  0.1837
 5684SOL     OW28513   1.300   4.680  16.025  0.5973  0.3289 -0.3124
 5684SOL    HW128514   1.244   4.724  16.089 -1.7987 -1.3181 -1.2761
 5684SOL    HW228515   1.290   4.590  16.056  0.3080  1.0019  1.5555
 5685SOL     OW28516   3.871   3.284   0.016 -0.2036  0.4487  0.2193
 5685SOL    HW128517   3.901   3.222   0.083  1.0571  1.9999  1.0845
 5685SOL    HW228518   3.816   3.341   0.069  0.6827 -0.3903  2.0418
 5686SOL     OW28519   0.606   0.206   4.735 -0.0873  0.2355 -0.0356
 5686SOL    HW128520   0.666   0.273   4.704  0.5316 -0.6007 -0.6532
 5686SOL    HW228521   0.623   0.131   4.678  0.4014 -0.8838  1.5893
 5687SOL     OW28522   3.560   1.184   3.168 -0.2668  0.5784  0.1667
 5687SOL    HW128523   3.567   1.109   3.110 -0.0953  2.5151 -2.3092
 5687SOL    HW228524   3.466   1.174   3.185 -0.4283  1.5609 -0.1134
 5688SOL     OW28525   4.258   2.783   3.456 -0.2423  0.7826  0.3755
 5688SOL    HW128526   4.261   2.730   3.536 -0.3330  1.1002  0.5868
 5688SOL    HW228527   4.169   2.753   3.434 -0.5132  0.2446  2.2814
 5689SOL     OW28528   1.177   1.160   3.606  0.4581 -0.1245 -0.1483
 5689SOL    HW128529   1.175   1.121   3.518 -1.7418  2.7438 -1.3751
 5689SOL    HW228530   1.085   1.188   3.606 -0.1080 -1.9408  0.2083
 5690SOL     OW28531   4.467   0.084  14.745  0.3381  0.1158  0.6678
 5690SOL    HW128532   4.531   0.133  14.694  0.1270 -0.8293 -0.5117
 5690SOL    HW228533   4.455   0.004  14.692 -1.7913  1.2346 -0.5493
 5691SOL     OW28534   2.606   1.366  11.309  0.2314 -0.1286  0.3430
 5691SOL    HW128535   2.520   1.393  11.342  0.8307  0.9765  1.0148
 5691SOL    HW228536   2.601   1.378  11.215  1.7907 -1.7066  0.0671
 5692SOL     OW28537   2.553   3.382   7.432 -0.2900  0.1293  0.1812
 5692SOL    HW128538   2.582   3.296   7.403  0.5811  1.0726 -1.6959
 5692SOL    HW228539   2.625   3.433   7.396 -0.4678 -0.4462 -0.9591
 5693SOL     OW28540   2.477   3.143   9.428 -0.4449  0.5984  0.0640
 5693SOL    HW128541   2.566   3.177   9.420 -0.4617  0.4964 -0.5429
 5693SOL    HW228542   2.465   3.148   9.333 -0.1407  0.5062  0.0215
 5694SOL     OW28543   1.833   2.634   6.229 -0.2503 -0.2839  0.3387
 5694SOL    HW128544   1.750   2.670   6.258 -0.5066  1.7517 -2.9749
 5694SOL    HW228545   1.809   2.542   6.219 -1.1378 -0.1468  1.2513
 5695SOL     OW28546   1.141   0.988  14.022  0.4336 -0.0650 -0.0335
 5695SOL    HW128547   1.153   1.076  13.986 -1.1732 -0.1518 -0.7517
 5695SOL    HW228548   1.072   0.953  13.967 -0.0572  0.1510  0.4450
 5696SOL     OW28549   3.808   2.176   5.298  0.0798  0.8002  0.3226
 5696SOL    HW128550   3.765   2.157   5.214  0.5256 -2.8768  0.9508
 5696SOL    HW228551   3.900   2.165   5.275 -0.5802  0.0904 -2.0620
 5697SOL     OW28552   2.859   0.449   7.584  0.4138  0.8590  0.0296
 5697SOL    HW128553   2.820   0.486   7.505  0.8021  1.4331  0.1099
 5697SOL    HW228554   2.926   0.511   7.611  0.3934  0.8482  0.1060
 5698SOL     OW28555   1.507   1.041  10.143  0.8421 -0.2455 -0.0816
 5698SOL    HW128556   1.602   1.046  10.155  0.6223 -0.2169  1.6781
 5698SOL    HW228557   1.510   1.059  10.049  0.7123  0.4600  0.0473
 5699SOL     OW28558   2.889   0.085   4.822  0.1169 -0.2281  0.0675
 5699SOL    HW128559   2.975   0.065   4.859  0.7154 -1.0935 -1.7949
 5699SOL    HW228560   2.848   0.004   4.852  1.4913 -0.6040  0.9102
 5700SOL     OW28561   4.475   2.864   4.051 -0.2232  0.4591  0.2626
 5700SOL    HW128562   4.474   2.794   4.117 -2.4723 -0.8623 -1.1861
 5700SOL    HW228563   4.497   2.817   3.971 -2.0311  1.3616 -0.7479
 5701SOL     OW28564   1.892   3.892  12.665  0.4142 -0.3232 -0.6542
 5701SOL    HW128565   1.873   3.971  12.714  0.3561 -1.6914  1.5348
 5701SOL    HW228566   1.914   3.935  12.583  0.2743  0.9795 -0.0059
 5702SOL     OW28567   4.209   1.817   7.578 -0.2934 -0.0291 -0.4581
 5702SOL    HW128568   4.150   1.751   7.613 -0.8945  0.0153 -1.3887
 5702SOL    HW228569   4.222   1.874   7.653 -1.7491 -0.3127  0.0009
 5703SOL     OW28570   2.688   4.327   6.995 -0.5624 -0.2474 -0.0343
 5703SOL    HW128571   2.640   4.283   7.065  1.6727 -0.1171  1.5834
 5703SOL    HW228572   2.621   4.392   6.973  0.3722  0.4638 -0.7304
 5704SOL     OW28573   4.602   3.272  17.485 -0.1785 -0.7432 -0.2246
 5704SOL    HW128574   4.507   3.284  17.478 -0.1340  0.4192  1.1726
 5704SOL    HW228575   4.607   3.180  17.512  0.1423 -0.3512  1.0545
 5705SOL     OW28576   1.985   0.798  10.019  0.0189 -0.5799  0.2880
 5705SOL    HW128577   1.930   0.815  10.096 -2.6660  0.9427 -1.9593
 5705SOL    HW228578   1.918   0.766   9.959 -0.8855 -0.7153  1.3630
 5706SOL     OW28579   0.255   0.744   4.662 -0.2515 -0.7790  0.0673
 5706SOL    HW128580   0.333   0.706   4.622 -0.1642  0.7188 -1.2002
 5706SOL    HW228581   0.239   0.663   4.710  0.7842 -0.0627  1.6197
 5707SOL     OW28582   3.834   0.863  17.105 -0.0794  0.4524 -0.3608
 5707SOL    HW128583   3.808   0.917  17.030 -1.2142 -3.1495 -2.5373
 5707SOL    HW228584   3.926   0.853  17.081 -0.3041 -2.1612 -0.0660
 5708SOL     OW28585   1.059   1.400  13.685  0.4595 -0.6382 -0.2663
 5708SOL    HW128586   1.017   1.382  13.601  0.3602 -0.2243 -0.3015
 5708SOL    HW228587   1.055   1.495  13.680  2.6039 -0.5090  0.2688
 5709SOL     OW28588   4.259   1.430   4.343 -0.7025 -0.4747  0.1428
 5709SOL    HW128589   4.297   1.375   4.275 -1.9653  0.3708 -1.2387
 5709SOL    HW228590   4.317   1.506   4.339  2.4668 -2.9425 -0.7069
 5710SOL     OW28591   1.460   1.537   4.631  0.1016 -0.1995  0.4163
 5710SOL    HW128592   1.531   1.587   4.592 -0.4117  0.0906 -0.1369
 5710SOL    HW228593   1.400   1.549   4.557  1.0774 -0.6422 -0.4365
 5711SOL     OW28594   0.994   1.576   9.308  0.9060  0.1235  0.2351
 5711SOL    HW128595   1.008   1.481   9.300  2.5673  0.3607  0.3191
 5711SOL    HW228596   1.047   1.599   9.385  2.2899  1.1369 -1.0118
 5712SOL     OW28597   3.955   3.946  11.036  0.0716  0.0100 -0.3422
 5712SOL    HW128598   4.004   3.978  11.112 -0.1919 -0.1629 -0.1023
 5712SOL    HW228599   3.935   3.860  11.072  0.5107  0.2077  0.3596
 5713SOL     OW28600   2.761   0.718   5.684 -0.1386  0.7886  0.1001
 5713SOL    HW128601   2.768   0.625   5.660 -1.0348  0.4893  1.0264
 5713SOL    HW228602   2.679   0.726   5.732 -0.6003  1.1798 -0.7566
 5714SOL     OW28603   0.087   1.548  13.031 -0.2784 -0.4221 -0.6802
 5714SOL    HW128604   0.095   1.492  13.108  0.1556  0.0517 -0.3803
 5714SOL    HW228605   0.021   1.508  12.974  0.8240 -0.0124 -2.2346
 5715SOL     OW28606   3.529   4.456   4.663  0.0921 -0.1720  0.4932
 5715SOL    HW128607   3.622   4.479   4.659  0.9967 -3.7253  1.2052
 5715SOL    HW228608   3.538   4.371   4.707  1.6928  0.1798  0.8252
 5716SOL     OW28609   0.452   1.753   5.879  0.5152 -0.3467  0.3405
 5716SOL    HW128610   0.380   1.810   5.907  1.1231 -0.2499  1.7069
 5716SOL    HW228611   0.402   1.693   5.824  0.7364  0.9760 -1.3004
 5717SOL     OW28612   0.192   2.285  17.489 -0.5963  0.7061 -0.1181
 5717SOL    HW128613   0.184   2.361  17.432  0.4258  1.7368  1.0928
 5717SOL    HW228614   0.280   2.290  17.526  0.2123 -3.6161 -1.4937
 5718SOL     OW28615   2.625   2.316   1.811 -0.2551  0.0527  0.2142
 5718SOL    HW128616   2.574   2.324   1.892 -0.2842  0.1373  0.1876
 5718SOL    HW228617   2.684   2.391   1.823  0.9328 -0.8890  0.2422
 5719SOL     OW28618   2.914   2.333   9.668  0.0742 -0.5125 -0.2812
 5719SOL    HW128619   2.876   2.310   9.752  2.9782  0.9292  1.4251
 5719SOL    HW228620   2.887   2.424   9.653  0.6528 -0.4512 -0.9955
 5720SOL     OW28621   0.578   1.590   5.595  0.2431 -0.2638 -1.2795
 5720SOL    HW128622   0.595   1.574   5.502 -0.2119 -0.8731 -1.2543
 5720SOL    HW228623   0.486   1.564   5.597  0.3428 -0.4808  0.2630
 5721SOL     OW28624   2.191   2.322   6.711 -0.4460  0.0327 -0.5509
 5721SOL    HW128625   2.179   2.319   6.616  0.8473  1.0918 -0.7450
 5721SOL    HW228626   2.286   2.329   6.721 -0.7231  0.6296  1.6150
 5722SOL     OW28627   3.450   0.218  17.593 -0.0700  0.2892  0.0591
 5722SOL    HW128628   3.372   0.193  17.642  0.6259  0.8668  1.4608
 5722SOL    HW228629   3.498   0.275  17.653  2.0989 -1.0928 -0.3442
 5723SOL     OW28630   2.271   1.922   3.094 -0.1511  0.0778  0.4158
 5723SOL    HW128631   2.312   1.839   3.119 -0.5360  0.5254  2.4641
 5723SOL    HW228632   2.212   1.893   3.024  2.9885  0.2735 -2.3273
 5724SOL     OW28633   0.933   3.711   3.635  0.2292  0.2292  0.0554
 5724SOL    HW128634   0.983   3.792   3.643 -0.2326  0.5712 -0.5476
 5724SOL    HW228635   0.900   3.716   3.546  0.0816  0.6866  0.1349
 5725SOL     OW28636   1.623   3.001   5.596 -0.3226 -0.1579 -0.3947
 5725SOL    HW128637   1.554   3.027   5.535  0.5656 -0.5556 -1.5757
 5725SOL    HW228638   1.700   3.046   5.563  0.6248 -0.5143  1.3347
 5726SOL     OW28639   4.422   4.405   0.203  0.0412 -1.0990 -0.1283
 5726SOL    HW128640   4.382   4.361   0.128  0.1599  0.1205 -0.9128
 5726SOL    HW228641   4.515   4.403   0.180  0.3037  0.6278  0.7872
 5727SOL     OW28642   0.775   1.644  15.068 -0.2317 -0.7524  0.4053
 5727SOL    HW128643   0.789   1.609  15.156 -0.7030 -1.3909  0.2261
 5727SOL    HW228644   0.713   1.579  15.036  0.0605  0.0701 -1.8234
 5728SOL     OW28645   4.679   3.207   2.120 -0.7659  0.4750 -0.4379
 5728SOL    HW128646   4.705   3.201   2.029 -2.5279 -1.5192 -0.8260
 5728SOL    HW228647   0.027   3.161   2.163  0.9464  2.0660 -1.6689
 5729SOL     OW28648   0.146   4.479   8.762 -0.8626  0.3518 -0.5661
 5729SOL    HW128649   0.202   4.414   8.805 -1.3281 -0.6854 -1.5554
 5729SOL    HW228650   0.182   4.475   8.674 -0.0916  0.3655 -0.2556
 5730SOL     OW28651   1.065   4.316  15.483 -0.5588  0.6090  0.4084
 5730SOL    HW128652   1.001   4.366  15.534 -2.6586 -0.8848 -0.7306
 5730SOL    HW228653   1.104   4.267  15.554 -1.0134 -2.1453 -1.2216
 5731SOL     OW28654   2.277   1.869  13.720  0.1472  0.0260  0.1030
 5731SOL    HW128655   2.344   1.875  13.789 -1.1448 -0.4141  1.3947
 5731SOL    HW228656   2.274   1.960  13.689 -0.2046 -0.4487 -1.2456
 5732SOL     OW28657   2.022   1.284   8.775  0.7802 -0.1631  0.1906
 5732SOL    HW128658   1.994   1.349   8.711  0.6514  0.2119  0.6215
 5732SOL    HW228659   1.939   1.255   8.813  0.7841 -1.4238 -0.7954
 5733SOL     OW28660   0.006   4.459   1.670  0.0030  0.1142  0.0969
 5733SOL    HW128661   0.049   4.514   1.604 -0.3525  0.2266 -0.0442
 5733SOL    HW228662   0.063   4.383   1.672  1.4408  1.1663 -0.6676
 5734SOL     OW28663   1.266   2.204  17.093 -0.0675 -0.0334 -0.0774
 5734SOL    HW128664   1.280   2.182  17.185  0.6223  1.1583  0.1069
 5734SOL    HW228665   1.306   2.291  17.093  1.0818 -0.5589  0.8510
 5735SOL     OW28666   4.005   2.724   8.522 -0.5028  1.0626  0.1954
 5735SOL    HW128667   3.960   2.681   8.594  2.9324  0.3034  1.9108
 5735SOL    HW228668   3.950   2.800   8.501 -2.7650 -1.3260 -2.3841
 5736SOL     OW28669   1.620   3.987  11.914 -0.1699  0.8492  0.3306
 5736SOL    HW128670   1.613   4.067  11.965 -1.9653  0.5256  0.5896
 5736SOL    HW228671   1.707   3.946  11.917 -0.2287  0.8834  2.4527
 5737SOL     OW28672   3.541   1.802   3.593  0.2244 -0.0490 -0.6969
 5737SOL    HW128673   3.476   1.732   3.596 -1.1602  1.2884  0.7303
 5737SOL    HW228674   3.493   1.852   3.527 -0.1809 -1.1651 -1.2524
 5738SOL     OW28675   0.208   4.066   5.577 -0.2056  0.6004  0.2988
 5738SOL    HW128676   0.249   4.148   5.604 -0.4854  0.6165  0.6819
 5738SOL    HW228677   0.278   4.001   5.587  1.0892  1.8577 -0.6208
 5739SOL     OW28678   3.194   3.976   4.316  0.2448  0.4871 -0.2024
 5739SOL    HW128679   3.157   3.892   4.342 -1.1811  1.4533  0.8405
 5739SOL    HW228680   3.151   3.984   4.230 -0.5886 -0.1003  0.1628
 5740SOL     OW28681   2.977   1.065   0.304 -0.4028 -0.2576  0.1292
 5740SOL    HW128682   3.029   1.121   0.246 -0.6356  0.7998  0.9634
 5740SOL    HW228683   2.987   0.973   0.276 -0.7763 -0.1549 -0.3450
 5741SOL     OW28684   1.061   2.845   6.382 -0.1132  0.4077 -0.1113
 5741SOL    HW128685   1.049   2.815   6.472  0.0450  0.1560 -0.1744
 5741SOL    HW228686   1.154   2.850   6.364  0.0842 -1.0776  0.5225
 5742SOL     OW28687   4.237   0.969   0.859 -0.2457  0.1119 -0.2357
 5742SOL    HW128688   4.293   1.036   0.897  0.1755 -1.2511  1.6017
 5742SOL    HW228689   4.151   0.996   0.890 -0.0724 -0.3358  0.6546
 5743SOL     OW28690   1.920   0.401   0.719 -0.1522 -0.0675  0.1804
 5743SOL    HW128691   1.968   0.480   0.696  0.3862 -0.7833 -1.1546
 5743SOL    HW228692   1.861   0.383   0.646 -0.5963  2.1635 -0.0040
 5744SOL     OW28693   1.290   0.431   5.093  0.5217  0.5356  0.6681
 5744SOL    HW128694   1.202   0.398   5.113  0.1919  1.8101  1.3495
 5744SOL    HW228695   1.345   0.354   5.099  0.2652  0.2470 -0.6524
 5745SOL     OW28696   0.326   2.569   7.608 -0.1890 -0.4254 -0.3256
 5745SOL    HW128697   0.319   2.494   7.550 -0.4138 -1.5227  1.1160
 5745SOL    HW228698   0.416   2.594   7.586  0.4149 -0.1076  2.5056
 5746SOL     OW28699   1.323   4.134  13.491 -0.2012  0.1996  0.5789
 5746SOL    HW128700   1.418   4.126  13.497 -0.4749 -3.0592  0.6937
 5746SOL    HW228701   1.303   4.207  13.549  1.3193 -0.6379  2.1864
 5747SOL     OW28702   3.090   2.810   2.989 -0.2965 -0.3853 -0.0124
 5747SOL    HW128703   3.036   2.883   2.959  1.5106  1.4854  1.3451
 5747SOL    HW228704   3.046   2.808   3.074  2.0522 -0.7157  1.1794
 5748SOL     OW28705   2.542   1.953   3.577 -0.1307  0.3507 -0.5631
 5748SOL    HW128706   2.616   2.011   3.598 -0.6888  0.4844  1.0964
 5748SOL    HW228707   2.583   1.900   3.509  0.5642  1.1080 -0.7315
 5749SOL     OW28708   3.964   1.818  10.473 -0.1200  0.5070 -0.4273
 5749SOL    HW128709   4.048   1.858  10.451  0.7391 -1.4887 -0.6827
 5749SOL    HW228710   3.949   1.845  10.564 -1.2678  0.0083 -0.4685
 5750SOL     OW28711   2.524   3.388   8.923  0.1050  0.2797  0.4348
 5750SOL    HW128712   2.598   3.392   8.861  0.4072  2.0096  0.8878
 5750SOL    HW228713   2.449   3.359   8.871  0.8705 -1.0346  0.0571
 5751SOL     OW28714   1.364   1.991  14.921 -0.2323  0.1792 -0.0514
 5751SOL    HW128715   1.370   2.047  14.844 -1.1103  1.0388  0.5007
 5751SOL    HW228716   1.270   1.978  14.928 -0.2808 -0.3191 -1.5921
 5752SOL     OW28717   3.000   3.716   0.644 -0.1539  0.6119  0.2500
 5752SOL    HW128718   2.981   3.674   0.560  0.0336  0.8922  0.0667
 5752SOL    HW228719   2.916   3.757   0.666 -1.6216 -2.1591 -0.2322
 5753SOL     OW28720   2.978   2.801  16.619  0.2664  0.0728  0.1127
 5753SOL    HW128721   2.925   2.725  16.645  1.4650 -0.2800  1.4908
 5753SOL    HW228722   3.005   2.775  16.531 -1.4893  0.7592 -0.6310
 5754SOL     OW28723   3.314   3.146   5.722 -0.1075  0.0205 -0.0454
 5754SOL    HW128724   3.395   3.197   5.714 -1.2480  1.5038 -2.0095
 5754SOL    HW228725   3.314   3.104   5.636  0.0817  1.4636 -0.7496
 5755SOL     OW28726   1.780   4.384  11.781 -0.0323 -0.0340 -0.1881
 5755SOL    HW128727   1.824   4.418  11.859 -1.2812  0.2555  0.4035
 5755SOL    HW228728   1.687   4.376  11.804 -0.2443  0.3190 -0.9114
 5756SOL     OW28729   3.828   1.768   1.453 -0.3849 -0.0062  0.1340
 5756SOL    HW128730   3.782   1.847   1.427  2.1345 -0.1785 -4.9543
 5756SOL    HW228731   3.817   1.710   1.378 -1.1660  0.0512  0.2129
 5757SOL     OW28732   2.391   1.608   6.009 -0.0179  0.1419 -0.2385
 5757SOL    HW128733   2.340   1.686   6.029 -1.0303 -0.0514 -2.1532
 5757SOL    HW228734   2.333   1.561   5.950 -0.0254 -1.8158  1.2939
 5758SOL     OW28735   3.257   0.771   7.795  0.6001 -0.9174 -0.4234
 5758SOL    HW128736   3.178   0.821   7.776 -0.6292 -2.3942  0.7798
 5758SOL    HW228737   3.303   0.791   7.713  1.6848  1.1805  0.6859
 5759SOL     OW28738   3.306   1.507   2.338  0.1213 -0.3577  0.5159
 5759SOL    HW128739   3.273   1.459   2.262  1.6035 -3.1117  1.6124
 5759SOL    HW228740   3.369   1.566   2.296  0.0055 -0.2976  0.4263
 5760SOL     OW28741   0.251   3.885   0.609 -0.0328  0.6031  0.0960
 5760SOL    HW128742   0.307   3.916   0.681 -2.9913  0.4951  2.4395
 5760SOL    HW228743   0.240   3.961   0.553  0.1953  0.0329 -0.7218
 5761SOL     OW28744   0.116   3.788  10.992 -0.8689  0.0704 -0.2238
 5761SOL    HW128745   0.046   3.852  10.978  1.6652  2.8014 -0.3666
 5761SOL    HW228746   0.197   3.836  10.978 -0.1542 -1.4318 -1.2528
 5762SOL     OW28747   1.066   4.163   4.109  0.3994  0.9959 -0.3338
 5762SOL    HW128748   1.079   4.252   4.077  1.3412  0.3738 -1.6891
 5762SOL    HW228749   0.973   4.145   4.096  0.4096  1.2395 -0.7345
 5763SOL     OW28750   0.387   1.105   7.720 -0.0719 -0.8523  1.1790
 5763SOL    HW128751   0.407   1.137   7.808  1.1574 -1.0152  0.9618
 5763SOL    HW228752   0.477   1.101   7.688 -0.0160  1.3828  1.0423
 5764SOL     OW28753   2.438   3.318   5.525  0.1771  0.4281  0.1671
 5764SOL    HW128754   2.451   3.335   5.619 -1.8421  1.5803  0.2236
 5764SOL    HW228755   2.491   3.239   5.517 -0.4267  0.0811 -0.3728
 5765SOL     OW28756   1.975   3.827   5.092 -0.1373  0.2141 -0.0732
 5765SOL    HW128757   1.904   3.832   5.028  0.3780  1.8314 -0.5207
 5765SOL    HW228758   2.015   3.910   5.066 -0.5090 -0.1178 -1.7215
 5766SOL     OW28759   4.473   2.622   6.600  0.1833  0.2312  0.1136
 5766SOL    HW128760   4.560   2.618   6.638  0.3529 -0.0793 -0.2988
 5766SOL    HW228761   4.445   2.531   6.611 -0.2309 -0.2173 -4.4773
 5767SOL     OW28762   3.954   3.174   5.494  0.4528  0.0754  0.7422
 5767SOL    HW128763   3.875   3.128   5.524  1.1369 -2.0223 -0.7009
 5767SOL    HW228764   3.943   3.253   5.547 -0.5124  0.9755 -0.7994
 5768SOL     OW28765   4.683   2.477   7.822  0.0295  0.0299  0.5556
 5768SOL    HW128766   4.667   2.458   7.915  0.6369  0.2392  0.6974
 5768SOL    HW228767   4.605   2.526   7.796 -1.7377 -1.4043  3.0927
 5769SOL     OW28768   4.663   3.889  16.114 -0.0233 -0.1208 -0.1836
 5769SOL    HW128769   4.591   3.829  16.094 -0.9632  0.8089  0.4269
 5769SOL    HW228770   4.636   3.963  16.060 -0.1428 -0.8413 -1.1022
 5770SOL     OW28771   2.166   3.917   7.435 -0.1243  0.2469 -0.0167
 5770SOL    HW128772   2.118   3.858   7.495  0.2022 -0.2706 -0.2625
 5770SOL    HW228773   2.108   3.916   7.359 -0.7678  1.4755  0.4635
 5771SOL     OW28774   0.707   2.100  13.425 -0.0541  0.1398  0.0955
 5771SOL    HW128775   0.785   2.080  13.373 -0.4134  0.2866 -0.4928
 5771SOL    HW228776   0.689   2.023  13.478 -1.0309 -0.4739 -1.1435
 5772SOL     OW28777   3.543   3.752   5.740  0.1709  0.0242 -0.6471
 5772SOL    HW128778   3.513   3.669   5.776  0.7196  0.3541  0.5737
 5772SOL    HW228779   3.460   3.791   5.712  0.6818  0.1767 -1.9616
 5773SOL     OW28780   0.313   4.037   4.692 -0.3733 -0.7138 -0.1130
 5773SOL    HW128781   0.248   4.087   4.741  1.0169  1.1493 -0.1676
 5773SOL    HW228782   0.276   3.949   4.692 -1.6082 -0.2009 -0.2890
 5774SOL     OW28783   1.844   4.204   7.975  0.3824 -0.3795  0.5282
 5774SOL    HW128784   1.757   4.188   7.938  0.3762 -0.7194  0.6916
 5774SOL    HW228785   1.867   4.119   8.011 -2.5250 -1.1280  0.6695
 5775SOL     OW28786   3.895   0.278   3.473 -0.9226  0.8070  0.5866
 5775SOL    HW128787   3.922   0.215   3.407  0.0865 -0.3994  2.1590
 5775SOL    HW228788   3.976   0.310   3.512  0.4674 -2.0095 -0.0150
 5776SOL     OW28789   1.610   2.376  17.160 -0.2404 -0.1627 -0.2472
 5776SOL    HW128790   1.577   2.311  17.222 -0.8275  0.1061 -0.2763
 5776SOL    HW228791   1.582   2.459  17.199  1.2734 -1.6780  3.9565
 5777SOL     OW28792   2.531   4.164   7.162 -0.2868  0.1691  0.3353
 5777SOL    HW128793   2.450   4.142   7.116  0.1309  0.4922 -0.5572
 5777SOL    HW228794   2.517   4.135   7.252 -0.4236  1.7624  0.8243
 5778SOL     OW28795   3.543   4.351   7.746  0.3441 -0.3086 -0.2041
 5778SOL    HW128796   3.484   4.276   7.749 -0.3293  0.1802 -1.3789
 5778SOL    HW228797   3.541   4.374   7.839 -1.7339  0.7572 -0.5063
 5779SOL     OW28798   2.608   0.179   5.654  0.1574  0.2377 -0.0998
 5779SOL    HW128799   2.695   0.154   5.685 -0.0957  0.2310  0.6015
 5779SOL    HW228800   2.571   0.092   5.636 -1.3162  0.3290  2.4569
 5780SOL     OW28801   1.774   1.773   5.256  0.2473 -0.2219  0.0403
 5780SOL    HW128802   1.726   1.749   5.176  1.7573  1.3591 -1.3372
 5780SOL    HW228803   1.799   1.685   5.287  0.9551 -0.1087 -0.2115
 5781SOL     OW28804   3.037   1.322  16.586  0.2651  0.4108 -0.4614
 5781SOL    HW128805   3.001   1.372  16.659 -0.0925 -0.0876 -0.2972
 5781SOL    HW228806   2.989   1.240  16.589 -1.4926  1.4543  0.0463
 5782SOL     OW28807   2.163   4.584  10.128 -0.1457 -0.4287 -0.2482
 5782SOL    HW128808   2.128   4.598  10.040 -1.0008  1.0429  0.3202
 5782SOL    HW228809   2.171   4.489  10.126  0.8021 -0.4074  1.9913
 5783SOL     OW28810   0.328   3.339  12.488 -0.0435 -0.0300 -0.4506
 5783SOL    HW128811   0.321   3.292  12.405 -1.3007 -0.3788 -0.1477
 5783SOL    HW228812   0.299   3.268  12.545 -0.8435 -0.6419 -1.6136
 5784SOL     OW28813   1.154   1.239  10.509 -0.2985 -0.0349 -0.1115
 5784SOL    HW128814   1.197   1.187  10.441  0.7338  0.0881  0.4582
 5784SOL    HW228815   1.200   1.322  10.503 -2.2424  1.0498 -0.1094
 5785SOL     OW28816   4.476   3.857   4.624 -0.1138  0.2346 -0.1984
 5785SOL    HW128817   4.418   3.808   4.682  0.8968 -1.8420 -0.9051
 5785SOL    HW228818   4.451   3.826   4.537 -0.1886 -0.5743  0.1084
 5786SOL     OW28819   1.237   2.912  10.584  0.4796 -0.3023 -0.5108
 5786SOL    HW128820   1.303   2.866  10.634 -2.7908  0.5613  4.5759
 5786SOL    HW228821   1.165   2.851  10.600  0.6398 -0.6623 -1.1284
 5787SOL     OW28822   2.086   1.746   8.450 -0.5233 -0.1800  0.4688
 5787SOL    HW128823   2.068   1.826   8.400  0.6538  1.4182  2.5991
 5787SOL    HW228824   2.135   1.783   8.523  0.0650  0.6563 -0.3497
 5788SOL     OW28825   0.919   0.764  15.139 -0.6957 -0.1384  0.6077
 5788SOL    HW128826   0.980   0.692  15.153  1.3706  1.7335  1.1370
 5788SOL    HW228827   0.858   0.728  15.075 -0.6278  1.5378 -0.4127
 5789SOL     OW28828   1.660   3.597   9.282 -0.4171 -0.2408 -0.1288
 5789SOL    HW128829   1.593   3.563   9.222  0.8687 -1.5882 -0.8153
 5789SOL    HW228830   1.599   3.648   9.333  0.5509  1.9666 -1.1924
 5790SOL     OW28831   3.856   3.916  14.567 -0.1747 -0.5836 -0.0686
 5790SOL    HW128832   3.908   3.922  14.647  0.0922  0.2306 -0.3046
 5790SOL    HW228833   3.881   3.834  14.524  1.6184  1.1586 -2.2847
 5791SOL     OW28834   2.163   4.533  12.404 -0.2035 -0.5053 -0.2015
 5791SOL    HW128835   2.221   4.539  12.480  0.2353 -0.1294 -0.5636
 5791SOL    HW228836   2.227   4.520  12.334 -3.5826  1.4002 -3.6738
 5792SOL     OW28837   2.378   1.702   0.388 -0.0262 -0.1608  0.1774
 5792SOL    HW128838   2.340   1.790   0.394  0.3981  0.0845 -0.6945
 5792SOL    HW228839   2.370   1.675   0.479  1.1960  2.4703  1.0628
 5793SOL     OW28840   2.257   0.442   6.477 -1.0524  0.1995  0.1277
 5793SOL    HW128841   2.341   0.412   6.511 -1.4809 -1.4650 -0.2951
 5793SOL    HW228842   2.197   0.375   6.511 -2.9635  1.5085 -0.6503
 5794SOL     OW28843   0.809   4.054   7.453  0.0346  0.6048 -0.2482
 5794SOL    HW128844   0.867   4.100   7.392  0.2341 -2.0050 -2.0251
 5794SOL    HW228845   0.875   4.017   7.512 -0.3992 -1.0914 -0.8201
 5795SOL     OW28846   2.306   3.838  10.740  0.4036  0.5440  0.0650
 5795SOL    HW128847   2.343   3.781  10.673 -0.6599 -2.2041  1.7958
 5795SOL    HW228848   2.231   3.779  10.744 -0.6076  1.9331  1.4601
 5796SOL     OW28849   2.096   3.967   1.156  0.0198 -0.3274  0.0823
 5796SOL    HW128850   2.188   3.995   1.157 -0.2689  0.6179  0.3424
 5796SOL    HW228851   2.066   4.014   1.234  0.9602 -0.2690  0.4147
 5797SOL     OW28852   1.342   1.024   4.396 -0.0427 -0.4456  0.8169
 5797SOL    HW128853   1.315   1.114   4.416 -0.8890 -0.6544  0.6168
 5797SOL    HW228854   1.425   1.035   4.349  0.9654 -1.1868  2.4488
 5798SOL     OW28855   3.683   1.723   8.149  0.0082  0.3849 -0.2116
 5798SOL    HW128856   3.648   1.807   8.177  0.4976 -0.1820  2.0628
 5798SOL    HW228857   3.611   1.689   8.096 -0.1905 -1.6326  1.3720
 5799SOL     OW28858   3.565   2.721  16.219 -0.0669 -0.1982  0.3476
 5799SOL    HW128859   3.652   2.699  16.250  0.0590  0.9253  0.7733
 5799SOL    HW228860   3.560   2.815  16.234  0.1035  0.4483 -3.4768
 5800SOL     OW28861   1.968   0.356  12.408  0.0363 -0.4490 -0.1922
 5800SOL    HW128862   1.968   0.265  12.378  0.9607 -0.5374  0.0638
 5800SOL    HW228863   1.943   0.388  12.321 -0.8491  0.0361  0.2498
 5801SOL     OW28864   0.592   0.832   3.992 -0.2092 -0.5497 -0.0466
 5801SOL    HW128865   0.538   0.821   4.070 -1.4457  1.8756 -0.5604
 5801SOL    HW228866   0.525   0.823   3.925  1.2180 -0.8367 -1.4378
 5802SOL     OW28867   2.170   2.599  10.572  0.2862 -0.7572 -0.3248
 5802SOL    HW128868   2.084   2.563  10.592 -1.1224  2.7792 -0.0707
 5802SOL    HW228869   2.187   2.647  10.652 -0.9513  1.4957 -1.4296
 5803SOL     OW28870   0.003   3.154  12.862 -0.4381 -0.7536 -0.3410
 5803SOL    HW128871   4.719   3.119  12.951 -0.2841 -2.4936 -1.0097
 5803SOL    HW228872   4.659   3.220  12.855  0.6535  0.1651 -2.0966
 5804SOL     OW28873   1.188   2.580  15.274  0.1483 -0.7565 -0.5866
 5804SOL    HW128874   1.162   2.489  15.258 -0.5065 -0.2602 -2.2804
 5804SOL    HW228875   1.211   2.624  15.192 -2.0376  0.3446 -0.5997
 5805SOL     OW28876   1.144   0.376   2.894 -0.1837  0.2336 -0.1113
 5805SOL    HW128877   1.193   0.409   2.819 -0.0102  0.9513  0.3113
 5805SOL    HW228878   1.208   0.398   2.962 -0.2875 -0.5145  0.2303
 5806SOL     OW28879   2.139   1.946   6.547  0.6767  0.9584  0.0520
 5806SOL    HW128880   2.189   1.978   6.472  0.5599 -1.3970 -1.0426
 5806SOL    HW228881   2.200   1.894   6.600 -0.1619  0.9117  0.9818
 5807SOL     OW28882   2.365   4.216   4.334  1.1146  0.2148  0.0662
 5807SOL    HW128883   2.438   4.221   4.272  0.8417  0.8156 -0.2059
 5807SOL    HW228884   2.315   4.146   4.293 -0.8638  1.3197  0.5718
 5808SOL     OW28885   3.360   0.064  14.016  0.3128 -0.1380 -0.2792
 5808SOL    HW128886   3.446   0.098  13.992 -0.2184  1.5511  0.2394
 5808SOL    HW228887   3.333   0.022  13.934  1.9817  0.7456 -1.2720
 5809SOL     OW28888   3.196   2.325   7.917  0.3692 -0.3045 -0.1147
 5809SOL    HW128889   3.101   2.328   7.929  0.5545  1.0732  1.0229
 5809SOL    HW228890   3.207   2.271   7.838 -1.3871 -1.0168  0.1244
 5810SOL     OW28891   0.303   2.969   8.111  0.4284  0.2463  0.0968
 5810SOL    HW128892   0.258   2.981   8.195  2.4205 -2.5273  1.5490
 5810SOL    HW228893   0.384   2.920   8.122  1.7280  2.1774 -0.8814
 5811SOL     OW28894   4.143   4.615   1.929  0.3996  0.2454 -0.3163
 5811SOL    HW128895   4.108   4.661   2.005  0.8089  0.8245 -0.4821
 5811SOL    HW228896   4.065   4.568   1.899  1.1179 -1.9199  1.2546
 5812SOL     OW28897   2.069   3.959   6.107 -0.0474  0.4337  0.1709
 5812SOL    HW128898   2.129   3.912   6.049  0.0226 -1.3724  1.7014
 5812SOL    HW228899   2.003   3.993   6.047  1.5929  3.3680  0.0577
 5813SOL     OW28900   1.472   3.846  11.534 -0.3221 -0.0005  0.1389
 5813SOL    HW128901   1.449   3.754  11.545 -2.7981  0.6431  0.3238
 5813SOL    HW228902   1.475   3.856  11.439 -2.3467 -0.1462  0.0725
 5814SOL     OW28903   0.369   1.914  17.134  0.3083  0.1607  0.2901
 5814SOL    HW128904   0.356   1.927  17.228 -1.0776  0.9909 -0.0098
 5814SOL    HW228905   0.283   1.931  17.096 -0.8202 -0.3785  2.6200
 5815SOL     OW28906   0.990   0.981   2.953 -0.1785  0.6906  0.5309
 5815SOL    HW128907   0.978   1.007   2.862  3.0949  0.5665  0.0556
 5815SOL    HW228908   1.078   0.943   2.945 -0.2949  0.5179  0.0673
 5816SOL     OW28909   0.722   3.668  12.886  0.0363 -0.2750  0.5334
 5816SOL    HW128910   0.708   3.694  12.795 -0.6960  0.6548  0.9157
 5816SOL    HW228911   0.741   3.759  12.910 -1.1101  0.1197 -0.0621
 5817SOL     OW28912   1.801   4.431  16.975  0.0112  0.8174  0.6385
 5817SOL    HW128913   1.750   4.416  17.054 -1.4904 -0.0258 -0.4865
 5817SOL    HW228914   1.871   4.366  16.982 -0.4512  0.1255 -1.1459
 5818SOL     OW28915   4.033   1.217   7.137  0.5165  0.7876 -0.4586
 5818SOL    HW128916   4.099   1.179   7.195  3.2150  3.1315 -2.0005
 5818SOL    HW228917   3.979   1.270   7.197  2.4772  0.5631  1.5107
 5819SOL     OW28918   3.397   4.660   4.770 -0.1694 -0.1962  0.2672
 5819SOL    HW128919   3.411   4.569   4.745 -1.3560  0.1866 -1.8528
 5819SOL    HW228920   3.485   4.681   4.799  0.2806 -0.2276 -1.0495
 5820SOL     OW28921   4.094   3.649   7.869  0.5159  0.2257  0.3396
 5820SOL    HW128922   4.046   3.573   7.836  1.5855 -0.7332  0.9786
 5820SOL    HW228923   4.049   3.723   7.829  0.3255 -0.4544 -0.6938
 5821SOL     OW28924   3.556   1.507   6.280 -0.2907  0.4495  0.1336
 5821SOL    HW128925   3.587   1.425   6.243 -2.2691 -0.1688 -0.1558
 5821SOL    HW228926   3.461   1.505   6.267  0.0979  0.1152 -2.5169
 5822SOL     OW28927   2.738   0.419   1.799  0.2843  0.0368 -0.5031
 5822SOL    HW128928   2.731   0.471   1.879 -0.9067 -1.2770  0.2453
 5822SOL    HW228929   2.786   0.477   1.740 -0.2203  0.2006 -0.7507
 5823SOL     OW28930   1.537   4.447   3.911  0.5645  0.5223 -0.2126
 5823SOL    HW128931   1.496   4.507   3.974  0.1832  0.0161  0.0150
 5823SOL    HW228932   1.534   4.494   3.827 -0.8900 -0.7323 -0.8413
 5824SOL     OW28933   4.453   2.660  16.739  0.2831 -0.0374  0.5708
 5824SOL    HW128934   4.488   2.731  16.792 -0.1478  0.6434 -0.0520
 5824SOL    HW228935   4.526   2.640  16.679  0.3125  1.4100  0.1284
 5825SOL     OW28936   1.125   2.727   8.007 -0.5889 -0.6037  0.9533
 5825SOL    HW128937   1.191   2.661   8.028  1.4070  1.1113  0.1066
 5825SOL    HW228938   1.113   2.762   8.095 -0.0885  0.3736  0.6405
 5826SOL     OW28939   4.076   4.609   3.570  0.3821 -0.1208 -0.0286
 5826SOL    HW128940   4.010   4.594   3.502  0.6087  1.3042 -0.5462
 5826SOL    HW228941   4.027   4.575   3.646 -2.1605 -0.3653 -1.7807
 5827SOL     OW28942   3.666   2.505  15.223  0.0217 -0.7020 -0.0579
 5827SOL    HW128943   3.658   2.548  15.137 -0.9931 -2.3219 -0.7675
 5827SOL    HW228944   3.689   2.414  15.208  1.5018 -0.2930 -0.3081
 5828SOL     OW28945   4.673   1.136   3.221 -0.3325  0.3351  0.0361
 5828SOL    HW128946   0.039   1.108   3.232 -0.6410 -1.0747 -1.0235
 5828SOL    HW228947   4.671   1.218   3.269  1.4368 -0.5251  1.5841
 5829SOL     OW28948   3.465   2.873   4.629  0.3096 -0.0544 -0.1581
 5829SOL    HW128949   3.486   2.902   4.540  0.7473 -0.1917 -0.0982
 5829SOL    HW228950   3.372   2.860   4.607  0.1698  2.5145 -1.0661
 5830SOL     OW28951   0.875   3.382  12.418  0.5056  0.0117 -0.3861
 5830SOL    HW128952   0.918   3.356  12.337 -1.0216  1.7196 -1.7503
 5830SOL    HW228953   0.787   3.401  12.385  0.9410 -0.2554 -1.7149
 5831SOL     OW28954   3.572   4.529   8.954  0.2390 -0.3020 -0.3606
 5831SOL    HW128955   3.657   4.521   8.996 -1.1646 -4.0198  1.7428
 5831SOL    HW228956   3.567   4.441   8.917  1.6240 -0.3976 -0.3282
 5832SOL     OW28957   4.257   2.143   6.703  0.7030 -0.2860  0.5444
 5832SOL    HW128958   4.171   2.109   6.729  0.8931 -0.0955  1.3931
 5832SOL    HW228959   4.278   2.076   6.638  1.2139  0.1907  0.2125
 5833SOL     OW28960   4.182   1.244   0.741  0.0344  0.9311  0.5882
 5833SOL    HW128961   4.099   1.279   0.773  0.7597  2.1738  1.1090
 5833SOL    HW228962   4.188   1.292   0.658 -0.0230 -2.1373 -1.2056
 5834SOL     OW28963   1.361   0.857   7.212  0.0229  0.0071 -0.0347
 5834SOL    HW128964   1.350   0.762   7.211  3.4272 -0.3658 -2.0907
 5834SOL    HW228965   1.292   0.881   7.273  0.7339  2.5227 -0.2170
 5835SOL     OW28966   4.681   2.090   9.196  0.5338 -0.2309  0.3468
 5835SOL    HW128967   4.691   2.186   9.193 -0.8706 -0.0787  0.1912
 5835SOL    HW228968   4.703   2.076   9.288 -1.6348 -1.2008  0.7199
 5836SOL     OW28969   2.573   3.158   8.602  0.6452  0.2517 -0.3970
 5836SOL    HW128970   2.533   3.078   8.570  0.2297  0.0286  0.6718
 5836SOL    HW228971   2.654   3.117   8.633 -0.3656 -0.8690  0.7505
 5837SOL     OW28972   1.825   1.016  12.039 -0.7524  0.2358 -0.2383
 5837SOL    HW128973   1.867   1.058  11.963 -2.6166  1.5342 -0.5647
 5837SOL    HW228974   1.844   0.926  12.013 -0.3575  0.3251 -0.2597
 5838SOL     OW28975   4.544   3.956   3.621  0.2184  0.4866  0.0168
 5838SOL    HW128976   4.626   4.001   3.643  1.4581 -1.6436 -0.1699
 5838SOL    HW228977   4.533   3.986   3.530  0.8217  0.4330 -0.0776
 5839SOL     OW28978   3.903   1.142   3.427 -0.3252  0.4425  0.0844
 5839SOL    HW128979   3.951   1.154   3.346  0.5736  4.5031  1.2405
 5839SOL    HW228980   3.976   1.154   3.488  1.0237  0.8642 -1.6208
 5840SOL     OW28981   0.174   1.707   8.940  0.0330 -0.5944 -0.3242
 5840SOL    HW128982   0.126   1.637   8.985 -1.2622  0.4237 -0.1098
 5840SOL    HW228983   0.114   1.729   8.869  0.4399  1.2983 -0.0888
 5841SOL     OW28984   0.644   4.157  12.075  0.4461  0.0174  0.3917
 5841SOL    HW128985   0.727   4.127  12.113  1.0530 -0.0159 -0.9569
 5841SOL    HW228986   0.633   4.134  11.983  2.0757 -2.1686  0.7527
 5842SOL     OW28987   1.278   3.441   0.890 -0.5529  0.5175  0.6244
 5842SOL    HW128988   1.250   3.526   0.855  0.6296  0.1260 -1.2717
 5842SOL    HW228989   1.243   3.422   0.977 -0.8962 -2.2313 -0.1364
 5843SOL     OW28990   0.873   0.827   5.530 -0.2110  0.2823 -0.3159
 5843SOL    HW128991   0.904   0.916   5.510  2.1055 -0.4085  0.1590
 5843SOL    HW228992   0.944   0.768   5.506 -1.2534 -1.1106  0.0087
 5844SOL     OW28993   1.147   1.172   8.891 -0.1013 -0.8284 -0.0912
 5844SOL    HW128994   1.086   1.117   8.841 -0.7958 -0.3602  0.2388
 5844SOL    HW228995   1.088   1.246   8.909 -0.7605 -1.5985  0.9428
 5845SOL     OW28996   2.768   4.004   6.064  0.1051  0.1108  0.2221
 5845SOL    HW128997   2.690   4.025   6.115 -1.1023 -0.2566 -1.4802
 5845SOL    HW228998   2.751   3.913   6.039 -0.2615  0.7376 -1.8712
 5846SOL     OW28999   1.598   0.600   8.319  0.0795  0.3603  0.2245
 5846SOL    HW129000   1.579   0.674   8.377 -1.1957  0.8829 -0.8643
 5846SOL    HW229001   1.522   0.612   8.261  0.8164 -2.2727 -1.2807
 5847SOL     OW29002   4.149   4.497   7.386  0.1512  0.3167 -0.2005
 5847SOL    HW129003   4.132   4.403   7.381 -3.1047  0.7647  1.9693
 5847SOL    HW229004   4.099   4.515   7.466 -1.2565 -1.1444 -0.7412
 5848SOL     OW29005   0.855   0.794   4.859  0.4262  0.1662 -0.7312
 5848SOL    HW129006   0.909   0.716   4.872  1.7975  1.1321 -0.6626
 5848SOL    HW229007   0.918   0.847   4.810  2.6854 -0.5562  1.3907
 5849SOL     OW29008   3.152   2.686  11.969 -0.3668  0.0845 -0.4728
 5849SOL    HW129009   3.209   2.668  11.895  1.1709 -2.8685  1.4299
 5849SOL    HW229010   3.131   2.594  11.982 -0.5164  0.2364  0.3911
 5850SOL     OW29011   1.249   0.676  17.506 -0.2993  0.2802 -0.4725
 5850SOL    HW129012   1.287   0.616  17.571 -1.0005  0.4857  0.1361
 5850SOL    HW229013   1.322   0.677  17.445 -0.5490 -0.6021 -0.7885
 5851SOL     OW29014   1.230   4.508   4.298  0.3767 -0.3967  0.2415
 5851SOL    HW129015   1.165   4.444   4.271  1.1370  0.3959 -3.4519
 5851SOL    HW229016   1.179   4.583   4.331  0.6130  0.5741 -1.5991
 5852SOL     OW29017   0.287   1.418  17.655 -0.3253 -0.2301  0.4774
 5852SOL    HW129018   0.233   1.449  17.583  1.1419  0.4589 -0.3196
 5852SOL    HW229019   0.347   1.492  17.653  0.1830 -0.7077 -1.6618
 5853SOL     OW29020   3.782   3.694   4.466  0.3722  0.3143  0.0219
 5853SOL    HW129021   3.853   3.749   4.500  0.2693  1.1411 -1.1148
 5853SOL    HW229022   3.787   3.639   4.544  1.5225  0.4181  0.0292
 5854SOL     OW29023   1.076   0.053   3.417 -0.2301 -0.2830 -0.2031
 5854SOL    HW129024   0.988   0.020   3.399  0.3218 -1.9921  0.2753
 5854SOL    HW229025   1.058   0.120   3.484  1.7269  1.1997 -1.1471
 5855SOL     OW29026   3.823   4.386   1.686 -0.5531  0.1508  0.0642
 5855SOL    HW129027   3.859   4.424   1.766 -1.4216  1.2061 -0.0302
 5855SOL    HW229028   3.759   4.331   1.731 -3.4711  0.8372 -3.2010
 5856SOL     OW29029   3.898   1.212  16.101 -0.1654 -0.3343  0.6498
 5856SOL    HW129030   3.954   1.171  16.167  1.5923  1.0752  0.0610
 5856SOL    HW229031   3.963   1.230  16.032 -0.8974  0.1347  0.0852
 5857SOL     OW29032   3.619   4.106   3.309 -0.7806 -0.8035 -0.1453
 5857SOL    HW129033   3.695   4.157   3.284 -0.8470  0.0858  1.4797
 5857SOL    HW229034   3.582   4.152   3.384  0.7599 -1.9236  1.2847
 5858SOL     OW29035   0.727   0.507   1.712  0.2295 -0.5640 -0.2134
 5858SOL    HW129036   0.688   0.446   1.649  0.5948 -0.0024 -0.9640
 5858SOL    HW229037   0.795   0.547   1.659  0.1457  0.9762  0.8602
 5859SOL     OW29038   0.369   4.562  17.596  0.1889 -0.1259 -0.1255
 5859SOL    HW129039   0.338   4.601  17.514 -0.8209  1.3832  0.9692
 5859SOL    HW229040   0.365   4.472  17.563  1.5554 -0.3029  0.2207
 5860SOL     OW29041   3.937   3.673   4.872  0.3511 -0.1063  0.3712
 5860SOL    HW129042   3.967   3.620   4.798  1.6724  2.8083 -1.1772
 5860SOL    HW229043   3.931   3.604   4.938  0.1848  0.5618  1.0413
 5861SOL     OW29044   0.389   2.076  16.723 -0.6283 -0.2521 -0.1561
 5861SOL    HW129045   0.355   2.106  16.807 -2.2506 -2.2259 -0.0971
 5861SOL    HW229046   0.405   2.164  16.689 -0.9182  0.0879  0.6020
 5862SOL     OW29047   0.516   1.736   1.495  0.1174 -0.3627 -0.3548
 5862SOL    HW129048   0.473   1.809   1.451 -1.5998  0.0628  2.0415
 5862SOL    HW229049   0.529   1.683   1.417  1.0505 -2.2035  1.0363
 5863SOL     OW29050   3.912   2.155   9.188 -0.1824  0.1334 -0.7532
 5863SOL    HW129051   3.918   2.228   9.250 -2.1872  0.1313 -0.5468
 5863SOL    HW229052   3.871   2.099   9.254  2.0026  0.8834  1.2644
 5864SOL     OW29053   1.894   4.531  12.000  0.1026  0.6321  0.0754
 5864SOL    HW129054   1.972   4.492  11.961 -0.0068  2.8117 -2.3352
 5864SOL    HW229055   1.899   4.620  11.966  2.3382  0.7143  0.6218
 5865SOL     OW29056   1.920   3.764   9.676 -0.1813  0.2215 -0.1709
 5865SOL    HW129057   1.872   3.770   9.758  0.2723 -1.3216  0.2070
 5865SOL    HW229058   1.996   3.822   9.680  1.3069 -1.7162 -0.2024
 5866SOL     OW29059   2.612   4.684   6.505  0.3259 -0.8203  0.1841
 5866SOL    HW129060   2.647   4.598   6.529 -1.1437 -1.6669 -0.7359
 5866SOL    HW229061   2.643   4.689   6.415  4.0130  0.4953  1.5211
 5867SOL     OW29062   0.841   3.030  12.374  0.2782  0.1811 -0.1662
 5867SOL    HW129063   0.868   2.983  12.295 -0.6267 -2.6187  1.2148
 5867SOL    HW229064   0.794   3.098  12.326  0.4326 -0.6909 -1.5611
 5868SOL     OW29065   2.793   4.707   8.704 -0.2715  0.1025  0.3514
 5868SOL    HW129066   2.886   4.721   8.685 -0.6946  0.9878 -0.9939
 5868SOL    HW229067   2.764   4.681   8.617  0.4619  0.5788 -0.0288
 5869SOL     OW29068   1.213   1.021   5.126 -0.0369  0.0092 -0.0832
 5869SOL    HW129069   1.195   1.062   5.042 -0.9093  0.3379  0.2650
 5869SOL    HW229070   1.221   0.930   5.096  0.0572 -0.7667  2.2698
 5870SOL     OW29071   2.457   2.391   4.230  0.6185  0.7405 -0.2066
 5870SOL    HW129072   2.436   2.311   4.183 -2.6801  1.2123  0.4919
 5870SOL    HW229073   2.394   2.381   4.300  2.2112 -0.3859  1.0647
 5871SOL     OW29074   1.158   0.814   4.441 -0.4599  0.3809  0.6518
 5871SOL    HW129075   1.225   0.881   4.425 -0.2092  0.0072  0.1570
 5871SOL    HW229076   1.222   0.748   4.469 -0.2031  1.0164  1.5714
 5872SOL     OW29077   1.413   3.335  12.688  0.1534  0.2691  0.2023
 5872SOL    HW129078   1.410   3.431  12.681 -0.5638 -0.0783 -3.6837
 5872SOL    HW229079   1.506   3.316  12.678  0.4109  2.1182 -0.9672
 5873SOL     OW29080   1.753   1.593   7.721 -0.2976 -0.6299 -0.5432
 5873SOL    HW129081   1.773   1.591   7.627 -0.6668  0.2849 -0.6414
 5873SOL    HW229082   1.781   1.684   7.727 -1.0783 -0.2027 -3.4689
 5874SOL     OW29083   1.020   1.291  15.910  0.5092  0.6317 -0.0119
 5874SOL    HW129084   0.956   1.229  15.877 -0.2145  1.3829 -0.0267
 5874SOL    HW229085   1.019   1.363  15.847 -2.5995 -1.7669 -2.6505
 5875SOL     OW29086   4.642   1.027   2.113  0.2878 -0.0303  0.6898
 5875SOL    HW129087   0.005   0.998   2.091  0.0914  0.6080 -0.9373
 5875SOL    HW229088   4.652   1.107   2.165  0.9544 -0.4767  1.2350
 5876SOL     OW29089   3.342   3.006   6.210 -0.1371 -0.2021 -0.0483
 5876SOL    HW129090   3.326   3.052   6.128 -0.3055 -1.7932 -0.9056
 5876SOL    HW229091   3.430   2.969   6.197  0.2025  0.3684  0.6198
 5877SOL     OW29092   2.711   1.832  10.650 -0.5800  0.2461 -0.3375
 5877SOL    HW129093   2.618   1.828  10.630 -0.7203  0.1677  0.3323
 5877SOL    HW229094   2.719   1.816  10.744  0.1388  1.2663 -0.2298
 5878SOL     OW29095   1.465   2.226   5.503  0.0776 -0.0776  0.3019
 5878SOL    HW129096   1.372   2.247   5.513 -0.1748 -0.2137 -1.8897
 5878SOL    HW229097   1.467   2.140   5.545  0.7324 -1.0185 -1.6856
 5879SOL     OW29098   4.556   3.263  10.827 -0.3005  0.3337 -0.4597
 5879SOL    HW129099   4.523   3.248  10.915 -2.0209  0.0329 -1.1514
 5879SOL    HW229100   4.563   3.173  10.795 -0.2012  0.6910 -1.4337
 5880SOL     OW29101   4.214   4.429   3.904  0.0129  0.0448 -0.3581
 5880SOL    HW129102   4.124   4.451   3.881  0.8426  0.0333 -3.5972
 5880SOL    HW229103   4.224   4.426   3.999 -1.3617  2.5187 -0.1395
 5881SOL     OW29104   1.014   3.407   0.771 -0.0629  0.4435  0.2988
 5881SOL    HW129105   0.933   3.373   0.810  1.2087 -0.4285  2.1463
 5881SOL    HW229106   1.059   3.447   0.845  0.8129 -1.0584  0.5788
 5882SOL     OW29107   0.318   2.326  12.682  0.2009  0.0693  0.5086
 5882SOL    HW129108   0.404   2.356  12.654  0.2952  0.2143  0.9565
 5882SOL    HW229109   0.287   2.402  12.731 -3.5104 -1.3531  0.3919
 5883SOL     OW29110   3.821   4.207   0.057 -0.2534 -0.6313 -0.0438
 5883SOL    HW129111   3.886   4.141   0.080  1.8594  1.0073 -1.3735
 5883SOL    HW229112   3.824   4.274   0.126 -0.4557 -0.1438 -0.5113
 5884SOL     OW29113   3.584   1.474   3.726 -0.1992  0.0676  0.0614
 5884SOL    HW129114   3.580   1.472   3.821  0.0818 -1.0937  0.0478
 5884SOL    HW229115   3.633   1.393   3.709 -0.9422 -0.4911  0.5628
 5885SOL     OW29116   4.486   2.111   1.776  0.2976  0.0928  0.2786
 5885SOL    HW129117   4.462   2.156   1.694 -2.3712 -0.1151  0.9333
 5885SOL    HW229118   4.398   2.094   1.810  0.6157 -1.6783  0.2085
 5886SOL     OW29119   4.219   0.790   9.642  0.4288  0.8771 -0.0047
 5886SOL    HW129120   4.224   0.814   9.550  1.8441  1.7359  0.3064
 5886SOL    HW229121   4.235   0.873   9.687 -0.2779  1.9891 -1.8068
 5887SOL     OW29122   0.008   0.842   8.970  0.0090 -0.3632  0.1782
 5887SOL    HW129123   0.008   0.798   8.885  1.7905  1.9506 -1.0161
 5887SOL    HW229124   0.045   0.923   8.935  3.4142 -2.1654 -0.3741
 5888SOL     OW29125   2.709   1.843   1.224  0.3865  0.5031 -0.5020
 5888SOL    HW129126   2.700   1.757   1.265 -1.2499  1.3281  0.8642
 5888SOL    HW229127   2.741   1.891   1.300 -2.3757 -0.6362  1.3806
 5889SOL     OW29128   2.974   3.692   3.952  0.0790 -0.3031  0.5677
 5889SOL    HW129129   2.974   3.598   3.970 -0.0349  0.1172  2.8599
 5889SOL    HW229130   2.886   3.705   3.987 -0.5824 -0.9368 -0.8846
 5890SOL     OW29131   3.042   0.022   2.274 -0.3870  0.2145 -0.7179
 5890SOL    HW129132   2.952   0.046   2.298 -0.6651 -1.5149 -0.0415
 5890SOL    HW229133   3.067   0.092   2.214  2.0963 -0.9118 -0.9850
 5891SOL     OW29134   2.997   2.946   1.833  0.2958 -0.5096  0.2981
 5891SOL    HW129135   2.910   2.984   1.818  0.6942  0.2909  0.0485
 5891SOL    HW229136   3.045   2.962   1.752 -0.0141 -1.7983 -0.1502
 5892SOL     OW29137   0.507   3.554   5.085 -1.0518  0.1796  0.5281
 5892SOL    HW129138   0.584   3.548   5.028  1.0994  0.1185  3.4055
 5892SOL    HW229139   0.558   3.546   5.166 -0.5463 -3.0658 -0.1086
 5893SOL     OW29140   1.106   3.135  16.163  0.1266  0.3464 -0.2607
 5893SOL    HW129141   1.091   3.061  16.222 -1.2586  1.0987  0.3427
 5893SOL    HW229142   1.197   3.158  16.181 -0.0640  0.7122  0.2373
 5894SOL     OW29143   1.528   2.786   8.951  0.4965  0.1475 -0.1191
 5894SOL    HW129144   1.444   2.794   8.996  0.5947  0.2593  0.0436
 5894SOL    HW229145   1.532   2.875   8.917 -2.1472  0.6377  0.8731
 5895SOL     OW29146   2.801   3.779  11.123 -0.1316 -0.2846  0.4603
 5895SOL    HW129147   2.813   3.836  11.047 -3.4985  0.8881  0.7531
 5895SOL    HW229148   2.879   3.725  11.122  0.3048  0.3614 -1.9610
 5896SOL     OW29149   3.211   2.739   5.145 -0.2653  0.9046  0.4109
 5896SOL    HW129150   3.121   2.745   5.113 -0.3478  2.0554  0.8501
 5896SOL    HW229151   3.214   2.650   5.179 -0.8365  1.5583  2.2097
 5897SOL     OW29152   3.911   4.522   9.342  0.2137 -0.0932 -0.4496
 5897SOL    HW129153   3.905   4.437   9.385  2.0280 -0.2056 -0.4205
 5897SOL    HW229154   3.832   4.568   9.371 -2.1396 -2.3327 -3.2616
 5898SOL     OW29155   1.633   2.095   9.148  0.0626 -0.4081  0.5939
 5898SOL    HW129156   1.718   2.136   9.137  1.1218 -2.3907  1.3040
 5898SOL    HW229157   1.638   2.001   9.130 -0.3122 -0.6037  1.5101
 5899SOL     OW29158   3.208   4.137   6.677  0.0185  0.8413  0.1260
 5899SOL    HW129159   3.289   4.189   6.677 -1.8076  3.6413  0.4458
 5899SOL    HW229160   3.226   4.061   6.733  1.5745  1.8812  1.0478
 5900SOL     OW29161   1.924   3.638   2.825  0.5778 -0.1342  0.1583
 5900SOL    HW129162   1.851   3.584   2.855  0.2738  0.2642  0.1418
 5900SOL    HW229163   1.906   3.648   2.732  1.2921  0.3985  0.0756
 5901SOL     OW29164   0.930   1.605   8.767  0.2312 -0.5342  0.1420
 5901SOL    HW129165   0.963   1.672   8.708 -1.4035  0.8400  0.7888
 5901SOL    HW229166   0.843   1.586   8.731 -0.6518  0.2053  1.9057
 5902SOL     OW29167   2.773   1.856   8.665 -0.2575 -0.2718 -0.2273
 5902SOL    HW129168   2.723   1.786   8.623 -0.8125  0.2254 -0.3970
 5902SOL    HW229169   2.846   1.805   8.699 -0.9125 -0.9555  0.1473
 5903SOL     OW29170   3.870   0.334   3.063  0.0222  0.6443  0.0118
 5903SOL    HW129171   3.797   0.382   3.103  2.1297  2.8903  1.1544
 5903SOL    HW229172   3.920   0.407   3.028 -1.8057  1.1250 -1.6200
 5904SOL     OW29173   1.044   2.822   6.666 -0.3499  0.4582  0.2324
 5904SOL    HW129174   1.112   2.761   6.695 -0.8768 -0.2661 -0.0384
 5904SOL    HW229175   0.970   2.761   6.658 -0.6722  0.8569  0.1934
 5905SOL     OW29176   4.349   0.344   7.838  0.4586  0.6892 -0.3995
 5905SOL    HW129177   4.345   0.248   7.839 -0.0347  0.6987 -1.0123
 5905SOL    HW229178   4.259   0.362   7.866  0.3929  0.5092 -0.4969
 5906SOL     OW29179   4.426   4.564  15.987  0.6389  0.0712 -0.6191
 5906SOL    HW129180   4.487   4.502  16.027  1.3782  0.0393 -1.8102
 5906SOL    HW229181   4.479   4.625  15.935  2.0540  0.9347  1.7998
 5907SOL     OW29182   3.601   1.171   0.600  0.1036 -0.1769 -0.2915
 5907SOL    HW129183   3.694   1.174   0.578  0.4926 -0.4862  1.3000
 5907SOL    HW229184   3.570   1.220   0.524  0.2284 -0.9471 -0.8409
 5908SOL     OW29185   2.256   1.756   6.253 -0.3015 -0.0972  0.6085
 5908SOL    HW129186   2.211   1.673   6.271  0.6056 -0.9646 -1.0947
 5908SOL    HW229187   2.305   1.769   6.334  1.0159 -0.1008 -0.1968
 5909SOL     OW29188   3.375   2.430   0.620  0.0998 -0.3091  0.0549
 5909SOL    HW129189   3.416   2.508   0.657  1.4612 -1.9043  1.8994
 5909SOL    HW229190   3.452   2.385   0.586 -0.2289 -2.2724  1.9457
 5910SOL     OW29191   4.171   4.396  14.616  0.0184  0.1020  0.2433
 5910SOL    HW129192   4.245   4.454  14.601  1.0206 -0.6056  2.4350
 5910SOL    HW229193   4.211   4.313  14.592 -1.1839 -0.5083  0.3134
 5911SOL     OW29194   1.822   3.820   6.812  0.2802  0.7067 -0.3280
 5911SOL    HW129195   1.860   3.843   6.727  2.9611 -1.0348  0.4130
 5911SOL    HW229196   1.765   3.746   6.790 -1.2704  1.6726  0.4505
 5912SOL     OW29197   2.436   1.928   7.484  0.1336 -0.3401  0.5506
 5912SOL    HW129198   2.424   2.019   7.455  2.5266 -0.7785 -1.8142
 5912SOL    HW229199   2.431   1.945   7.578  1.5437 -2.2705  0.9835
 5913SOL     OW29200   1.430   1.343  16.528 -0.4535  0.7110  0.3295
 5913SOL    HW129201   1.457   1.368  16.439 -0.1855  1.1136  0.5234
 5913SOL    HW229202   1.337   1.322  16.524 -0.4837  0.6281  1.4730
 5914SOL     OW29203   2.327   1.486   5.732  0.8281  0.3328 -0.3575
 5914SOL    HW129204   2.270   1.414   5.706  0.8684 -0.1499  0.9271
 5914SOL    HW229205   2.404   1.431   5.742  0.6450  0.0738 -0.3589
 5915SOL     OW29206   2.095   2.188  11.011 -0.0091 -0.1913 -0.5609
 5915SOL    HW129207   2.106   2.202  10.917  2.0009 -2.9529 -0.7271
 5915SOL    HW229208   2.045   2.261  11.046 -0.4783 -0.1535 -1.3096
 5916SOL     OW29209   1.708   1.284   3.866 -0.7546  0.1195  0.0146
 5916SOL    HW129210   1.799   1.277   3.836 -2.3443 -0.7503 -4.4858
 5916SOL    HW229211   1.672   1.355   3.814  0.0705  1.3443  1.1048
 5917SOL     OW29212   1.204   2.732   5.817  0.3515 -0.0987 -0.4034
 5917SOL    HW129213   1.242   2.812   5.852  0.9734  1.0821 -3.7021
 5917SOL    HW229214   1.201   2.754   5.723 -0.8287  0.9339 -0.1295
 5918SOL     OW29215   0.029   1.154   1.298 -0.2232 -0.2140  0.2647
 5918SOL    HW129216   4.702   1.115   1.227 -1.1542  0.4773  0.5598
 5918SOL    HW229217   0.109   1.161   1.246 -0.3781 -0.8408 -0.0612
 5919SOL     OW29218   4.586   3.342   1.470  0.2157 -0.7731 -0.1053
 5919SOL    HW129219   4.523   3.275   1.443  0.0246 -0.7601  0.3143
 5919SOL    HW229220   4.619   3.364   1.383 -0.8222 -1.6639 -0.7312
 5920SOL     OW29221   2.730   2.781   9.981 -0.2547  0.6308 -0.8950
 5920SOL    HW129222   2.692   2.734  10.055  1.9974 -0.0024 -0.1400
 5920SOL    HW229223   2.695   2.870   9.987 -0.2963  0.7054 -2.2489
 5921SOL     OW29224   2.592   3.936   1.944  0.0041  0.2082 -0.0551
 5921SOL    HW129225   2.678   3.953   1.982  0.8310  0.1150 -1.9133
 5921SOL    HW229226   2.548   3.921   2.028 -0.3102  1.1564 -0.0509
 5922SOL     OW29227   1.498   2.391   4.174  0.0504  0.1565 -0.0486
 5922SOL    HW129228   1.522   2.420   4.086  1.6316  0.7502  0.5685
 5922SOL    HW229229   1.522   2.470   4.222  1.8628 -0.3248 -0.1717
 5923SOL     OW29230   4.702   1.898  17.268  0.4692  0.5085  0.0779
 5923SOL    HW129231   0.036   1.966  17.235 -0.6808  1.8529  0.8069
 5923SOL    HW229232   4.659   1.863  17.189  2.1056  0.0499 -0.6021
 5924SOL     OW29233   4.560   4.019   0.284 -0.2579  0.3949  0.4144
 5924SOL    HW129234   4.515   4.054   0.360 -2.5009  0.4947 -0.9561
 5924SOL    HW229235   4.487   3.958   0.270  0.8652 -1.1546  1.1946
 5925SOL     OW29236   1.106   0.270   2.137 -0.4882  0.1171 -0.7561
 5925SOL    HW129237   1.074   0.200   2.194 -2.6799  2.6931  1.1128
 5925SOL    HW229238   1.127   0.221   2.057 -0.5304  0.6780 -1.1096
 5926SOL     OW29239   3.816   2.595   8.149  0.4396 -0.2100 -0.0764
 5926SOL    HW129240   3.886   2.659   8.144 -0.9694  1.5435  2.6489
 5926SOL    HW229241   3.757   2.638   8.087 -2.0305 -1.6191  1.2535
 5927SOL     OW29242   0.273   3.648   7.988 -0.3133 -0.0392 -0.0998
 5927SOL    HW129243   0.364   3.652   8.016 -0.9108 -0.3748  1.9221
 5927SOL    HW229244   0.279   3.706   7.912 -0.3967  1.6454  1.1882
 5928SOL     OW29245   0.344   2.983   5.760 -0.5305  0.5459 -0.4905
 5928SOL    HW129246   0.290   3.057   5.788 -0.7584  0.3875 -0.5148
 5928SOL    HW229247   0.376   3.008   5.673 -0.8373 -1.4910 -1.1993
 5929SOL     OW29248   3.275   4.537   8.021 -0.0713  0.0547  0.1396
 5929SOL    HW129249   3.368   4.526   8.000 -0.3202 -0.1588 -0.8854
 5929SOL    HW229250   3.278   4.604   8.088  2.3505  0.0253  0.0796
 5930SOL     OW29251   4.513   2.084   2.897  0.1962  0.2854 -0.3117
 5930SOL    HW129252   4.455   2.036   2.838 -2.0690  0.0693  2.0572
 5930SOL    HW229253   4.598   2.045   2.877 -0.3704  0.3157 -2.7890
 5931SOL     OW29254   0.963   2.005   0.163  0.4884  0.7506 -0.6364
 5931SOL    HW129255   1.003   1.961   0.238 -1.0989  0.5694  0.0972
 5931SOL    HW229256   0.989   2.097   0.167  1.0399  0.5038  1.2549
 5932SOL     OW29257   4.244   1.685   1.375 -0.3072 -0.3369  0.0022
 5932SOL    HW129258   4.328   1.639   1.370 -0.1178  0.0176 -0.1205
 5932SOL    HW229259   4.190   1.613   1.407  0.5279  0.6391  3.5305
 5933SOL     OW29260   2.156   1.985  15.689  0.3423 -0.5642 -0.0547
 5933SOL    HW129261   2.130   2.017  15.603  3.0537 -0.8122 -0.9841
 5933SOL    HW229262   2.217   1.913  15.671 -0.4757 -1.4008  0.5217
 5934SOL     OW29263   1.828   4.065   4.083 -0.3274 -0.1709 -0.1750
 5934SOL    HW129264   1.794   4.134   4.026 -1.0759  1.3855  2.1417
 5934SOL    HW229265   1.870   4.014   4.014  1.5735 -0.5074  1.2135
 5935SOL     OW29266   2.923   2.544   3.273 -0.2172 -0.1041  0.2100
 5935SOL    HW129267   2.833   2.512   3.272 -0.8947  1.9004 -2.2882
 5935SOL    HW229268   2.929   2.622   3.219 -2.1402  0.4550  0.8330
 5936SOL     OW29269   3.643   0.797   2.523 -0.2241  0.1837 -0.3437
 5936SOL    HW129270   3.638   0.851   2.444  2.0046  0.5491 -0.2368
 5936SOL    HW229271   3.738   0.781   2.524  0.7896  6.3661  0.1021
 5937SOL     OW29272   2.258   2.000   0.714  0.7171  0.1463 -0.2881
 5937SOL    HW129273   2.238   2.013   0.622 -2.6319 -1.5857  0.2090
 5937SOL    HW229274   2.334   2.058   0.717  0.3726  0.6020 -0.3344
 5938SOL     OW29275   3.847   4.586   0.030  0.2854 -0.2500  0.4233
 5938SOL    HW129276   3.779   4.628  17.678  0.5002 -0.3332  0.0760
 5938SOL    HW229277   3.810   4.614   0.113  0.3405  0.7744  0.1044
 5939SOL     OW29278   4.442   1.049   4.985  0.4263  0.5317 -0.5679
 5939SOL    HW129279   4.378   0.984   4.956 -0.1109  0.6915  0.2432
 5939SOL    HW229280   4.391   1.109   5.041  0.1398  0.9489 -1.2753
 5940SOL     OW29281   1.181   2.208   5.536  0.5159 -0.5461 -0.1923
 5940SOL    HW129282   1.172   2.114   5.521 -0.2238 -0.4023 -0.6221
 5940SOL    HW229283   1.118   2.226   5.606 -1.4930 -0.9519 -1.9114
 5941SOL     OW29284   0.837   4.581   5.783 -0.3122 -0.6013 -0.0443
 5941SOL    HW129285   0.887   4.531   5.719 -1.5523  1.0106 -2.2679
 5941SOL    HW229286   0.746   4.550   5.782 -0.3046 -0.7322  2.9315
 5942SOL     OW29287   1.156   3.420  12.535 -0.7086 -0.0881 -0.1060
 5942SOL    HW129288   1.199   3.365  12.470  1.8634  0.3427  1.2242
 5942SOL    HW229289   1.228   3.433  12.596 -1.4862 -1.4544  1.0899
 5943SOL     OW29290   0.979   1.042  15.628  0.0362 -0.0876 -0.4415
 5943SOL    HW129291   1.074   1.041  15.643 -0.1309 -4.4467  0.5293
 5943SOL    HW229292   0.969   0.998  15.544  0.9799 -1.6465  0.2505
 5944SOL     OW29293   1.294   2.743   3.981 -0.4716 -0.4174 -0.4079
 5944SOL    HW129294   1.367   2.748   4.042 -1.2576 -0.5672  0.5314
 5944SOL    HW229295   1.245   2.815   4.020 -1.5998 -1.1761 -0.4525
 5945SOL     OW29296   1.939   1.590   7.146  0.0293 -0.0871 -0.0099
 5945SOL    HW129297   1.906   1.519   7.201 -0.7645  1.1168  1.0717
 5945SOL    HW229298   1.871   1.657   7.154  0.1894  0.2683 -1.6703
 5946SOL     OW29299   3.797   4.167   0.565 -0.8691  0.0176  0.5917
 5946SOL    HW129300   3.839   4.170   0.480 -4.6253  0.4530 -1.2418
 5946SOL    HW229301   3.861   4.182   0.635 -0.8533 -0.0877  0.6002
 5947SOL     OW29302   3.973   2.533  10.701 -0.0200 -0.1046  0.4965
 5947SOL    HW129303   3.923   2.513  10.622 -1.9996  3.2182  0.9159
 5947SOL    HW229304   3.915   2.517  10.774 -1.0305 -2.4727 -0.8271
 5948SOL     OW29305   2.691   1.738   2.137 -0.1143 -0.9122 -0.0102
 5948SOL    HW129306   2.660   1.735   2.046 -0.7471  1.1524  0.1334
 5948SOL    HW229307   2.642   1.816   2.162  1.9737  0.5579 -0.4995
 5949SOL     OW29308   0.726   2.158   5.534  0.8729  0.5211  0.4173
 5949SOL    HW129309   0.709   2.193   5.447 -0.0342  0.4905  0.5827
 5949SOL    HW229310   0.801   2.102   5.518 -0.3858 -1.3772  1.1702
 5950SOL     OW29311   0.382   0.936   7.001 -0.1974  0.3084 -0.0302
 5950SOL    HW129312   0.429   0.943   6.918 -1.7410 -0.5823 -0.9717
 5950SOL    HW229313   0.300   0.922   6.955  0.7135 -3.3400 -0.5407
 5951SOL     OW29314   0.586   0.793   8.629  0.0889  0.6512  0.2713
 5951SOL    HW129315   0.589   0.791   8.534 -1.0890  0.1584  0.2499
 5951SOL    HW229316   0.627   0.710   8.655 -3.1344 -0.9641  0.2543
 5952SOL     OW29317   0.726   3.392  11.308 -0.1483  0.0853 -0.4061
 5952SOL    HW129318   0.733   3.487  11.307  0.1448  0.0686  1.2587
 5952SOL    HW229319   0.631   3.389  11.298 -0.3275 -0.7256  1.6066
 5953SOL     OW29320   2.510   1.389  16.124 -0.1618  0.0231 -0.0885
 5953SOL    HW129321   2.491   1.359  16.213 -1.5147 -0.3646 -0.5087
 5953SOL    HW229322   2.453   1.327  16.078  0.2321  1.9554 -3.2163
 5954SOL     OW29323   2.600   2.825   7.602  0.1592  0.1105  0.3328
 5954SOL    HW129324   2.603   2.879   7.680  0.1231 -0.1650  0.5271
 5954SOL    HW229325   2.594   2.890   7.533  2.7070 -1.3888 -1.3084
 5955SOL     OW29326   3.222   0.787  14.979  0.0390  0.6004  0.0856
 5955SOL    HW129327   3.286   0.740  15.032 -0.5022  1.1588  1.2255
 5955SOL    HW229328   3.144   0.735  14.999  0.8139 -0.3072  0.7333
 5956SOL     OW29329   3.638   2.953   7.019 -0.2654 -0.7196 -0.2336
 5956SOL    HW129330   3.734   2.963   7.014 -0.4442  1.9517  1.6152
 5956SOL    HW229331   3.637   2.897   7.097  0.8792  1.6102  1.4780
 5957SOL     OW29332   3.156   2.680   7.228  0.2888  0.1935 -0.0792
 5957SOL    HW129333   3.239   2.726   7.236 -0.1928  1.0721 -0.0573
 5957SOL    HW229334   3.141   2.667   7.322 -0.2370  1.6736  0.0418
 5958SOL     OW29335   3.735   0.552   1.578  0.3044  0.0255  0.3180
 5958SOL    HW129336   3.803   0.490   1.549 -0.3145 -0.7260  0.4581
 5958SOL    HW229337   3.669   0.491   1.613 -2.7805  2.7317 -0.8419
 5959SOL     OW29338   2.260   4.600   8.066 -0.6344  0.6241  0.0383
 5959SOL    HW129339   2.258   4.585   7.971 -1.0339 -1.4467  0.3682
 5959SOL    HW229340   2.348   4.570   8.090 -0.1683  0.6170 -1.6557
 5960SOL     OW29341   3.535   4.338  12.955  0.1692 -0.3936 -0.0347
 5960SOL    HW129342   3.598   4.271  12.929  2.4674  2.0503 -0.7693
 5960SOL    HW229343   3.508   4.305  13.040 -0.5229  0.4164  0.0595
 5961SOL     OW29344   4.498   1.585   6.314 -0.0586 -0.1956  1.0258
 5961SOL    HW129345   4.581   1.549   6.284  1.7822  4.4543  0.5055
 5961SOL    HW229346   4.445   1.506   6.326 -0.6002 -0.1505 -1.0780
 5962SOL     OW29347   0.378   1.645   0.313  0.0486 -0.1944 -0.7524
 5962SOL    HW129348   0.441   1.608   0.252 -0.6068 -0.4834 -1.2580
 5962SOL    HW229349   0.428   1.638   0.394 -0.9289 -0.9974 -0.2231
 5963SOL     OW29350   2.138   4.546  16.318 -0.3928 -0.1285  0.4172
 5963SOL    HW129351   2.118   4.462  16.278 -0.8438  1.5491 -2.8436
 5963SOL    HW229352   2.091   4.531  16.400 -1.6265  2.7644  0.2412
 5964SOL     OW29353   0.170   1.363   0.305  0.1116  0.1383 -0.0854
 5964SOL    HW129354   0.244   1.341   0.361  0.8559 -0.0657 -1.1558
 5964SOL    HW229355   0.208   1.445   0.274  1.2209 -0.1233  0.5781
 5965SOL     OW29356   4.087   4.062   8.903 -0.9458  0.7170 -0.1159
 5965SOL    HW129357   4.081   3.967   8.896  0.5147  0.5256  1.3664
 5965SOL    HW229358   4.125   4.092   8.821 -0.3530  4.3425  1.4899
 5966SOL     OW29359   3.639   3.254  13.032 -0.0878 -0.2722  0.1898
 5966SOL    HW129360   3.720   3.209  13.006 -0.4837 -0.0926 -1.3415
 5966SOL    HW229361   3.642   3.225  13.123  1.8142 -3.0662 -0.7306
 5967SOL     OW29362   2.384   1.858   7.747  0.2087 -0.2931 -0.2367
 5967SOL    HW129363   2.375   1.940   7.797 -1.1677 -1.7875  1.9891
 5967SOL    HW229364   2.334   1.787   7.787 -2.1139  0.5741 -1.5229
 5968SOL     OW29365   0.203   3.591   8.475 -0.5480  0.1725 -0.2626
 5968SOL    HW129366   0.178   3.653   8.406  2.9019  0.9178 -0.8878
 5968SOL    HW229367   0.120   3.544   8.479 -0.1335 -0.7046 -2.0196
 5969SOL     OW29368   4.479   2.147  12.228  0.0740 -0.5036  0.4285
 5969SOL    HW129369   4.410   2.213  12.219  1.2326  0.4553 -1.2903
 5969SOL    HW229370   4.472   2.104  12.142  1.3499  0.3647 -0.1038
 5970SOL     OW29371   4.707   2.967   2.942 -0.0440  0.0252 -0.4861
 5970SOL    HW129372   4.712   2.889   2.996 -1.1230  1.5671  1.8649
 5970SOL    HW229373   4.690   3.041   3.001 -2.0030 -1.1692  0.4280
 5971SOL     OW29374   4.184   4.667   8.952 -0.1544 -0.4715 -0.4167
 5971SOL    HW129375   4.140   4.691   8.871 -0.3141  0.2342 -0.1166
 5971SOL    HW229376   4.108   4.657   9.009 -0.0940  0.7806 -0.1282
 5972SOL     OW29377   1.653   0.095  16.936 -0.6449  0.4713  0.0908
 5972SOL    HW129378   1.586   0.151  16.896 -1.7079 -1.2614 -0.5237
 5972SOL    HW229379   1.599   0.037  16.988  0.8951  0.8794  2.1654
 5973SOL     OW29380   0.023   0.231   0.985 -0.2924 -0.8258 -0.0285
 5973SOL    HW129381   4.663   0.261   0.952 -0.3677  0.4755  1.3589
 5973SOL    HW229382   0.082   0.284   0.932  3.1328 -2.0500  2.5683
 5974SOL     OW29383   2.497   0.296   8.091 -0.1567  0.1840  0.5738
 5974SOL    HW129384   2.487   0.380   8.046  0.7571  0.4041  0.7753
 5974SOL    HW229385   2.411   0.256   8.078  1.2697 -1.9766 -2.2316
 5975SOL     OW29386   2.784   3.928  12.243 -0.1146  0.0733  0.5148
 5975SOL    HW129387   2.712   3.889  12.294 -0.2596  0.7293  0.8127
 5975SOL    HW229388   2.796   3.855  12.182  0.5014 -0.9142  1.8196
 5976SOL     OW29389   1.517   3.919   4.799  0.0514 -0.4040 -0.4533
 5976SOL    HW129390   1.503   3.923   4.704  1.3651 -2.7962 -0.7559
 5976SOL    HW229391   1.489   4.005   4.830  0.4833  0.4350 -2.3913
 5977SOL     OW29392   1.949   3.869   2.564  0.7191  0.7285 -0.5393
 5977SOL    HW129393   1.883   3.910   2.620 -1.6311  0.1055 -2.8269
 5977SOL    HW229394   1.893   3.794   2.544  2.5734 -0.2512 -2.0631
 5978SOL     OW29395   0.196   2.464   8.831 -0.1143  0.3109  0.0697
 5978SOL    HW129396   0.199   2.553   8.866 -2.0587 -0.0918  1.2667
 5978SOL    HW229397   0.280   2.465   8.786 -0.6532 -0.9530 -0.9804
 5979SOL     OW29398   2.776   4.610   8.961  0.0225 -0.2079  0.4122
 5979SOL    HW129399   2.816   4.528   8.933  1.7978  0.6921  0.3553
 5979SOL    HW229400   2.776   4.652   8.875  0.4527  0.8220  0.9273
 5980SOL     OW29401   3.627   4.443   3.316  0.1224  0.2111  0.0586
 5980SOL    HW129402   3.573   4.422   3.240  0.7274  0.1385 -0.3536
 5980SOL    HW229403   3.674   4.519   3.282 -0.6886  0.7054  0.0438
 5981SOL     OW29404   4.215   1.090   1.163 -0.4187 -0.1409 -0.4397
 5981SOL    HW129405   4.261   1.147   1.101 -0.7054  0.7575  0.1589
 5981SOL    HW229406   4.143   1.061   1.108 -0.2892 -2.3556  0.5451
 5982SOL     OW29407   0.552   3.989  10.870 -0.2063 -0.4659 -0.1538
 5982SOL    HW129408   0.542   4.064  10.929 -0.7811 -0.4514 -0.2758
 5982SOL    HW229409   0.546   4.031  10.784  2.4036  0.7593  0.2519
 5983SOL     OW29410   1.424   3.599  12.626 -0.1099  0.6495 -0.5660
 5983SOL    HW129411   1.510   3.637  12.645  0.9575 -1.6911 -0.7929
 5983SOL    HW229412   1.374   3.664  12.576  0.0006  1.3375  0.2272
 5984SOL     OW29413   2.236   1.450   8.832 -0.0414  0.5030  0.5811
 5984SOL    HW129414   2.187   1.369   8.821  0.3562  0.2450  0.7392
 5984SOL    HW229415   2.259   1.467   8.741  0.4737  2.7307  1.1106
 5985SOL     OW29416   2.873   3.524  10.732 -0.0529 -0.0456 -0.1971
 5985SOL    HW129417   2.877   3.612  10.693 -1.7952  0.9421  1.8223
 5985SOL    HW229418   2.781   3.522  10.761  0.0298 -0.2372  0.0552
 5986SOL     OW29419   0.098   2.637   6.508  0.1741 -0.5831  0.1465
 5986SOL    HW129420   0.062   2.691   6.579 -2.3532 -1.5978 -0.3824
 5986SOL    HW229421   0.085   2.551   6.547  0.4871  0.0089  1.5804
 5987SOL     OW29422   4.075   3.985   8.435  0.2247 -0.4906 -0.2762
 5987SOL    HW129423   4.034   3.900   8.419 -0.8919 -0.2319  1.3022
 5987SOL    HW229424   4.121   3.965   8.516 -0.5839 -0.1094  0.2712
 5988SOL     OW29425   4.675   0.134   7.585 -0.3112  0.1665 -0.0950
 5988SOL    HW129426   4.593   0.176   7.557 -1.1254 -0.9033  0.6870
 5988SOL    HW229427   4.657   0.109   7.676  0.0897 -2.2648 -0.6703
 5989SOL     OW29428   4.032   3.364   2.819  0.0339 -0.1711  0.5086
 5989SOL    HW129429   3.968   3.375   2.889 -0.8824 -1.1810 -0.1535
 5989SOL    HW229430   4.118   3.387   2.853  1.6179 -0.9004 -2.9550
 5990SOL     OW29431   4.275   3.061  11.813 -0.0594  1.0306  0.2998
 5990SOL    HW129432   4.256   3.118  11.739 -1.5711 -0.4251 -0.4301
 5990SOL    HW229433   4.356   3.018  11.786 -0.0667 -0.1494  2.1570
 5991SOL     OW29434   0.933   3.677   6.011 -0.5700  0.2283 -0.8024
 5991SOL    HW129435   0.932   3.658   6.105 -0.5276  1.7051 -0.5139
 5991SOL    HW229436   1.016   3.723   6.007  0.6654 -1.9851 -0.4863
 5992SOL     OW29437   3.046   4.059   8.434  0.1477  0.1760 -0.0291
 5992SOL    HW129438   3.046   4.026   8.344  0.7470  0.4913 -0.1488
 5992SOL    HW229439   2.966   4.022   8.471  0.6181 -0.0853  0.7235
 5993SOL     OW29440   2.920   1.400   4.904 -0.0381 -0.3775  0.1404
 5993SOL    HW129441   3.007   1.367   4.883 -0.0778 -0.7983  0.6093
 5993SOL    HW229442   2.866   1.382   4.827 -1.0899  0.9993  0.5475
 5994SOL     OW29443   1.131   1.383  17.486  0.2799 -0.7207  0.0275
 5994SOL    HW129444   1.042   1.399  17.517  0.2921  2.2091 -1.4424
 5994SOL    HW229445   1.149   1.300  17.529 -0.3025 -0.9473 -0.1689
 5995SOL     OW29446   2.024   3.482   1.059  0.8970  0.0059  0.1949
 5995SOL    HW129447   1.982   3.561   1.093  0.3881  0.0529 -0.5535
 5995SOL    HW229448   1.945   3.448   1.018  0.0325  0.4512  1.4809
 5996SOL     OW29449   2.945   3.174   2.578 -0.0610 -0.0749  0.1731
 5996SOL    HW129450   3.040   3.168   2.589 -0.0205  1.1417  0.4778
 5996SOL    HW229451   2.933   3.165   2.484 -0.6064 -1.8357  0.4164
 5997SOL     OW29452   0.223   2.182   4.435 -0.4014 -0.0138  0.4457
 5997SOL    HW129453   0.270   2.264   4.423  1.1596 -1.3012 -2.1813
 5997SOL    HW229454   0.134   2.199   4.404 -0.7136 -0.9764  0.8164
 5998SOL     OW29455   4.058   1.447   8.612 -0.4516 -0.0288 -0.1557
 5998SOL    HW129456   3.982   1.462   8.668 -0.5690 -0.9188 -0.0662
 5998SOL    HW229457   4.112   1.504   8.667  0.0955  0.8460 -1.6020
 5999SOL     OW29458   2.819   1.930   3.117  0.3911  0.3912 -0.1366
 5999SOL    HW129459   2.750   1.995   3.126 -0.4706 -0.5524  0.1560
 5999SOL    HW229460   2.791   1.861   3.057 -0.8876  1.5345 -0.8434
 6000SOL     OW29461   1.430   1.609   0.579 -0.3367 -0.2674 -0.3344
 6000SOL    HW129462   1.478   1.619   0.497  0.5478 -1.8560  0.0011
 6000SOL    HW229463   1.490   1.657   0.636  1.1753  0.7198 -2.8048
 6001SOL     OW29464   1.265   0.349   8.776 -0.0822 -0.8874  0.2285
 6001SOL    HW129465   1.231   0.279   8.719  0.0755 -1.4718  0.8599
 6001SOL    HW229466   1.305   0.409   8.712 -1.7493 -0.6080 -0.5528
 6002SOL     OW29467   0.097   4.312   3.878  0.2894 -0.0061  0.0427
 6002SOL    HW129468   0.065   4.231   3.837  0.1977 -0.1899  0.4842
 6002SOL    HW229469   0.039   4.368   3.826 -0.2951  0.3424  1.0673
 6003SOL     OW29470   0.866   1.953   8.188 -0.1377  0.1686  0.2380
 6003SOL    HW129471   0.822   1.917   8.265 -0.6567  0.0936 -0.0897
 6003SOL    HW229472   0.920   2.011   8.241  0.5108  0.8584 -1.1757
 6004SOL     OW29473   3.909   3.102   1.810  0.4839 -0.4443  0.5717
 6004SOL    HW129474   3.920   3.063   1.724  1.2011 -1.2291  1.0243
 6004SOL    HW229475   3.897   3.195   1.790  1.2094 -0.4557  0.1176
 6005SOL     OW29476   4.056   1.932   8.177 -0.1394 -0.1713  0.0834
 6005SOL    HW129477   4.084   2.002   8.119 -0.2512 -0.9692 -0.9230
 6005SOL    HW229478   3.962   1.948   8.180  0.1201  1.6240 -1.5569
 6006SOL     OW29479   0.225   3.071  11.396  0.4161  0.3842  0.0158
 6006SOL    HW129480   0.261   3.072  11.485  1.1852 -3.1792 -0.2488
 6006SOL    HW229481   0.247   3.159  11.365 -2.1122  0.5439 -1.3348
 6007SOL     OW29482   0.362   3.069   5.203  0.4906  0.2706 -0.1972
 6007SOL    HW129483   0.409   3.118   5.270 -0.3704  0.4322  0.2923
 6007SOL    HW229484   0.323   3.003   5.261 -1.5081  2.3493  0.8376
 6008SOL     OW29485   2.119   4.054   5.707  0.3870 -0.4307 -0.3409
 6008SOL    HW129486   2.046   4.018   5.656  1.1457 -3.3688  0.6753
 6008SOL    HW229487   2.169   3.982   5.745  0.9603 -0.8285 -1.8157
 6009SOL     OW29488   2.603   3.039   2.917 -0.0013 -0.4815  0.3976
 6009SOL    HW129489   2.637   2.954   2.945 -0.9946 -1.1850 -0.5673
 6009SOL    HW229490   2.678   3.073   2.868 -0.1260 -1.4877 -0.4625
 6010SOL     OW29491   3.814   3.351   3.054  0.0373 -0.2917  0.5453
 6010SOL    HW129492   3.791   3.273   3.003  0.1829  1.0665 -1.6136
 6010SOL    HW229493   3.739   3.361   3.113  0.1545 -2.3226  1.0334
 6011SOL     OW29494   0.695   2.420   2.847  0.4485 -0.1794 -0.0893
 6011SOL    HW129495   0.680   2.473   2.768 -1.5749  1.2451  1.2372
 6011SOL    HW229496   0.723   2.489   2.908 -0.8951  1.6421 -1.5127
 6012SOL     OW29497   0.877   2.480   7.975  0.1581  0.0262  0.1372
 6012SOL    HW129498   0.943   2.514   7.915  0.3298 -1.7033 -0.6640
 6012SOL    HW229499   0.928   2.433   8.041  1.3076 -1.1313 -1.5748
 6013SOL     OW29500   1.414   3.003   0.368  0.1515 -0.1217  0.5512
 6013SOL    HW129501   1.345   3.069   0.374  1.8648  1.6233  0.8929
 6013SOL    HW229502   1.479   3.047   0.313 -1.4330 -0.6963 -1.7961
 6014SOL     OW29503   1.884   1.129   4.194 -0.2097 -0.2382 -0.0238
 6014SOL    HW129504   1.810   1.115   4.135  0.3506  1.6888 -1.1900
 6014SOL    HW229505   1.959   1.146   4.138  1.3487 -0.8625  1.8663
 6015SOL     OW29506   1.055   0.145   7.476 -0.2660 -0.2776  0.2436
 6015SOL    HW129507   0.987   0.169   7.413  0.3453  1.9490  0.4016
 6015SOL    HW229508   1.045   0.050   7.482 -1.7972 -0.2607 -2.0133
 6016SOL     OW29509   2.718   2.731   4.500 -0.1592 -0.2011 -0.4206
 6016SOL    HW129510   2.680   2.658   4.549  1.4224 -0.4491  0.4398
 6016SOL    HW229511   2.640   2.751   4.448  0.4928  0.3386 -1.1822
 6017SOL     OW29512   2.533   4.081   6.199  0.1736  0.6206 -0.2211
 6017SOL    HW129513   2.456   4.138   6.193  0.2728  0.5189 -2.7514
 6017SOL    HW229514   2.494   3.994   6.204 -0.0559  0.7660  0.4046
 6018SOL     OW29515   0.280   1.106   5.171 -0.0919  0.1328 -0.3029
 6018SOL    HW129516   0.338   1.182   5.170 -0.5662  0.4895 -0.4869
 6018SOL    HW229517   0.224   1.128   5.097 -0.5956  0.6927  0.2512
 6019SOL     OW29518   1.109   2.505   5.927  0.1618 -0.4780 -0.1018
 6019SOL    HW129519   1.188   2.485   5.978  0.5593  2.4122  0.4020
 6019SOL    HW229520   1.134   2.583   5.877  0.8887 -1.5622 -1.4586
 6020SOL     OW29521   3.023   4.550   1.099 -0.3203  0.2727  0.3310
 6020SOL    HW129522   2.955   4.617   1.093  1.7904  2.5703  2.0720
 6020SOL    HW229523   3.062   4.569   1.014 -1.2302  0.3679 -0.0659
 6021SOL     OW29524   0.255   2.204   2.990  0.4734 -0.7632 -0.1819
 6021SOL    HW129525   0.316   2.268   2.954 -0.0441  1.1571  2.3917
 6021SOL    HW229526   0.305   2.181   3.069  2.3868  2.7115 -0.3745
 6022SOL     OW29527   4.663   3.583  13.203 -0.0309 -0.2926 -0.4678
 6022SOL    HW129528   0.009   3.528  13.169  0.1244  0.5374 -1.4845
 6022SOL    HW229529   4.697   3.654  13.257 -1.8302  0.4345 -0.2896
 6023SOL     OW29530   0.385   0.612   3.971 -0.0390  0.4216 -0.2346
 6023SOL    HW129531   0.321   0.648   4.032 -0.9990 -1.7435  0.0143
 6023SOL    HW229532   0.379   0.524   4.008 -0.4357  0.1474 -0.9526
 6024SOL     OW29533   0.479   0.023   7.302  0.3092  0.0831 -0.3451
 6024SOL    HW129534   0.457   0.115   7.290 -2.5118 -0.3802  1.4257
 6024SOL    HW229535   0.429   4.718   7.225  0.7402 -3.1312  0.6299
 6025SOL     OW29536   0.961   2.467  14.447  0.0990  0.2192 -0.5587
 6025SOL    HW129537   1.039   2.502  14.403  2.1722 -0.2419  2.7774
 6025SOL    HW229538   0.939   2.404  14.378  1.4702 -1.1654  0.2931
 6026SOL     OW29539   0.786   2.761   9.239 -0.3517  0.5779 -0.1897
 6026SOL    HW129540   0.871   2.775   9.196 -0.4054  2.1791  0.2382
 6026SOL    HW229541   0.804   2.696   9.306 -1.4464 -0.0351 -0.4911
 6027SOL     OW29542   1.349   1.407   3.674  0.3225 -0.3363  0.2255
 6027SOL    HW129543   1.305   1.338   3.624  0.6328  0.0372 -0.5689
 6027SOL    HW229544   1.440   1.380   3.686  0.0900 -1.2451 -0.0446
 6028SOL     OW29545   0.958   4.116   7.218  0.3787  0.7638 -0.6118
 6028SOL    HW129546   0.870   4.091   7.189  0.3435 -0.0465  0.2048
 6028SOL    HW229547   1.007   4.122   7.135 -1.3397 -0.9248 -1.7557
 6029SOL     OW29548   3.582   1.464   6.551  0.1860  0.4527  0.0337
 6029SOL    HW129549   3.662   1.508   6.581  0.2949  1.3573 -1.6098
 6029SOL    HW229550   3.582   1.502   6.463  0.9534 -0.8330 -0.5053
 6030SOL     OW29551   0.409   3.012   4.772 -0.8335 -0.2115  0.0738
 6030SOL    HW129552   0.354   3.059   4.710  0.1431  1.2832  0.3518
 6030SOL    HW229553   0.468   2.965   4.713 -0.1934  0.0592  0.4908
 6031SOL     OW29554   2.651   2.116   0.906  0.7729  0.1052 -0.0833
 6031SOL    HW129555   2.726   2.160   0.947  0.0697  1.1921  0.0496
 6031SOL    HW229556   2.601   2.198   0.906 -0.7590 -0.8197  1.2891
 6032SOL     OW29557   3.395   1.858   7.122  0.2446  0.4643 -0.1787
 6032SOL    HW129558   3.415   1.769   7.093 -0.4737  0.0843  0.4721
 6032SOL    HW229559   3.300   1.850   7.136 -0.3848  1.8629 -3.6588
 6033SOL     OW29560   0.991   2.005   5.911  0.1117 -0.1061 -0.3863
 6033SOL    HW129561   0.900   2.001   5.880 -0.0906 -1.0112  0.3430
 6033SOL    HW229562   0.986   2.000   6.007  0.4998 -1.0438 -0.4271
 6034SOL     OW29563   4.145   1.551   7.651 -0.2370  0.0558  0.4519
 6034SOL    HW129564   4.076   1.541   7.717 -1.6886 -0.6144 -1.1769
 6034SOL    HW229565   4.219   1.560   7.711 -1.0383 -1.9485  1.7491
 6035SOL     OW29566   1.281   3.631   8.386  0.3646  0.7479  0.6542
 6035SOL    HW129567   1.307   3.657   8.475 -1.4052 -0.5083  1.5465
 6035SOL    HW229568   1.186   3.624   8.395  0.3577 -0.7220 -0.5135
 6036SOL     OW29569   3.988   1.500   8.289 -0.1786  0.2948  0.4621
 6036SOL    HW129570   3.941   1.460   8.216 -0.4239  1.5259 -0.0577
 6036SOL    HW229571   3.932   1.572   8.320 -1.9269 -0.3647 -1.1648
 6037SOL     OW29572   4.412   3.029  13.212 -0.3367  0.4387  0.0532
 6037SOL    HW129573   4.375   3.098  13.268 -0.4432 -0.9929  1.7622
 6037SOL    HW229574   4.495   3.013  13.257 -0.7074  0.5438  0.7809
 6038SOL     OW29575   2.076   3.608   3.690  0.1451  0.1892  0.7214
 6038SOL    HW129576   2.095   3.553   3.615 -0.1972 -0.7799  1.3527
 6038SOL    HW229577   1.986   3.631   3.667  0.5073 -0.1815 -1.0494
 6039SOL     OW29578   4.152   1.341   4.637 -0.2539  0.9147  0.2464
 6039SOL    HW129579   4.086   1.331   4.568  1.3245  1.3944 -1.3405
 6039SOL    HW229580   4.230   1.357   4.583 -0.4243 -0.6268 -0.4357
 6040SOL     OW29581   0.338   0.491   9.990 -0.1901  0.4875  0.5075
 6040SOL    HW129582   0.320   0.499  10.084  1.7407  0.0133  0.9106
 6040SOL    HW229583   0.247   0.479   9.964 -0.2413 -0.5106  1.1385
 6041SOL     OW29584   3.479   4.629   7.207  0.1440 -0.0055 -0.2568
 6041SOL    HW129585   3.405   4.641   7.148 -1.0893 -0.1016  1.2675
 6041SOL    HW229586   3.434   4.639   7.291  0.8873  3.3436 -0.2446
 6042SOL     OW29587   2.937   4.409  11.564 -0.3568 -0.3528 -0.3428
 6042SOL    HW129588   2.896   4.466  11.498  0.5727  1.7915  0.9729
 6042SOL    HW229589   3.029   4.427  11.546 -0.8601  1.2855 -1.3686
 6043SOL     OW29590   1.456   1.907  10.795  0.0630 -0.2159  0.1434
 6043SOL    HW129591   1.449   1.943  10.883 -3.0440  0.4839 -0.4028
 6043SOL    HW229592   1.485   1.983  10.745  0.2795 -0.0952  0.4516
 6044SOL     OW29593   0.824   4.357  13.493  0.5408  0.2329 -0.2179
 6044SOL    HW129594   0.864   4.340  13.408 -0.0888  0.0217 -0.4726
 6044SOL    HW229595   0.778   4.441  13.481  1.0418  0.7896  1.7615
 6045SOL     OW29596   2.652   1.406  14.215  0.7880  0.0650  0.6893
 6045SOL    HW129597   2.676   1.323  14.174  1.5955  1.4334 -1.6077
 6045SOL    HW229598   2.679   1.394  14.307 -0.4715  0.5425  1.1233
 6046SOL     OW29599   0.147   2.953   9.463 -0.1412 -0.2755 -0.2902
 6046SOL    HW129600   0.203   2.878   9.445 -0.1752 -0.5040  0.5785
 6046SOL    HW229601   0.120   2.989   9.378  0.3279 -2.0312 -1.1670
 6047SOL     OW29602   2.579   2.975   3.775  0.0284  0.2213 -1.0144
 6047SOL    HW129603   2.599   3.047   3.716 -1.9087  0.1747 -1.7260
 6047SOL    HW229604   2.663   2.981   3.820  0.2337 -1.2878 -1.2072
 6048SOL     OW29605   3.064   0.469   1.974  0.1806  0.4921 -0.3601
 6048SOL    HW129606   3.044   0.492   2.065  3.9031  1.3175  0.2253
 6048SOL    HW229607   3.113   0.545   1.943  0.3294 -0.0822 -1.5187
 6049SOL     OW29608   3.273   0.197   8.688  0.5969 -0.1770 -0.1884
 6049SOL    HW129609   3.336   0.139   8.646  0.2810 -1.9290  1.7622
 6049SOL    HW229610   3.252   0.271   8.631  2.2198  1.8299  1.8303
 6050SOL     OW29611   3.019   1.447   6.220  0.6069  0.3402  0.3071
 6050SOL    HW129612   2.943   1.394   6.244  0.6383  0.6114  0.9901
 6050SOL    HW229613   3.017   1.508   6.293 -2.3563  1.7680 -0.9403
 6051SOL     OW29614   3.426   0.244   7.876  0.4727  0.0965 -0.2791
 6051SOL    HW129615   3.359   0.232   7.808  0.4073  1.3372 -0.4171
 6051SOL    HW229616   3.369   0.228   7.952  1.3489 -0.0483  0.3396
 6052SOL     OW29617   1.382   4.519   0.926  0.1042 -0.2181  0.3826
 6052SOL    HW129618   1.355   4.511   1.018  0.1951 -0.5231  0.3807
 6052SOL    HW229619   1.475   4.542   0.932 -0.0007 -0.2213  2.1578
 6053SOL     OW29620   4.622   1.006   6.129  0.2872  0.6069 -0.5382
 6053SOL    HW129621   4.691   1.071   6.121 -1.4561  2.4673 -0.3521
 6053SOL    HW229622   4.632   0.999   6.224 -0.2382  1.9882 -0.3903
 6054SOL     OW29623   3.420   1.643   8.121 -0.1331 -0.0579  0.6741
 6054SOL    HW129624   3.357   1.611   8.056 -1.2369  1.3368  1.0670
 6054SOL    HW229625   3.362   1.630   8.195 -2.7304  0.8849 -1.2169
 6055SOL     OW29626   1.585   1.694   3.002  0.4029 -0.1773 -0.3681
 6055SOL    HW129627   1.501   1.655   3.027  0.1653  0.7829  0.3258
 6055SOL    HW229628   1.632   1.688   3.085 -0.8547  1.5643  0.4819
 6056SOL     OW29629   2.413   2.119   1.115  0.1249  0.3021  0.2023
 6056SOL    HW129630   2.440   2.061   1.043 -2.4300 -1.1470  0.4216
 6056SOL    HW229631   2.421   2.065   1.194  1.4731  0.6319  0.3006
 6057SOL     OW29632   1.539   1.552   3.309  1.0183  0.3109 -0.0636
 6057SOL    HW129633   1.560   1.642   3.286  1.2376  0.0504 -0.9068
 6057SOL    HW229634   1.602   1.529   3.376  0.0302  0.3902  0.8887
 6058SOL     OW29635   2.562   3.354   5.757  0.4892 -0.1904  0.1825
 6058SOL    HW129636   2.644   3.390   5.792  1.9132 -2.7668 -0.4622
 6058SOL    HW229637   2.531   3.314   5.838 -2.2071  0.1995 -0.6707
 6059SOL     OW29638   4.485   2.709  16.184  0.2077 -0.5619 -0.6159
 6059SOL    HW129639   4.412   2.652  16.161 -0.0470 -1.3609  2.1333
 6059SOL    HW229640   4.550   2.675  16.123 -1.2879 -0.7760 -2.1063
 6060SOL     OW29641   0.910   0.482   7.869 -0.2588  0.1254  0.0324
 6060SOL    HW129642   1.004   0.485   7.855 -0.6034  2.1747 -1.8096
 6060SOL    HW229643   0.897   0.444   7.957 -0.4772 -0.6126 -0.3176
 6061SOL     OW29644   1.507   1.243  12.528  0.3355  0.0357  0.4397
 6061SOL    HW129645   1.427   1.245  12.580  0.0790 -0.3809  0.0658
 6061SOL    HW229646   1.537   1.154  12.549 -0.9891 -0.2546  1.0692
 6062SOL     OW29647   4.421   0.865   7.119  0.5272 -0.0881 -0.7040
 6062SOL    HW129648   4.446   0.874   7.211 -0.6277 -0.6163 -0.3490
 6062SOL    HW229649   4.378   0.780   7.115  1.7030 -0.7090 -0.4397
 6063SOL     OW29650   4.142   0.495  10.379 -0.6133  0.1612  0.5284
 6063SOL    HW129651   4.091   0.414  10.380  1.7044 -1.3090 -0.3427
 6063SOL    HW229652   4.074   0.562  10.384 -1.1656 -0.3210 -0.4820
 6064SOL     OW29653   2.718   3.424   5.269 -0.3428  0.0482 -0.4512
 6064SOL    HW129654   2.681   3.444   5.183  0.5311  0.8896 -0.6327
 6064SOL    HW229655   2.711   3.329   5.270  0.2794 -0.0014 -1.5336
 6065SOL     OW29656   2.897   4.650   3.447 -0.3211  0.3217  0.0192
 6065SOL    HW129657   2.823   4.650   3.386  0.8193 -3.4197 -1.3774
 6065SOL    HW229658   2.967   4.629   3.384  0.3823  1.7452  0.3293
 6066SOL     OW29659   1.703   3.489  12.996 -0.6648 -0.1938  0.0228
 6066SOL    HW129660   1.700   3.406  13.043  1.1398 -1.0856 -1.4444
 6066SOL    HW229661   1.795   3.516  12.989 -1.5123  2.9616  0.9366
 6067SOL     OW29662   3.422   2.823  10.673  0.7214  0.3618  0.1113
 6067SOL    HW129663   3.376   2.778  10.601 -0.0778  1.0318  0.2020
 6067SOL    HW229664   3.501   2.769  10.670  1.0915  0.8065  2.2778
 6068SOL     OW29665   4.652   0.711   8.723  0.6662 -0.1551 -0.0254
 6068SOL    HW129666   4.616   0.624   8.703  0.9379 -0.0424 -1.0029
 6068SOL    HW229667   4.718   0.718   8.654  1.3179  0.2379  0.6504
 6069SOL     OW29668   4.207   0.013   3.890  0.1263 -0.1778  0.0402
 6069SOL    HW129669   4.221   4.704   3.979  1.5181 -0.4367 -0.2705
 6069SOL    HW229670   4.222   4.657   3.841 -1.0117  1.0846 -2.3920
 6070SOL     OW29671   4.583   2.585   7.133 -0.0732 -0.5910 -0.1995
 6070SOL    HW129672   4.544   2.549   7.054  2.0531  0.1920 -1.6073
 6070SOL    HW229673   4.628   2.511   7.174 -0.9131  0.0500  1.8704
 6071SOL     OW29674   3.991   1.159  16.771 -0.6312  0.8230  0.2171
 6071SOL    HW129675   3.939   1.161  16.852 -1.0883 -0.4231 -0.0434
 6071SOL    HW229676   4.020   1.250  16.763  0.3310  0.3236 -1.9037
 6072SOL     OW29677   4.585   2.156   5.088 -0.0146  1.0183  0.5366
 6072SOL    HW129678   4.672   2.169   5.049  0.2433 -1.9007  0.1565
 6072SOL    HW229679   4.591   2.214   5.164 -0.2700 -0.0352  1.3590
 6073SOL     OW29680   3.368   0.616   7.982 -0.2800  0.4559 -0.2321
 6073SOL    HW129681   3.336   0.652   7.899  2.3174 -1.0306 -1.8920
 6073SOL    HW229682   3.292   0.623   8.039 -1.4126 -1.5616 -1.4781
 6074SOL     OW29683   1.334   1.724  11.070 -0.7450  0.2413  0.4617
 6074SOL    HW129684   1.254   1.709  11.120 -2.5625  4.5997 -1.1776
 6074SOL    HW229685   1.406   1.718  11.133 -0.9951 -2.3380  0.5322
 6075SOL     OW29686   3.194   4.432  14.811 -0.1996 -0.5209 -0.0676
 6075SOL    HW129687   3.160   4.488  14.741 -0.0760  0.6763  0.8223
 6075SOL    HW229688   3.266   4.489  14.839 -2.9407  2.8000  0.3397
 6076SOL     OW29689   2.824   1.835   3.759 -0.0390  0.5048 -0.0220
 6076SOL    HW129690   2.791   1.906   3.705  1.1518 -0.3002 -1.8275
 6076SOL    HW229691   2.905   1.806   3.716 -0.5105 -0.6197 -0.1552
 6077SOL     OW29692   3.098   0.896   8.490 -0.4455  0.2151 -0.3159
 6077SOL    HW129693   3.143   0.882   8.574 -0.0328 -1.3388 -0.7898
 6077SOL    HW229694   3.009   0.895   8.525  0.0770  0.9248  1.0144
 6078SOL     OW29695   4.449   0.021   9.559  0.0776 -0.0627 -0.0662
 6078SOL    HW129696   4.377   4.684   9.572 -0.9636  1.3913  1.1334
 6078SOL    HW229697   4.438   0.040   9.466  2.1681  0.2839 -0.2315
 6079SOL     OW29698   1.326   3.033  14.800 -0.4286 -0.1759 -0.4757
 6079SOL    HW129699   1.234   3.017  14.822 -0.1081 -0.5595  0.5782
 6079SOL    HW229700   1.375   2.965  14.845 -0.6710  0.0173  0.0783
 6080SOL     OW29701   0.326   2.332   7.444  0.4299 -0.5162 -0.0974
 6080SOL    HW129702   0.367   2.318   7.359 -0.4432 -1.7733 -0.3166
 6080SOL    HW229703   0.307   2.243   7.473  3.1409 -0.3704  2.2121
 6081SOL     OW29704   4.641   2.355   8.374  0.1218 -0.1984 -0.5514
 6081SOL    HW129705   4.617   2.266   8.400 -0.2946 -0.0690 -0.4889
 6081SOL    HW229706   4.703   2.380   8.443  0.6630  1.0265 -1.4866
 6082SOL     OW29707   0.339   4.402   6.118  0.1176 -0.3692  0.1228
 6082SOL    HW129708   0.259   4.454   6.104  1.9458  2.0169 -1.4639
 6082SOL    HW229709   0.365   4.439   6.202 -1.4382 -1.1118  0.9374
 6083SOL     OW29710   1.565   1.555  12.913 -0.4503 -0.0156  0.2583
 6083SOL    HW129711   1.631   1.625  12.909 -0.3516 -0.1061  0.3045
 6083SOL    HW229712   1.615   1.486  12.956 -0.5844 -1.2203 -1.5509
 6084SOL     OW29713   4.037   2.853   4.554  0.1252 -0.7895 -0.1974
 6084SOL    HW129714   3.960   2.798   4.539 -1.5384  1.3136  0.6213
 6084SOL    HW229715   4.109   2.808   4.510  0.4996 -0.3688 -0.0212
 6085SOL     OW29716   2.022   2.593   2.295 -0.3036  0.0022  0.3553
 6085SOL    HW129717   1.954   2.659   2.282 -0.1828 -0.0417 -0.5046
 6085SOL    HW229718   1.983   2.514   2.257 -2.3217  1.7210 -1.1724
 6086SOL     OW29719   2.287   3.879   5.449 -0.1854 -0.0908  0.0892
 6086SOL    HW129720   2.315   3.895   5.359  2.4107 -0.6159  0.8067
 6086SOL    HW229721   2.192   3.868   5.441  0.0574 -0.9396 -1.5601
 6087SOL     OW29722   3.383   2.527  15.240 -0.0464 -0.8304 -0.1327
 6087SOL    HW129723   3.306   2.533  15.183  1.4244  0.7044 -1.9914
 6087SOL    HW229724   3.451   2.488  15.185 -0.2021 -1.6569  0.2787
 6088SOL     OW29725   0.655   0.390   9.068  0.2622  0.3509  0.4566
 6088SOL    HW129726   0.586   0.336   9.107  0.0089  1.0514  0.9909
 6088SOL    HW229727   0.609   0.440   9.001  0.3021  0.2102  0.3262
 6089SOL     OW29728   2.658   0.588   8.640 -0.2333 -0.4885 -0.4538
 6089SOL    HW129729   2.597   0.539   8.585 -1.8328  0.4785  0.4575
 6089SOL    HW229730   2.635   0.550   8.725  1.6664 -0.3484  0.1103
 6090SOL     OW29731   0.094   2.418  16.798  0.0592 -0.4275  0.4121
 6090SOL    HW129732   0.112   2.420  16.704  3.0897 -3.4776  0.9140
 6090SOL    HW229733   0.090   2.513  16.805  0.1922 -0.3404 -0.7198
 6091SOL     OW29734   0.200   1.274   2.179  0.5281 -0.1291  0.1778
 6091SOL    HW129735   0.289   1.251   2.207  1.2909  1.4267 -0.9579
 6091SOL    HW229736   0.177   1.186   2.149  2.4833 -1.2046  1.8257
 6092SOL     OW29737   2.190   4.239   8.799  0.4362  0.5648  0.3025
 6092SOL    HW129738   2.123   4.178   8.767 -0.9428  1.2514  1.8541
 6092SOL    HW229739   2.179   4.236   8.894  2.5666 -1.6188  0.4774
 6093SOL     OW29740   1.402   0.164   6.599  0.2655 -0.0331  0.0455
 6093SOL    HW129741   1.448   0.174   6.683  0.0249 -2.6245  0.4677
 6093SOL    HW229742   1.321   0.124   6.632 -0.1186  1.7646  1.3034
 6094SOL     OW29743   4.195   3.542   5.495  0.5239 -0.8748  0.2433
 6094SOL    HW129744   4.215   3.489   5.572 -0.2868  0.8060  1.6112
 6094SOL    HW229745   4.278   3.554   5.449  0.9279 -0.3007  1.1251
 6095SOL     OW29746   2.587   0.188  10.450  0.3646 -0.2341  0.3288
 6095SOL    HW129747   2.637   0.145  10.381 -1.6933  0.3234 -1.4973
 6095SOL    HW229748   2.649   0.194  10.523  0.7953 -3.0858  0.2250
 6096SOL     OW29749   4.314   2.402   3.265 -0.3519  0.5063 -0.4861
 6096SOL    HW129750   4.353   2.485   3.290 -1.9142  1.3293 -0.7786
 6096SOL    HW229751   4.327   2.406   3.170  2.4584 -3.6245 -0.2795
 6097SOL     OW29752   0.303   4.175   6.542 -0.5833  0.0413 -0.4371
 6097SOL    HW129753   0.234   4.213   6.488  0.7877  1.2226 -1.3415
 6097SOL    HW229754   0.266   4.087   6.557  2.2239 -1.1955 -0.8977
 6098SOL     OW29755   2.577   3.329  16.092  0.2120 -0.0940  0.5780
 6098SOL    HW129756   2.633   3.349  16.167  2.0556 -1.5697 -0.4164
 6098SOL    HW229757   2.563   3.416  16.053  2.9414 -0.6574 -1.6672
 6099SOL     OW29758   2.445   1.285  16.352 -0.0097  0.0576  0.0520
 6099SOL    HW129759   2.404   1.201  16.374 -0.2469  0.0212 -0.5503
 6099SOL    HW229760   2.485   1.310  16.436 -0.9124  1.6190  0.0176
 6100SOL     OW29761   3.384   3.872   2.732  0.2582  0.0479 -0.1313
 6100SOL    HW129762   3.353   3.835   2.649 -0.5019  0.5494 -0.0788
 6100SOL    HW229763   3.303   3.903   2.772 -0.6965 -1.6906 -0.6833
 6101SOL     OW29764   1.453   4.249  15.990  0.2851  0.3978 -0.4251
 6101SOL    HW129765   1.383   4.184  15.984  1.7932 -1.4139  1.4290
 6101SOL    HW229766   1.442   4.308  15.916  1.3927 -0.1890 -1.0497
 6102SOL     OW29767   2.633   3.415  13.709  0.1029 -0.1207  0.2726
 6102SOL    HW129768   2.654   3.325  13.684  1.3524  0.6279 -1.3491
 6102SOL    HW229769   2.604   3.454  13.627 -0.3757 -1.0366  0.0101
 6103SOL     OW29770   3.501   3.363   5.672  0.0682  0.2506 -0.1108
 6103SOL    HW129771   3.486   3.430   5.738 -0.8349 -1.0211  0.9551
 6103SOL    HW229772   3.537   3.415   5.599 -1.0255 -0.9427 -1.5059
 6104SOL     OW29773   0.728   4.467   5.496  0.2639 -0.8813 -0.0167
 6104SOL    HW129774   0.651   4.519   5.517  2.1008  1.4206  0.9871
 6104SOL    HW229775   0.715   4.393   5.557 -3.3836 -0.8734 -0.8140
 6105SOL     OW29776   3.986   3.816   6.547  0.2660  0.3969 -0.1064
 6105SOL    HW129777   4.013   3.787   6.460 -3.0283 -0.6696 -0.7800
 6105SOL    HW229778   3.979   3.732   6.592  2.9393  0.4893  0.4683
 6106SOL     OW29779   4.122   1.063   3.906 -0.1192  0.0824 -0.4874
 6106SOL    HW129780   4.051   1.042   3.966 -0.3997  1.3373 -0.3884
 6106SOL    HW229781   4.100   1.153   3.882 -1.0161 -0.3286 -1.2171
 6107SOL     OW29782   2.371   0.290   3.187  0.7730 -0.3410  0.0566
 6107SOL    HW129783   2.283   0.299   3.152  1.7311  1.4871 -1.9000
 6107SOL    HW229784   2.356   0.360   3.251  0.6028 -0.3909  0.0694
 6108SOL     OW29785   0.318   2.619   2.752 -0.4171  0.1560 -0.2498
 6108SOL    HW129786   0.312   2.714   2.745 -1.4198  0.1192  0.1963
 6108SOL    HW229787   0.333   2.591   2.661  1.4549 -0.2068  0.1642
 6109SOL     OW29788   1.592   1.777   9.311 -0.1070  0.0966  0.2704
 6109SOL    HW129789   1.538   1.698   9.306  0.6678 -0.3807 -0.5559
 6109SOL    HW229790   1.665   1.770   9.372  0.5074  2.3005 -0.2196
 6110SOL     OW29791   1.043   0.401  15.363 -0.2374 -0.2784 -0.0409
 6110SOL    HW129792   1.054   0.469  15.296 -1.3846 -0.8080 -0.7663
 6110SOL    HW229793   1.092   0.447  15.432 -1.2684  1.0680 -0.1948
 6111SOL     OW29794   3.760   0.265   0.141 -0.5203  0.1210 -0.2970
 6111SOL    HW129795   3.819   0.269   0.066  0.8700  1.3416  0.8677
 6111SOL    HW229796   3.695   0.332   0.118  1.4643  2.5927  1.3171
 6112SOL     OW29797   1.580   4.147   7.930 -0.3245 -0.0781  0.3788
 6112SOL    HW129798   1.531   4.067   7.949 -0.3692 -0.4662 -1.3467
 6112SOL    HW229799   1.547   4.213   7.991  0.2365 -0.7082  1.3478
 6113SOL     OW29800   2.213   3.001   5.798  0.0063  0.0533  0.7062
 6113SOL    HW129801   2.147   2.933   5.780  1.3294 -1.2825  0.8979
 6113SOL    HW229802   2.220   2.989   5.893 -1.3752 -1.1191  0.6591
 6114SOL     OW29803   1.478   1.251   6.450 -0.3147 -0.2300 -0.2046
 6114SOL    HW129804   1.458   1.340   6.420 -2.2935 -0.5751  0.0942
 6114SOL    HW229805   1.393   1.211   6.466  1.0435 -2.6029  1.1488
 6115SOL     OW29806   3.724   1.070   6.436 -0.2627  0.0548 -0.1545
 6115SOL    HW129807   3.740   0.980   6.405  1.3818  1.5227 -3.5413
 6115SOL    HW229808   3.797   1.120   6.400 -0.6908  0.8911  0.1381
 6116SOL     OW29809   3.071   1.893   6.939  0.5922 -0.4160  0.1896
 6116SOL    HW129810   3.055   1.823   6.875  1.5464 -1.0593  0.6386
 6116SOL    HW229811   3.001   1.952   6.912  0.7363 -0.0253  0.6828
 6117SOL     OW29812   2.652   3.133   7.991 -0.1094  0.1226  0.4766
 6117SOL    HW129813   2.723   3.193   7.969  0.3231 -0.2286  0.9091
 6117SOL    HW229814   2.648   3.143   8.087 -0.0564  2.1125  0.2659
 6118SOL     OW29815   1.480   0.849   2.724 -0.3874 -0.3371 -0.3193
 6118SOL    HW129816   1.534   0.834   2.802 -0.5160 -0.8125 -0.3184
 6118SOL    HW229817   1.536   0.827   2.649 -0.4068  0.0867 -0.4581
 6119SOL     OW29818   2.692   2.582   7.939 -0.1720 -0.5136  0.2371
 6119SOL    HW129819   2.719   2.673   7.932  1.8902 -1.1869 -0.6807
 6119SOL    HW229820   2.668   2.567   7.848 -0.7903 -2.5557  0.7283
 6120SOL     OW29821   0.899   4.611   7.485 -0.3205  0.6571  0.4153
 6120SOL    HW129822   0.804   4.609   7.470 -0.2141 -3.2244  0.2285
 6120SOL    HW229823   0.929   4.537   7.433 -0.0966  0.6562  0.5454
 6121SOL     OW29824   4.332   1.969   7.781  0.5669 -0.0164  0.5236
 6121SOL    HW129825   4.399   2.035   7.794  1.6017 -0.8974 -0.3472
 6121SOL    HW229826   4.281   1.985   7.861 -1.3356 -1.0840 -0.4771
 6122SOL     OW29827   4.228   0.421   0.701  0.0775 -0.1033  0.0782
 6122SOL    HW129828   4.238   0.475   0.623 -0.6488  1.5589  1.1459
 6122SOL    HW229829   4.171   0.348   0.676  0.5408 -0.1039 -0.9865
 6123SOL     OW29830   3.798   1.079  10.958 -0.1543 -0.4743  0.0152
 6123SOL    HW129831   3.730   1.012  10.946 -1.0331  0.3580  0.2825
 6123SOL    HW229832   3.871   1.056  10.901  0.1114  0.5705 -0.0699
 6124SOL     OW29833   4.284   3.196  15.798  0.3823 -0.2343  0.3362
 6124SOL    HW129834   4.309   3.255  15.868 -0.2454 -0.4795  0.7707
 6124SOL    HW229835   4.221   3.142  15.846  0.3602  1.2359  1.9229
 6125SOL     OW29836   1.534   3.187   2.363  0.3862  0.0681  0.1236
 6125SOL    HW129837   1.603   3.181   2.297  1.1174 -0.2486  0.9109
 6125SOL    HW229838   1.478   3.135   2.306 -0.4916  2.9458 -1.6102
 6126SOL     OW29839   2.330   2.881   3.395 -0.1045 -0.2061 -0.0577
 6126SOL    HW129840   2.258   2.940   3.418 -0.8760 -2.1333  2.4638
 6126SOL    HW229841   2.397   2.943   3.366  0.5540 -0.7591  0.2991
 6127SOL     OW29842   2.255   2.034  11.162  0.2635 -0.2860 -0.3923
 6127SOL    HW129843   2.328   2.083  11.123  0.6235 -2.3612 -2.3179
 6127SOL    HW229844   2.191   2.072  11.102  1.8881  1.6957 -0.9017
 6128SOL     OW29845   0.663   3.953  12.908  0.4835 -0.7610 -0.3733
 6128SOL    HW129846   0.568   3.942  12.897  0.6623 -0.4208 -2.2990
 6128SOL    HW229847   0.697   3.922  12.824 -0.1835 -0.5923 -0.7082
 6129SOL     OW29848   0.013   2.846   7.971 -0.4436 -0.1798 -0.3819
 6129SOL    HW129849   0.014   2.857   7.876  2.0934 -0.5233 -0.3890
 6129SOL    HW229850   0.096   2.800   7.981 -0.9428 -0.9383  0.3707
 6130SOL     OW29851   4.350   2.421   6.252  0.2568  0.0911 -0.1797
 6130SOL    HW129852   4.355   2.331   6.281 -0.7532 -0.1573 -0.7756
 6130SOL    HW229853   4.299   2.405   6.172  2.0071  0.8354 -1.4556
 6131SOL     OW29854   2.864   2.902   2.722  0.2504  0.1957  0.0837
 6131SOL    HW129855   2.900   2.960   2.790 -2.1117  1.4830  0.2631
 6131SOL    HW229856   2.915   2.822   2.729 -0.0386 -0.0028 -0.0679
 6132SOL     OW29857   3.362   0.796   3.209 -0.0048  0.2988 -0.2593
 6132SOL    HW129858   3.332   0.706   3.194  0.3422  0.0132  0.7749
 6132SOL    HW229859   3.446   0.804   3.162  0.3605  0.3063  0.4015
 6133SOL     OW29860   2.367   4.025   3.937 -0.3098  0.0441 -0.8908
 6133SOL    HW129861   2.410   4.088   3.879  0.1645 -0.7038 -1.3571
 6133SOL    HW229862   2.348   3.957   3.872  0.4426 -2.1931  1.2303
 6134SOL     OW29863   0.049   3.306   3.727 -0.6644  0.5830 -0.5480
 6134SOL    HW129864   4.694   3.352   3.700 -1.1331  1.0541  1.6900
 6134SOL    HW229865   0.089   3.305   3.640  2.9816  1.0060  1.0998
 6135SOL     OW29866   0.987   1.473  15.684 -0.7993  0.1677 -0.1655
 6135SOL    HW129867   1.017   1.422  15.609 -0.1696 -0.6258  0.6323
 6135SOL    HW229868   0.899   1.501  15.656 -0.1477 -0.2519 -2.6840
 6136SOL     OW29869   0.120   0.740   0.289 -0.0348 -0.3753 -0.0696
 6136SOL    HW129870   0.108   0.827   0.327 -1.9000 -0.4773 -0.4458
 6136SOL    HW229871   0.064   0.746   0.211 -0.1062  3.9044  0.3219
 6137SOL     OW29872   1.725   1.548   3.545 -0.0714 -0.0954 -1.2138
 6137SOL    HW129873   1.716   1.539   3.639  0.7750  1.2595 -1.0080
 6137SOL    HW229874   1.748   1.640   3.542 -1.7013  0.2851 -1.6931
 6138SOL     OW29875   4.024   2.946   0.494  0.1767 -0.3592 -0.0333
 6138SOL    HW129876   3.950   3.006   0.504  1.0770  0.7181  0.0958
 6138SOL    HW229877   4.089   3.011   0.468  0.7789 -0.4934  1.1043
 6139SOL     OW29878   4.108   0.263   4.577  0.2208 -0.1812 -0.5710
 6139SOL    HW129879   4.140   0.277   4.488  1.1050 -0.1544 -0.2439
 6139SOL    HW229880   4.030   0.318   4.573  1.0336  1.0452  0.4178
 6140SOL     OW29881   2.726   4.453   7.292 -0.3292  0.0668 -0.0213
 6140SOL    HW129882   2.741   4.483   7.382 -0.1685 -0.0574 -0.0084
 6140SOL    HW229883   2.703   4.361   7.308  1.0152 -0.5355 -1.5329
 6141SOL     OW29884   2.147   4.400   2.697  0.7247  0.1404  0.2453
 6141SOL    HW129885   2.123   4.478   2.746  0.9601  0.6597 -0.4546
 6141SOL    HW229886   2.242   4.409   2.708  0.8990 -0.2529 -0.9421
 6142SOL     OW29887   2.838   1.374  14.749 -0.0279 -0.2059 -0.3206
 6142SOL    HW129888   2.816   1.427  14.826  0.6570 -2.2803  1.3171
 6142SOL    HW229889   2.869   1.298  14.799 -0.6413 -0.4262 -0.2731
 6143SOL     OW29890   2.668   3.386   8.703  0.8451  0.4156  0.0048
 6143SOL    HW129891   2.750   3.341   8.683  0.0376 -1.8067  1.6265
 6143SOL    HW229892   2.613   3.316   8.667  1.7757 -0.4265  0.2138
 6144SOL     OW29893   0.651   1.692  16.267 -0.2432  0.2903  0.0670
 6144SOL    HW129894   0.712   1.686  16.193  1.1473  1.0051  1.1590
 6144SOL    HW229895   0.648   1.604  16.304  1.4354  1.0373  1.9568
 6145SOL     OW29896   2.061   0.324   6.264 -0.3834 -0.1968 -0.3599
 6145SOL    HW129897   2.100   0.400   6.307 -0.3704  0.0219 -0.7665
 6145SOL    HW229898   2.007   0.297   6.338  0.2523  0.0414  0.1916
 6146SOL     OW29899   4.007   3.947  11.993 -0.0996  0.4683 -0.2134
 6146SOL    HW129900   4.023   3.974  12.084 -1.8161  1.2777 -0.1505
 6146SOL    HW229901   3.913   3.967  11.995 -0.0580  0.5546  1.1128
 6147SOL     OW29902   4.327   0.379  10.065  0.2898  0.6838 -0.1949
 6147SOL    HW129903   4.405   0.329  10.042  1.6666  3.2026 -0.9688
 6147SOL    HW229904   4.253   0.318  10.066  1.0391 -0.2490 -1.2042
 6148SOL     OW29905   4.434   0.464   5.078  0.1202 -0.2094 -0.2961
 6148SOL    HW129906   4.398   0.546   5.046 -0.7219  0.0267  1.2711
 6148SOL    HW229907   4.413   0.400   5.010  2.6785  0.9580 -2.1948
 6149SOL     OW29908   0.168   1.442   0.677 -0.0042  0.2061 -0.2112
 6149SOL    HW129909   0.109   1.474   0.608 -2.9390 -1.7779  1.3418
 6149SOL    HW229910   0.246   1.427   0.623 -0.7196  0.9828 -1.4789
 6150SOL     OW29911   0.852   0.711   7.639  0.1620  0.0863 -0.2317
 6150SOL    HW129912   0.932   0.687   7.687  0.5612  2.2718  0.2074
 6150SOL    HW229913   0.811   0.776   7.696  0.6605 -1.2856  1.6958
 6151SOL     OW29914   0.727   2.443  12.053 -0.0842 -0.0644  0.0089
 6151SOL    HW129915   0.768   2.401  11.977  1.4939  0.2738  0.6636
 6151SOL    HW229916   0.639   2.462  12.021  0.7349  1.7118 -1.2068
 6152SOL     OW29917   4.628   0.439   3.564  0.2062  0.5647 -0.0062
 6152SOL    HW129918   4.718   0.439   3.531  0.7054  1.0845  1.3458
 6152SOL    HW229919   4.589   0.359   3.529 -0.1078  1.6079 -2.0013
 6153SOL     OW29920   2.027   3.290   3.334 -0.0880 -0.5923  0.3134
 6153SOL    HW129921   2.071   3.242   3.264 -0.0954 -0.4243  0.1913
 6153SOL    HW229922   2.100   3.347   3.360 -0.7043  1.7299 -2.8946
 6154SOL     OW29923   3.913   0.164   1.275  0.6643  0.2049 -0.4363
 6154SOL    HW129924   3.920   0.094   1.211 -0.8898 -0.1168 -0.2655
 6154SOL    HW229925   3.877   0.234   1.220  0.3256  1.6276  1.5981
 6155SOL     OW29926   1.344   1.702   5.461 -0.5808  0.2132 -0.2517
 6155SOL    HW129927   1.391   1.619   5.468  0.1329  0.7257  1.0607
 6155SOL    HW229928   1.345   1.707   5.365  0.3198  1.6204 -0.1659
 6156SOL     OW29929   0.892   1.793   9.640  0.7064 -0.5327 -0.4783
 6156SOL    HW129930   0.877   1.882   9.672  0.2986 -1.1870  1.1612
 6156SOL    HW229931   0.811   1.777   9.591  0.1040  0.4804  0.1834
 6157SOL     OW29932   2.619   2.718   6.664 -0.5492  0.2608 -0.1920
 6157SOL    HW129933   2.548   2.734   6.602  0.2822  0.0633 -1.2109
 6157SOL    HW229934   2.569   2.667   6.728  0.3376 -0.6268 -0.2054
 6158SOL     OW29935   2.573   3.970   8.854  0.1928 -0.0331 -0.1584
 6158SOL    HW129936   2.557   3.884   8.814  2.8334  0.3545 -2.0650
 6158SOL    HW229937   2.496   3.984   8.909  1.9207  0.3766  2.1268
 6159SOL     OW29938   0.012   2.363   4.126 -0.0399 -0.1803  0.1460
 6159SOL    HW129939   0.021   2.458   4.118 -1.7396 -0.2497 -2.6420
 6159SOL    HW229940   0.001   2.355   4.220  0.1509 -1.5466  0.0514
 6160SOL     OW29941   4.518   2.675  17.384 -0.0294 -0.2662  0.0065
 6160SOL    HW129942   4.583   2.637  17.324  1.1923  2.1945 -0.2029
 6160SOL    HW229943   4.458   2.603  17.404 -0.0376 -1.0191 -2.8137
 6161SOL     OW29944   0.970   0.796   5.796  0.0185 -0.1590  0.0864
 6161SOL    HW129945   0.993   0.704   5.791  0.6318 -0.0279  0.4544
 6161SOL    HW229946   0.927   0.805   5.711 -2.7452  0.4716  1.5416
 6162SOL     OW29947   2.475   3.332   1.431 -0.1536 -0.6869 -0.1394
 6162SOL    HW129948   2.473   3.311   1.524 -1.9929  0.9133  0.1789
 6162SOL    HW229949   2.383   3.313   1.413 -0.0665  0.1846 -1.5558
 6163SOL     OW29950   4.481   4.521   3.981  0.2868 -0.4507  0.0825
 6163SOL    HW129951   4.441   4.464   4.046  1.6726 -1.2453  0.2418
 6163SOL    HW229952   4.439   4.495   3.899 -1.6900 -2.4427  1.7251
 6164SOL     OW29953   0.784   3.176   8.816 -0.3844 -0.4666  0.1442
 6164SOL    HW129954   0.788   3.265   8.848 -0.1310 -1.0747  1.7797
 6164SOL    HW229955   0.715   3.174   8.749 -0.1969  0.0712 -0.0625
 6165SOL     OW29956   2.268   2.800   5.473  0.5147  0.3429 -0.3722
 6165SOL    HW129957   2.192   2.774   5.421  0.0779  4.7812 -1.9543
 6165SOL    HW229958   2.236   2.882   5.512 -1.0459 -0.8466  0.8567
 6166SOL     OW29959   3.229   4.104   6.190  1.0835  0.7469  1.0576
 6166SOL    HW129960   3.296   4.040   6.164 -1.1671 -0.0945 -2.5869
 6166SOL    HW229961   3.176   4.053   6.252  1.3269 -2.4053 -1.3313
 6167SOL     OW29962   1.122   3.512  16.040  0.0342 -0.7584 -0.2655
 6167SOL    HW129963   1.026   3.511  16.036  0.0554 -2.0060 -0.4316
 6167SOL    HW229964   1.145   3.426  16.004  0.0811 -1.3675  1.1892
 6168SOL     OW29965   2.891   0.572   8.367 -0.2579 -0.7725  0.2941
 6168SOL    HW129966   2.939   0.612   8.440  0.1153 -0.0336 -0.3597
 6168SOL    HW229967   2.875   0.648   8.311  0.1549 -0.6236  0.3776
 6169SOL     OW29968   2.041   4.406   3.361  0.2628 -0.1549  0.4310
 6169SOL    HW129969   1.960   4.401   3.311  0.2804 -1.9293  0.5862
 6169SOL    HW229970   2.094   4.463   3.306 -0.4950  1.1553  1.0671
 6170SOL     OW29971   3.182   0.617   8.205 -0.2343  0.7273 -0.2597
 6170SOL    HW129972   3.097   0.658   8.185 -0.0948  0.2378 -1.8745
 6170SOL    HW229973   3.199   0.636   8.297 -0.7562 -1.0010  0.1794
 6171SOL     OW29974   3.088   4.524   6.735  0.7066 -0.0803 -0.3473
 6171SOL    HW129975   3.160   4.487   6.787  1.5068  0.6606 -0.9368
 6171SOL    HW229976   3.037   4.452   6.697 -0.1776  0.7919 -0.8099
 6172SOL     OW29977   1.715   0.016   4.836 -0.0880 -0.6326  0.1280
 6172SOL    HW129978   1.668   4.682   4.895 -1.7756  2.3693  1.7299
 6172SOL    HW229979   1.805   4.712   4.851 -0.3505 -2.5423 -1.7425
 6173SOL     OW29980   2.031   4.037   3.664  0.3601  0.1052  0.2406
 6173SOL    HW129981   2.105   3.982   3.640  0.6719  0.8706 -0.5543
 6173SOL    HW229982   2.041   4.032   3.759 -0.8991  1.6732  0.4519
 6174SOL     OW29983   2.890   1.441   8.551  0.0254 -0.9494 -0.1688
 6174SOL    HW129984   2.855   1.360   8.588  0.5126 -0.7625  0.7053
 6174SOL    HW229985   2.946   1.407   8.481 -2.0199  0.6812 -2.5791
 6175SOL     OW29986   2.023   1.235   5.105  0.3127  0.0480  0.7474
 6175SOL    HW129987   1.955   1.302   5.107  0.1164 -0.0962 -0.9759
 6175SOL    HW229988   1.999   1.171   5.172 -1.4464 -2.2118 -2.0612
 6176SOL     OW29989   1.321   1.949   2.634 -0.0339 -0.2736 -0.1597
 6176SOL    HW129990   1.259   2.020   2.615 -0.1558 -0.1032  0.9010
 6176SOL    HW229991   1.388   1.966   2.567 -1.2137 -0.2484 -1.3451
 6177SOL     OW29992   1.352   0.908   9.314  0.5422  0.6594 -0.5276
 6177SOL    HW129993   1.351   0.951   9.228 -0.0942  1.1005 -0.2971
 6177SOL    HW229994   1.261   0.879   9.318  1.0059 -0.6116  0.7811
 6178SOL     OW29995   3.279   4.663   2.035 -0.2364  0.6186 -0.1736
 6178SOL    HW129996   3.330   4.713   2.099 -1.9186 -0.5432  2.0630
 6178SOL    HW229997   3.216   0.010   2.021 -1.0175 -0.4732 -2.1984
 6179SOL     OW29998   3.643   0.031  14.903  0.4500  0.0809  0.3775
 6179SOL    HW129999   3.603   0.030  14.990  1.8645  1.0343  1.0386
 6179SOL    HW230000   3.716   4.697  14.919  1.2717  0.7717 -0.7986
 6180SOL     OW30001   2.818   2.263  14.598 -0.0725  0.0811 -0.1010
 6180SOL    HW130002   2.899   2.313  14.584  0.0306 -0.3434 -1.0285
 6180SOL    HW230003   2.781   2.311  14.672  1.6130  0.9918  0.1484
 6181SOL     OW30004   3.768   0.957  16.658  0.1827 -0.0226  0.2373
 6181SOL    HW130005   3.826   0.969  16.732  2.7636  0.8033 -1.9408
 6181SOL    HW230006   3.737   0.869  16.682  1.4654 -0.4557  0.3223
 6182SOL     OW30007   2.665   3.348   9.455  0.4697  0.1860 -0.0316
 6182SOL    HW130008   2.648   3.437   9.423  0.8681  0.9805  1.9457
 6182SOL    HW230009   2.717   3.376   9.531 -0.9994  2.8200  0.0139
 6183SOL     OW30010   0.058   0.494   2.353 -0.1487 -0.5149  0.3097
 6183SOL    HW130011   0.143   0.526   2.324 -0.7236 -1.2270 -2.2213
 6183SOL    HW230012   0.022   0.570   2.399 -1.4474 -0.8700 -0.1136
 6184SOL     OW30013   3.050   3.052   5.357 -0.1696  0.0242  0.2512
 6184SOL    HW130014   3.144   3.040   5.369 -0.0685  0.9113  0.3616
 6184SOL    HW230015   3.042   3.133   5.408 -0.8178  0.0140  0.1706
 6185SOL     OW30016   0.711   3.318   4.390  0.5643  0.4767  0.0667
 6185SOL    HW130017   0.792   3.336   4.342  0.2023  0.8438 -0.4092
 6185SOL    HW230018   0.674   3.401   4.418 -2.1503 -0.2798 -1.3036
 6186SOL     OW30019   4.209   3.936   1.496  0.0042 -0.6641 -0.2488
 6186SOL    HW130020   4.289   3.887   1.516 -1.8187 -3.6864 -0.3099
 6186SOL    HW230021   4.242   3.980   1.417  0.6387 -1.0595 -0.2076
 6187SOL     OW30022   3.050   4.160   4.497 -0.0477  0.0684 -0.4602
 6187SOL    HW130023   3.104   4.103   4.443 -1.4214 -1.0236 -0.6800
 6187SOL    HW230024   3.010   4.093   4.552 -0.3516  0.2789 -0.4246
 6188SOL     OW30025   4.289   4.145   4.928 -0.3073 -0.1051  0.0326
 6188SOL    HW130026   4.226   4.087   4.884 -2.1538  2.5372 -0.8065
 6188SOL    HW230027   4.319   4.195   4.852 -0.2830 -0.6503 -0.3180
 6189SOL     OW30028   2.270   1.061  16.929 -0.2720 -0.5348  0.2058
 6189SOL    HW130029   2.248   0.976  16.892 -2.9598 -0.1722  0.9863
 6189SOL    HW230030   2.182   1.089  16.955 -1.1698 -1.5937 -1.7136
 6190SOL     OW30031   0.294   4.338   1.981  0.1757  0.0263  0.1620
 6190SOL    HW130032   0.255   4.309   1.898 -0.5531 -2.5512  1.4095
 6190SOL    HW230033   0.221   4.396   2.005 -1.2524 -0.8813 -2.0001
 6191SOL     OW30034   2.647   4.518  12.260  0.0438 -0.0475  0.5972
 6191SOL    HW130035   2.713   4.456  12.230 -0.1851 -0.8803  1.8114
 6191SOL    HW230036   2.563   4.475  12.243  0.6540 -0.9592 -0.0916
 6192SOL     OW30037   2.397   3.507   3.777  0.6436  0.3112  0.9837
 6192SOL    HW130038   2.481   3.526   3.819  1.2000  0.4224 -0.1800
 6192SOL    HW230039   2.418   3.531   3.687 -0.6900 -0.7165  0.4048
 6193SOL     OW30040   0.465   3.660   2.340 -0.0311  0.3040 -0.1095
 6193SOL    HW130041   0.442   3.652   2.247 -0.0162 -0.7415 -0.0209
 6193SOL    HW230042   0.554   3.697   2.336  0.0838 -0.1734 -2.4420
 6194SOL     OW30043   0.234   4.046  14.245  0.1004 -0.0880  0.2590
 6194SOL    HW130044   0.139   4.046  14.235 -0.2206  4.6250  3.4833
 6194SOL    HW230045   0.268   3.991  14.174  2.8562  0.4905  1.1268
 6195SOL     OW30046   4.630   0.892  15.448 -0.3070 -0.3178 -0.4673
 6195SOL    HW130047   4.616   0.979  15.487  0.2368 -0.1167 -0.7175
 6195SOL    HW230048   4.541   0.864  15.466  0.6488 -2.1425  1.5174
 6196SOL     OW30049   2.885   2.831   2.460 -0.4028  0.6801 -0.2331
 6196SOL    HW130050   2.828   2.757   2.483  0.7196  0.6911  2.6345
 6196SOL    HW230051   2.892   2.876   2.544  1.9727  0.6781 -0.4181
 6197SOL     OW30052   4.339   1.146   5.480 -0.0778 -0.0880  0.0476
 6197SOL    HW130053   4.378   1.170   5.564 -1.8369  0.1515  0.7847
 6197SOL    HW230054   4.363   1.057   5.454  0.4414  0.4826 -1.4534
 6198SOL     OW30055   2.157   3.724   9.363 -0.3138 -0.0338 -0.0624
 6198SOL    HW130056   2.117   3.659   9.421 -0.1528  1.6191  1.8857
 6198SOL    HW230057   2.244   3.734   9.400  0.7979 -1.3979 -2.3180
 6199SOL     OW30058   0.994   1.822   7.721  0.0660  0.4276  0.2977
 6199SOL    HW130059   0.943   1.742   7.710  2.1472 -0.5995 -1.8718
 6199SOL    HW230060   1.076   1.792   7.760  1.0148  0.3430 -1.7969
 6200SOL     OW30061   2.278   1.820  13.254 -0.0078 -0.1977  0.6813
 6200SOL    HW130062   2.184   1.837  13.255  0.3056  1.4553  1.0214
 6200SOL    HW230063   2.285   1.752  13.321  1.4581 -0.0497  0.6809
 6201SOL     OW30064   3.690   4.682  14.154 -0.0431 -0.2984 -0.2437
 6201SOL    HW130065   3.732   0.042  14.171  1.3635 -1.1278  0.4344
 6201SOL    HW230066   3.704   4.681  14.059  3.4094  0.8594  0.2208
 6202SOL     OW30067   1.201   3.659  11.360 -0.6165  0.6100  0.2008
 6202SOL    HW130068   1.197   3.687  11.451  1.0384  1.6144 -0.0285
 6202SOL    HW230069   1.131   3.717  11.330  0.8798  1.5135 -1.5423
 6203SOL     OW30070   3.155   2.428  12.994  0.0900  0.1607 -0.0847
 6203SOL    HW130071   3.100   2.394  12.924 -1.7483 -1.5827  2.2087
 6203SOL    HW230072   3.237   2.398  12.955  0.7460 -0.9818  2.1516
 6204SOL     OW30073   1.357   0.590   7.225 -0.2952  0.0314  0.3118
 6204SOL    HW130074   1.435   0.543   7.252 -0.4496 -1.8731 -2.6161
 6204SOL    HW230075   1.317   0.525   7.166 -0.2193 -1.0382  1.4407
 6205SOL     OW30076   4.559   0.629   1.559  0.3846 -0.4701 -0.5624
 6205SOL    HW130077   4.486   0.606   1.502  0.0662 -0.7990 -0.0225
 6205SOL    HW230078   4.532   0.566   1.625  1.7736 -2.1375 -1.5996
 6206SOL     OW30079   4.307   1.807   2.909 -0.2716  0.4939 -0.9977
 6206SOL    HW130080   4.263   1.884   2.945 -0.9786  0.7298 -2.3742
 6206SOL    HW230081   4.323   1.835   2.819 -2.4638  0.9697 -1.2374
 6207SOL     OW30082   1.514   4.664  17.089  0.1354 -0.4064 -0.4570
 6207SOL    HW130083   1.420   4.681  17.081  0.0612 -0.6150 -0.0738
 6207SOL    HW230084   1.524   4.666  17.185  3.8935 -1.6563 -0.8306
 6208SOL     OW30085   3.579   1.380  11.063 -0.6970 -0.1944 -0.5801
 6208SOL    HW130086   3.666   1.344  11.084 -1.0937 -0.3563  0.7907
 6208SOL    HW230087   3.580   1.363  10.969 -1.8745 -0.4233 -0.5424
 6209SOL     OW30088   1.642   3.701  10.507  0.1363  0.4320 -0.4108
 6209SOL    HW130089   1.646   3.796  10.492 -0.3433  0.2427 -1.7447
 6209SOL    HW230090   1.735   3.685  10.522 -0.4579  0.0412  2.7122
 6210SOL     OW30091   4.443   1.411   3.066  0.7579  0.6920  0.3030
 6210SOL    HW130092   4.455   1.471   2.993 -0.5975 -1.7121 -1.9030
 6210SOL    HW230093   4.530   1.371   3.061  0.6233  0.5185 -0.6505
 6211SOL     OW30094   3.218   3.946   5.087  0.2391  0.2099 -0.2937
 6211SOL    HW130095   3.137   3.919   5.130  0.5284 -1.2407 -0.6746
 6211SOL    HW230096   3.209   3.918   4.996 -1.2676 -0.8205  0.1818
 6212SOL     OW30097   2.372   4.326   3.906 -0.0364  0.2065 -0.0422
 6212SOL    HW130098   2.283   4.358   3.893  0.5692  0.6250 -3.3349
 6212SOL    HW230099   2.390   4.307   3.813  2.5278 -0.0069  0.5002
 6213SOL     OW30100   4.658   1.112   4.822 -0.6164 -0.5845  0.1845
 6213SOL    HW130101   4.589   1.123   4.887 -1.3019 -0.5638 -0.5490
 6213SOL    HW230102   4.648   1.020   4.801 -1.8608 -1.3004  3.8132
 6214SOL     OW30103   2.160   2.427  11.721 -0.1487  0.3007  0.6274
 6214SOL    HW130104   2.255   2.427  11.731 -0.2444  1.2378  1.5013
 6214SOL    HW230105   2.144   2.521  11.732 -3.0009 -0.0995 -0.1059
 6215SOL     OW30106   1.359   3.016   6.216  0.5644  0.7232 -0.1936
 6215SOL    HW130107   1.446   3.047   6.191  0.6926 -0.3355 -1.0622
 6215SOL    HW230108   1.340   3.092   6.271  1.7087 -0.7160  2.2197
 6216SOL     OW30109   0.736   2.202   1.994  0.3149  0.5901  0.0188
 6216SOL    HW130110   0.768   2.158   1.916 -1.1940 -0.6027  0.0650
 6216SOL    HW230111   0.642   2.216   1.979  0.1071 -0.1426  0.6307
 6217SOL     OW30112   0.361   3.283  15.512  0.3279  0.4121  0.0767
 6217SOL    HW130113   0.308   3.220  15.560 -3.1361  1.9476 -1.7372
 6217SOL    HW230114   0.446   3.241  15.497  2.2435  3.5710  2.1841
 6218SOL     OW30115   1.239   2.081   7.771 -0.7031 -0.2499  0.4293
 6218SOL    HW130116   1.165   2.101   7.713 -0.7036  1.0563  0.8801
 6218SOL    HW230117   1.291   2.017   7.722 -0.4390  0.7835 -0.6466
 6219SOL     OW30118   2.726   1.318   0.520  0.0390  0.3032 -0.1427
 6219SOL    HW130119   2.744   1.368   0.600 -1.1502  0.7829 -0.1660
 6219SOL    HW230120   2.631   1.327   0.525 -0.1339 -1.9623  0.9817
 6220SOL     OW30121   0.854   1.096  14.337 -0.3696 -0.2220 -0.3532
 6220SOL    HW130122   0.921   1.055  14.391 -0.3656 -3.4240 -2.7937
 6220SOL    HW230123   0.810   1.021  14.297 -0.5909 -0.4242  0.2643
 6221SOL     OW30124   3.902   1.199   6.214  0.3395  0.6359 -0.0773
 6221SOL    HW130125   3.917   1.212   6.121  2.3225 -0.4930  0.0928
 6221SOL    HW230126   3.950   1.119   6.233  0.6447  0.6263 -0.8900
 6222SOL     OW30127   0.870   2.001  12.806 -0.1695  0.2053 -0.2238
 6222SOL    HW130128   0.802   2.068  12.802  1.6999  2.1662  0.7097
 6222SOL    HW230129   0.820   1.941  12.861 -1.5345  0.8909 -0.7205
 6223SOL     OW30130   1.610   0.878   1.251  0.0694 -0.2149 -0.0038
 6223SOL    HW130131   1.656   0.951   1.292  0.1508 -0.3191  0.0918
 6223SOL    HW230132   1.662   0.800   1.233 -2.1423 -1.5059 -0.9104
 6224SOL     OW30133   4.139   1.852   6.693  0.7368 -0.7701  0.1557
 6224SOL    HW130134   4.058   1.887   6.656  0.1839 -1.6180  0.5614
 6224SOL    HW230135   4.127   1.821   6.783  0.2088  1.9575  1.0176
 6225SOL     OW30136   3.841   4.636   3.387 -0.2449 -0.0158  0.0220
 6225SOL    HW130137   3.858   4.560   3.331 -3.8657 -0.0157 -1.0353
 6225SOL    HW230138   3.874   4.709   3.336 -0.1952 -0.5653 -0.7225
 6226SOL     OW30139   0.974   0.028  12.073 -0.4455  0.2337  0.1504
 6226SOL    HW130140   1.002   4.707  12.152  1.7644 -0.1174 -0.8474
 6226SOL    HW230141   1.055   0.031  12.022 -1.8579  1.2185 -2.0466
 6227SOL     OW30142   0.311   0.512   8.409  0.2614 -0.0670  0.2668
 6227SOL    HW130143   0.260   0.437   8.440 -2.2990  1.2872 -0.6827
 6227SOL    HW230144   0.384   0.511   8.472 -1.0225  0.9372  1.7887
 6228SOL     OW30145   4.270   3.403   7.045 -0.0200  0.3857  0.0653
 6228SOL    HW130146   4.187   3.354   7.046 -0.4018  0.9921 -1.5870
 6228SOL    HW230147   4.327   3.331   7.070 -0.9204 -0.4546 -0.2866
 6229SOL     OW30148   1.247   4.262   5.666 -0.2459  0.3992 -0.0710
 6229SOL    HW130149   1.335   4.301   5.667 -0.4437  0.8355  2.7273
 6229SOL    HW230150   1.264   4.175   5.702 -1.3304  0.4739  0.6250
 6230SOL     OW30151   0.005   0.775   0.040  0.0049  0.1600 -0.0241
 6230SOL    HW130152   0.006   0.736  17.653 -1.1080  0.3186 -0.1119
 6230SOL    HW230153   0.024   0.866   0.017  1.6022  0.2850  1.7373
 6231SOL     OW30154   0.767   4.136   2.476  0.4391 -0.9139 -0.0852
 6231SOL    HW130155   0.694   4.170   2.425 -0.0412 -2.1157 -0.2140
 6231SOL    HW230156   0.794   4.062   2.422  0.8802 -0.3761 -0.5990
 6232SOL     OW30157   3.499   4.611  13.255  0.7574 -0.3578  0.4639
 6232SOL    HW130158   3.562   4.684  13.259  0.9399 -0.3851 -1.8435
 6232SOL    HW230159   3.560   4.538  13.253  0.5475 -0.5561  1.3384
 6233SOL     OW30160   4.016   2.117   7.714 -0.3920 -0.3242 -0.1914
 6233SOL    HW130161   4.087   2.161   7.667 -0.8231 -0.4548 -0.9655
 6233SOL    HW230162   3.948   2.170   7.673 -0.0664 -0.0720 -0.4081
 6234SOL     OW30163   3.521   4.341   4.028  0.3916 -0.1537  0.5791
 6234SOL    HW130164   3.595   4.401   4.017  1.2136 -1.2824  0.0184
 6234SOL    HW230165   3.533   4.326   4.122  2.4144  1.3917  0.5962
 6235SOL     OW30166   0.788   3.379  12.772  0.7053  0.1882  0.1125
 6235SOL    HW130167   0.710   3.328  12.748  2.0818 -0.5139 -2.8011
 6235SOL    HW230168   0.745   3.458  12.805  3.7458  0.7456  2.6335
 6236SOL     OW30169   1.249   4.202   6.637 -0.2451  0.3486  0.2286
 6236SOL    HW130170   1.186   4.138   6.603  0.5186  0.6562 -1.7711
 6236SOL    HW230171   1.298   4.239   6.564  0.5317 -0.1405  0.4979
 6237SOL     OW30172   1.420   3.544   5.744  0.1463 -0.4662  0.4222
 6237SOL    HW130173   1.331   3.579   5.751  0.7627  1.4585 -1.2426
 6237SOL    HW230174   1.394   3.454   5.763 -0.3880 -0.3402  0.2851
 6238SOL     OW30175   0.591   4.593   1.613 -0.4479 -0.1340  0.3978
 6238SOL    HW130176   0.529   4.661   1.585 -0.6054 -0.1938  0.5963
 6238SOL    HW230177   0.584   4.597   1.709  0.2846  2.0080  0.3577
 6239SOL     OW30178   4.471   1.992   5.938  0.3401  0.1201 -0.2274
 6239SOL    HW130179   4.477   1.910   5.988 -2.3523  1.8087  2.8599
 6239SOL    HW230180   4.558   1.984   5.898  0.9943  1.1957  0.9445
 6240SOL     OW30181   1.513   1.760  15.895 -0.2525 -0.5716 -0.2564
 6240SOL    HW130182   1.601   1.723  15.908  0.5596  1.4031 -0.0935
 6240SOL    HW230183   1.536   1.809  15.816 -1.3392  0.8457  0.3210
 6241SOL     OW30184   4.327   1.851   0.454  0.1503 -0.0110 -0.6155
 6241SOL    HW130185   4.254   1.869   0.513  2.8559 -0.1591  2.7252
 6241SOL    HW230186   4.403   1.845   0.511 -0.2728 -0.6963 -0.1294
 6242SOL     OW30187   1.154   3.899  10.126 -0.5942  0.5250 -0.4388
 6242SOL    HW130188   1.136   3.844  10.050  0.5502  1.8076 -1.6292
 6242SOL    HW230189   1.199   3.840  10.187 -1.2769 -1.4655 -1.8725
 6243SOL     OW30190   1.543   3.776  17.396  0.3112 -0.0463  0.2168
 6243SOL    HW130191   1.481   3.734  17.335  0.0199 -0.6872  0.9522
 6243SOL    HW230192   1.492   3.790  17.475  1.1268  0.8048  0.5838
 6244SOL     OW30193   1.789   3.384   7.115 -0.2373  0.4554 -0.3814
 6244SOL    HW130194   1.818   3.442   7.186 -1.7290  0.7376 -0.0110
 6244SOL    HW230195   1.697   3.377   7.140  0.0810  0.9459  0.9718
 6245SOL     OW30196   3.622   0.303   1.670 -0.1064  0.3319  0.1134
 6245SOL    HW130197   3.620   0.258   1.586  1.5502 -0.8436  0.7063
 6245SOL    HW230198   3.532   0.284   1.698  0.1480 -2.0912 -0.6738
 6246SOL     OW30199   4.563   2.108   8.424 -0.2027 -0.2389 -0.0905
 6246SOL    HW130200   4.594   2.085   8.337  1.0148  0.8331  0.0495
 6246SOL    HW230201   4.629   2.062   8.477  1.0278 -0.0139 -1.4482
 6247SOL     OW30202   0.018   4.516   7.461 -0.0548 -0.0467  0.4584
 6247SOL    HW130203   4.683   4.454   7.418  0.6004 -1.2593  1.2978
 6247SOL    HW230204   0.099   4.470   7.438  0.7038  0.2579  2.5602
 6248SOL     OW30205   2.947   2.868   7.793  0.1041 -0.1285  0.4964
 6248SOL    HW130206   2.990   2.871   7.879  0.0256  0.0064  0.5303
 6248SOL    HW230207   2.955   2.779   7.759  1.1807  0.5524 -0.9908
 6249SOL     OW30208   0.173   1.032   8.881 -0.1199 -0.7515  0.3562
 6249SOL    HW130209   0.254   0.983   8.874  1.5162  1.8499  0.8797
 6249SOL    HW230210   0.211   1.099   8.939  1.4627 -1.0976 -0.2921
 6250SOL     OW30211   1.753   1.067   4.717  0.1400 -0.0777 -0.0833
 6250SOL    HW130212   1.798   1.079   4.633 -1.0520 -0.8864 -0.8213
 6250SOL    HW230213   1.699   1.146   4.721  3.2313  1.9738  2.2290
 6251SOL     OW30214   4.026   2.612   2.921  0.5869  0.2185  0.0260
 6251SOL    HW130215   3.942   2.568   2.907  0.2134  1.5976 -2.0095
 6251SOL    HW230216   4.073   2.532   2.945  0.7778  0.2741 -0.1561
 6252SOL     OW30217   0.823   0.767   7.915 -0.2784 -0.3241 -0.2126
 6252SOL    HW130218   0.855   0.678   7.902 -0.6601 -0.4382 -0.3809
 6252SOL    HW230219   0.897   0.812   7.874 -0.6394 -1.5230 -2.1634
 6253SOL     OW30220   0.473   4.304   7.778 -0.2165  0.1081 -0.3557
 6253SOL    HW130221   0.526   4.252   7.717 -0.5694 -1.0969  0.3634
 6253SOL    HW230222   0.523   4.284   7.857 -0.0696 -1.8884 -0.9446
 6254SOL     OW30223   3.562   3.885  11.299 -0.0942  0.7232  0.3691
 6254SOL    HW130224   3.624   3.846  11.237  0.9550 -0.5991  2.2582
 6254SOL    HW230225   3.536   3.813  11.355  0.3015 -0.6398 -1.1879
 6255SOL     OW30226   1.619   3.984   6.410 -0.1524 -0.5284  0.2159
 6255SOL    HW130227   1.593   3.959   6.321  1.3821  2.9014 -1.1688
 6255SOL    HW230228   1.573   3.928   6.473 -0.4223  1.3795  1.7081
 6256SOL     OW30229   1.017   2.796   8.500  0.3971  0.6182  0.1768
 6256SOL    HW130230   1.001   2.889   8.483  0.4412  0.6470  0.2981
 6256SOL    HW230231   0.939   2.759   8.457  0.9799 -0.9588  0.4606
 6257SOL     OW30232   0.569   4.121   7.606 -0.5234  0.0570 -0.1317
 6257SOL    HW130233   0.647   4.073   7.578 -1.6283 -1.2384 -0.9945
 6257SOL    HW230234   0.526   4.133   7.521  1.3817 -2.5511 -1.4688
 6258SOL     OW30235   4.532   0.462   8.269  0.0301  0.3240 -0.2198
 6258SOL    HW130236   4.568   0.398   8.207  1.6843 -0.2804  1.3789
 6258SOL    HW230237   4.557   0.547   8.234 -1.7790  0.5844 -0.9235
 6259SOL     OW30238   4.511   4.508   6.921  0.1423  0.2299  0.3190
 6259SOL    HW130239   4.444   4.529   6.987  0.4366 -0.4175  0.8297
 6259SOL    HW230240   4.490   4.416   6.904 -1.2772  0.6276 -0.1192
 6260SOL     OW30241   1.100   3.285   6.195  0.4796 -0.1546  0.1581
 6260SOL    HW130242   1.046   3.233   6.255 -0.5788  0.4920 -0.2196
 6260SOL    HW230243   1.159   3.320   6.262 -0.2437 -1.6086  1.5579
 6261SOL     OW30244   0.891   0.606  11.747  0.0195 -0.1442 -0.0037
 6261SOL    HW130245   0.811   0.626  11.795  1.2110 -0.4675  2.1000
 6261SOL    HW230246   0.899   0.516  11.779  1.3399 -0.4148 -1.0695
 6262SOL     OW30247   2.524   3.540  12.219  0.0889  0.0507 -0.6863
 6262SOL    HW130248   2.457   3.549  12.287  0.1842 -0.5502 -0.5089
 6262SOL    HW230249   2.471   3.524  12.141  0.0774 -1.2510 -0.4203
 6263SOL     OW30250   1.225   4.720   1.981 -0.2337  0.1957  0.1647
 6263SOL    HW130251   1.133   0.011   2.002 -0.8634 -1.2256 -1.5677
 6263SOL    HW230252   1.236   0.034   1.894 -1.6339 -3.1719 -1.4800
 6264SOL     OW30253   1.675   2.631   4.623  0.4928 -0.1549 -0.1329
 6264SOL    HW130254   1.734   2.556   4.632 -0.7568 -1.2771 -1.2622
 6264SOL    HW230255   1.723   2.676   4.554  0.5718 -1.9560 -1.2796
 6265SOL     OW30256   2.970   3.684   5.487  0.6189  0.0645 -0.1013
 6265SOL    HW130257   2.991   3.597   5.453  1.0097  0.3757 -0.6653
 6265SOL    HW230258   3.037   3.677   5.555  1.3044 -0.8918 -0.8677
 6266SOL     OW30259   2.226   3.355   9.513  0.3029  0.3739 -0.1653
 6266SOL    HW130260   2.201   3.275   9.560  2.7347 -0.4224 -0.2547
 6266SOL    HW230261   2.158   3.410   9.555 -0.0214  0.5673 -0.9484
 6267SOL     OW30262   2.629   2.736   7.284 -0.2955 -0.2105 -0.7166
 6267SOL    HW130263   2.672   2.667   7.335  0.3373 -0.1819 -1.2040
 6267SOL    HW230264   2.626   2.819   7.333 -2.0610 -0.6705 -0.0652
 6268SOL     OW30265   2.731   4.398   3.150 -0.2301  0.2268  0.2064
 6268SOL    HW130266   2.823   4.392   3.126 -0.4552  0.0406 -0.6021
 6268SOL    HW230267   2.706   4.306   3.139  0.8162 -0.2879  2.1190
 6269SOL     OW30268   3.376   2.469   3.745  0.2633 -0.2754 -0.4612
 6269SOL    HW130269   3.355   2.417   3.668  0.7058 -1.0428 -0.0610
 6269SOL    HW230270   3.375   2.402   3.813 -0.8995  0.0140 -0.1924
 6270SOL     OW30271   2.821   2.700   0.479  0.0164  0.2051  0.1702
 6270SOL    HW130272   2.767   2.621   0.475 -0.2715  0.3672  0.8759
 6270SOL    HW230273   2.852   2.686   0.569 -0.1725  1.4276  0.4318
 6271SOL     OW30274   2.080   0.144   4.013 -0.2742 -0.2380 -0.3156
 6271SOL    HW130275   2.168   0.107   4.022 -0.0016 -0.0169 -2.2600
 6271SOL    HW230276   2.064   0.129   3.920 -1.2772  0.9167 -0.3236
 6272SOL     OW30277   2.771   0.262   0.381  0.0557 -0.1644  0.6511
 6272SOL    HW130278   2.779   0.338   0.324 -0.6916  0.8858  1.9540
 6272SOL    HW230279   2.850   0.214   0.356  0.7764  2.7718 -2.7941
 6273SOL     OW30280   1.142   2.654  11.443  0.5428 -0.0364 -0.2203
 6273SOL    HW130281   1.135   2.720  11.374 -0.3521  0.6197  0.5162
 6273SOL    HW230282   1.232   2.629  11.421  0.3804 -1.0787  0.2911
 6274SOL     OW30283   1.238   1.788   2.839  0.1684  0.2445 -0.3796
 6274SOL    HW130284   1.198   1.855   2.893  1.6269 -0.2779  1.3484
 6274SOL    HW230285   1.267   1.852   2.774 -0.2062  0.3570 -0.4334
 6275SOL     OW30286   3.604   2.491   2.357  0.0945 -0.3459 -0.2142
 6275SOL    HW130287   3.510   2.502   2.370  0.1821  2.0660 -1.5538
 6275SOL    HW230288   3.614   2.396   2.353  0.0447 -0.4233  1.7410
 6276SOL     OW30289   0.378   0.299   4.624  0.1639 -0.4045 -0.7180
 6276SOL    HW130290   0.457   0.259   4.661 -0.4139  0.0773  1.0172
 6276SOL    HW230291   0.335   0.328   4.704  0.2729 -0.0917 -0.7764
 6277SOL     OW30292   1.216   2.109   9.033 -0.3727 -0.1833  0.0727
 6277SOL    HW130293   1.149   2.062   8.984  1.0570 -0.6094 -1.4916
 6277SOL    HW230294   1.209   2.064   9.117  0.6331 -0.3295  0.0791
 6278SOL     OW30295   3.701   1.223   0.860 -0.3820 -0.0962  0.2339
 6278SOL    HW130296   3.636   1.211   0.790  1.2383 -1.3105 -1.0478
 6278SOL    HW230297   3.681   1.153   0.923  0.0196 -1.6642 -1.3588
 6279SOL     OW30298   4.025   4.277   7.264 -0.0137 -0.4371  0.1470
 6279SOL    HW130299   4.007   4.218   7.191 -1.9918 -1.5115  1.4977
 6279SOL    HW230300   4.105   4.239   7.301  0.1156  0.4225  0.7312
 6280SOL     OW30301   1.022   1.594   2.841 -0.0387 -0.5389  0.2617
 6280SOL    HW130302   1.070   1.518   2.806 -0.7790 -1.3985  1.1264
 6280SOL    HW230303   1.101   1.635   2.875 -0.3324  1.2694 -1.2098
 6281SOL     OW30304   2.764   3.266  14.330 -0.0655  0.3314 -0.2268
 6281SOL    HW130305   2.858   3.271  14.346 -0.0322 -0.2202 -0.2522
 6281SOL    HW230306   2.727   3.345  14.369 -1.4418 -1.2351  1.6166
 6282SOL     OW30307   0.394   3.374   4.899  0.2931 -0.0442 -0.2014
 6282SOL    HW130308   0.469   3.315   4.902 -0.7891 -1.3584  0.9555
 6282SOL    HW230309   0.415   3.426   4.976  0.9369 -0.4562 -0.1035
 6283SOL     OW30310   4.638   2.443   3.425  0.2753  0.4891  0.0874
 6283SOL    HW130311   4.589   2.511   3.378  0.9668  0.1717 -1.0904
 6283SOL    HW230312   4.697   2.413   3.356  1.1048  1.6386  0.3029
 6284SOL     OW30313   4.577   1.138   7.372 -0.1246  0.0992 -0.1266
 6284SOL    HW130314   4.567   1.207   7.306 -0.8750 -0.5295 -0.6763
 6284SOL    HW230315   4.555   1.186   7.451 -1.9951  1.3059 -1.3843
 6285SOL     OW30316   3.865   2.157   4.614 -0.3997  0.3512 -0.6754
 6285SOL    HW130317   3.945   2.183   4.568 -1.2634  1.8108 -1.3611
 6285SOL    HW230318   3.814   2.238   4.617 -2.9253 -1.3935  4.1948
 6286SOL     OW30319   2.648   0.041  17.407  0.2929  0.2271 -0.1362
 6286SOL    HW130320   2.724   4.709  17.423  0.6127  0.2595 -1.5911
 6286SOL    HW230321   2.622   0.042  17.499 -0.1411 -0.0738 -0.2547
 6287SOL     OW30322   4.461   1.306   1.917  0.3117 -0.3510 -0.3331
 6287SOL    HW130323   4.405   1.351   1.853 -1.0415  0.0297  1.1340
 6287SOL    HW230324   4.519   1.375   1.948  2.3214 -1.2792 -2.0124
 6288SOL     OW30325   3.527   1.665  11.070  0.3087 -0.2658  0.1216
 6288SOL    HW130326   3.524   1.569  11.068 -0.0517 -0.2290 -1.2742
 6288SOL    HW230327   3.615   1.675  11.034  0.4233  1.5268  0.8968
 6289SOL     OW30328   2.063   2.946   8.807 -0.2932 -0.4655  0.5256
 6289SOL    HW130329   2.126   3.005   8.848 -1.3854  1.5594 -0.7037
 6289SOL    HW230330   2.126   2.922   8.739 -0.4320 -0.6884  0.4772
 6290SOL     OW30331   0.708   2.941   4.154 -0.0170  0.0255  0.2514
 6290SOL    HW130332   0.646   2.986   4.212  1.1907  2.1280 -0.0732
 6290SOL    HW230333   0.727   3.024   4.109 -0.2722  0.3789  0.8015
 6291SOL     OW30334   0.771   1.581   8.332 -0.3352  0.3467 -0.7030
 6291SOL    HW130335   0.675   1.588   8.326 -0.4184 -0.2257 -0.0898
 6291SOL    HW230336   0.777   1.485   8.328  1.8718  0.5280 -1.3856
 6292SOL     OW30337   0.404   4.464   0.163 -0.2180 -0.4472  0.2952
 6292SOL    HW130338   0.413   4.506   0.078 -3.8018  0.6535  0.4335
 6292SOL    HW230339   0.489   4.422   0.174 -0.4472 -1.1658 -0.7780
 6293SOL     OW30340   2.680   2.788   3.007  0.0565 -0.1341  0.3584
 6293SOL    HW130341   2.770   2.757   3.017  1.0611  2.1108 -1.6305
 6293SOL    HW230342   2.642   2.702   2.987  0.6137 -0.3022  0.0104
 6294SOL     OW30343   4.103   2.783   6.859  0.1785  0.2325  0.3215
 6294SOL    HW130344   4.103   2.690   6.880 -0.3504  0.3502  0.8481
 6294SOL    HW230345   4.176   2.793   6.797  0.7404 -1.1015  0.7658
 6295SOL     OW30346   3.601   3.668   4.256 -0.0056  0.2523  0.3597
 6295SOL    HW130347   3.672   3.672   4.320 -0.5114 -0.0879  0.9421
 6295SOL    HW230348   3.566   3.757   4.256  2.1037  1.0652  2.0394
 6296SOL     OW30349   2.911   4.713   6.508 -0.2625  0.0026 -0.2000
 6296SOL    HW130350   2.850   0.061   6.491 -1.2517 -0.2391  2.3841
 6296SOL    HW230351   2.915   4.702   6.603 -1.2516  0.0940 -0.1497
 6297SOL     OW30352   3.316   1.019   5.519  0.3674  0.6754  0.1406
 6297SOL    HW130353   3.389   0.993   5.574  0.4793 -0.7067 -0.6751
 6297SOL    HW230354   3.358   1.067   5.448  2.2654  3.7379  3.3738
 6298SOL     OW30355   4.548   2.594   5.941  0.2447 -0.0116 -0.2618
 6298SOL    HW130356   4.461   2.607   5.978 -1.1074 -0.5372 -3.3021
 6298SOL    HW230357   4.592   2.570   6.023 -0.4995 -0.9723 -0.1477
 6299SOL     OW30358   0.840   0.022   1.817  0.0865 -0.9095  0.2530
 6299SOL    HW130359   0.759   4.704   1.847  0.5357 -2.5330 -0.8312
 6299SOL    HW230360   0.796   0.107   1.811 -0.1249 -1.2111 -2.2637
 6300SOL     OW30361   4.021   2.029   4.197  0.8312 -0.1155 -0.3141
 6300SOL    HW130362   4.008   2.122   4.214 -1.3900 -0.5369  0.2524
 6300SOL    HW230363   4.011   2.009   4.104 -1.7811 -0.1265 -0.0166
 6301SOL     OW30364   3.665   0.492   3.145  0.2782 -0.4034 -0.1193
 6301SOL    HW130365   3.696   0.529   3.227 -0.3791 -0.5338  0.1852
 6301SOL    HW230366   3.573   0.484   3.169  0.7298 -1.4069  1.2824
 6302SOL     OW30367   1.161   2.292   0.089  0.5545 -0.5328 -0.1721
 6302SOL    HW130368   1.179   2.276   0.182 -2.3869 -1.2534  0.3022
 6302SOL    HW230369   1.234   2.351   0.071 -1.4241  1.8433 -0.4068
 6303SOL     OW30370   1.511   1.964   6.338 -0.2103 -0.1442  0.0766
 6303SOL    HW130371   1.463   1.886   6.364 -1.6512  0.8642  0.4824
 6303SOL    HW230372   1.454   2.003   6.272  0.2590 -1.0968 -0.8794
 6304SOL     OW30373   1.975   3.216   9.148  0.0120 -0.4601  0.2539
 6304SOL    HW130374   1.974   3.312   9.142 -2.8847 -0.3695  2.0709
 6304SOL    HW230375   1.882   3.195   9.153  0.1849 -1.4828 -0.8697
 6305SOL     OW30376   2.245   3.444   3.451 -0.5262  0.0578  0.0946
 6305SOL    HW130377   2.317   3.395   3.413  0.1725  1.9895 -1.0916
 6305SOL    HW230378   2.251   3.524   3.398  0.3914 -0.9783 -1.3417
 6306SOL     OW30379   1.899   3.094   5.523  0.2106 -0.0836  0.2819
 6306SOL    HW130380   1.897   3.150   5.601  2.9484 -1.3271  1.2411
 6306SOL    HW230381   1.941   3.016   5.558  0.1520  0.5874  1.8644
 6307SOL     OW30382   1.696   3.160   5.867 -0.4526 -0.1671 -0.5539
 6307SOL    HW130383   1.760   3.201   5.925 -1.1582 -2.0279  1.5553
 6307SOL    HW230384   1.696   3.227   5.799 -2.2005  0.4383  0.0115
 6308SOL     OW30385   2.878   4.485  11.170  0.0047  0.1537  0.1006
 6308SOL    HW130386   2.925   4.405  11.195 -0.2903  0.6096  2.0834
 6308SOL    HW230387   2.838   4.519  11.250 -0.8705  1.9341 -1.0932
 6309SOL     OW30388   0.888   1.032   4.112 -0.2655  0.0522 -0.2042
 6309SOL    HW130389   0.963   1.021   4.054  0.2413 -1.2341  0.6829
 6309SOL    HW230390   0.816   1.039   4.049 -0.4193 -0.4406 -0.0887
 6310SOL     OW30391   4.165   1.054   5.990  0.4475 -0.2039 -0.5548
 6310SOL    HW130392   4.085   1.106   5.984  0.9831  0.9045  1.8068
 6310SOL    HW230393   4.184   1.036   5.898  0.6613 -0.3905 -0.4741
 6311SOL     OW30394   4.329   1.686  14.457 -0.0959 -0.2618 -0.3658
 6311SOL    HW130395   4.409   1.719  14.414 -0.1390 -0.0106 -0.2533
 6311SOL    HW230396   4.364   1.652  14.539  0.0909  0.5037 -0.1306
 6312SOL     OW30397   0.520   4.098   6.724 -0.7039  0.3299 -0.6689
 6312SOL    HW130398   0.436   4.116   6.681 -0.0368 -2.0120 -2.9145
 6312SOL    HW230399   0.501   4.014   6.764 -3.4352  0.6836 -1.2332
 6313SOL     OW30400   3.404   4.364   6.235  0.1091  0.2287 -0.2793
 6313SOL    HW130401   3.333   4.347   6.296 -1.1931  0.4269 -1.7338
 6313SOL    HW230402   3.373   4.327   6.152 -0.1830 -0.5780  0.2002
 6314SOL     OW30403   2.122   2.572   0.825 -0.0198 -0.3808 -0.0157
 6314SOL    HW130404   2.076   2.583   0.741 -3.2783 -2.3095  1.5140
 6314SOL    HW230405   2.145   2.661   0.853  0.1531 -0.6411  0.6577
 6315SOL     OW30406   0.337   4.279  10.628 -0.0167 -0.3294 -0.5990
 6315SOL    HW130407   0.399   4.214  10.595 -0.0196 -1.4611  1.5700
 6315SOL    HW230408   0.347   4.353  10.568 -0.6964  1.4393  1.4524
 6316SOL     OW30409   1.313   4.530  15.476 -0.3610  0.1387 -0.1871
 6316SOL    HW130410   1.231   4.514  15.429 -1.2874 -0.1932  1.5348
 6316SOL    HW230411   1.277   4.581  15.548  0.2985  0.9081 -0.4014
 6317SOL     OW30412   4.012   2.959   2.268  0.3597 -0.6039 -0.4520
 6317SOL    HW130413   3.917   2.963   2.257 -0.0136  1.9391  3.5736
 6317SOL    HW230414   4.041   2.960   2.177  0.9564 -0.4085 -0.2649
 6318SOL     OW30415   4.414   1.764   5.318 -0.1270 -0.1212 -0.3636
 6318SOL    HW130416   4.342   1.709   5.290  1.0455 -1.2951 -1.0485
 6318SOL    HW230417   4.421   1.730   5.407 -2.2097  0.1069 -0.1259
 6319SOL     OW30418   3.344   2.750  12.781  0.2291 -0.0397 -0.2769
 6319SOL    HW130419   3.290   2.679  12.748 -1.7578  1.5826 -0.5126
 6319SOL    HW230420   3.318   2.824  12.726  3.0412  1.5973  0.5971
 6320SOL     OW30421   0.319   0.556   0.184 -0.2466 -0.6665  0.0077
 6320SOL    HW130422   0.250   0.621   0.195  2.0125  1.5887  0.7941
 6320SOL    HW230423   0.274   0.481   0.145 -1.2555  0.7947 -1.6009
 6321SOL     OW30424   4.022   4.018   9.308 -0.0911  0.1780 -0.7189
 6321SOL    HW130425   4.117   4.028   9.297  0.2972 -0.2692  2.1698
 6321SOL    HW230426   4.015   3.956   9.381  1.6959 -1.1141 -1.6440
 6322SOL     OW30427   3.687   0.537  13.615  0.7269 -0.0275 -0.0714
 6322SOL    HW130428   3.709   0.524  13.523  1.3447  1.6590 -0.1551
 6322SOL    HW230429   3.591   0.539  13.605  0.7403  3.1181  0.3427
 6323SOL     OW30430   2.114   1.873   9.082  0.0811 -0.3656  0.4045
 6323SOL    HW130431   2.063   1.822   9.144 -1.3994 -0.2067 -0.6884
 6323SOL    HW230432   2.068   1.859   8.999 -1.0453 -1.1258  1.1585
 6324SOL     OW30433   0.794   3.425   8.895 -0.0479 -0.2944 -0.1299
 6324SOL    HW130434   0.736   3.478   8.840 -2.0486 -1.3052  1.0357
 6324SOL    HW230435   0.840   3.488   8.952 -0.5196  1.5803 -1.8102
 6325SOL     OW30436   4.585   0.133  14.378 -0.1849 -0.1996  0.1469
 6325SOL    HW130437   4.601   0.226  14.393 -1.0628 -0.3250  1.8191
 6325SOL    HW230438   4.620   0.095  14.459  0.7260 -0.6935 -0.4768
 6326SOL     OW30439   1.762   0.163   8.847  0.2614 -0.1571 -0.1418
 6326SOL    HW130440   1.834   0.177   8.785  0.4526  0.0179  0.1221
 6326SOL    HW230441   1.697   0.138   8.781 -1.7555 -0.4706  1.9839
 6327SOL     OW30442   4.418   3.280  11.366 -0.6260 -0.0385  0.2228
 6327SOL    HW130443   4.349   3.280  11.433 -0.4370  1.2891  0.4152
 6327SOL    HW230444   4.438   3.373  11.353 -0.9923 -0.1356 -1.0497
 6328SOL     OW30445   1.340   0.657   8.202 -0.0754  0.0939 -0.2554
 6328SOL    HW130446   1.300   0.735   8.165 -2.8843  0.7114  4.0855
 6328SOL    HW230447   1.316   0.588   8.141  0.8877 -0.6234  0.1600
 6329SOL     OW30448   4.172   0.369   9.190 -0.2085 -0.4476  0.1377
 6329SOL    HW130449   4.107   0.315   9.236 -0.9446  0.3840  0.0636
 6329SOL    HW230450   4.209   0.424   9.258  1.8323 -1.6179 -0.0048
 6330SOL     OW30451   4.466   2.647   7.359 -0.2979 -0.4890 -0.3264
 6330SOL    HW130452   4.508   2.628   7.275 -1.5533  1.2702 -1.3426
 6330SOL    HW230453   4.425   2.561   7.371  1.0429 -0.4947  3.9926
 6331SOL     OW30454   4.589   2.153   5.609 -0.2872 -0.4389  0.2392
 6331SOL    HW130455   4.575   2.176   5.517  0.8439  0.4681  0.2855
 6331SOL    HW230456   4.597   2.242   5.646  2.3618 -0.7536  0.4621
 6332SOL     OW30457   3.137   2.696   6.890 -0.0046 -0.0062  0.7619
 6332SOL    HW130458   3.223   2.696   6.933  0.7779 -0.6730 -0.7720
 6332SOL    HW230459   3.135   2.775   6.836  1.4290 -1.4975 -1.5189
 6333SOL     OW30460   3.919   2.323  12.712 -0.0863  0.0188  0.5898
 6333SOL    HW130461   3.985   2.257  12.735  0.8685  1.8950  3.1019
 6333SOL    HW230462   3.861   2.336  12.787  0.6320  0.2571  1.1044
 6334SOL     OW30463   0.657   4.689   3.618 -0.1258  0.4344 -0.1747
 6334SOL    HW130464   0.727   4.658   3.560 -0.2202  1.3404 -0.7816
 6334SOL    HW230465   0.651   0.056   3.589 -0.1713  0.5207  0.1063
 6335SOL     OW30466   2.290   2.712  15.574  0.3816 -0.3431  0.6435
 6335SOL    HW130467   2.285   2.698  15.480 -0.6462  0.7372  0.5405
 6335SOL    HW230468   2.363   2.772  15.587  1.1264 -1.5668  2.2629
 6336SOL     OW30469   2.541   4.289   5.172 -0.0366 -0.2042 -0.3663
 6336SOL    HW130470   2.484   4.212   5.180  2.6596 -2.0395  0.9356
 6336SOL    HW230471   2.604   4.279   5.242  1.2485  3.1836 -1.0420
 6337SOL     OW30472   1.626   2.171   5.093 -0.3105  0.6499  0.0427
 6337SOL    HW130473   1.609   2.239   5.028 -2.6059  0.1143  0.0728
 6337SOL    HW230474   1.697   2.220   5.134 -0.3087 -0.5095  1.4334
 6338SOL     OW30475   2.796   0.963   3.069  0.4019 -1.1080 -0.2792
 6338SOL    HW130476   2.862   0.894   3.078  1.4481  0.1641  1.9932
 6338SOL    HW230477   2.839   1.039   3.108 -0.6542  0.3085 -1.8542
 6339SOL     OW30478   1.959   2.450   5.750 -0.3971  0.5918 -0.0256
 6339SOL    HW130479   1.994   2.465   5.662 -2.8723  0.9877 -0.9431
 6339SOL    HW230480   1.864   2.451   5.739 -0.3091 -0.5273 -0.9033
 6340SOL     OW30481   2.942   4.578   1.550  0.2517  0.3755 -0.1191
 6340SOL    HW130482   3.000   4.639   1.596 -0.4665  1.7736 -1.0426
 6340SOL    HW230483   2.861   4.619   1.580 -0.4948  0.4618 -2.2599
 6341SOL     OW30484   2.581   4.601  11.080 -0.5632  0.0473  0.0433
 6341SOL    HW130485   2.587   4.691  11.048 -0.9728  0.1414  0.2316
 6341SOL    HW230486   2.517   4.616  11.150 -0.4421 -1.7878  0.5631
 6342SOL     OW30487   0.717   4.663   6.533  0.8829 -0.7363  0.2803
 6342SOL    HW130488   0.702   4.594   6.598 -1.1827 -0.1743  0.4000
 6342SOL    HW230489   0.703   4.615   6.451 -0.9622  0.9849 -0.4073
 6343SOL     OW30490   4.288   0.717  10.709  0.4301 -0.0569 -0.0845
 6343SOL    HW130491   4.293   0.737  10.802  0.1058  0.6309 -0.2167
 6343SOL    HW230492   4.305   0.796  10.659 -1.0399  0.1749 -0.2238
 6344SOL     OW30493   3.842   0.691  11.132 -0.3664 -0.1805 -0.3466
 6344SOL    HW130494   3.854   0.636  11.210  1.8928 -0.2399 -0.7492
 6344SOL    HW230495   3.815   0.776  11.165 -3.0002 -1.4875  0.8859
 6345SOL     OW30496   4.512   1.827   6.397  0.7109  0.5126 -0.1554
 6345SOL    HW130497   4.603   1.807   6.416  0.8923  0.7037 -0.8078
 6345SOL    HW230498   4.492   1.741   6.361  0.4724  0.4235  0.1952
 6346SOL     OW30499   2.095   4.665   2.006 -0.1597 -0.5317 -0.7807
 6346SOL    HW130500   2.130   4.700   1.924  1.2944  0.9614  0.4814
 6346SOL    HW230501   2.025   0.000   2.033  0.3062 -0.3628  0.0692
 6347SOL     OW30502   0.082   0.452   4.130 -0.0088  0.3215  0.2929
 6347SOL    HW130503   4.724   0.499   4.140  0.9807  1.4743  3.1084
 6347SOL    HW230504   0.050   0.370   4.167  2.3138 -1.2243 -1.0850
 6348SOL     OW30505   4.082   4.049  16.833 -0.1937 -0.0139 -0.8470
 6348SOL    HW130506   4.023   4.072  16.905  2.2012  0.8711  0.8533
 6348SOL    HW230507   4.028   4.064  16.755 -3.3735 -0.2085  1.3075
 6349SOL     OW30508   3.490   4.131   3.844 -0.0209  0.2516  0.0813
 6349SOL    HW130509   3.494   4.204   3.905 -0.3920 -0.7061  1.2394
 6349SOL    HW230510   3.582   4.134   3.818  0.6124 -1.8362  2.0331
 6350SOL     OW30511   2.125   4.254   8.495 -0.3574  0.0836 -0.1845
 6350SOL    HW130512   2.174   4.180   8.531 -1.0333  0.4192  1.3930
 6350SOL    HW230513   2.191   4.310   8.454 -0.8781  0.7961 -0.0295
 6351SOL     OW30514   1.592   4.119   6.724 -0.0435 -0.2155  0.3729
 6351SOL    HW130515   1.558   4.085   6.642  2.2361  0.6191 -0.9189
 6351SOL    HW230516   1.590   4.214   6.719 -1.7615 -0.1858  1.6880
 6352SOL     OW30517   1.989   3.854  15.142 -0.0511 -0.0672 -0.4777
 6352SOL    HW130518   1.973   3.921  15.075 -0.7108 -0.5782 -0.8261
 6352SOL    HW230519   2.057   3.800  15.103  0.1699 -0.5414  0.5948
 6353SOL     OW30520   4.180   3.924   7.030 -0.2771 -0.5394 -0.0424
 6353SOL    HW130521   4.251   3.985   7.013  0.6491 -1.6570 -0.1721
 6353SOL    HW230522   4.144   3.924   6.941  0.3961 -3.2834 -0.3233
 6354SOL     OW30523   0.601   2.525   4.401  0.0192  0.1934 -0.2641
 6354SOL    HW130524   0.588   2.518   4.495  4.6059 -0.6098  0.3203
 6354SOL    HW230525   0.633   2.614   4.392  1.8076 -0.4675 -0.4644
 6355SOL     OW30526   0.207   1.333   7.597 -0.1875 -0.2237  0.6596
 6355SOL    HW130527   0.256   1.270   7.649 -0.8055 -0.2516  1.2193
 6355SOL    HW230528   0.114   1.334   7.621 -0.7758  2.2091 -1.7828
 6356SOL     OW30529   2.042   4.606  17.623 -0.3700 -0.1473 -0.4452
 6356SOL    HW130530   2.087   4.593  17.540  0.2452  1.2168 -0.3215
 6356SOL    HW230531   1.951   4.607  17.594 -0.7018  2.7458  0.6821
 6357SOL     OW30532   1.115   1.788   4.410 -0.7806 -0.1788 -0.2210
 6357SOL    HW130533   1.108   1.693   4.405  0.9456 -0.2938 -0.4775
 6357SOL    HW230534   1.079   1.818   4.327  1.8157 -0.7109 -1.5260
 6358SOL     OW30535   2.407   1.237  15.749  0.2858  0.5256 -0.3627
 6358SOL    HW130536   2.429   1.318  15.795  3.1290  0.1127 -0.9905
 6358SOL    HW230537   2.435   1.254  15.658  0.4245 -2.6499 -0.8943
 6359SOL     OW30538   3.248   1.477  11.939 -0.5192 -0.5463  0.1045
 6359SOL    HW130539   3.170   1.496  11.991 -0.1299 -0.0079  0.4878
 6359SOL    HW230540   3.233   1.383  11.936  2.0982 -1.0110  2.3101
 6360SOL     OW30541   2.817   0.239   4.342  0.1555  0.1531 -0.0599
 6360SOL    HW130542   2.863   0.239   4.426 -1.3945  0.3939  0.7955
 6360SOL    HW230543   2.748   0.174   4.358  0.2531 -0.1076 -0.7087
 6361SOL     OW30544   0.305   2.728   4.491  0.1976  0.4262 -0.3423
 6361SOL    HW130545   0.299   2.651   4.434  2.4623  0.2753 -0.3942
 6361SOL    HW230546   0.370   2.783   4.447  0.0729  1.7322  1.0951
 6362SOL     OW30547   0.094   4.588   4.678  0.3255 -0.3588 -0.4094
 6362SOL    HW130548   0.084   4.601   4.773 -2.4817  0.0300 -0.7579
 6362SOL    HW230549   0.139   4.668   4.649 -2.9886  0.7468 -2.4310
 6363SOL     OW30550   1.975   0.238  10.753  0.2679 -0.3440 -0.0880
 6363SOL    HW130551   1.900   0.295  10.772 -0.4134 -0.2999 -2.9322
 6363SOL    HW230552   1.933   0.152  10.759 -2.5495  0.8341 -2.6778
 6364SOL     OW30553   2.735   3.176  14.089  0.6607 -0.2406  0.3650
 6364SOL    HW130554   2.755   3.215  14.174 -0.7221  0.1597  0.5158
 6364SOL    HW230555   2.730   3.082  14.108  1.5536 -0.4379 -0.3663
 6365SOL     OW30556   1.100   4.333   2.069 -0.5727  0.0207  0.8645
 6365SOL    HW130557   1.145   4.418   2.074 -0.9812  0.2960 -0.0785
 6365SOL    HW230558   1.174   4.275   2.083 -1.0652 -0.3815  1.7691
 6366SOL     OW30559   2.425   4.283   7.952 -0.1308  1.4061 -0.4215
 6366SOL    HW130560   2.329   4.284   7.951 -0.1609  0.1844  0.9365
 6366SOL    HW230561   2.432   4.219   8.023  0.6431 -0.9139 -2.6043
 6367SOL     OW30562   0.590   0.763   8.366 -0.0778 -0.9333 -0.4454
 6367SOL    HW130563   0.534   0.720   8.301 -0.3116 -1.1292 -0.1114
 6367SOL    HW230564   0.664   0.792   8.313  1.2621  0.9647  2.4915
 6368SOL     OW30565   3.294   1.873   5.592 -0.1209  0.1006  0.0004
 6368SOL    HW130566   3.357   1.801   5.601 -1.1588 -0.5459  2.0419
 6368SOL    HW230567   3.292   1.880   5.496  1.3280  0.1315 -0.0281
 6369SOL     OW30568   1.568   0.006   5.307 -0.4397 -0.0899  0.8563
 6369SOL    HW130569   1.547   0.069   5.376  1.3483 -0.5126  1.8120
 6369SOL    HW230570   1.556   0.061   5.230  1.8940 -1.7337 -0.6822
 6370SOL     OW30571   3.580   4.216   5.866 -0.1787  0.0140  0.1298
 6370SOL    HW130572   3.487   4.209   5.888  0.0813 -1.6648  0.7191
 6370SOL    HW230573   3.588   4.143   5.805 -1.0250 -0.5416  0.6711
 6371SOL     OW30574   3.343   2.668   1.163  0.5245 -0.2862  0.0721
 6371SOL    HW130575   3.428   2.633   1.188  2.1231  1.8579 -2.4166
 6371SOL    HW230576   3.295   2.587   1.143 -1.1616  0.9156 -0.7678
 6372SOL     OW30577   4.520   3.663  15.881 -0.7503 -0.5496  0.0824
 6372SOL    HW130578   4.478   3.738  15.924  0.2303  0.4871 -0.7856
 6372SOL    HW230579   4.582   3.640  15.951 -0.7384  1.8308  0.8394
 6373SOL     OW30580   3.511   1.853  12.298  0.0818 -0.0431 -0.4359
 6373SOL    HW130581   3.467   1.878  12.378 -0.3384  1.3497 -1.1106
 6373SOL    HW230582   3.603   1.847  12.324 -0.1555 -1.4451  0.1126
 6374SOL     OW30583   2.320   2.280   3.795 -0.2778  0.7123 -0.1277
 6374SOL    HW130584   2.375   2.354   3.770 -0.0780  0.9348  0.9574
 6374SOL    HW230585   2.236   2.325   3.792 -0.9044 -0.2411  3.1670
 6375SOL     OW30586   3.194   3.922   1.072 -0.0663 -0.1168 -0.0355
 6375SOL    HW130587   3.194   3.864   0.996  3.1899  0.4736 -0.4760
 6375SOL    HW230588   3.288   3.938   1.082  0.1075 -0.8812 -0.4767
 6376SOL     OW30589   1.378   3.969   7.747 -0.7965  0.0414  0.4209
 6376SOL    HW130590   1.414   3.924   7.824  1.2369  1.0981  0.1084
 6376SOL    HW230591   1.439   3.933   7.683 -0.2339  0.5438  0.6617
 6377SOL     OW30592   3.901   1.971  12.694 -0.4971  0.2034 -0.1990
 6377SOL    HW130593   3.942   2.057  12.692  2.6213 -1.2679  0.3941
 6377SOL    HW230594   3.973   1.923  12.735 -0.7575  0.0389  0.0699
 6378SOL     OW30595   2.604   1.040  16.614  0.1467 -0.0999  0.2370
 6378SOL    HW130596   2.522   0.993  16.628 -0.0882  0.8067  1.8809
 6378SOL    HW230597   2.661   0.998  16.678  0.5353 -0.1716 -0.1612
 6379SOL     OW30598   4.420   3.719   6.466  0.3848  0.0711  0.1704
 6379SOL    HW130599   4.387   3.646   6.517 -1.9477  1.6915  0.9911
 6379SOL    HW230600   4.439   3.779   6.538  4.3859 -0.9518 -0.0278
 6380SOL     OW30601   4.327   2.275  15.330  0.6838  0.0532 -0.3421
 6380SOL    HW130602   4.309   2.212  15.400 -0.5781 -1.0346 -1.6347
 6380SOL    HW230603   4.400   2.233  15.285  0.4593  1.2319 -1.8141
 6381SOL     OW30604   0.196   3.738  11.900 -0.0789 -0.2125  0.1837
 6381SOL    HW130605   0.210   3.668  11.836 -1.5856  0.3016 -0.7001
 6381SOL    HW230606   0.201   3.807  11.835 -3.7346 -0.3151 -0.2001
 6382SOL     OW30607   2.333   2.018   6.360  0.0727 -0.4331  0.0068
 6382SOL    HW130608   2.428   2.007   6.351  0.4782  2.7834  0.3477
 6382SOL    HW230609   2.307   1.995   6.271 -1.7489 -0.1035  0.4647
 6383SOL     OW30610   4.550   2.911   6.033  0.3221  0.1071 -0.0196
 6383SOL    HW130611   4.547   2.820   6.002 -1.5479  1.0693 -2.6975
 6383SOL    HW230612   4.554   2.892   6.126  1.5073  0.2008 -0.0528
 6384SOL     OW30613   1.256   0.827   8.856 -0.5575 -0.4640  0.5831
 6384SOL    HW130614   1.276   0.833   8.763 -2.2752  0.5204  0.2936
 6384SOL    HW230615   1.200   0.751   8.840  0.0892 -0.9092  0.3974
 6385SOL     OW30616   2.523   1.161   1.376 -0.0535  0.2879 -0.6118
 6385SOL    HW130617   2.487   1.174   1.288 -1.1338 -2.5919 -0.5947
 6385SOL    HW230618   2.591   1.097   1.355  1.0993  1.4027 -0.2321
 6386SOL     OW30619   4.076   3.226   7.095  0.1923  0.1244  0.3743
 6386SOL    HW130620   4.108   3.157   7.152  2.7346  0.8241 -0.2000
 6386SOL    HW230621   3.986   3.240   7.123 -0.0997 -1.7163  0.3095
 6387SOL     OW30622   2.245   3.272  13.597  0.0988  0.4371 -0.4238
 6387SOL    HW130623   2.274   3.338  13.661  0.9191  0.8262 -1.1962
 6387SOL    HW230624   2.150   3.273  13.605  0.1083 -0.6277 -0.2619
 6388SOL     OW30625   3.573   3.863   8.481  0.0259  0.3801  0.3457
 6388SOL    HW130626   3.565   3.822   8.394 -1.6587  1.3602  0.0227
 6388SOL    HW230627   3.538   3.792   8.534 -1.0573  2.8306  2.9059
 6389SOL     OW30628   3.368   3.279   7.741 -0.0048 -0.0226 -0.0814
 6389SOL    HW130629   3.345   3.186   7.734 -3.3666  0.8924 -1.5905
 6389SOL    HW230630   3.389   3.280   7.834 -1.4509  0.1651  0.2391
 6390SOL     OW30631   1.282   0.659   3.412  0.1782  0.6092 -0.3605
 6390SOL    HW130632   1.187   0.656   3.396 -0.1219 -0.9818  1.7125
 6390SOL    HW230633   1.309   0.684   3.323  0.7687  2.5220  0.3554
 6391SOL     OW30634   2.415   4.517   5.368  0.2383 -0.1559  0.4006
 6391SOL    HW130635   2.372   4.598   5.345 -0.0819 -0.4282  0.0504
 6391SOL    HW230636   2.338   4.470   5.400  0.0755 -0.1510  0.0055
 6392SOL     OW30637   1.573   3.448   5.129 -0.4078 -0.1839 -0.2689
 6392SOL    HW130638   1.506   3.422   5.192 -0.5846 -0.2622 -0.4910
 6392SOL    HW230639   1.568   3.543   5.127  0.2599 -0.1175  1.5219
 6393SOL     OW30640   2.661   0.075   8.182  0.3598 -0.4225 -0.2140
 6393SOL    HW130641   2.600   0.060   8.254  1.1551  2.1677  0.9889
 6393SOL    HW230642   2.611   0.140   8.134 -0.6992 -1.6335 -0.7572
 6394SOL     OW30643   3.105   0.784   1.993  0.3952 -0.1883 -0.0898
 6394SOL    HW130644   3.198   0.809   1.996  0.5260 -0.9926  2.4947
 6394SOL    HW230645   3.071   0.788   2.082 -0.6390 -0.6830 -0.4665
 6395SOL     OW30646   0.318   0.282   0.004  0.3721 -0.1538  0.6588
 6395SOL    HW130647   0.240   0.228   0.019  1.1060 -2.2003 -2.9090
 6395SOL    HW230648   0.386   0.232   0.050 -0.1231 -0.3404  1.1938
 6396SOL     OW30649   4.493   1.257   3.535 -0.0276  0.7977 -0.4679
 6396SOL    HW130650   4.400   1.279   3.535  0.1669  1.5793 -2.0906
 6396SOL    HW230651   4.528   1.295   3.455 -0.4217  3.0963  0.4497
 6397SOL     OW30652   0.830   4.621  17.395  0.2887 -0.1490  0.0900
 6397SOL    HW130653   0.752   4.616  17.450  0.9041 -0.4405  0.9273
 6397SOL    HW230654   0.808   4.563  17.322 -1.0645  0.3901  0.0599
 6398SOL     OW30655   1.310   2.047  13.244  0.2466  0.4495  0.0833
 6398SOL    HW130656   1.242   2.068  13.308 -1.4877 -0.4834 -1.4580
 6398SOL    HW230657   1.396   2.046  13.286  0.5749  1.2724 -0.5655
 6399SOL     OW30658   0.309   3.882   1.175  0.3216 -0.4927  0.1608
 6399SOL    HW130659   0.363   3.818   1.222 -0.0086  0.1135  1.3546
 6399SOL    HW230660   0.225   3.881   1.220  0.9259 -1.6532  1.2657
 6400SOL     OW30661   0.565   0.697   5.110  0.2115  0.8655 -0.4916
 6400SOL    HW130662   0.588   0.768   5.051  0.1918 -0.2466 -1.8277
 6400SOL    HW230663   0.512   0.754   5.166 -2.3184  0.4239 -2.4487
 6401SOL     OW30664   1.944   4.430   8.611 -0.0223 -0.4153 -0.1654
 6401SOL    HW130665   1.947   4.511   8.561  1.1879 -0.2635  0.1278
 6401SOL    HW230666   2.034   4.397   8.603  0.5582  0.7561  1.5179
 6402SOL     OW30667   2.558   0.152   3.042 -0.1393 -0.0405  0.4840
 6402SOL    HW130668   2.527   0.192   2.960 -1.6190 -1.9194  0.1182
 6402SOL    HW230669   2.487   0.177   3.101 -0.7690  2.7841 -1.4693
 6403SOL     OW30670   2.487   2.788  15.860 -0.1980 -0.1943 -0.3554
 6403SOL    HW130671   2.392   2.800  15.867 -0.4526 -1.6612 -1.2656
 6403SOL    HW230672   2.492   2.712  15.918 -0.3542  1.6059  2.0180
 6404SOL     OW30673   0.440   2.811   6.969  0.0822 -0.8234  0.0735
 6404SOL    HW130674   0.385   2.884   6.941  0.7494  0.3604  1.9183
 6404SOL    HW230675   0.405   2.799   7.057  1.1042 -1.4659  0.3953
 6405SOL     OW30676   3.239   4.706  13.740  0.0716 -0.3736 -0.1099
 6405SOL    HW130677   3.318   0.015  13.699 -0.1078 -0.4354 -0.5108
 6405SOL    HW230678   3.200   4.673  13.659  2.6200 -1.6037 -0.8392
 6406SOL     OW30679   2.578   3.735   2.836 -0.0379  0.1122  0.2066
 6406SOL    HW130680   2.614   3.691   2.759  0.0048 -0.2800  0.4511
 6406SOL    HW230681   2.578   3.664   2.901  0.7334  0.8183  0.9739
 6407SOL     OW30682   3.287   1.591   8.366  0.0695  0.4150 -0.2845
 6407SOL    HW130683   3.358   1.571   8.427 -0.4837  0.0955  0.2594
 6407SOL    HW230684   3.218   1.625   8.424  0.7615  1.2491  0.0363
 6408SOL     OW30685   3.053   1.339   7.437  0.4717  0.6530 -0.2605
 6408SOL    HW130686   3.092   1.333   7.350  0.2511  4.6706 -0.6540
 6408SOL    HW230687   3.117   1.310   7.502 -0.2180  0.0018  0.1323
 6409SOL     OW30688   1.795   0.195   7.690  0.1124  0.1452  0.0680
 6409SOL    HW130689   1.779   0.288   7.703  1.2432  0.7269 -2.7723
 6409SOL    HW230690   1.707   0.160   7.705 -0.3483  1.1833 -0.2434
 6410SOL     OW30691   3.677   3.459   4.965 -0.7689 -0.1009 -0.3532
 6410SOL    HW130692   3.663   3.552   4.985  0.6122 -0.1108  0.6269
 6410SOL    HW230693   3.771   3.450   4.981 -0.8992  0.1748  0.5814
 6411SOL     OW30694   0.287   1.488   6.454  0.2600  0.0070 -0.3362
 6411SOL    HW130695   0.367   1.490   6.401  1.6533 -2.3397  1.7319
 6411SOL    HW230696   0.287   1.412   6.511  0.1677 -0.5611 -1.0984
 6412SOL     OW30697   4.068   2.664   4.175 -0.1282  0.0017  0.0731
 6412SOL    HW130698   4.088   2.581   4.219 -2.7490 -0.2430  0.8094
 6412SOL    HW230699   4.120   2.721   4.232  0.2231  1.0402 -1.2906
 6413SOL     OW30700   1.766   1.444   9.205 -0.0931  0.2258  0.4346
 6413SOL    HW130701   1.691   1.488   9.243 -0.1097  0.7560 -0.2173
 6413SOL    HW230702   1.736   1.451   9.115 -0.6932 -2.4280  0.4240
 6414SOL     OW30703   2.584   0.653   6.340 -0.3665 -0.3251  0.1701
 6414SOL    HW130704   2.489   0.670   6.334 -0.3179 -0.8462 -2.3863
 6414SOL    HW230705   2.619   0.740   6.322  0.6658 -0.7157  0.3521
 6415SOL     OW30706   0.883   2.186  11.949  0.8967 -0.7288  0.1345
 6415SOL    HW130707   0.793   2.170  11.978  0.9962 -0.6737  0.4773
 6415SOL    HW230708   0.874   2.255  11.885  2.4820 -1.5798 -1.0141
 6416SOL     OW30709   0.835   0.580   7.415 -0.2180  0.5246 -0.4863
 6416SOL    HW130710   0.930   0.574   7.420 -0.2606  0.3288  0.0957
 6416SOL    HW230711   0.809   0.638   7.487  0.9537  0.9343 -0.3837
 6417SOL     OW30712   3.474   1.202   6.469  0.4086 -0.2427  0.0422
 6417SOL    HW130713   3.507   1.285   6.503  0.1972 -0.5109  0.8934
 6417SOL    HW230714   3.557   1.154   6.464  1.0624  0.9578 -0.8027
 6418SOL     OW30715   3.357   1.483   4.401 -0.1751  0.2221 -0.1152
 6418SOL    HW130716   3.274   1.461   4.442 -1.3811  2.2503 -1.4787
 6418SOL    HW230717   3.418   1.509   4.471  0.1083  0.7939 -0.5759
 6419SOL     OW30718   2.629   3.025   5.012  0.3445 -0.1061  0.2785
 6419SOL    HW130719   2.567   2.963   5.049  1.1580 -0.5734  0.8576
 6419SOL    HW230720   2.672   2.995   4.932  0.2327  0.5479 -0.0265
 6420SOL     OW30721   4.094   3.640   3.047 -0.1670  0.5034 -0.1149
 6420SOL    HW130722   4.027   3.632   2.979 -0.1831 -0.6792  0.0304
 6420SOL    HW230723   4.155   3.696   3.000  0.7071  0.8010  1.3881
 6421SOL     OW30724   4.647   1.506   2.621  0.1852  0.3613 -0.1843
 6421SOL    HW130725   4.592   1.517   2.699  0.7375 -0.0600  0.2673
 6421SOL    HW230726   4.589   1.521   2.547  0.7228  0.0145 -0.6754
 6422SOL     OW30727   3.365   2.513   9.782 -0.4016  0.1204  0.9229
 6422SOL    HW130728   3.302   2.501   9.853 -1.6436  0.3394 -0.1308
 6422SOL    HW230729   3.314   2.575   9.729 -0.3199 -0.0043  0.7002
 6423SOL     OW30730   1.052   1.903   9.219 -0.7675 -0.3850 -0.3157
 6423SOL    HW130731   0.959   1.899   9.244 -1.5640  3.3102 -2.7080
 6423SOL    HW230732   1.102   1.910   9.300 -2.9374 -0.0929  1.0171
 6424SOL     OW30733   4.518   3.320   5.874 -0.4202 -0.1362  0.2969
 6424SOL    HW130734   4.447   3.361   5.826  1.0965  0.1982 -1.6277
 6424SOL    HW230735   4.566   3.399   5.900  0.0933 -0.7399  1.2164
 6425SOL     OW30736   4.235   2.151   4.753 -0.2102  0.0110 -0.1173
 6425SOL    HW130737   4.313   2.148   4.808  1.7407 -2.4050 -2.9975
 6425SOL    HW230738   4.270   2.161   4.664  2.0230  0.3597  0.7920
 6426SOL     OW30739   2.487   4.321   9.094  0.0650 -0.4293  0.3881
 6426SOL    HW130740   2.546   4.314   9.169 -0.6479 -1.5882  0.8424
 6426SOL    HW230741   2.453   4.232   9.082  1.6200 -0.9030 -0.5575
 6427SOL     OW30742   1.627   2.127   8.730  0.5030  0.1076 -0.6642
 6427SOL    HW130743   1.557   2.084   8.778 -0.5252  1.4822 -0.9477
 6427SOL    HW230744   1.650   2.194   8.795  0.3001 -0.1793 -0.2939
 6428SOL     OW30745   1.896   3.937   6.549 -0.4204  0.4856 -0.7400
 6428SOL    HW130746   1.810   3.935   6.508 -0.5372  1.1021 -0.5254
 6428SOL    HW230747   1.949   3.878   6.494  3.4239  1.3585  2.0145
 6429SOL     OW30748   0.336   2.081  10.355 -0.1748  0.2037 -0.3504
 6429SOL    HW130749   0.284   2.130  10.291  0.9939  1.8831 -0.0300
 6429SOL    HW230750   0.277   2.065  10.429  0.2486 -1.5622 -0.3958
 6430SOL     OW30751   1.703   4.006   1.411 -0.1192 -0.0235 -0.4978
 6430SOL    HW130752   1.623   3.964   1.442  0.3210 -0.6208 -0.1582
 6430SOL    HW230753   1.722   4.058   1.489 -0.2312  0.0107 -0.4936
 6431SOL     OW30754   1.593   0.576   3.287  0.3838  0.1150  0.0234
 6431SOL    HW130755   1.663   0.552   3.227  0.7470  1.4810 -0.1102
 6431SOL    HW230756   1.558   0.487   3.291  2.6194 -0.7272  0.8122
 6432SOL     OW30757   1.131   4.120   5.174 -0.4879  0.3697  0.1806
 6432SOL    HW130758   1.203   4.177   5.145 -0.7795  0.6614  0.0215
 6432SOL    HW230759   1.140   4.146   5.265 -0.0209 -0.1804  0.2900
 6433SOL     OW30760   2.467   2.293  14.407  0.2114  0.1795 -0.2632
 6433SOL    HW130761   2.416   2.213  14.424  0.2396  0.0865 -0.6180
 6433SOL    HW230762   2.414   2.337  14.341  1.5220  0.8714 -0.8439
 6434SOL     OW30763   1.943   2.564   8.097 -0.3109  0.2915  0.0474
 6434SOL    HW130764   1.877   2.613   8.146  0.7497  1.5686  0.2003
 6434SOL    HW230765   2.014   2.552   8.160 -0.3433 -2.3341 -0.4535
 6435SOL     OW30766   4.440   2.832   5.435 -0.2968 -0.1818 -0.1304
 6435SOL    HW130767   4.404   2.746   5.455 -0.2314  0.0125  0.8357
 6435SOL    HW230768   4.382   2.853   5.363 -3.1842 -1.4245  1.8628
 6436SOL     OW30769   1.613   0.845   4.729  0.2102 -0.0802 -0.0634
 6436SOL    HW130770   1.663   0.810   4.803 -0.0736  2.4187  1.3045
 6436SOL    HW230771   1.665   0.923   4.711 -0.3755  0.3264  0.0013
 6437SOL     OW30772   1.367   4.347  12.769  0.4226 -0.3760  0.5545
 6437SOL    HW130773   1.285   4.347  12.818  0.1509 -1.7575  0.1083
 6437SOL    HW230774   1.416   4.303  12.838 -1.0643  0.4050  2.0940
 6438SOL     OW30775   4.076   0.839  14.776 -0.0516 -0.3612 -0.1488
 6438SOL    HW130776   4.084   0.855  14.682  1.9294  1.0978  0.2465
 6438SOL    HW230777   4.171   0.823  14.783 -0.6622 -3.2976  1.3109
 6439SOL     OW30778   1.240   3.480   4.116 -0.5286  0.0122  0.4049
 6439SOL    HW130779   1.172   3.454   4.055 -1.7686 -0.3486  1.9212
 6439SOL    HW230780   1.213   3.564   4.154  1.6761  0.6179  0.6426
 6440SOL     OW30781   4.365   1.688   9.006 -0.5966 -0.2576 -0.2048
 6440SOL    HW130782   4.439   1.635   9.035 -0.3716 -0.5555 -1.2918
 6440SOL    HW230783   4.409   1.745   8.943 -0.0297 -1.2324 -0.6915
 6441SOL     OW30784   2.103   2.908  11.097 -0.4368 -0.6989 -0.1821
 6441SOL    HW130785   2.117   2.975  11.030  1.5510  0.5531  1.5091
 6441SOL    HW230786   2.108   2.838  11.032 -3.0957 -0.8365 -0.2342
 6442SOL     OW30787   1.428   1.551   6.916 -0.4769  0.5270 -0.4301
 6442SOL    HW130788   1.428   1.638   6.877 -1.4529 -0.2563 -2.2262
 6442SOL    HW230789   1.365   1.502   6.863 -1.5110  2.2955 -0.8281
 6443SOL     OW30790   0.099   0.753   3.587 -0.5542 -0.0370 -0.1576
 6443SOL    HW130791   0.023   0.787   3.635  0.6693  1.8234  0.4157
 6443SOL    HW230792   0.162   0.823   3.597 -0.7403 -0.0202  0.8991
 6444SOL     OW30793   4.023   0.516   0.026  0.2058 -0.3535  0.1686
 6444SOL    HW130794   3.977   0.436  17.699  1.9393 -1.2005 -0.2177
 6444SOL    HW230795   4.039   0.486   0.115  3.0450 -1.0976 -0.6132
 6445SOL     OW30796   0.280   0.212   2.774 -0.6077 -0.2383  0.5053
 6445SOL    HW130797   0.202   0.262   2.797 -0.6948  0.1606 -0.7037
 6445SOL    HW230798   0.241   0.134   2.735 -0.1281 -0.6434  0.8296
 6446SOL     OW30799   3.285   1.427   7.624  0.3899  0.2155  0.5409
 6446SOL    HW130800   3.377   1.450   7.612  0.2194  0.8861  0.5264
 6446SOL    HW230801   3.253   1.506   7.667  3.6985  1.6390  0.3834
 6447SOL     OW30802   3.624   0.024   4.900 -0.6349  0.1342  0.3709
 6447SOL    HW130803   3.632   0.080   4.977  0.8498 -0.3980  0.6053
 6447SOL    HW230804   3.707   4.702   4.898 -0.3247  0.6877  0.3192
 6448SOL     OW30805   2.773   2.089   3.623  0.1165  0.1780  0.4124
 6448SOL    HW130806   2.839   2.115   3.559 -1.3515 -0.3053 -1.3029
 6448SOL    HW230807   2.788   2.153   3.693  2.1899  1.1513 -0.9267
 6449SOL     OW30808   1.135   1.016   3.958  0.5736  0.7945 -0.3154
 6449SOL    HW130809   1.150   1.110   3.961  0.3033  0.8009  0.6898
 6449SOL    HW230810   1.186   0.995   3.880  0.4406 -1.7161  0.2696
 6450SOL     OW30811   4.155   2.798   9.540 -0.1889  0.1850 -0.5625
 6450SOL    HW130812   4.139   2.887   9.510 -1.2797 -0.4889 -1.9394
 6450SOL    HW230813   4.218   2.805   9.612 -1.1046 -0.3272  0.2860
 6451SOL     OW30814   3.315   0.857  12.150 -0.3030 -0.4501  0.3412
 6451SOL    HW130815   3.326   0.830  12.058  0.8644  2.5361 -0.3731
 6451SOL    HW230816   3.281   0.773  12.182 -1.3680 -0.2520 -0.2629
 6452SOL     OW30817   4.003   2.931  10.828  0.1347 -0.0888  0.0340
 6452SOL    HW130818   4.091   2.944  10.794  0.6203 -0.6017  1.0756
 6452SOL    HW230819   4.015   2.862  10.894 -0.1265 -0.3783 -0.2191
 6453SOL     OW30820   1.730   4.662   2.799  0.5312 -0.6561 -0.8153
 6453SOL    HW130821   1.757   4.571   2.815 -0.2113 -1.2556 -3.0240
 6453SOL    HW230822   1.652   4.675   2.854  0.3120  0.4787 -1.3994
 6454SOL     OW30823   0.052   0.058   7.078 -0.2178 -0.3034 -0.3746
 6454SOL    HW130824   0.031   0.145   7.043  2.2420  0.1205 -0.7930
 6454SOL    HW230825   0.043   0.070   7.172 -1.6862  0.2357 -0.5781
 6455SOL     OW30826   3.740   0.170   2.577  0.1123 -0.5346  1.2131
 6455SOL    HW130827   3.802   0.200   2.510 -1.4303  1.6238  0.7559
 6455SOL    HW230828   3.803   0.157   2.648  1.9264  2.1923  0.1252
 6456SOL     OW30829   0.233   2.629  12.245  0.5721  0.0966 -0.4626
 6456SOL    HW130830   0.201   2.547  12.207  1.6520  0.5942 -2.4576
 6456SOL    HW230831   0.328   2.629  12.228  0.7304 -1.3767  0.3634
 6457SOL     OW30832   3.351   2.744  10.416 -0.0455  0.6447 -0.1560
 6457SOL    HW130833   3.432   2.778  10.379 -0.1712 -2.4137 -3.2494
 6457SOL    HW230834   3.295   2.723  10.341  3.1951 -1.8192 -1.8792
 6458SOL     OW30835   3.275   4.504  16.100 -0.0438  0.5165  0.4137
 6458SOL    HW130836   3.332   4.508  16.177  0.6836 -0.0521 -0.0951
 6458SOL    HW230837   3.197   4.554  16.126 -0.4512 -0.7041  1.5528
 6459SOL     OW30838   3.739   2.547   8.431  0.4376  0.0794 -0.2360
 6459SOL    HW130839   3.762   2.577   8.343 -0.7404 -2.2311 -1.3322
 6459SOL    HW230840   3.680   2.614   8.464  1.6178  1.1355 -0.2461
 6460SOL     OW30841   0.345   4.087   6.194  0.4352  0.6391 -0.1487
 6460SOL    HW130842   0.284   4.161   6.197  0.8965  1.0586 -1.0087
 6460SOL    HW230843   0.310   4.037   6.120 -1.2590  1.1115  0.3435
 6461SOL     OW30844   0.895   1.532   7.724  0.1637  0.6032  0.9701
 6461SOL    HW130845   0.897   1.468   7.653  0.7244  1.2330  0.4191
 6461SOL    HW230846   0.803   1.525   7.749  0.1888 -0.4731  0.7885
 6462SOL     OW30847   3.857   0.721   0.722  0.0994  0.3471  0.8506
 6462SOL    HW130848   3.899   0.777   0.656 -3.0261  0.1349 -1.3220
 6462SOL    HW230849   3.927   0.664   0.755 -1.6161 -1.5548  1.1880
 6463SOL     OW30850   1.960   0.429  14.914 -0.3303 -0.1615  0.6050
 6463SOL    HW130851   2.004   0.505  14.951 -1.4314  0.6382  0.2583
 6463SOL    HW230852   1.894   0.399  14.977  0.8050 -2.2255  0.8403
 6464SOL     OW30853   2.978   1.232   4.214  0.6954 -0.2523  0.3896
 6464SOL    HW130854   3.060   1.233   4.264  0.4012  0.6589  0.8574
 6464SOL    HW230855   3.002   1.210   4.124 -1.0815 -1.4508  0.2009
 6465SOL     OW30856   0.705   3.116   2.905 -0.3728 -0.2057 -0.4424
 6465SOL    HW130857   0.626   3.138   2.855 -2.0345  2.9406  3.5427
 6465SOL    HW230858   0.775   3.160   2.857  0.4421  0.9033  1.7565
 6466SOL     OW30859   2.317   1.214   3.077 -0.0692  0.5703  0.3812
 6466SOL    HW130860   2.319   1.250   3.166 -0.2253  2.3987 -0.3624
 6466SOL    HW230861   2.227   1.238   3.055 -0.4286 -2.0435 -0.9837
 6467SOL     OW30862   4.677   1.263  12.395  0.1164 -0.2010  0.2965
 6467SOL    HW130863   4.665   1.336  12.456  1.3926  0.5371 -0.3286
 6467SOL    HW230864   4.587   1.263  12.362  0.2304  0.4647  0.0040
 6468SOL     OW30865   0.339   1.848   1.687 -0.1720  0.7120  0.4336
 6468SOL    HW130866   0.417   1.815   1.642 -1.9209 -0.5318 -1.6895
 6468SOL    HW230867   0.305   1.908   1.620 -0.2852 -0.9197 -0.9903
 6469SOL     OW30868   2.716   0.939   8.078 -0.5198 -0.1803  0.3457
 6469SOL    HW130869   2.655   0.895   8.137  0.2732 -1.5205  0.1621
 6469SOL    HW230870   2.656   0.995   8.029  0.9733  1.2482  0.1306
 6470SOL     OW30871   3.045   1.065   5.147 -0.0542 -0.2188  0.1358
 6470SOL    HW130872   2.958   1.096   5.125  0.1134 -0.6539 -1.1334
 6470SOL    HW230873   3.086   1.151   5.154 -0.2548 -0.2137  1.2839
 6471SOL     OW30874   4.152   2.898  13.975 -0.1898 -0.3284 -0.0706
 6471SOL    HW130875   4.199   2.929  14.052  0.0496  1.2001 -0.8408
 6471SOL    HW230876   4.098   2.970  13.944 -0.1176 -0.1275  0.2670
 6472SOL     OW30877   4.430   3.955   7.317  0.0152 -0.2217 -0.5932
 6472SOL    HW130878   4.519   3.986   7.299 -0.5211  2.0798  0.6856
 6472SOL    HW230879   4.443   3.870   7.358  1.6424 -0.1591 -1.0167
 6473SOL     OW30880   3.289   2.553  11.326 -0.0233  0.2687 -0.2260
 6473SOL    HW130881   3.293   2.635  11.276 -2.2535 -0.5296 -1.6931
 6473SOL    HW230882   3.326   2.582  11.410  1.1963  3.0377 -1.6842
 6474SOL     OW30883   3.960   2.819   2.534  0.8428 -0.1506 -0.3151
 6474SOL    HW130884   3.884   2.785   2.486  0.9503 -2.0204  0.8168
 6474SOL    HW230885   4.030   2.816   2.469  0.7628 -3.1034 -0.2522
 6475SOL     OW30886   2.662   0.883   4.775  0.5387  0.0291  0.5799
 6475SOL    HW130887   2.597   0.951   4.755 -0.2375 -1.2318 -1.1643
 6475SOL    HW230888   2.603   0.811   4.754  0.6768 -0.3157  1.3816
 6476SOL     OW30889   3.833   2.806  15.401  0.0895 -0.1248  0.0814
 6476SOL    HW130890   3.756   2.861  15.403  0.7706  0.8111  0.5819
 6476SOL    HW230891   3.823   2.761  15.485  0.0458 -0.2966 -0.0151
 6477SOL     OW30892   1.629   0.698   5.858  0.3590  0.5053  0.2223
 6477SOL    HW130893   1.679   0.617   5.848  0.3863  0.5511 -0.0158
 6477SOL    HW230894   1.625   0.727   5.766  1.0093  0.4750  0.1852
 6478SOL     OW30895   3.466   3.791   8.929  0.1839 -0.8424  0.5140
 6478SOL    HW130896   3.407   3.717   8.913  1.5953 -1.6630 -0.7807
 6478SOL    HW230897   3.424   3.839   9.001  3.1924  0.8124  1.1460
 6479SOL     OW30898   2.365   4.621  11.277  0.4701  0.2306 -0.4974
 6479SOL    HW130899   2.318   4.702  11.259 -2.1028 -1.3015 -0.6689
 6479SOL    HW230900   2.305   4.571  11.332  2.6627  0.2727  1.9545
 6480SOL     OW30901   2.189   0.973   0.277 -0.0085 -0.1203 -0.3033
 6480SOL    HW130902   2.202   1.004   0.366  1.1326 -2.3527  0.3140
 6480SOL    HW230903   2.149   1.049   0.233  0.1837  0.2859  0.2275
 6481SOL     OW30904   3.029   2.718  12.840  0.4153 -0.0748 -0.1138
 6481SOL    HW130905   2.995   2.806  12.824  0.4399 -0.1628 -0.6586
 6481SOL    HW230906   3.098   2.732  12.905  1.4145 -0.0448 -1.1874
 6482SOL     OW30907   0.407   0.610   8.195  0.4186 -0.1069  0.0791
 6482SOL    HW130908   0.356   0.580   8.120 -0.9532  2.4871 -0.0235
 6482SOL    HW230909   0.352   0.584   8.269 -0.1325  1.5851  0.2473
 6483SOL     OW30910   4.688   3.818   2.538 -0.2209 -0.1656 -0.2305
 6483SOL    HW130911   4.697   3.799   2.632 -2.2500 -0.4542 -0.0891
 6483SOL    HW230912   4.631   3.750   2.504 -0.2197 -2.0143  3.4392
 6484SOL     OW30913   3.688   2.404  17.054  0.5372  0.0498 -0.1954
 6484SOL    HW130914   3.650   2.394  17.141 -0.4935 -1.4328 -0.8232
 6484SOL    HW230915   3.681   2.499  17.044  1.4218  0.1035 -0.3015
 6485SOL     OW30916   3.220   3.905   2.097  0.0038  0.2654  0.3133
 6485SOL    HW130917   3.254   3.969   2.034  1.8097 -0.4359  0.5920
 6485SOL    HW230918   3.306   3.878   2.129  1.3534  2.7936 -1.1509
 6486SOL     OW30919   2.288   1.650   1.943  0.3019  0.2416 -0.4644
 6486SOL    HW130920   2.337   1.618   1.867  0.3390  1.3069 -0.8810
 6486SOL    HW230921   2.223   1.704   1.898  0.4029  0.8120  0.0871
 6487SOL     OW30922   3.972   1.783   5.534 -0.7306  0.2314 -0.1645
 6487SOL    HW130923   3.938   1.869   5.508 -0.4500  0.9856  1.9373
 6487SOL    HW230924   3.904   1.723   5.502  0.4141 -1.6828  0.9899
 6488SOL     OW30925   3.908   2.936   7.032  0.3555  0.0848  0.0395
 6488SOL    HW130926   3.930   2.852   6.992 -0.8669 -0.4316  0.4397
 6488SOL    HW230927   3.979   2.990   6.997 -0.3238  0.4367 -0.7984
 6489SOL     OW30928   0.236   0.141  11.232 -0.2372  0.4394  0.1545
 6489SOL    HW130929   0.218   0.047  11.236  3.8128 -0.4076 -2.0904
 6489SOL    HW230930   0.331   0.137  11.219 -0.2913 -0.0170 -0.0820
 6490SOL     OW30931   1.652   2.425   8.173 -0.0042 -0.3564 -0.1269
 6490SOL    HW130932   1.700   2.505   8.192  1.5376 -1.1923 -0.5391
 6490SOL    HW230933   1.612   2.402   8.257 -1.3885 -0.5241 -0.8226
 6491SOL     OW30934   1.426   3.420  13.741  0.1578 -0.2832 -0.3125
 6491SOL    HW130935   1.497   3.424  13.806 -0.4897 -1.9546  0.4917
 6491SOL    HW230936   1.396   3.510  13.756  0.9902 -0.1784  0.7853
 6492SOL     OW30937   0.277   1.472   4.646 -0.4507 -0.3459 -0.4603
 6492SOL    HW130938   0.286   1.472   4.742  0.5291 -2.2237 -0.5434
 6492SOL    HW230939   0.327   1.551   4.627  0.0963 -0.5054  0.2817
 6493SOL     OW30940   0.706   3.105   6.300 -0.6090  0.1659  0.7150
 6493SOL    HW130941   0.675   3.051   6.228 -1.4298  0.3635  0.9227
 6493SOL    HW230942   0.801   3.096   6.301 -0.7908 -1.5878  1.5680
 6494SOL     OW30943   0.062   1.547  17.519  0.1746  0.3634 -0.0560
 6494SOL    HW130944   0.093   1.596  17.443 -0.7530 -0.5980 -1.0564
 6494SOL    HW230945   4.696   1.528  17.495  0.8865 -1.5839 -1.2123
 6495SOL     OW30946   1.089   1.905   3.599 -0.0492  0.2417  0.1357
 6495SOL    HW130947   1.050   1.845   3.663 -0.2062 -0.3242 -0.4990
 6495SOL    HW230948   1.183   1.897   3.617 -0.3755  0.8573  2.0997
 6496SOL     OW30949   1.476   3.719   7.039 -0.0656 -0.6815 -0.0083
 6496SOL    HW130950   1.536   3.780   7.083 -0.4873  0.9617 -1.6897
 6496SOL    HW230951   1.439   3.769   6.966  2.7812  2.3703  0.6208
 6497SOL     OW30952   4.504   0.319   1.220  0.4286 -0.1968  0.0830
 6497SOL    HW130953   4.450   0.240   1.226  1.4116 -1.0324 -1.8745
 6497SOL    HW230954   4.595   0.289   1.219 -1.0116 -4.5271 -1.3526
 6498SOL     OW30955   1.028   0.442  10.010  0.3533 -0.8246  0.1847
 6498SOL    HW130956   0.965   0.408   9.947  1.0353  2.6507 -2.3704
 6498SOL    HW230957   1.014   0.381  10.083  0.8046  0.4649  1.3537
 6499SOL     OW30958   3.804   1.956  14.290 -0.0342  0.1971  0.1544
 6499SOL    HW130959   3.836   1.957  14.380 -1.3565 -1.7347  0.6290
 6499SOL    HW230960   3.873   2.005  14.244  0.3654 -0.8872 -0.4066
 6500SOL     OW30961   3.551   3.977   7.658  0.1406 -0.2209 -0.2390
 6500SOL    HW130962   3.530   3.884   7.651  1.2504 -0.4728 -0.1244
 6500SOL    HW230963   3.589   3.982   7.570 -1.0268  0.5619 -0.7142
 6501SOL     OW30964   4.576   1.119   1.106 -0.4291 -0.0878  0.0532
 6501SOL    HW130965   4.633   1.080   1.039 -1.8907 -0.8517 -0.7563
 6501SOL    HW230966   4.499   1.135   1.050 -1.5996 -0.9316  1.4121
 6502SOL     OW30967   1.209   3.323   4.478  0.3473  0.3207  0.5375
 6502SOL    HW130968   1.159   3.290   4.552  0.3147 -0.9510 -0.0608
 6502SOL    HW230969   1.153   3.399   4.461  0.3849  0.2216 -0.0145
 6503SOL     OW30970   4.399   4.677   6.558  0.0720  0.4876 -0.4271
 6503SOL    HW130971   4.457   4.719   6.622 -0.3310  0.3070  0.0586
 6503SOL    HW230972   4.332   0.020   6.549 -1.4334 -0.3719  4.0963
 6504SOL     OW30973   4.240   0.966   8.485 -0.7146  0.0196  0.3298
 6504SOL    HW130974   4.222   1.055   8.516  1.6644 -0.0026  1.7011
 6504SOL    HW230975   4.332   0.959   8.459 -0.6189 -1.4284  1.0882
 6505SOL     OW30976   0.301   3.738   2.536 -0.0486  0.0535 -0.8025
 6505SOL    HW130977   0.229   3.772   2.483 -1.1989 -0.7281  0.2381
 6505SOL    HW230978   0.370   3.727   2.472 -0.8712  0.1113 -1.6913
 6506SOL     OW30979   1.959   0.473   4.311 -1.0057  0.6912  0.0615
 6506SOL    HW130980   2.044   0.514   4.299 -0.8043  0.6570  1.4394
 6506SOL    HW230981   1.966   0.447   4.403 -2.0971  1.6961  0.4258
 6507SOL     OW30982   1.005   3.107   6.621  0.1580 -0.1157  0.5791
 6507SOL    HW130983   0.983   3.016   6.645  0.4231 -0.1992  0.5042
 6507SOL    HW230984   0.934   3.155   6.664  1.0778  0.6487  1.2462
 6508SOL     OW30985   1.518   2.672  13.490  0.2360 -0.0334  0.1236
 6508SOL    HW130986   1.477   2.609  13.550 -0.8815 -1.4811 -2.1480
 6508SOL    HW230987   1.454   2.742  13.502 -0.8245 -0.9383 -0.2335
 6509SOL     OW30988   2.798   1.725  15.717 -0.1470 -0.7180 -0.3147
 6509SOL    HW130989   2.867   1.785  15.745 -1.9655  0.8619  0.8021
 6509SOL    HW230990   2.834   1.694  15.634  2.2611 -0.7837  0.7538
 6510SOL     OW30991   2.889   0.662   4.608 -0.6765  0.1064  0.0244
 6510SOL    HW130992   2.972   0.657   4.656 -2.5123 -0.5126  3.1610
 6510SOL    HW230993   2.895   0.749   4.571 -1.7116 -0.1353 -0.7074
 6511SOL     OW30994   1.218   0.095  11.925 -0.0549 -0.0542 -0.8973
 6511SOL    HW130995   1.268   0.045  11.861 -1.6751  0.3845 -2.4770
 6511SOL    HW230996   1.170   0.152  11.865 -0.8790  0.8254  0.6011
 6512SOL     OW30997   1.566   0.673   2.946 -0.0908  0.5501  0.3027
 6512SOL    HW130998   1.577   0.604   2.881 -1.6869  2.8720 -2.4351
 6512SOL    HW230999   1.653   0.711   2.949  1.7746 -3.5227 -1.2767
 6513SOL     OW31000   3.969   2.369   1.724 -0.5926  0.0956 -0.5859
 6513SOL    HW131001   4.053   2.355   1.680 -0.2950 -2.4732  0.7961
 6513SOL    HW231002   3.952   2.460   1.699 -0.5313  0.5753  1.1136
 6514SOL     OW31003   3.556   1.840  12.032 -0.6467 -0.6206  0.1444
 6514SOL    HW131004   3.647   1.863  12.052 -1.1684  1.9557 -0.4099
 6514SOL    HW231005   3.528   1.817  12.120 -1.6273  1.0968  0.2716
 6515SOL     OW31006   0.616   3.972   4.365  0.0538  0.2279 -0.5978
 6515SOL    HW131007   0.601   3.968   4.460  3.5759 -2.2792 -0.1517
 6515SOL    HW231008   0.550   4.027   4.322 -0.2327  0.2864 -0.0875
 6516SOL     OW31009   3.340   0.119   2.492 -0.3984  0.0820 -0.2428
 6516SOL    HW131010   3.397   0.185   2.532 -0.8630 -0.3788  1.1788
 6516SOL    HW231011   3.323   0.165   2.410  0.2839  2.2759  0.8112
 6517SOL     OW31012   1.230   0.465   3.599  0.0084 -0.0515  0.2238
 6517SOL    HW131013   1.315   0.455   3.642  0.9863 -2.1329 -2.1727
 6517SOL    HW231014   1.248   0.534   3.535 -0.7546  1.8840  2.1013
 6518SOL     OW31015   3.694   2.249  15.152 -0.6793  0.2637 -0.4201
 6518SOL    HW131016   3.738   2.213  15.076  0.7057  1.8470 -0.3776
 6518SOL    HW231017   3.640   2.176  15.183  0.1907  0.7280  2.1667
 6519SOL     OW31018   4.467   1.449   5.966  0.1955 -0.2804  0.2129
 6519SOL    HW131019   4.456   1.364   6.009 -0.4614 -0.9206 -1.2208
 6519SOL    HW231020   4.403   1.442   5.895 -1.2287  0.9041  1.3592
 6520SOL     OW31021   1.131   0.880   7.333 -0.1573  0.1025  0.3936
 6520SOL    HW131022   1.078   0.947   7.290  2.5057  2.1400  0.2959
 6520SOL    HW231023   1.088   0.799   7.304 -0.4901  0.9468 -1.4360
 6521SOL     OW31024   3.896   1.649   9.393  0.0113 -0.1906  0.2267
 6521SOL    HW131025   3.991   1.653   9.401  0.2201  1.4945 -2.9925
 6521SOL    HW231026   3.880   1.675   9.484 -3.3032  0.3126 -0.5122
 6522SOL     OW31027   1.131   2.173  12.840 -0.6089 -0.4243  0.1514
 6522SOL    HW131028   1.132   2.149  12.747 -1.3955  0.6168 -0.1331
 6522SOL    HW231029   1.037   2.166  12.861  0.0598 -3.2966  2.2003
 6523SOL     OW31030   1.189   0.135   8.028  0.0907  0.7877 -0.3479
 6523SOL    HW131031   1.163   0.109   7.939  0.5490 -1.9387  0.3291
 6523SOL    HW231032   1.273   0.090   8.035  1.0440  2.4159 -1.2369
 6524SOL     OW31033   1.413   3.898   6.555 -0.6421 -1.1052  0.1945
 6524SOL    HW131034   1.333   3.905   6.503  0.0574  0.8166 -0.6274
 6524SOL    HW231035   1.373   3.858   6.632 -1.0241  0.4677  0.8144
 6525SOL     OW31036   2.770   2.840   3.519 -0.4889 -0.3430  0.0153
 6525SOL    HW131037   2.748   2.902   3.450 -1.3886  2.0004  2.4446
 6525SOL    HW231038   2.845   2.878   3.565 -1.9149  0.3123  1.7651
 6526SOL     OW31039   4.693   2.730   3.074 -0.1128 -0.2605  0.0790
 6526SOL    HW131040   4.598   2.728   3.071 -0.1015 -0.8868 -0.0300
 6526SOL    HW231041   4.698   2.687   2.988  1.1495  0.6303 -0.2994
 6527SOL     OW31042   0.190   1.517   4.248  0.6951  0.5907 -0.0818
 6527SOL    HW131043   0.184   1.492   4.156  0.4947 -1.0211  0.3570
 6527SOL    HW231044   0.246   1.594   4.243  2.1912 -0.5365 -0.4371
 6528SOL     OW31045   2.268   2.556   7.701 -0.4185 -0.5936  0.2279
 6528SOL    HW131046   2.345   2.499   7.706  0.2103  0.0302 -2.1231
 6528SOL    HW231047   2.290   2.615   7.629 -2.4621  0.2404  0.3098
 6529SOL     OW31048   1.786   0.823  16.824 -0.2739  0.2457 -0.1673
 6529SOL    HW131049   1.774   0.794  16.734  2.2510 -3.9613  0.8690
 6529SOL    HW231050   1.699   0.796  16.852  0.4219 -0.4150  1.3524
 6530SOL     OW31051   0.546   2.166  11.733 -0.5506  0.2919  0.4709
 6530SOL    HW131052   0.610   2.096  11.723 -2.1137 -1.1178  0.4530
 6530SOL    HW231053   0.581   2.188  11.819 -1.1248 -0.5940  0.9329
 6531SOL     OW31054   2.013   3.234   8.100  0.2628 -0.4884  0.1624
 6531SOL    HW131055   2.040   3.317   8.061 -2.1079 -0.0959 -0.6559
 6531SOL    HW231056   2.093   3.182   8.110  1.5038  1.9683  3.0084
 6532SOL     OW31057   4.365   2.053   5.401  0.0131  0.1716 -0.0718
 6532SOL    HW131058   4.324   1.968   5.384  2.2270 -0.6458 -1.3288
 6532SOL    HW231059   4.443   2.050   5.346 -0.3145 -0.4422 -0.5012
 6533SOL     OW31060   0.471   1.813  15.927 -0.5743  0.0762  0.1947
 6533SOL    HW131061   0.433   1.893  15.964  0.4291  1.7525 -2.3886
 6533SOL    HW231062   0.497   1.766  16.006 -3.0844 -0.9598  0.3888
 6534SOL     OW31063   0.869   2.035  14.899  0.5630 -0.0498  0.2064
 6534SOL    HW131064   0.874   2.016  14.806 -0.0726  1.3068 -0.1027
 6534SOL    HW231065   0.808   2.108  14.906  0.9114  0.3105 -0.5912
 6535SOL     OW31066   2.522   2.729   5.404 -0.2041 -0.0567 -0.4360
 6535SOL    HW131067   2.579   2.793   5.360  0.4887 -0.8785 -0.7341
 6535SOL    HW231068   2.447   2.772   5.445 -1.8322 -2.3910 -0.9738
 6536SOL     OW31069   0.575   2.874   8.013 -0.0485  0.4278 -0.1019
 6536SOL    HW131070   0.504   2.810   8.007  1.7014 -1.5295 -0.2516
 6536SOL    HW231071   0.637   2.824   7.960 -0.5988  1.9754 -2.1906
 6537SOL     OW31072   0.353   3.403   3.731 -0.3049  0.2667  0.0092
 6537SOL    HW131073   0.421   3.447   3.679 -0.6600  0.2140 -0.5029
 6537SOL    HW231074   0.316   3.356   3.656  3.2463 -0.3712 -1.3538
 6538SOL     OW31075   0.203   0.840   0.905  0.5697  0.2779  0.5543
 6538SOL    HW131076   0.271   0.859   0.841 -1.2420 -0.8641 -1.7051
 6538SOL    HW231077   0.242   0.771   0.958  1.1547 -1.2029 -1.7900
 6539SOL     OW31078   0.362   2.329   4.938 -0.4039 -1.0151  0.1553
 6539SOL    HW131079   0.311   2.318   4.858 -0.8775 -0.0634  0.3209
 6539SOL    HW231080   0.290   2.340   5.000  0.8948 -0.4689  1.5629
 6540SOL     OW31081   2.003   2.564  14.904 -0.3366  0.7799  0.2541
 6540SOL    HW131082   1.957   2.546  14.821  2.0407  0.3334 -0.9624
 6540SOL    HW231083   2.090   2.582  14.869 -0.4149  1.1362  0.2383
 6541SOL     OW31084   3.906   2.876   3.836 -0.2367 -0.0333 -0.5145
 6541SOL    HW131085   3.914   2.840   3.747  0.2968  0.9051 -0.8467
 6541SOL    HW231086   3.955   2.958   3.843  2.4906 -1.7950  0.9576
 6542SOL     OW31087   3.098   1.004   7.402  0.7005 -0.1757 -0.4314
 6542SOL    HW131088   3.156   1.071   7.438 -0.0248  0.0997  0.2087
 6542SOL    HW231089   3.029   1.026   7.463 -0.2848  0.0032 -1.6084
 6543SOL     OW31090   2.544   1.680  12.659 -0.0732  0.4037  0.3362
 6543SOL    HW131091   2.451   1.669  12.642  0.0193 -2.6922  1.7544
 6543SOL    HW231092   2.558   1.774  12.649 -1.6588  0.4917 -1.1118
 6544SOL     OW31093   2.352   1.272   0.742  0.2725  0.1431  0.4961
 6544SOL    HW131094   2.300   1.288   0.821  1.7610  1.7492  1.1606
 6544SOL    HW231095   2.433   1.242   0.782  0.1744 -1.3848 -0.4508
 6545SOL     OW31096   2.899   0.106   8.032  0.3884 -0.8669 -0.1300
 6545SOL    HW131097   2.951   0.029   8.054  0.6693 -0.6726 -0.1216
 6545SOL    HW231098   2.817   0.088   8.078 -0.1743  0.7618 -0.4651
 6546SOL     OW31099   2.574   3.097   5.506 -0.1529  0.2104 -0.1199
 6546SOL    HW131100   2.668   3.084   5.493 -0.2627  0.4066 -1.1205
 6546SOL    HW231101   2.557   3.029   5.570 -0.0942  1.3797  1.1236
 6547SOL     OW31102   0.670   0.332   6.608  0.1528  0.5074  0.0143
 6547SOL    HW131103   0.764   0.349   6.618  0.4065 -1.0483  0.1856
 6547SOL    HW231104   0.665   0.296   6.519 -1.0925 -0.6072  0.5421
 6548SOL     OW31105   3.119   0.420   3.761 -0.4209 -0.7421 -0.0088
 6548SOL    HW131106   3.100   0.336   3.718  0.1393 -0.5279 -0.6628
 6548SOL    HW231107   3.032   0.442   3.794 -0.4814  0.9824 -1.3548
 6549SOL     OW31108   0.495   3.252   5.374 -0.0312  0.9194  0.0470
 6549SOL    HW131109   0.483   3.331   5.426  0.8189  1.6796 -0.8980
 6549SOL    HW231110   0.588   3.266   5.357  0.2632 -2.0277 -0.9432
 6550SOL     OW31111   1.056   4.049  14.692 -0.5537  0.0214 -0.6189
 6550SOL    HW131112   1.142   4.024  14.659  1.0562  0.5682  3.2388
 6550SOL    HW231113   1.078   4.127  14.743  0.5062  0.3887 -1.6440
 6551SOL     OW31114   2.435   2.140  13.736 -0.3298 -0.3328 -0.1267
 6551SOL    HW131115   2.490   2.128  13.813 -1.0537 -1.2425  0.2447
 6551SOL    HW231116   2.445   2.234  13.725  0.2793 -0.1359  2.1808
 6552SOL     OW31117   4.457   2.638   1.821 -0.3240  1.0108 -0.2278
 6552SOL    HW131118   4.540   2.682   1.839 -0.5718  0.6199  1.8896
 6552SOL    HW231119   4.484   2.549   1.840  0.7934  1.1913 -1.0057
 6553SOL     OW31120   2.747   3.183   2.759 -0.9076 -0.2252  0.3520
 6553SOL    HW131121   2.810   3.175   2.688 -0.0313  0.0214  1.0898
 6553SOL    HW231122   2.796   3.253   2.802  1.2702 -1.2071 -0.5237
 6554SOL     OW31123   0.593   2.845   4.599  0.3745 -0.0772 -0.2447
 6554SOL    HW131124   0.668   2.904   4.595  0.2780 -0.0687 -1.8813
 6554SOL    HW231125   0.597   2.816   4.508 -2.7666  1.0251 -0.7425
 6555SOL     OW31126   1.748   2.747   7.681 -0.3895 -0.0976  0.8287
 6555SOL    HW131127   1.835   2.737   7.642 -0.1937  0.9437  0.9847
 6555SOL    HW231128   1.708   2.808   7.619  1.9782  0.4690 -0.1306
 6556SOL     OW31129   4.287   1.390   6.238 -0.5314  0.9608  0.2697
 6556SOL    HW131130   4.323   1.319   6.184  0.5339  0.8879  1.0668
 6556SOL    HW231131   4.258   1.349   6.319 -0.3033 -0.9594 -0.6127
 6557SOL     OW31132   1.733   2.461  10.486 -0.1385 -0.4381  0.1750
 6557SOL    HW131133   1.778   2.464  10.401 -1.4553 -1.4124 -0.5681
 6557SOL    HW231134   1.693   2.374  10.481 -0.5649 -0.1853 -0.9975
 6558SOL     OW31135   2.695   0.891   6.639 -0.5096 -0.2018 -0.1384
 6558SOL    HW131136   2.689   0.937   6.722  0.2068 -0.5236  0.0942
 6558SOL    HW231137   2.683   0.802   6.671 -0.0988 -0.9731 -2.0992
 6559SOL     OW31138   1.098   0.731   9.065  0.2182 -0.2651  0.3373
 6559SOL    HW131139   1.097   0.756   9.157  0.9574 -1.9941  0.8304
 6559SOL    HW231140   1.122   0.816   9.029  2.0579 -1.2105 -0.7103
 6560SOL     OW31141   2.096   0.688   6.571 -0.1177  0.6796  0.0319
 6560SOL    HW131142   2.117   0.653   6.484 -0.3336  0.7252 -0.0410
 6560SOL    HW231143   2.172   0.744   6.582  0.9260 -0.4671 -1.3600
 6561SOL     OW31144   0.005   4.568  11.216  0.6582 -0.1958 -0.0934
 6561SOL    HW131145   4.701   4.619  11.292  0.4412  2.2082 -1.7950
 6561SOL    HW231146   4.677   4.600  11.143  0.7947  0.6941  0.1864
 6562SOL     OW31147   0.752   2.133   7.379 -0.4264 -0.3247  0.3036
 6562SOL    HW131148   0.670   2.098   7.414 -1.0229  0.5381 -0.2204
 6562SOL    HW231149   0.807   2.065   7.418  1.4580  1.0114 -0.0526
 6563SOL     OW31150   0.895   2.749  15.187  0.3340 -0.1826 -0.4022
 6563SOL    HW131151   0.902   2.657  15.162 -1.3660  0.4294 -3.1361
 6563SOL    HW231152   0.973   2.794  15.153 -0.7715 -0.5327 -3.4514
 6564SOL     OW31153   0.960   4.723   2.059 -0.1534  0.7550 -0.1404
 6564SOL    HW131154   0.918   4.642   2.090 -0.2885  1.2657  1.0078
 6564SOL    HW231155   0.927   4.721   1.969 -2.3314 -3.2283  0.7135
 6565SOL     OW31156   3.617   1.335  16.789  0.0097 -0.2695  0.2764
 6565SOL    HW131157   3.615   1.325  16.693 -2.2539  1.1662  0.1881
 6565SOL    HW231158   3.535   1.383  16.799 -0.7464 -0.7131 -3.5799
 6566SOL     OW31159   3.102   1.268   4.743  0.0799  0.3273  0.3711
 6566SOL    HW131160   3.023   1.220   4.769 -0.3060  0.1930 -1.0792
 6566SOL    HW231161   3.142   1.202   4.686  0.6994  1.3936 -0.4099
 6567SOL     OW31162   4.367   3.337   5.136  0.0057 -0.1899  0.1132
 6567SOL    HW131163   4.445   3.281   5.140 -0.8724 -1.5293 -1.3564
 6567SOL    HW231164   4.323   3.298   5.060 -1.1232  3.7399 -1.2060
 6568SOL     OW31165   3.594   2.989   6.580  0.1343 -0.1283  0.1804
 6568SOL    HW131166   3.515   2.951   6.543  0.8700 -1.4482 -0.0520
 6568SOL    HW231167   3.652   2.916   6.604 -1.2000 -1.8326 -1.8769
 6569SOL     OW31168   2.376   4.309   6.637  0.7253  0.6355 -0.0308
 6569SOL    HW131169   2.292   4.273   6.610 -0.1909  1.5862  1.5443
 6569SOL    HW231170   2.400   4.328   6.546  0.6817 -3.7753 -0.9702
 6570SOL     OW31171   1.337   0.536   1.896  0.1413 -0.0345  1.1733
 6570SOL    HW131172   1.369   0.449   1.874 -0.4043  0.7358 -2.5593
 6570SOL    HW231173   1.242   0.523   1.897  0.3432 -1.5715  1.8086
 6571SOL     OW31174   0.547   3.215   8.587 -0.5889  0.3249 -0.3136
 6571SOL    HW131175   0.590   3.290   8.545 -1.2752  0.0360 -1.5284
 6571SOL    HW231176   0.495   3.259   8.654  1.0228  1.5125  0.1563
 6572SOL     OW31177   3.729   3.600   6.457 -0.1948 -0.2621 -0.1717
 6572SOL    HW131178   3.652   3.602   6.514 -0.8327 -1.4344 -1.0004
 6572SOL    HW231179   3.783   3.536   6.505  1.2494  1.4376  0.4562
 6573SOL     OW31180   4.651   3.599  11.041 -0.0188  0.1356 -0.3648
 6573SOL    HW131181   4.701   3.680  11.033  2.4528 -1.1692  1.8430
 6573SOL    HW231182   4.667   3.569  10.952  1.1593 -0.3806  0.0128
 6574SOL     OW31183   1.964   4.180   4.710 -0.3145 -0.1565  0.2065
 6574SOL    HW131184   2.052   4.154   4.682  0.8338  0.7394  2.9534
 6574SOL    HW231185   1.912   4.165   4.631 -0.4976  0.2590  0.2499
 6575SOL     OW31186   3.292   3.672  13.308  0.3062  0.1362 -0.0786
 6575SOL    HW131187   3.236   3.738  13.350  0.5835  0.2614  0.0949
 6575SOL    HW231188   3.347   3.648  13.382 -1.9725 -1.3912  1.1136
 6576SOL     OW31189   1.617   0.000   3.222  0.9572  0.0466  0.1749
 6576SOL    HW131190   1.666   0.048   3.155  1.6461 -0.1879  0.5088
 6576SOL    HW231191   1.693   4.677   3.256  0.1951 -1.0928  0.2512
 6577SOL     OW31192   2.688   1.172  15.066 -0.4636  0.4655 -0.1689
 6577SOL    HW131193   2.720   1.142  15.151  2.0261 -0.8968 -1.5837
 6577SOL    HW231194   2.760   1.200  15.010  1.1646 -2.9168  0.2005
 6578SOL     OW31195   3.254   1.194   0.729  0.0244 -0.1444 -0.4619
 6578SOL    HW131196   3.175   1.237   0.696  0.3557 -0.6168 -1.8817
 6578SOL    HW231197   3.314   1.268   0.724  0.4082 -0.3866  0.6147
 6579SOL     OW31198   2.898   1.075   7.572  0.1381 -0.1615 -0.2482
 6579SOL    HW131199   2.827   1.085   7.635  0.0341 -0.2611 -0.3489
 6579SOL    HW231200   2.850   1.054   7.492  2.0636  0.4866 -1.5853
 6580SOL     OW31201   2.233   0.056  12.131  0.2183  0.0908 -0.1596
 6580SOL    HW131202   2.142   0.086  12.142  0.7801  1.4862  0.7819
 6580SOL    HW231203   2.229   0.022  12.042  1.2650  0.8580 -0.5013
 6581SOL     OW31204   1.414   2.420   4.595  0.1021 -0.0213 -0.0046
 6581SOL    HW131205   1.476   2.379   4.534  0.4199 -0.9052  0.9049
 6581SOL    HW231206   1.455   2.504   4.615 -1.0021  0.6819 -0.7843
 6582SOL     OW31207   4.217   0.603   9.330 -0.3270 -0.4561  0.7543
 6582SOL    HW131208   4.298   0.642   9.363  0.2382 -1.1949  0.2510
 6582SOL    HW231209   4.192   0.661   9.258  1.9288  0.4578  0.7049
 6583SOL     OW31210   2.645   0.377   6.861 -0.4402 -0.4210  0.4541
 6583SOL    HW131211   2.628   0.285   6.840  0.0972 -0.2109 -0.9096
 6583SOL    HW231212   2.712   0.376   6.930 -0.3276  0.7213  0.3635
 6584SOL     OW31213   1.467   1.929   7.404  0.2900  0.4178 -0.2785
 6584SOL    HW131214   1.562   1.928   7.395  0.3852  0.3459  0.7180
 6584SOL    HW231215   1.440   1.852   7.355  0.2824  2.2556 -3.1249
 6585SOL     OW31216   4.279   3.561   8.055  0.2328  0.1297  0.0840
 6585SOL    HW131217   4.266   3.595   7.967 -3.2685 -0.8392  0.2053
 6585SOL    HW231218   4.274   3.647   8.098  1.5000 -0.1522  0.7696
 6586SOL     OW31219   1.489   2.452  13.691  0.2819  0.1071 -0.1805
 6586SOL    HW131220   1.537   2.437  13.773 -2.3761  1.8656  1.6926
 6586SOL    HW231221   1.405   2.408  13.708 -0.3582  1.0325 -0.9357
 6587SOL     OW31222   0.361   2.312  16.612  0.6993 -0.3854  0.0245
 6587SOL    HW131223   0.443   2.362  16.611 -0.6751  1.8608 -0.8646
 6587SOL    HW231224   0.299   2.378  16.582 -0.5041 -1.7194 -0.4180
 6588SOL     OW31225   2.293   1.213   4.579  0.3997 -0.9275 -0.0954
 6588SOL    HW131226   2.217   1.183   4.630 -0.3902  0.3496 -0.5243
 6588SOL    HW231227   2.246   1.255   4.507  0.0918  1.8667  1.7110
 6589SOL     OW31228   4.002   4.161   3.280  0.5963  0.3256  0.0347
 6589SOL    HW131229   4.020   4.134   3.370 -1.9578  0.5451  0.6197
 6589SOL    HW231230   4.002   4.074   3.241  0.7643  1.5312 -2.6351
 6590SOL     OW31231   1.545   0.603  16.804 -0.3987  0.2121  0.4679
 6590SOL    HW131232   1.534   0.591  16.709  0.3343 -1.0958  0.5589
 6590SOL    HW231233   1.456   0.633  16.825 -0.3052  1.8011 -1.3528
 6591SOL     OW31234   0.183   1.942   0.861  0.3085 -0.6237 -0.3457
 6591SOL    HW131235   0.212   1.888   0.787  1.6337  1.0526 -1.0389
 6591SOL    HW231236   0.104   1.982   0.824 -1.4661 -2.2732  1.6664
 6592SOL     OW31237   1.678   3.962   6.998  0.4550  0.4239 -0.3411
 6592SOL    HW131238   1.700   3.907   6.923  1.9024  0.6727 -0.1076
 6592SOL    HW231239   1.662   4.050   6.963 -2.3843  0.8874  2.1219
 6593SOL     OW31240   4.693   4.051   7.322  0.1368  0.2896 -0.2897
 6593SOL    HW131241   4.723   4.113   7.255 -1.8553 -0.4137 -1.8484
 6593SOL    HW231242   4.711   4.100   7.402  0.9304  0.2591 -0.4476
 6594SOL     OW31243   2.795   0.819   4.371 -0.3281  0.4093 -0.2727
 6594SOL    HW131244   2.830   0.750   4.315  0.9065  1.1538 -0.4142
 6594SOL    HW231245   2.707   0.834   4.336 -1.4249 -0.1302  2.2251
 6595SOL     OW31246   4.069   2.614   9.299  0.1444  0.0371 -0.0923
 6595SOL    HW131247   4.146   2.586   9.250 -0.3405 -0.8350 -0.3426
 6595SOL    HW231248   4.103   2.644   9.384 -0.0342  0.9526 -0.3375
 6596SOL     OW31249   2.933   2.801   7.106  0.8702 -0.2663 -0.4963
 6596SOL    HW131250   2.963   2.757   7.185  1.9707 -0.2190 -0.8817
 6596SOL    HW231251   2.997   2.761   7.046  0.6911 -1.5708  0.1843
 6597SOL     OW31252   2.479   1.608  12.029  0.1559  0.0625 -0.0777
 6597SOL    HW131253   2.472   1.522  11.988 -0.2184  0.3936 -0.7039
 6597SOL    HW231254   2.554   1.588  12.085 -0.7649 -1.5616  0.5415
 6598SOL     OW31255   2.533   0.261   7.712  0.4769  0.2599  0.1275
 6598SOL    HW131256   2.443   0.277   7.741  0.8832 -0.3130  1.7000
 6598SOL    HW231257   2.544   0.174   7.750  1.4559  0.3674  0.0852
 6599SOL     OW31258   2.025   0.102   2.565  0.7077 -0.1943  0.2084
 6599SOL    HW131259   1.976   0.065   2.492  0.5108 -1.4987  0.9963
 6599SOL    HW231260   1.981   0.185   2.586 -0.4053 -0.4160 -1.2741
 6600SOL     OW31261   0.295   1.101   3.967  0.0078  0.4963 -0.3224
 6600SOL    HW131262   0.286   1.021   4.018  1.3667 -0.5872 -1.8099
 6600SOL    HW231263   0.212   1.116   3.921  0.0467 -0.9692 -0.8717
 6601SOL     OW31264   4.029   0.773   1.391 -0.0976 -0.4884  0.1350
 6601SOL    HW131265   4.089   0.735   1.456  0.3647 -0.3491 -0.2069
 6601SOL    HW231266   4.019   0.697   1.334 -1.4143  1.4627 -2.2624
 6602SOL     OW31267   0.449   0.243   1.243  0.0664  0.2046 -0.3125
 6602SOL    HW131268   0.457   0.251   1.148 -0.0698 -0.1202 -0.3514
 6602SOL    HW231269   0.445   0.148   1.253 -1.2842  0.1358 -1.4287
 6603SOL     OW31270   1.688   3.796  11.695 -0.6864  0.7009 -0.1102
 6603SOL    HW131271   1.758   3.852  11.661 -1.3627  2.2692  1.0683
 6603SOL    HW231272   1.612   3.826  11.645 -0.5899  1.4459  0.1873
 6604SOL     OW31273   3.667   0.115   8.824 -0.2420  0.1017 -0.4017
 6604SOL    HW131274   3.733   0.064   8.777 -1.7445 -1.5358 -0.7460
 6604SOL    HW231275   3.673   0.194   8.771 -0.6339  0.0826 -0.4806
 6605SOL     OW31276   4.370   2.173   8.644  0.3998 -0.0435  0.6409
 6605SOL    HW131277   4.432   2.133   8.583  1.9353  0.4099  1.9061
 6605SOL    HW231278   4.418   2.177   8.727  3.5525 -2.3804 -1.0853
 6606SOL     OW31279   3.014   3.656   4.783 -0.3113 -0.5491  0.2564
 6606SOL    HW131280   3.072   3.589   4.746  0.2603  0.3601 -0.4602
 6606SOL    HW231281   2.947   3.658   4.716 -1.0958 -2.2184  0.9791
 6607SOL     OW31282   0.169   1.775   7.413  0.0117  0.0547 -0.3822
 6607SOL    HW131283   0.112   1.714   7.366  0.0780 -0.4123  0.1449
 6607SOL    HW231284   0.123   1.858   7.404 -2.0563 -1.2108 -1.6521
 6608SOL     OW31285   3.439   3.592  13.517 -0.2231  0.0464 -0.0758
 6608SOL    HW131286   3.479   3.507  13.501 -1.2218 -0.3230 -0.5858
 6608SOL    HW231287   3.512   3.642  13.554  2.1163 -1.7758 -2.2278
 6609SOL     OW31288   1.690   3.132   3.196  0.4920 -0.4641 -0.4689
 6609SOL    HW131289   1.747   3.063   3.162  1.3972 -0.5493  1.2397
 6609SOL    HW231290   1.649   3.083   3.267 -2.8099  0.1475 -1.9341
 6610SOL     OW31291   1.754   4.548  14.434 -0.1625 -0.1437 -0.1935
 6610SOL    HW131292   1.690   4.610  14.400 -0.1469  0.2448  0.4792
 6610SOL    HW231293   1.833   4.602  14.439  1.6416 -2.7602  0.0023
 6611SOL     OW31294   1.610   4.462  10.113 -0.4984 -0.5060  0.2174
 6611SOL    HW131295   1.552   4.419  10.050 -1.5084 -1.1176  1.5435
 6611SOL    HW231296   1.681   4.472  10.050 -0.2186  1.3114  0.8369
 6612SOL     OW31297   2.928   1.270  14.275  0.0452 -0.2728 -0.3069
 6612SOL    HW131298   2.886   1.213  14.339 -0.2675 -0.4084 -0.6328
 6612SOL    HW231299   2.937   1.349  14.330  2.8794 -2.3016  2.1739
 6613SOL     OW31300   2.320   1.850   7.043 -0.3462  0.1859 -0.0681
 6613SOL    HW131301   2.366   1.889   7.118 -0.1535  2.4623 -1.3661
 6613SOL    HW231302   2.238   1.898   7.053 -0.4900  0.2566 -1.6395
 6614SOL     OW31303   0.362   3.300   0.607  0.3039 -0.3529 -0.4603
 6614SOL    HW131304   0.390   3.336   0.691 -1.3380 -1.1609  0.4415
 6614SOL    HW231305   0.439   3.314   0.553  1.9436 -1.1294  1.6699
 6615SOL     OW31306   1.724   2.476   7.689 -0.4196  0.2256  0.0452
 6615SOL    HW131307   1.682   2.493   7.605  1.6913  0.4186 -0.9969
 6615SOL    HW231308   1.731   2.565   7.725 -1.0361  0.6453 -0.8729
 6616SOL     OW31309   2.235   0.171   8.373 -0.3747 -0.1270  0.4706
 6616SOL    HW131310   2.154   0.166   8.323 -0.0088  0.4109 -0.1892
 6616SOL    HW231311   2.211   0.233   8.443 -0.2820 -0.8584  1.1472
 6617SOL     OW31312   4.299   4.306  17.651 -0.2890 -0.2544  0.5036
 6617SOL    HW131313   4.214   4.339  17.680 -1.3895 -1.9955 -0.7582
 6617SOL    HW231314   4.323   4.371  17.586  1.4248 -0.1476  1.2419
 6618SOL     OW31315   4.384   2.306   1.165  0.6740  0.3000 -0.8948
 6618SOL    HW131316   4.477   2.305   1.144  0.6180 -3.6495 -0.9917
 6618SOL    HW231317   4.386   2.402   1.165 -0.5331  0.3085 -2.0952
 6619SOL     OW31318   2.462   2.922   8.515 -0.0948 -0.2624  0.2859
 6619SOL    HW131319   2.518   2.845   8.520 -0.5860 -0.6429 -0.0832
 6619SOL    HW231320   2.427   2.916   8.426  1.5120  0.9709 -0.4232
 6620SOL     OW31321   2.833   4.254   4.161  0.1758  0.4596 -0.5941
 6620SOL    HW131322   2.787   4.215   4.086 -1.6375 -0.7513  1.1507
 6620SOL    HW231323   2.881   4.319   4.110  1.8420 -1.2086 -1.1324
 6621SOL     OW31324   4.364   0.375   8.852  0.1850 -0.0431 -0.1571
 6621SOL    HW131325   4.275   0.408   8.865 -0.3970 -1.8500  0.4531
 6621SOL    HW231326   4.354   0.285   8.883  0.1930  0.2385  0.6719
 6622SOL     OW31327   3.220   3.178   2.235  0.8932  0.0997  0.2475
 6622SOL    HW131328   3.159   3.250   2.248 -0.4350 -0.6738 -1.6938
 6622SOL    HW231329   3.161   3.109   2.264  0.5753  1.0088  1.7466
 6623SOL     OW31330   1.272   0.297   7.483  0.0159 -0.1252  0.5167
 6623SOL    HW131331   1.331   0.267   7.552  2.0935  1.9461 -0.3509
 6623SOL    HW231332   1.194   0.245   7.502 -0.1988 -0.6551 -1.8096
 6624SOL     OW31333   2.496   3.998  12.168 -0.0208 -0.1159 -0.4069
 6624SOL    HW131334   2.490   3.940  12.245  0.8739 -0.4383 -0.5800
 6624SOL    HW231335   2.550   3.940  12.113 -1.3323 -1.7971  0.0697
 6625SOL     OW31336   0.981   3.546   4.521  0.2032 -0.1606  0.5052
 6625SOL    HW131337   1.042   3.616   4.544 -0.9732  1.0893 -0.2221
 6625SOL    HW231338   0.908   3.566   4.579 -0.0963  0.1753  0.0011
 6626SOL     OW31339   3.726   2.981   2.224  0.8662  0.3201  0.1170
 6626SOL    HW131340   3.715   2.915   2.293 -1.0602  0.8579  0.3242
 6626SOL    HW231341   3.727   2.929   2.144 -1.0727  0.7683 -0.2055
 6627SOL     OW31342   3.770   1.100  14.248  0.0060  0.2184 -0.7223
 6627SOL    HW131343   3.724   1.040  14.189  0.1726  1.5515 -2.1988
 6627SOL    HW231344   3.711   1.176  14.248  0.1023  0.2953  0.0152
 6628SOL     OW31345   0.145   0.756  10.125  0.8438  0.7303 -0.3213
 6628SOL    HW131346   0.202   0.803  10.065  1.0563 -1.4561 -1.8380
 6628SOL    HW231347   0.189   0.760  10.210 -0.1222  1.0626  0.1615
 6629SOL     OW31348   1.108   0.610   5.221  0.0392 -0.3719  0.0167
 6629SOL    HW131349   1.189   0.659   5.233  0.1175 -0.6665  0.6611
 6629SOL    HW231350   1.102   0.628   5.127 -0.9078  0.1992  0.1747
 6630SOL     OW31351   1.943   4.580   1.754 -0.1267 -0.2799 -0.4771
 6630SOL    HW131352   2.008   4.530   1.803  0.6426  0.0376 -1.1815
 6630SOL    HW231353   1.993   4.630   1.690  0.7530 -1.0207 -0.3617
 6631SOL     OW31354   0.766   2.817   5.783  0.5299  0.3641  0.2720
 6631SOL    HW131355   0.719   2.896   5.807 -0.2025 -0.2292  0.7673
 6631SOL    HW231356   0.830   2.804   5.853 -0.4384  2.3073  1.5064
 6632SOL     OW31357   0.431   0.575   3.416  0.8036 -0.2814 -0.3370
 6632SOL    HW131358   0.477   0.632   3.478  1.8108 -1.5622  0.1186
 6632SOL    HW231359   0.492   0.502   3.404  1.1114 -0.2227  0.8861
 6633SOL     OW31360   3.716   1.863   8.562  0.2931  0.3031 -0.4533
 6633SOL    HW131361   3.746   1.949   8.592 -1.0259  0.7545 -0.4394
 6633SOL    HW231362   3.795   1.810   8.555  0.2980  0.2668 -0.1169
 6634SOL     OW31363   0.674   0.588   1.130 -0.3179  0.0466  0.1873
 6634SOL    HW131364   0.738   0.606   1.199 -2.1429  3.9079  0.8826
 6634SOL    HW231365   0.590   0.584   1.174 -0.3037 -3.7012 -0.1049
 6635SOL     OW31366   4.362   4.700   7.619  0.4377  0.2454  0.2103
 6635SOL    HW131367   4.300   0.020   7.677  0.3936  0.2780  0.1377
 6635SOL    HW231368   4.413   4.662   7.690  0.5493 -0.7670 -0.4138
 6636SOL     OW31369   4.276   4.477   7.118 -0.6425 -0.5610  0.2051
 6636SOL    HW131370   4.221   4.507   7.190  0.5590 -2.4262  1.8890
 6636SOL    HW231371   4.291   4.388   7.148 -0.3822 -1.4711 -2.5477
 6637SOL     OW31372   3.992   2.778  13.337  0.4253 -0.6196  0.0984
 6637SOL    HW131373   4.079   2.789  13.298  1.3974  1.2721  2.7595
 6637SOL    HW231374   3.997   2.692  13.377 -0.8076 -0.2753  1.0153
 6638SOL     OW31375   2.468   0.559   5.050 -0.4287  0.7006  0.2913
 6638SOL    HW131376   2.490   0.473   5.012  1.3977  0.2897  2.2472
 6638SOL    HW231377   2.540   0.567   5.112  0.7225 -0.4848 -0.8792
 6639SOL     OW31378   3.481   2.861   4.073  0.4577  0.1463 -0.2488
 6639SOL    HW131379   3.470   2.852   3.979 -0.0387 -1.3771 -0.0438
 6639SOL    HW231380   3.448   2.950   4.079  2.8016  1.0166 -0.2911
 6640SOL     OW31381   4.340   4.161   9.975  0.2574 -0.3461 -0.4785
 6640SOL    HW131382   4.338   4.206  10.060 -0.7169  0.8057 -1.1127
 6640SOL    HW231383   4.420   4.110   9.984  0.0226 -0.7043 -0.4179
 6641SOL     OW31384   2.188   2.204   8.128  0.2531  1.0836 -0.0200
 6641SOL    HW131385   2.092   2.210   8.122  0.3493  1.3025 -1.3076
 6641SOL    HW231386   2.211   2.295   8.114 -2.7532  1.8543  0.0377
 6642SOL     OW31387   2.903   1.302   2.547 -0.3264  0.4060  0.0756
 6642SOL    HW131388   2.845   1.352   2.490  0.3415  1.3246  0.2123
 6642SOL    HW231389   2.847   1.224   2.556  0.6730 -0.6477 -2.6943
 6643SOL     OW31390   3.649   1.371  14.479  0.5073 -0.9001 -0.0873
 6643SOL    HW131391   3.600   1.324  14.546 -0.9709 -1.4096 -1.5188
 6643SOL    HW231392   3.728   1.394  14.527  0.1447 -4.2862  2.1174
 6644SOL     OW31393   4.558   1.679   8.171 -0.4011  0.2361 -0.1596
 6644SOL    HW131394   4.471   1.706   8.201  0.1332  2.6141 -0.7394
 6644SOL    HW231395   4.611   1.671   8.250  1.2917  0.1433 -1.3048
 6645SOL     OW31396   4.672   0.342   8.946  0.3744  0.0696 -0.1063
 6645SOL    HW131397   4.623   0.322   9.026 -0.7017  1.3203 -0.4563
 6645SOL    HW231398   4.597   0.356   8.888  0.5958  1.1069 -0.1533
 6646SOL     OW31399   1.183   0.109   1.720  0.1354 -0.2622 -0.3132
 6646SOL    HW131400   1.218   0.175   1.660  0.5635  0.7682  1.0691
 6646SOL    HW231401   1.116   0.161   1.763  0.8644 -0.6956  1.3263
 6647SOL     OW31402   3.635   2.961   3.525 -0.0597  0.4297 -0.5692
 6647SOL    HW131403   3.731   2.952   3.521  0.1329  0.8280  2.9310
 6647SOL    HW231404   3.614   2.870   3.504  1.9417 -0.2680  0.4660
 6648SOL     OW31405   3.446   4.470   3.656  0.2810  0.1409  0.2984
 6648SOL    HW131406   3.494   4.544   3.621 -0.6014  1.3229  1.6286
 6648SOL    HW231407   3.429   4.498   3.745 -0.8404  0.1486  0.0842
 6649SOL     OW31408   0.325   0.218   3.274 -0.0033  0.2149 -0.1790
 6649SOL    HW131409   0.406   0.242   3.229  1.6819  2.3696  3.9633
 6649SOL    HW231410   0.273   0.279   3.222  0.1302 -1.6263 -2.4852
 6650SOL     OW31411   2.801   3.657   4.622 -0.0663 -0.4253 -0.5816
 6650SOL    HW131412   2.734   3.621   4.564 -0.5036  2.3623 -1.7829
 6650SOL    HW231413   2.760   3.743   4.614 -1.5172 -1.1422 -0.7686
 6651SOL     OW31414   2.746   2.555   2.862  0.1212 -0.0168  0.4577
 6651SOL    HW131415   2.682   2.484   2.864  0.9112 -0.7638 -1.4446
 6651SOL    HW231416   2.720   2.589   2.777  1.2699  0.7955  0.4265
 6652SOL     OW31417   1.496   2.916   2.226  0.1618  0.1344 -0.6571
 6652SOL    HW131418   1.407   2.936   2.254  0.2134 -1.6281  0.7639
 6652SOL    HW231419   1.516   2.975   2.153  0.4720 -0.1195 -0.7790
 6653SOL     OW31420   1.951   0.929  14.458 -0.0296  1.0342 -0.0088
 6653SOL    HW131421   1.893   1.002  14.479 -1.0724  0.1796  0.0989
 6653SOL    HW231422   1.922   0.918  14.367 -1.1425 -0.7796  0.5646
 6654SOL     OW31423   2.315   2.465   8.197  0.8495 -0.3447 -0.2717
 6654SOL    HW131424   2.285   2.509   8.117  1.4048  0.4880 -0.0256
 6654SOL    HW231425   2.399   2.508   8.212  0.7651 -0.4868  0.6076
 6655SOL     OW31426   0.398   4.713   1.258 -0.0561 -0.1525  0.2677
 6655SOL    HW131427   0.386   4.631   1.210 -0.6489  0.2867 -0.3255
 6655SOL    HW231428   0.314   0.019   1.294  0.4247  0.9745  0.4133
 6656SOL     OW31429   0.374   3.990   7.742  0.0680  0.2692 -0.2369
 6656SOL    HW131430   0.307   4.020   7.681 -2.8168 -2.3198  1.7324
 6656SOL    HW231431   0.450   4.036   7.704  0.2639 -0.4255 -0.6781
 6657SOL     OW31432   1.607   3.402  13.940 -0.1448  0.1812 -0.3088
 6657SOL    HW131433   1.685   3.456  13.949  0.7503 -1.3344  1.0166
 6657SOL    HW231434   1.573   3.402  14.029  1.7485  1.7810  0.3957
 6658SOL     OW31435   3.068   1.903   7.755  0.2459  0.0182 -0.1744
 6658SOL    HW131436   2.992   1.904   7.812 -0.2563 -0.0073 -0.8471
 6658SOL    HW231437   3.149   1.910   7.806 -0.0503 -2.4693  0.6539
 6659SOL     OW31438   3.018   3.281   3.269  0.4018  0.7926 -0.2716
 6659SOL    HW131439   2.989   3.276   3.178 -0.7229 -1.4148  0.2236
 6659SOL    HW231440   3.085   3.347   3.247 -0.8870  1.6948 -1.5069
 6660SOL     OW31441   0.224   1.358   2.784 -0.2835  0.1564 -0.2333
 6660SOL    HW131442   0.147   1.304   2.806 -0.5521  0.8892  0.6225
 6660SOL    HW231443   0.245   1.398   2.868 -1.0819 -2.1151  1.0496
 6661SOL     OW31444   1.628   3.307   9.185  0.0681 -0.4577  0.6637
 6661SOL    HW131445   1.695   3.364   9.223  0.4972 -0.8428  0.4947
 6661SOL    HW231446   1.552   3.364   9.181  0.6240  0.2339  0.0279
 6662SOL     OW31447   1.249   2.184  12.474 -0.2590  0.5378 -0.3156
 6662SOL    HW131448   1.183   2.119  12.500 -0.8490  1.3145  0.1292
 6662SOL    HW231449   1.327   2.172  12.528 -0.3604  1.1212 -0.0414
 6663SOL     OW31450   2.775   4.518   1.843 -0.1037 -0.4276 -0.3009
 6663SOL    HW131451   2.871   4.519   1.837 -0.2146  2.4510 -1.2381
 6663SOL    HW231452   2.753   4.576   1.770 -1.1873  1.1843  1.2997
 6664SOL     OW31453   4.534   4.680   5.764  0.2071  0.0555 -0.2802
 6664SOL    HW131454   4.520   0.000   5.681 -1.5584 -3.3524 -1.8345
 6664SOL    HW231455   4.601   4.613   5.756  0.1199 -0.0312 -0.2898
 6665SOL     OW31456   1.589   2.223   4.758  0.0953  0.0646 -0.1354
 6665SOL    HW131457   1.536   2.254   4.685  0.1191 -0.4708 -0.3790
 6665SOL    HW231458   1.573   2.294   4.819 -2.6385  0.5951 -1.4812
 6666SOL     OW31459   2.874   1.212   6.706  0.8404 -0.1341 -0.2420
 6666SOL    HW131460   2.925   1.269   6.648  0.5111  0.4998  0.0906
 6666SOL    HW231461   2.954   1.168   6.734  0.0303 -1.1957  0.3858
 6667SOL     OW31462   3.633   0.558  15.087  0.7275 -0.0042 -0.2505
 6667SOL    HW131463   3.704   0.588  15.144  0.2002  2.4248 -0.8569
 6667SOL    HW231464   3.631   0.623  15.016 -0.7354 -2.3255 -2.3182
 6668SOL     OW31465   1.909   2.851  17.669  0.5905 -0.0592  0.0808
 6668SOL    HW131466   1.854   2.827  17.595 -1.6301 -0.3213  1.8259
 6668SOL    HW231467   1.981   2.894  17.623  1.1980 -0.4957  0.6124
 6669SOL     OW31468   0.731   0.767  13.902  0.5221 -0.2400 -1.0355
 6669SOL    HW131469   0.659   0.731  13.851  0.8334 -1.6560 -0.4560
 6669SOL    HW231470   0.740   0.697  13.967  2.0551 -2.1710 -3.3377
 6670SOL     OW31471   2.379   3.953  10.182 -0.3126 -0.6160  0.2923
 6670SOL    HW131472   2.385   3.872  10.233  0.9718 -0.0052  1.0941
 6670SOL    HW231473   2.399   4.018  10.248 -0.6706  1.8775 -2.0529
 6671SOL     OW31474   3.711   1.221   4.436 -0.2897 -0.6445  0.4101
 6671SOL    HW131475   3.704   1.249   4.527  0.7291 -1.2721  0.6898
 6671SOL    HW231476   3.787   1.255   4.390 -1.3646 -0.1915 -1.0218
 6672SOL     OW31477   2.334   1.506   8.584  0.0531  0.4025 -0.1785
 6672SOL    HW131478   2.302   1.596   8.586 -0.8037  0.0869  0.2487
 6672SOL    HW231479   2.406   1.528   8.524 -1.3142 -0.7309 -2.2367
 6673SOL     OW31480   1.288   3.955   7.138  0.0752 -0.6794 -0.1602
 6673SOL    HW131481   1.379   3.935   7.157 -0.0334 -1.1586 -0.1415
 6673SOL    HW231482   1.250   3.954   7.226 -1.7373 -1.1399 -0.9314
 6674SOL     OW31483   2.039   2.370   4.746  0.2341  0.4429  0.2332
 6674SOL    HW131484   1.994   2.362   4.830  1.3052  1.0835  0.8718
 6674SOL    HW231485   2.108   2.305   4.758  0.0424  0.2692  0.3832
 6675SOL     OW31486   4.418   2.434  14.739 -0.8252  0.0652 -0.2192
 6675SOL    HW131487   4.417   2.342  14.714 -0.4629 -0.0817  0.2960
 6675SOL    HW231488   4.491   2.419  14.799  0.8985  2.9240 -1.6305
 6676SOL     OW31489   1.548   2.188   9.623 -0.4992 -0.6300 -0.3546
 6676SOL    HW131490   1.598   2.108   9.604 -1.9893 -2.2658  2.5601
 6676SOL    HW231491   1.571   2.229   9.540 -1.1898 -0.7956 -0.6292
 6677SOL     OW31492   4.333   3.690  13.342 -0.1542 -0.1001 -0.3997
 6677SOL    HW131493   4.377   3.762  13.297 -1.9441  3.1013  2.9819
 6677SOL    HW231494   4.259   3.680  13.282 -0.9027  1.2836  0.2858
 6678SOL     OW31495   3.332   1.716   5.303 -0.0925  0.4984  0.0831
 6678SOL    HW131496   3.381   1.703   5.384  0.2879 -0.8510 -0.3621
 6678SOL    HW231497   3.395   1.777   5.265  0.3788 -1.3130 -2.0213
 6679SOL     OW31498   2.769   3.405   1.590 -0.3861  0.3763  0.6371
 6679SOL    HW131499   2.707   3.449   1.649 -0.1319  0.6827  0.6687
 6679SOL    HW231500   2.705   3.360   1.534  0.3601  1.8785 -1.3865
 6680SOL     OW31501   0.361   1.463   8.999  0.7041 -0.0482 -0.3222
 6680SOL    HW131502   0.269   1.470   9.025  1.1985  1.8799  0.9328
 6680SOL    HW231503   0.371   1.547   8.953  0.5583 -0.5933 -1.3631
 6681SOL     OW31504   0.054   1.636   3.525 -0.3434 -0.6719 -0.1183
 6681SOL    HW131505   0.024   1.718   3.562  0.8149 -0.2029 -0.2110
 6681SOL    HW231506   0.023   1.636   3.434  0.7485 -0.9417 -0.4999
 6682SOL     OW31507   1.175   0.636   4.029  0.1658 -0.2240 -0.0515
 6682SOL    HW131508   1.121   0.663   4.103  1.5995  0.0326  0.9145
 6682SOL    HW231509   1.208   0.720   3.999  0.1404 -0.7563 -1.6151
 6683SOL     OW31510   2.618   1.242  13.261  0.2961  0.0740  0.2766
 6683SOL    HW131511   2.711   1.263  13.264  0.0042  1.6203 -1.4038
 6683SOL    HW231512   2.590   1.315  13.317  0.2820 -0.1171  0.5184
 6684SOL     OW31513   1.656   2.434   6.117 -0.3770  0.0211  0.0603
 6684SOL    HW131514   1.626   2.481   6.039 -0.7740  0.5967  0.5567
 6684SOL    HW231515   1.591   2.452   6.185 -0.1006 -0.5925  0.4889
 6685SOL     OW31516   0.449   0.106   6.513 -0.3340  0.1102  0.2790
 6685SOL    HW131517   0.477   0.172   6.449  0.3976  1.5745  2.1175
 6685SOL    HW231518   0.523   0.048   6.498 -0.1108  0.9297 -1.7415
 6686SOL     OW31519   4.592   0.503   5.969 -0.3800  0.0433  0.2602
 6686SOL    HW131520   4.621   0.458   6.048  0.5105 -0.5406 -0.3837
 6686SOL    HW231521   4.643   0.584   5.965 -1.1567  0.4344 -2.0646
 6687SOL     OW31522   2.648   0.064  17.007  0.5150 -0.1977  0.3479
 6687SOL    HW131523   2.647   4.705  16.961 -0.8928  0.6362 -1.1776
 6687SOL    HW231524   2.553   0.068  17.020  0.5043 -1.0819  0.5379
 6688SOL     OW31525   3.330   0.555   1.941 -0.5577  0.2444 -0.5294
 6688SOL    HW131526   3.390   0.576   2.013  0.9055  0.3427 -1.7812
 6688SOL    HW231527   3.352   0.618   1.873 -2.0857  0.5053 -0.7863
 6689SOL     OW31528   2.912   3.328   6.029 -0.3400  0.3588  0.1423
 6689SOL    HW131529   2.943   3.240   6.006  0.3641  0.6256  0.0924
 6689SOL    HW231530   2.893   3.362   5.941 -2.1116  0.1166  0.4178
 6690SOL     OW31531   0.408   2.640   8.026  0.3094 -0.2584 -0.2974
 6690SOL    HW131532   0.353   2.660   7.950  0.3512  0.5594 -0.1116
 6690SOL    HW231533   0.422   2.546   8.013  1.8568  0.1695 -1.8092
 6691SOL     OW31534   0.990   0.384   2.436  1.0290 -0.0850 -0.0374
 6691SOL    HW131535   1.004   0.293   2.413 -0.7246 -0.5720  0.8203
 6691SOL    HW231536   1.002   0.433   2.355  1.6366  0.8000  0.5760
 6692SOL     OW31537   0.288   3.885   9.490  0.0289 -0.1296  0.5229
 6692SOL    HW131538   0.234   3.822   9.537  1.2190  0.8510  3.2133
 6692SOL    HW231539   0.283   3.959   9.550  1.1218  1.6106 -1.5019
 6693SOL     OW31540   2.233   4.486   0.067  0.5395  0.1515  0.7530
 6693SOL    HW131541   2.244   4.536   0.149 -1.1743  1.2258  0.3319
 6693SOL    HW231542   2.157   4.526   0.025  1.1628 -0.2086 -0.6949
 6694SOL     OW31543   0.480   3.923   2.015  0.5823  0.0310 -0.2527
 6694SOL    HW131544   0.492   3.950   2.106  0.6794  0.8772 -0.5203
 6694SOL    HW231545   0.455   3.830   2.024  0.0270 -0.0534 -2.6033
 6695SOL     OW31546   3.858   4.724   7.886  0.2445 -0.1617  0.3154
 6695SOL    HW131547   3.788   4.718   7.952  0.5792  0.5872  0.7326
 6695SOL    HW231548   3.937   0.005   7.939  0.3574  1.0597  0.0188
 6696SOL     OW31549   3.672   0.365   8.641 -0.0674  0.2777 -0.4860
 6696SOL    HW131550   3.635   0.297   8.585 -1.0277  1.1108 -0.8701
 6696SOL    HW231551   3.740   0.399   8.582  1.0237 -1.3768 -0.1810
 6697SOL     OW31552   3.702   3.332   7.765 -0.0570  0.5199 -0.0815
 6697SOL    HW131553   3.671   3.317   7.676 -0.3536  0.6767 -0.0065
 6697SOL    HW231554   3.708   3.241   7.792 -0.2778  0.2449 -0.9791
 6698SOL     OW31555   3.609   0.455   7.814 -0.3902  0.4512  0.5302
 6698SOL    HW131556   3.544   0.401   7.858  0.4922  1.6592  3.3302
 6698SOL    HW231557   3.579   0.543   7.837 -1.7720  0.1735 -0.2529
 6699SOL     OW31558   2.417   2.400  12.926  1.1092  0.1362  0.0669
 6699SOL    HW131559   2.407   2.332  12.859 -1.8742  0.6200  0.0560
 6699SOL    HW231560   2.387   2.349  13.001 -0.3621  2.0196  0.7301
 6700SOL     OW31561   0.555   1.206  13.759  0.4846  0.8419 -0.1224
 6700SOL    HW131562   0.649   1.190  13.768  0.3692 -0.6514 -1.3920
 6700SOL    HW231563   0.518   1.209  13.847 -1.4754  0.1645 -0.8992
 6701SOL     OW31564   2.364   1.293   8.170 -0.3969  0.4120 -0.0979
 6701SOL    HW131565   2.274   1.325   8.180  0.7214  4.2377 -2.6531
 6701SOL    HW231566   2.350   1.206   8.208 -1.3835 -0.7522 -3.1795
 6702SOL     OW31567   4.462   2.899   7.946 -0.0712 -0.0895  0.2524
 6702SOL    HW131568   4.430   2.817   7.984  0.4810 -0.4692 -0.0851
 6702SOL    HW231569   4.543   2.863   7.908  0.8632  2.5996 -0.2717
 6703SOL     OW31570   4.224   0.473  15.482  0.1943  0.0865 -0.0572
 6703SOL    HW131571   4.225   0.384  15.448 -2.1196  0.0355  0.0531
 6703SOL    HW231572   4.159   0.469  15.552 -0.7129 -0.9111 -0.9721
 6704SOL     OW31573   3.227   4.585   5.831  0.0470  0.0056  0.0400
 6704SOL    HW131574   3.262   4.514   5.884 -1.9645  2.1667  4.2845
 6704SOL    HW231575   3.274   4.660   5.867 -0.8874  1.6384 -2.1910
 6705SOL     OW31576   3.905   0.072   4.561 -0.4036 -0.4382  0.4207
 6705SOL    HW131577   3.982   0.029   4.600  1.1461  1.1793 -0.8206
 6705SOL    HW231578   3.923   0.158   4.600  2.1815 -1.4889  1.5704
 6706SOL     OW31579   4.194   3.483   5.998  0.5960 -0.5494  0.2186
 6706SOL    HW131580   4.220   3.490   5.906  2.0042  0.1982  0.6728
 6706SOL    HW231581   4.128   3.414   5.995  1.1593 -1.0138 -1.2273
 6707SOL     OW31582   4.483   0.306   4.858  0.5150 -0.2710 -0.1127
 6707SOL    HW131583   4.403   0.260   4.833 -0.4278  2.1401 -1.6456
 6707SOL    HW231584   4.516   0.310   4.769  0.0822  1.4106 -0.2013
 6708SOL     OW31585   2.283   1.085   8.321 -0.1710 -0.3483  0.3895
 6708SOL    HW131586   2.364   1.070   8.369  0.6966  1.4551 -0.5137
 6708SOL    HW231587   2.216   1.035   8.368 -0.3550 -0.1974  0.2916
 6709SOL     OW31588   1.994   1.580   5.072  0.4748  0.1265  0.3114
 6709SOL    HW131589   2.008   1.579   5.166 -2.4516 -1.0191  0.7271
 6709SOL    HW231590   2.072   1.625   5.040  1.0571 -0.9380  0.2201
 6710SOL     OW31591   3.882   2.423  10.477 -0.8374  0.4631 -1.1645
 6710SOL    HW131592   3.960   2.372  10.452  0.8467  2.6411 -0.2827
 6710SOL    HW231593   3.879   2.486  10.405 -0.0340  0.7332 -0.9562
 6711SOL     OW31594   2.937   4.145  15.835 -0.3182 -0.0371  0.4383
 6711SOL    HW131595   2.938   4.063  15.786 -0.3694  1.7823 -2.5866
 6711SOL    HW231596   3.001   4.122  15.902 -2.2924 -0.3871  2.1938
 6712SOL     OW31597   1.093   1.597   3.344  0.3475 -0.0779  0.9100
 6712SOL    HW131598   1.157   1.641   3.400  1.9270 -1.7587  0.4147
 6712SOL    HW231599   1.016   1.653   3.357  0.1165 -0.2353  0.2133
 6713SOL     OW31600   3.536   2.179   4.267  0.5492 -0.4918 -0.6690
 6713SOL    HW131601   3.490   2.244   4.214 -1.5575 -1.3783  0.0749
 6713SOL    HW231602   3.470   2.112   4.285  0.3601 -0.5565 -1.5774
 6714SOL     OW31603   4.342   4.699   1.468 -0.2295  0.1590 -0.3337
 6714SOL    HW131604   4.319   0.066   1.453 -0.8805  0.2632  1.2735
 6714SOL    HW231605   4.430   4.685   1.433  0.0710 -2.9731  1.5977
 6715SOL     OW31606   4.305   0.593   6.333  0.1480 -0.3898 -0.3564
 6715SOL    HW131607   4.295   0.509   6.288  1.5067 -0.7001 -0.0814
 6715SOL    HW231608   4.315   0.658   6.264 -2.1198  1.4036  1.0079
 6716SOL     OW31609   0.184   4.218   1.768  0.2606 -0.0657 -0.9550
 6716SOL    HW131610   0.245   4.159   1.722 -0.9823 -2.3976  0.4307
 6716SOL    HW231611   0.113   4.157   1.788  1.0701 -2.0813 -4.1677
 6717SOL     OW31612   0.024   3.303   8.804  0.1098 -0.0499  0.1923
 6717SOL    HW131613   0.027   3.261   8.718  0.8045  0.7765 -0.1946
 6717SOL    HW231614   0.106   3.352   8.801 -1.0756  2.0380  1.9441
 6718SOL     OW31615   2.056   1.727   6.891  0.4395 -0.1718 -0.2124
 6718SOL    HW131616   2.117   1.734   6.818  2.3768 -1.9950  1.2597
 6718SOL    HW231617   2.056   1.816   6.927 -1.9674 -0.4948  0.6086
 6719SOL     OW31618   3.963   3.156   7.928 -0.4944  0.4200 -0.4111
 6719SOL    HW131619   4.003   3.153   7.842  0.2830  0.2443 -0.0433
 6719SOL    HW231620   4.036   3.196   7.976 -0.0432 -2.4911  1.3806
 6720SOL     OW31621   3.104   4.669   4.969  0.1811  0.0078 -0.2439
 6720SOL    HW131622   3.190   4.710   4.973  0.2057  0.0863 -1.8682
 6720SOL    HW231623   3.078   4.678   5.061  1.0284 -2.9085  0.3062
 6721SOL     OW31624   2.002   0.996  10.296 -0.4208  0.1437 -0.1489
 6721SOL    HW131625   2.075   1.012  10.237  0.6864 -0.8339  0.9379
 6721SOL    HW231626   2.056   0.976  10.373  1.6773  0.3835 -1.5652
 6722SOL     OW31627   0.789   2.778  11.877  0.6138 -0.3538 -0.8880
 6722SOL    HW131628   0.839   2.852  11.909  1.6545 -1.7039  0.6029
 6722SOL    HW231629   0.848   2.705  11.897 -0.0293  0.0076  2.4374
 6723SOL     OW31630   0.791   1.791  12.505  0.2080 -0.3359 -0.5623
 6723SOL    HW131631   0.714   1.838  12.535 -0.0041 -1.1345  0.1467
 6723SOL    HW231632   0.832   1.771  12.590 -1.8726 -2.0465  0.0370
 6724SOL     OW31633   2.714   1.788   5.145 -0.1565  0.2898  0.4351
 6724SOL    HW131634   2.746   1.712   5.194  1.9996  0.0626 -1.2766
 6724SOL    HW231635   2.743   1.772   5.055  0.0901 -0.0221  0.5698
 6725SOL     OW31636   4.104   2.363   7.610 -0.4941  0.2179 -0.2767
 6725SOL    HW131637   4.013   2.340   7.593 -0.3970 -0.6685  0.3750
 6725SOL    HW231638   4.138   2.389   7.525  0.6511 -0.0951  0.0750
 6726SOL     OW31639   0.059   1.911   6.699  0.1093 -0.8008 -0.4799
 6726SOL    HW131640   0.133   1.864   6.662  0.5391 -0.8194  0.4173
 6726SOL    HW231641   0.023   1.832   6.738  2.1385 -1.0176  0.9018
 6727SOL     OW31642   1.263   2.755   7.353 -0.2669  0.4932  0.1163
 6727SOL    HW131643   1.340   2.771   7.408  0.5239  4.5551 -2.1730
 6727SOL    HW231644   1.228   2.843   7.337 -0.3261  0.9723  2.7923
 6728SOL     OW31645   1.979   2.051   6.761  0.2475 -0.2600  0.2520
 6728SOL    HW131646   2.031   2.027   6.685 -0.3402  1.4051 -0.6797
 6728SOL    HW231647   1.929   2.124   6.724  3.4962  1.0236 -1.5206
 6729SOL     OW31648   3.432   0.575   1.210 -0.3229  0.0016 -0.1510
 6729SOL    HW131649   3.351   0.550   1.166 -0.0880  3.3379 -2.4895
 6729SOL    HW231650   3.453   0.494   1.257 -1.9985 -0.2589  0.1240
 6730SOL     OW31651   3.647   3.220   6.260 -0.0504 -0.2995 -0.0981
 6730SOL    HW131652   3.601   3.234   6.343  0.4025 -3.1006  0.6111
 6730SOL    HW231653   3.734   3.223   6.299 -1.1222 -2.9548  2.4654
 6731SOL     OW31654   2.028   3.268   5.714  0.1502  0.2540  0.0386
 6731SOL    HW131655   1.979   3.284   5.794  2.0704  2.1322  0.8540
 6731SOL    HW231656   2.112   3.245   5.754 -0.8790 -2.9914  0.3237
 6732SOL     OW31657   0.608   2.952   8.501  0.2869 -0.1084  0.4013
 6732SOL    HW131658   0.569   3.035   8.530 -1.2111 -0.1323 -1.5404
 6732SOL    HW231659   0.529   2.910   8.466  0.0239  0.7750 -0.0844
 6733SOL     OW31660   3.625   1.248   5.710 -0.4114 -0.0519  0.1218
 6733SOL    HW131661   3.649   1.180   5.646  0.7457 -0.0045  0.4937
 6733SOL    HW231662   3.689   1.309   5.674 -1.3827  0.1575 -1.2253
 6734SOL     OW31663   0.303   1.695   6.631 -0.2573  0.3682 -0.2687
 6734SOL    HW131664   0.281   1.625   6.568  1.0301 -2.0048  1.9131
 6734SOL    HW231665   0.295   1.637   6.707 -1.2806 -0.4151 -0.9542
 6735SOL     OW31666   2.884   2.686   1.660  0.7528  0.3801 -0.7293
 6735SOL    HW131667   2.798   2.677   1.702  1.1473 -2.7407 -0.5947
 6735SOL    HW231668   2.904   2.778   1.676  1.6667  0.5218 -2.7093
 6736SOL     OW31669   1.564   4.724  12.207 -0.0590 -0.0819 -0.5382
 6736SOL    HW131670   1.481   0.032  12.172 -0.2486  1.4040  1.2913
 6736SOL    HW231671   1.607   0.085  12.213 -1.7440  0.7250  0.0866
 6737SOL     OW31672   3.255   3.800  12.765 -0.6915  0.3279  0.6091
 6737SOL    HW131673   3.236   3.889  12.733  2.4752  0.4424 -0.9259
 6737SOL    HW231674   3.188   3.785  12.831 -1.8069 -2.2827 -1.0989
 6738SOL     OW31675   2.879   2.279   5.258  0.0156  0.2647  0.0341
 6738SOL    HW131676   2.858   2.186   5.261 -1.0164  0.4238 -2.0901
 6738SOL    HW231677   2.876   2.298   5.352  1.1835 -0.2164  0.1725
 6739SOL     OW31678   1.302   2.821   5.122  0.5830 -0.0571  0.0054
 6739SOL    HW131679   1.252   2.740   5.129 -1.4209  1.1035 -0.7241
 6739SOL    HW231680   1.244   2.886   5.082 -0.3674 -0.6689  0.3849
 6740SOL     OW31681   0.328   2.592   7.176  0.3915 -0.0681  0.0204
 6740SOL    HW131682   0.294   2.521   7.121  1.8830 -0.2401 -0.6535
 6740SOL    HW231683   0.358   2.538   7.249 -1.1092 -0.5281  0.3160
 6741SOL     OW31684   3.671   1.438   8.544  0.3910  0.5441 -0.0469
 6741SOL    HW131685   3.581   1.424   8.516  0.7687 -1.0009 -0.5292
 6741SOL    HW231686   3.664   1.495   8.620 -0.0420 -0.9247  1.0169
 6742SOL     OW31687   3.346   4.592  14.179 -0.1800 -0.4348 -0.4184
 6742SOL    HW131688   3.255   4.564  14.191  0.1748 -0.9316  1.0208
 6742SOL    HW231689   3.337   4.665  14.117  1.3834  0.0674 -0.0440
 6743SOL     OW31690   0.440   1.912  11.378  0.2467 -0.6555  0.4442
 6743SOL    HW131691   0.481   1.839  11.425 -0.6836 -2.3487 -1.4015
 6743SOL    HW231692   0.373   1.865  11.329  0.1965  0.7639 -0.8423
 6744SOL     OW31693   0.366   2.155   8.537 -0.0375 -0.4032 -0.3961
 6744SOL    HW131694   0.359   2.130   8.445  0.4487  1.3748 -0.9313
 6744SOL    HW231695   0.456   2.126   8.550 -0.7298 -2.6737 -0.8128
 6745SOL     OW31696   2.330   2.104   7.849  1.0524 -0.1590 -0.4145
 6745SOL    HW131697   2.241   2.075   7.832  0.6744  0.7121  0.0294
 6745SOL    HW231698   2.308   2.153   7.929 -0.8642 -0.9853 -0.4485
 6746SOL     OW31699   4.677   4.090  10.665  0.4794 -0.4458  0.4542
 6746SOL    HW131700   4.661   3.996  10.666 -1.8342 -0.0262  1.8951
 6746SOL    HW231701   0.026   4.096  10.726  0.5448  0.1396  0.3159
 6747SOL     OW31702   4.004   1.315   1.253  0.1028  0.0863  0.3105
 6747SOL    HW131703   4.015   1.227   1.217 -1.4609 -1.5490  3.8257
 6747SOL    HW231704   3.997   1.373   1.177 -1.5668 -1.0862 -0.4508
 6748SOL     OW31705   3.507   4.207  16.592  0.2100 -0.4273  0.7169
 6748SOL    HW131706   3.519   4.115  16.616 -0.4656 -0.6924  0.0479
 6748SOL    HW231707   3.540   4.240  16.675  0.3897 -0.2583  0.5788
 6749SOL     OW31708   4.576   1.887   9.040  0.0728 -0.2703 -0.0564
 6749SOL    HW131709   4.593   1.939   9.118 -0.6023 -0.8589  0.4843
 6749SOL    HW231710   4.598   1.801   9.074 -0.4434  0.0318  1.0260
 6750SOL     OW31711   1.152   3.136   4.813 -0.2397  0.0150  0.0329
 6750SOL    HW131712   1.187   3.063   4.762 -0.3178  0.0702 -0.0991
 6750SOL    HW231713   1.224   3.190   4.843 -0.7966  0.7542  0.0540
 6751SOL     OW31714   4.589   2.899   5.104 -0.4293 -0.2437 -0.6211
 6751SOL    HW131715   4.540   2.825   5.139 -0.4106  0.4036  0.7856
 6751SOL    HW231716   4.651   2.867   5.039  0.3791  1.7423 -0.8339
 6752SOL     OW31717   4.167   0.982   0.258  0.3341  0.6546 -0.5599
 6752SOL    HW131718   4.146   0.901   0.212  1.2303  0.8878 -1.3973
 6752SOL    HW231719   4.082   1.023   0.274 -0.3911 -0.7370 -0.8289
 6753SOL     OW31720   0.171   4.609   1.020 -0.2989  0.2896 -0.0044
 6753SOL    HW131721   0.118   4.612   0.940  0.7260  1.8997 -0.6375
 6753SOL    HW231722   0.220   4.690   1.005  0.9316 -0.2624  1.1120
 6754SOL     OW31723   1.956   0.988   3.722 -0.6431 -0.2095 -0.2116
 6754SOL    HW131724   1.876   0.974   3.772 -1.2059  0.5559 -0.8945
 6754SOL    HW231725   1.921   0.959   3.638  0.9983  0.7946 -1.2546
 6755SOL     OW31726   3.597   0.962   7.181 -0.3751 -0.4707  0.1592
 6755SOL    HW131727   3.512   0.981   7.141 -0.2061 -0.1857 -0.0621
 6755SOL    HW231728   3.573   0.922   7.265 -1.8875  0.2301  0.0640
 6756SOL     OW31729   3.989   2.003   3.882  0.5426  0.4537 -0.8641
 6756SOL    HW131730   4.005   2.081   3.829 -1.0485  0.8442 -0.7723
 6756SOL    HW231731   4.026   1.933   3.829  0.0135  0.0767 -0.7259
 6757SOL     OW31732   3.432   3.530   4.450 -0.5872  0.2687  0.2296
 6757SOL    HW131733   3.463   3.441   4.432  1.4275  1.4241 -2.0227
 6757SOL    HW231734   3.482   3.583   4.388 -0.5247  1.8061  1.6022
 6758SOL     OW31735   4.115   0.464   8.935  0.3564  0.0897 -0.3324
 6758SOL    HW131736   4.020   0.462   8.939  0.3770  0.4153  0.2060
 6758SOL    HW231737   4.140   0.421   9.017  1.0688 -0.0107 -0.6022
 6759SOL     OW31738   4.539   3.167   6.946  0.6661 -0.2582  1.2930
 6759SOL    HW131739   4.500   3.149   7.032  0.9890  1.1933  1.7460
 6759SOL    HW231740   4.628   3.195   6.970  1.5485 -0.4599 -1.7829
 6760SOL     OW31741   2.979   0.563   7.947 -0.3558 -0.2918 -0.0573
 6760SOL    HW131742   2.918   0.637   7.944  0.8022  0.5787 -2.6993
 6760SOL    HW231743   3.030   0.586   7.869  0.6593 -1.0960  0.3756
 6761SOL     OW31744   2.337   3.880   3.115  0.2054  0.3124 -0.0968
 6761SOL    HW131745   2.402   3.948   3.097  0.0669 -0.2336 -2.6390
 6761SOL    HW231746   2.249   3.917   3.118  0.7682  1.5741  0.7840
 6762SOL     OW31747   4.621   2.466  16.066 -0.3263  0.0484 -0.3321
 6762SOL    HW131748   4.575   2.458  15.983 -2.1582  1.1427  0.5842
 6762SOL    HW231749   4.705   2.431  16.035 -0.0944  0.2017  0.1138
 6763SOL     OW31750   2.704   4.674   1.601  0.1907 -0.2420 -0.0155
 6763SOL    HW131751   2.633   4.610   1.589  1.1120 -1.4673  0.9821
 6763SOL    HW231752   2.655   0.029   1.622 -1.8350 -1.3942 -0.3328
 6764SOL     OW31753   1.400   2.802  15.300 -0.1549 -0.2444 -0.0192
 6764SOL    HW131754   1.472   2.739  15.309 -1.0985 -1.5311 -1.5287
 6764SOL    HW231755   1.443   2.884  15.275  0.1383  0.2674  2.1087
 6765SOL     OW31756   0.043   2.078   9.954  0.2088  0.0197  0.0024
 6765SOL    HW131757   0.048   2.022   9.876 -2.4119  1.0690 -0.9056
 6765SOL    HW231758   0.117   2.130   9.923  0.3489  0.4772  1.1453
 6766SOL     OW31759   1.546   3.636   3.286 -0.2605 -0.5991 -0.6812
 6766SOL    HW131760   1.602   3.687   3.227 -1.2845 -0.3911 -1.4694
 6766SOL    HW231761   1.492   3.588   3.223 -1.3307  0.9582 -0.9441
 6767SOL     OW31762   1.274   0.608   8.468 -0.5356 -1.0381  0.0318
 6767SOL    HW131763   1.287   0.623   8.375 -3.0309 -0.8658 -0.3028
 6767SOL    HW231764   1.350   0.657   8.500  0.9167 -1.4869 -2.7978
 6768SOL     OW31765   4.650   1.053   6.709 -0.2593  0.2908  0.7013
 6768SOL    HW131766   4.620   0.971   6.747 -0.4782  0.4516  0.8734
 6768SOL    HW231767   4.570   1.103   6.724 -0.0989  1.0722 -0.9907
 6769SOL     OW31768   0.443   2.791   4.946 -0.1579 -0.1041 -0.5911
 6769SOL    HW131769   0.530   2.825   4.964 -1.2695  3.4508 -1.8874
 6769SOL    HW231770   0.425   2.846   4.869 -4.3185 -1.0239 -0.2664
 6770SOL     OW31771   0.850   2.935  13.795  0.2439  0.4245 -0.2589
 6770SOL    HW131772   0.919   2.982  13.747 -0.1156  0.5883 -0.6144
 6770SOL    HW231773   0.769   2.981  13.772 -1.1391 -1.8310  0.1328
 6771SOL     OW31774   3.425   2.773   6.943 -0.0889 -0.1135  0.5008
 6771SOL    HW131775   3.360   2.814   7.000 -0.5142  1.6591 -1.2585
 6771SOL    HW231776   3.506   2.822   6.956  0.7639 -0.8593 -1.9326
 6772SOL     OW31777   3.101   1.786   0.895  0.4108  0.4268 -0.4036
 6772SOL    HW131778   3.106   1.774   0.990  2.2601  4.2861  0.0046
 6772SOL    HW231779   3.096   1.882   0.893 -0.5616  0.3726 -0.8494
 6773SOL     OW31780   0.095   4.720  17.360  0.1109 -0.0961 -0.0714
 6773SOL    HW131781   0.160   0.065  17.348  1.5178 -1.4303 -0.2817
 6773SOL    HW231782   0.086   4.685  17.271  0.4752 -0.9604  0.2321
 6774SOL     OW31783   3.255   4.303   5.993 -0.4550  0.6857  0.3309
 6774SOL    HW131784   3.260   4.225   6.048 -1.2481  1.3703  1.3853
 6774SOL    HW231785   3.167   4.341   6.002 -0.7669 -0.3259  1.4466
 6775SOL     OW31786   3.697   2.166   7.974 -0.0658  0.2933 -0.1015
 6775SOL    HW131787   3.612   2.124   7.988 -0.4892 -0.1371 -4.1979
 6775SOL    HW231788   3.749   2.122   8.042 -0.0748  0.5591  0.0781
 6776SOL     OW31789   2.985   3.005   9.984  0.1429  0.0016  0.5379
 6776SOL    HW131790   3.019   3.065  10.051  0.2253  0.4625  0.0871
 6776SOL    HW231791   3.069   2.976   9.948 -1.2316 -1.5912 -1.3891
 6777SOL     OW31792   4.316   4.420   1.994  0.6056 -0.5452  0.5737
 6777SOL    HW131793   4.250   4.486   1.974 -0.1861 -1.6909 -0.5074
 6777SOL    HW231794   4.397   4.469   1.979  1.0188 -1.4086 -0.0232
 6778SOL     OW31795   2.794   1.602   5.334  0.5575 -0.7031  0.2980
 6778SOL    HW131796   2.831   1.630   5.418  2.3660 -0.1135 -0.6857
 6778SOL    HW231797   2.816   1.509   5.335  1.3231 -0.5471 -0.7809
 6779SOL     OW31798   1.123   0.635   8.682 -0.0813  0.3285 -0.1167
 6779SOL    HW131799   1.070   0.555   8.681  1.6504 -0.7797 -2.4718
 6779SOL    HW231800   1.175   0.619   8.604  1.3214  2.2869  0.4345
 6780SOL     OW31801   0.116   0.635   1.268 -0.6267  0.5138 -0.0724
 6780SOL    HW131802   0.058   0.647   1.193  1.2875 -2.8162 -2.1139
 6780SOL    HW231803   0.084   0.699   1.331  2.3522  1.7452  0.1682
 6781SOL     OW31804   1.363   3.360   5.320  0.3157  0.0240 -0.5521
 6781SOL    HW131805   1.310   3.309   5.259  0.2979  0.3701 -0.8279
 6781SOL    HW231806   1.305   3.364   5.395 -0.0511 -0.5984 -0.8017
 6782SOL     OW31807   3.129   3.908   6.368  1.1144 -0.3546  0.2953
 6782SOL    HW131808   3.043   3.884   6.333  0.3638 -1.7603  3.0616
 6782SOL    HW231809   3.157   3.821   6.395 -0.6021 -1.6986 -2.2567
 6783SOL     OW31810   2.498   1.895   5.791  0.5155 -0.5630 -0.3707
 6783SOL    HW131811   2.486   1.946   5.871 -0.8639  0.7917 -1.4351
 6783SOL    HW231812   2.537   1.820   5.836 -1.2070 -0.8969  0.5708
 6784SOL     OW31813   1.312   3.304   5.824 -0.1857  0.0388 -0.0050
 6784SOL    HW131814   1.367   3.227   5.818  0.5662  0.3670  2.5708
 6784SOL    HW231815   1.229   3.265   5.795 -0.8078  1.8857 -0.7457
 6785SOL     OW31816   3.478   3.842   3.862 -0.3940 -0.1221  0.2031
 6785SOL    HW131817   3.484   3.937   3.874  0.2045 -0.2465  0.8642
 6785SOL    HW231818   3.383   3.840   3.854 -0.3751 -1.6578  0.4203
 6786SOL     OW31819   0.350   4.039   1.608 -0.7988  0.0538  0.1772
 6786SOL    HW131820   0.409   4.070   1.539 -0.1876  0.9708  1.1145
 6786SOL    HW231821   0.282   3.994   1.558 -0.2625 -1.0442  0.4320
 6787SOL     OW31822   1.784   2.107  15.781  0.4508 -0.5554 -0.1676
 6787SOL    HW131823   1.709   2.129  15.726  0.4905  1.6449  0.6468
 6787SOL    HW231824   1.776   2.173  15.850  0.5663 -2.2935  1.4993
 6788SOL     OW31825   3.090   0.775  10.949  0.7776  0.0511 -0.1787
 6788SOL    HW131826   3.068   0.697  11.000 -0.2448  0.6476  0.3099
 6788SOL    HW231827   3.184   0.761  10.939  0.6556 -0.5312 -0.5253
 6789SOL     OW31828   2.029   4.390   7.217  0.5463  0.0368  0.0305
 6789SOL    HW131829   2.093   4.462   7.218  1.4792 -0.8122  1.5112
 6789SOL    HW231830   2.071   4.330   7.279 -0.2544  1.0289  1.5345
 6790SOL     OW31831   0.480   3.936  17.098  0.4068 -0.1264  0.4581
 6790SOL    HW131832   0.453   3.910  17.186 -1.0788 -0.3248 -0.0583
 6790SOL    HW231833   0.454   3.856  17.053  1.3084 -0.7244  1.0220
 6791SOL     OW31834   1.741   1.120   5.919 -0.2753  0.1543  0.2047
 6791SOL    HW131835   1.659   1.149   5.878 -0.9186 -0.6460  0.9181
 6791SOL    HW231836   1.797   1.198   5.913  2.1085 -1.6557 -0.9487
 6792SOL     OW31837   2.667   2.383   1.537  0.5907  0.4168  0.4118
 6792SOL    HW131838   2.662   2.361   1.630  0.8947 -3.2824 -0.4536
 6792SOL    HW231839   2.653   2.295   1.503 -0.1182  0.4021  0.7345
 6793SOL     OW31840   2.705   4.138  15.651  0.0097 -0.1666  0.8948
 6793SOL    HW131841   2.770   4.113  15.585  0.4301 -0.0131  1.2531
 6793SOL    HW231842   2.763   4.183  15.712  3.0991 -2.4815 -0.3678
 6794SOL     OW31843   1.966   4.168   5.007 -0.4893 -0.1005  0.1843
 6794SOL    HW131844   1.953   4.136   4.918 -1.1463 -0.3881  0.3825
 6794SOL    HW231845   1.956   4.261   4.986 -1.2479  0.1688  1.7311
 6795SOL     OW31846   3.207   2.501   8.615 -0.7542  0.0018  0.6198
 6795SOL    HW131847   3.227   2.410   8.636  1.1893  0.2860 -0.0231
 6795SOL    HW231848   3.277   2.542   8.666 -0.3491  0.5888 -0.4172
 6796SOL     OW31849   0.674   1.520   5.852  0.1996  0.0269 -0.7709
 6796SOL    HW131850   0.760   1.489   5.824 -0.0629 -1.5611  0.1959
 6796SOL    HW231851   0.616   1.540   5.778 -2.0843 -3.6065  0.0407
 6797SOL     OW31852   3.754   0.597  11.628 -0.1831  0.5840  0.4943
 6797SOL    HW131853   3.660   0.584  11.637 -0.1460  0.9572  1.4647
 6797SOL    HW231854   3.782   0.613  11.718 -2.6351 -0.1600  1.3938
 6798SOL     OW31855   0.410   2.155   6.000 -0.4740 -0.4458  0.8304
 6798SOL    HW131856   0.411   2.181   6.092  2.1150 -0.9379  0.9511
 6798SOL    HW231857   0.477   2.213   5.963 -0.8539  0.3990  1.4600
 6799SOL     OW31858   3.825   1.658   1.207  0.5124  0.1713  0.8446
 6799SOL    HW131859   3.810   1.567   1.183  1.3073  0.3106 -0.1870
 6799SOL    HW231860   3.857   1.691   1.123 -0.7380 -1.7788 -0.4134
 6800SOL     OW31861   0.811   4.593   9.412  0.1688 -0.0508 -0.2586
 6800SOL    HW131862   0.878   4.576   9.346  0.5317 -2.5890  0.7678
 6800SOL    HW231863   0.734   4.603   9.356  1.1594  0.4648 -1.5408
 6801SOL     OW31864   4.047   2.063  14.211  0.9177  0.1537  0.3855
 6801SOL    HW131865   4.135   2.044  14.243  1.0654 -0.3410 -0.3027
 6801SOL    HW231866   4.075   2.098  14.126 -0.3676 -0.6162 -0.3583
 6802SOL     OW31867   2.753   1.532   7.652 -0.0912  0.1322 -0.2992
 6802SOL    HW131868   2.660   1.513   7.643 -0.1154 -0.0709  0.3188
 6802SOL    HW231869   2.751   1.618   7.694 -0.5791  1.1161 -2.3407
 6803SOL     OW31870   2.915   0.039   6.041 -0.6644 -0.4442 -0.7762
 6803SOL    HW131871   2.915   0.105   6.110  4.0896  0.5524 -1.7021
 6803SOL    HW231872   2.965   4.694   6.084 -1.2297  0.1923  0.9050
 6804SOL     OW31873   0.703   3.367  16.818 -0.2774 -0.5924 -0.3656
 6804SOL    HW131874   0.610   3.388  16.831 -1.0213 -3.6655 -0.5902
 6804SOL    HW231875   0.705   3.362  16.722  0.1536 -0.3946 -0.3636
 6805SOL     OW31876   2.365   2.061  14.563  0.0646 -0.6509  0.0520
 6805SOL    HW131877   2.356   1.971  14.531 -0.0116 -1.2126  1.6920
 6805SOL    HW231878   2.460   2.073  14.572 -0.2250  2.1792 -0.4818
 6806SOL     OW31879   0.374   2.752   2.988  0.2441 -0.3754  0.6031
 6806SOL    HW131880   0.343   2.700   2.914 -1.6606  1.1264  0.3467
 6806SOL    HW231881   0.353   2.685   3.054  2.4769 -1.4408  0.2169
 6807SOL     OW31882   4.123   0.713  15.331  0.0612  0.2484  0.4276
 6807SOL    HW131883   4.156   0.632  15.372  0.2405 -0.1273 -0.4644
 6807SOL    HW231884   4.197   0.770  15.353  0.6999 -1.3544  2.4412
 6808SOL     OW31885   1.997   1.042  11.419  0.7013 -0.5050 -0.2211
 6808SOL    HW131886   1.911   1.060  11.381  0.3125  1.5766  1.5959
 6808SOL    HW231887   1.981   0.962  11.469 -1.4667 -0.1681 -0.3825
 6809SOL     OW31888   1.592   3.026  16.525  0.1110 -0.0395  0.4869
 6809SOL    HW131889   1.521   3.059  16.580 -0.8520 -0.9306 -0.2027
 6809SOL    HW231890   1.663   3.077  16.564  0.8131 -0.8494  0.2799
 6810SOL     OW31891   2.397   1.892  12.926  0.3278  0.0291  0.0223
 6810SOL    HW131892   2.409   1.956  12.996 -0.3166 -0.7855  0.8846
 6810SOL    HW231893   2.346   1.950  12.871  0.6537 -1.0157 -1.3700
 6811SOL     OW31894   3.486   4.650  10.370 -0.3676  0.0606 -0.0228
 6811SOL    HW131895   3.454   0.012  10.394  0.7613  0.8298 -1.2743
 6811SOL    HW231896   3.475   4.595  10.447  1.0140 -0.5198 -0.2244
 6812SOL     OW31897   0.555   2.625   6.789  0.8638 -1.0109  0.0636
 6812SOL    HW131898   0.515   2.680   6.857  1.9035  0.0355 -0.1664
 6812SOL    HW231899   0.493   2.552   6.788  0.5781 -0.7798  0.6588
 6813SOL     OW31900   3.010   1.483  12.457  0.1543 -0.0152  0.0823
 6813SOL    HW131901   3.006   1.416  12.525 -1.0396  1.1161  1.1364
 6813SOL    HW231902   3.073   1.446  12.396 -0.5219 -0.1452 -0.5426
 6814SOL     OW31903   1.034   2.304   4.286 -0.0380 -0.1185  0.8254
 6814SOL    HW131904   1.116   2.260   4.264 -0.8225 -2.6513  3.0210
 6814SOL    HW231905   0.983   2.228   4.312 -0.0694 -0.8800 -1.4718
 6815SOL     OW31906   1.596   3.279   5.465  0.1351  0.2395 -0.2502
 6815SOL    HW131907   1.629   3.245   5.383  0.4563  1.4509 -0.6261
 6815SOL    HW231908   1.526   3.335   5.431 -0.1137 -1.5125 -2.6236
 6816SOL     OW31909   4.409   4.143  15.024 -0.3331 -0.0093  0.3031
 6816SOL    HW131910   4.485   4.132  15.082  0.3574 -0.8821 -0.7952
 6816SOL    HW231911   4.404   4.059  14.980 -1.0643 -0.3155  0.9699
 6817SOL     OW31912   2.807   2.444  13.973  0.6851 -0.6682  0.0872
 6817SOL    HW131913   2.748   2.423  14.045  1.3211  0.6783  1.0025
 6817SOL    HW231914   2.747   2.476  13.905  0.3662 -0.7895  0.3133
 6818SOL     OW31915   0.915   2.530   8.967  0.0086  0.1521 -0.4447
 6818SOL    HW131916   0.928   2.437   8.988 -0.7842 -0.0227 -0.7323
 6818SOL    HW231917   0.948   2.583   9.040 -3.0692  0.9357  0.3880
 6819SOL     OW31918   2.295   3.254   3.725  0.7086 -0.0185  0.0771
 6819SOL    HW131919   2.320   3.347   3.723  1.9320 -0.3429  0.0718
 6819SOL    HW231920   2.368   3.214   3.772  0.3836 -1.5240 -0.7044
 6820SOL     OW31921   0.588   2.336   5.857  0.5208  0.0146 -0.3936
 6820SOL    HW131922   0.576   2.418   5.906 -1.2783 -0.5330  0.0943
 6820SOL    HW231923   0.553   2.360   5.771  0.5491  0.0403 -0.3982
 6821SOL     OW31924   0.806   2.401  16.019 -0.0087 -0.2865 -0.6729
 6821SOL    HW131925   0.798   2.421  16.112 -0.6362 -1.0572 -0.5635
 6821SOL    HW231926   0.823   2.488  15.981 -2.0840 -0.0161 -0.9467
 6822SOL     OW31927   1.295   2.900   9.118  0.4782 -0.1985  1.1581
 6822SOL    HW131928   1.366   2.964   9.125 -0.2995  0.6013  1.7875
 6822SOL    HW231929   1.255   2.904   9.205 -1.8372 -1.5522  0.1570
 6823SOL     OW31930   2.767   3.663  13.054  0.2645 -0.0217  0.4186
 6823SOL    HW131931   2.770   3.741  12.999  0.1296  0.2604  0.8117
 6823SOL    HW231932   2.691   3.624  13.010  2.2390 -2.8020 -0.5177
 6824SOL     OW31933   3.634   1.414   3.049  0.5902 -0.2066 -0.0283
 6824SOL    HW131934   3.643   1.327   3.089  0.5724 -0.3327 -0.3033
 6824SOL    HW231935   3.726   1.437   3.056  0.6117  0.0065 -1.0326
 6825SOL     OW31936   3.334   3.384   9.595 -0.0685 -0.3424  0.0688
 6825SOL    HW131937   3.354   3.460   9.649 -1.7559 -1.7412  2.6777
 6825SOL    HW231938   3.296   3.320   9.656  0.2660 -1.0266 -0.4395
 6826SOL     OW31939   2.429   0.344   3.503  0.2707  0.0297 -0.5833
 6826SOL    HW131940   2.413   0.437   3.492 -0.8340  0.0462  1.1674
 6826SOL    HW231941   2.421   0.325   3.597  4.5949  0.9029 -0.0304
 6827SOL     OW31942   3.024   2.419   9.405  0.5567  0.6662  0.1541
 6827SOL    HW131943   3.099   2.374   9.443 -0.8589 -1.8710 -0.1087
 6827SOL    HW231944   2.950   2.390   9.458 -1.1431  0.4031 -2.3446
 6828SOL     OW31945   0.477   3.830   6.793  0.6101  0.4306 -0.4578
 6828SOL    HW131946   0.389   3.823   6.756  0.5206 -0.0686 -0.1380
 6828SOL    HW231947   0.531   3.776   6.736  1.0506  0.8531 -0.4457
 6829SOL     OW31948   1.895   3.512   7.522 -0.4937  0.6483 -0.5362
 6829SOL    HW131949   1.866   3.462   7.598 -0.4074  1.7990  0.2620
 6829SOL    HW231950   1.965   3.457   7.489 -0.6940  0.1015 -0.0374
 6830SOL     OW31951   0.887   4.114  14.498 -0.3340  0.2044 -0.3188
 6830SOL    HW131952   0.952   4.082  14.560 -0.0365 -0.2587 -0.8723
 6830SOL    HW231953   0.907   4.207  14.505 -2.7088  0.5420  2.0431
 6831SOL     OW31954   4.433   2.425   4.471  0.0283  0.8725  0.1404
 6831SOL    HW131955   4.442   2.485   4.397 -0.9575  0.1224 -0.5904
 6831SOL    HW231956   4.508   2.445   4.527  0.2833 -1.0007  0.4611
 6832SOL     OW31957   4.005   0.920   0.536  0.1416  0.2351  0.0806
 6832SOL    HW131958   4.099   0.915   0.519  0.5076 -2.6384  3.0385
 6832SOL    HW231959   3.991   1.013   0.519  0.6121  0.3700  0.4096
 6833SOL     OW31960   0.667   0.982   0.424  0.5676 -0.6275 -0.0925
 6833SOL    HW131961   0.634   1.028   0.346 -2.8826 -0.4615  1.4715
 6833SOL    HW231962   0.659   0.891   0.397  1.2050 -0.6602 -0.1694
 6834SOL     OW31963   0.983   2.558   5.393  0.0584 -0.1065  0.1192
 6834SOL    HW131964   0.939   2.517   5.467  1.1780 -0.2133  0.7355
 6834SOL    HW231965   0.904   2.564   5.340 -0.0100 -2.4429 -0.0315
 6835SOL     OW31966   0.488   3.255   7.594 -0.2462  0.4339  0.2383
 6835SOL    HW131967   0.463   3.340   7.558 -1.3014  0.0100 -0.0446
 6835SOL    HW231968   0.404   3.209   7.599  0.1857 -0.5766 -1.7677
 6836SOL     OW31969   2.173   3.594   9.041 -0.1588  0.2736  0.2505
 6836SOL    HW131970   2.214   3.531   9.100 -0.9247 -1.1221 -0.7386
 6836SOL    HW231971   2.206   3.678   9.075 -0.1904  0.3743  0.0339
 6837SOL     OW31972   1.557   0.452   0.348 -0.1687 -0.1684  0.1761
 6837SOL    HW131973   1.634   0.437   0.404  0.4982  1.5226 -0.2857
 6837SOL    HW231974   1.527   0.541   0.368 -1.9110 -0.6062 -0.4889
 6838SOL     OW31975   3.611   2.559  11.898 -0.1266 -0.0157  0.1919
 6838SOL    HW131976   3.604   2.468  11.925  1.5378 -0.1924 -0.0072
 6838SOL    HW231977   3.674   2.559  11.826  0.1791  0.6548  0.4544
 6839SOL     OW31978   3.865   1.710   6.102 -0.5371  0.1881 -0.2108
 6839SOL    HW131979   3.843   1.732   6.193 -0.5667  1.0996 -0.4417
 6839SOL    HW231980   3.958   1.687   6.107 -0.9109 -1.2160  0.1224
 6840SOL     OW31981   3.936   4.107  15.565 -0.1154 -0.1685  0.7171
 6840SOL    HW131982   3.952   4.200  15.554 -0.6682 -0.3657 -1.6881
 6840SOL    HW231983   3.861   4.084  15.509 -0.4556 -0.9856  1.4936
 6841SOL     OW31984   1.404   1.672   6.199  0.2543  0.2006 -0.4013
 6841SOL    HW131985   1.338   1.731   6.163  0.8930  0.8437 -0.5509
 6841SOL    HW231986   1.480   1.699   6.147  1.4867 -0.9443  0.7991
 6842SOL     OW31987   0.243   4.313   1.090 -0.5017  0.3898 -0.1330
 6842SOL    HW131988   0.303   4.344   1.158 -0.5305 -0.1262  0.1249
 6842SOL    HW231989   0.163   4.281   1.131  0.7146  1.2908  2.9433
 6843SOL     OW31990   1.830   1.325   7.253 -0.4340 -0.5223  0.5461
 6843SOL    HW131991   1.798   1.236   7.264 -0.0744 -1.1470 -3.4994
 6843SOL    HW231992   1.791   1.352   7.170 -0.0988 -2.4015 -0.2189
 6844SOL     OW31993   3.878   1.108  11.356 -0.1994 -0.0644  0.1915
 6844SOL    HW131994   3.968   1.134  11.338 -0.3639  0.6247  0.3516
 6844SOL    HW231995   3.886   1.018  11.386 -0.6865 -0.1289  0.1294
 6845SOL     OW31996   2.974   3.799  10.686  0.3618  0.6105 -0.2615
 6845SOL    HW131997   2.905   3.847  10.640 -0.3876  0.0935  0.3212
 6845SOL    HW231998   2.969   3.848  10.769 -0.5655 -0.5856  0.3872
 6846SOL     OW31999   1.961   2.475   9.100 -0.4044  0.0209 -0.2291
 6846SOL    HW132000   1.889   2.535   9.078  0.1652  0.0129 -2.1096
 6846SOL    HW232001   2.005   2.517   9.173 -2.1567  2.7348 -0.7088
 6847SOL     OW32002   0.910   2.792   3.427 -0.1478  0.1008 -0.0173
 6847SOL    HW132003   0.824   2.830   3.445  0.4995  1.1876  0.8099
 6847SOL    HW232004   0.932   2.768   3.517 -1.1331 -0.4030  0.0830
 6848SOL     OW32005   0.760   0.156   3.439  0.0997  0.1892  0.3572
 6848SOL    HW132006   0.738   0.180   3.350  3.9202 -1.4359 -1.0184
 6848SOL    HW232007   0.818   0.229   3.462  1.5580 -0.4651 -1.2431
 6849SOL     OW32008   3.424   1.325   8.460  0.0572  0.0868 -0.3657
 6849SOL    HW132009   3.415   1.233   8.482 -0.3732  0.4407  0.9671
 6849SOL    HW232010   3.381   1.341   8.376  0.2681  0.3010 -0.4355
 6850SOL     OW32011   2.843   0.872   7.185  0.9247  0.4788 -0.0613
 6850SOL    HW132012   2.790   0.836   7.114  2.1622 -2.5471  0.5380
 6850SOL    HW232013   2.878   0.796   7.232 -0.3619  1.1282  1.9429
 6851SOL     OW32014   4.173   0.325  10.772 -0.0119  0.0610  0.2823
 6851SOL    HW132015   4.211   0.243  10.740  0.3255  1.1319 -2.0279
 6851SOL    HW232016   4.087   0.297  10.806  0.1927 -1.1388 -0.1874
 6852SOL     OW32017   2.533   2.255   8.293  0.1788 -0.5043 -0.2565
 6852SOL    HW132018   2.490   2.330   8.334 -0.9583 -1.8329  0.9909
 6852SOL    HW232019   2.625   2.281   8.299 -0.1288  0.2578  1.1151
 6853SOL     OW32020   3.427   1.993   6.846  0.2147  0.3727  0.0860
 6853SOL    HW132021   3.452   2.016   6.936 -1.9816 -4.6701  1.9958
 6853SOL    HW232022   3.354   2.053   6.839  1.5484  1.6723 -2.4712
 6854SOL     OW32023   3.485   0.221   5.338 -0.2961 -0.2008 -0.1669
 6854SOL    HW132024   3.459   0.135   5.371 -1.1191  1.3926  3.3337
 6854SOL    HW232025   3.419   0.272   5.384 -0.2072  0.3534 -0.6481
 6855SOL     OW32026   3.071   0.968   5.740  0.3247 -0.0601 -0.7859
 6855SOL    HW132027   3.163   0.995   5.746  0.2901 -0.3405  1.0183
 6855SOL    HW232028   3.076   0.885   5.692  2.3299  0.1505 -0.9426
 6856SOL     OW32029   4.724   2.791   4.421 -0.1902 -0.7065  0.1948
 6856SOL    HW132030   0.064   2.809   4.490  1.4869  0.5975 -1.7103
 6856SOL    HW232031   4.675   2.874   4.415 -0.8822 -1.2262 -1.3408
 6857SOL     OW32032   1.565   0.872   6.579  0.2144 -0.1393 -0.5343
 6857SOL    HW132033   1.511   0.876   6.658 -0.1766 -0.0177 -0.8070
 6857SOL    HW232034   1.528   0.799   6.530  2.7989 -2.2566  0.7032
 6858SOL     OW32035   4.226   3.773   2.828 -0.3439  0.2927  0.1132
 6858SOL    HW132036   4.254   3.862   2.805 -0.0635  0.2806  0.4188
 6858SOL    HW232037   4.212   3.727   2.745  2.8299  0.8559 -0.7557
 6859SOL     OW32038   0.661   1.195   2.731 -0.2056 -0.2874 -0.2080
 6859SOL    HW132039   0.576   1.159   2.703 -0.2303 -0.1277 -0.3364
 6859SOL    HW232040   0.725   1.140   2.685  1.4235  1.2116  0.2917
 6860SOL     OW32041   0.571   0.491   5.300 -0.5529  0.1809  0.0491
 6860SOL    HW132042   0.636   0.537   5.352  0.4156  0.7651 -1.6851
 6860SOL    HW232043   0.568   0.551   5.226 -2.6003 -2.5256 -2.0549
 6861SOL     OW32044   0.810   2.932   2.471  0.5716  0.2715 -0.6242
 6861SOL    HW132045   0.719   2.956   2.456  0.9088  1.5525 -0.6113
 6861SOL    HW232046   0.817   2.862   2.406 -1.1391  0.5706 -1.1120
 6862SOL     OW32047   0.599   2.851  12.365 -0.2704 -0.0492 -0.3061
 6862SOL    HW132048   0.566   2.769  12.328  0.1544 -0.4816  0.2787
 6862SOL    HW232049   0.554   2.914  12.308  1.3295  1.5276  0.1625
 6863SOL     OW32050   3.315   4.441   0.468  0.4570  0.1087 -0.6589
 6863SOL    HW132051   3.306   4.364   0.412  1.1317 -2.1282  2.2725
 6863SOL    HW232052   3.342   4.406   0.553 -0.4073  0.5959 -0.1858
 6864SOL     OW32053   0.871   3.836  15.835 -0.0862  0.2157 -0.7091
 6864SOL    HW132054   0.930   3.784  15.889  0.7787  2.0702  0.1225
 6864SOL    HW232055   0.857   3.770  15.767  2.5542 -1.0050 -0.0663
 6865SOL     OW32056   2.358   3.666  14.685  0.5298 -0.2445  0.1613
 6865SOL    HW132057   2.269   3.637  14.660  1.1202  1.3675 -3.9161
 6865SOL    HW232058   2.405   3.587  14.658  1.3681 -0.5270  2.4847
 6866SOL     OW32059   1.645   3.663   4.190 -0.2113 -0.1875 -0.0985
 6866SOL    HW132060   1.659   3.578   4.232  2.1729  0.8876  1.2656
 6866SOL    HW232061   1.573   3.707   4.236 -0.4714  1.1109 -1.7417
 6867SOL     OW32062   4.396   3.774   1.103 -0.1532  0.0519 -0.0966
 6867SOL    HW132063   4.350   3.795   1.184 -3.3509 -2.0760 -1.3844
 6867SOL    HW232064   4.461   3.708   1.126 -1.1266 -0.5681  0.8088
 6868SOL     OW32065   0.749   1.534   6.567  0.1980  0.5650 -0.1755
 6868SOL    HW132066   0.752   1.577   6.481  0.2818 -0.8545 -0.8843
 6868SOL    HW232067   0.837   1.548   6.599  0.5587  0.5076 -1.1371
 6869SOL     OW32068   1.028   0.769   1.163  0.2714 -0.4528  0.0328
 6869SOL    HW132069   0.947   0.792   1.118  1.0485  2.7055  0.2244
 6869SOL    HW232070   1.077   0.734   1.089 -0.0956 -0.5030 -0.1876
 6870SOL     OW32071   0.782   1.507   2.800  0.5483  0.0516 -0.5640
 6870SOL    HW132072   0.870   1.529   2.831 -0.3522  0.0623  1.9473
 6870SOL    HW232073   0.726   1.573   2.840 -2.4434 -2.1778 -1.1537
 6871SOL     OW32074   3.683   2.689   7.926 -0.2387 -0.5260 -0.8436
 6871SOL    HW132075   3.682   2.762   7.863 -0.3823 -0.2307 -0.5021
 6871SOL    HW232076   3.590   2.666   7.927 -0.3785  0.0466 -0.1492
 6872SOL     OW32077   2.950   2.619   5.470 -0.6568 -0.0004  0.5249
 6872SOL    HW132078   2.928   2.537   5.512 -2.0605  0.2031  0.1791
 6872SOL    HW232079   3.010   2.582   5.405 -0.1330 -0.4146  1.2530
 6873SOL     OW32080   4.225   3.089   7.513  0.0201  0.2705 -0.4415
 6873SOL    HW132081   4.294   3.155   7.511  0.4585 -0.2218 -1.7169
 6873SOL    HW232082   4.221   3.047   7.427 -2.2564  2.0245 -1.2022
 6874SOL     OW32083   3.526   1.005  10.485 -0.3654  0.3037 -0.0734
 6874SOL    HW132084   3.469   0.975  10.555  0.3084  0.4301  0.5298
 6874SOL    HW232085   3.514   0.943  10.412  2.1780 -0.3573  0.0467
 6875SOL     OW32086   3.151   3.519  15.238  0.0460  0.3551  0.3987
 6875SOL    HW132087   3.211   3.588  15.211 -0.4851  0.2455 -1.0346
 6875SOL    HW232088   3.105   3.565  15.309  1.1060 -1.1520  2.0538
 6876SOL     OW32089   1.547   0.290   1.624  0.0543 -0.5566  0.5274
 6876SOL    HW132090   1.454   0.296   1.604  0.4567 -1.8918 -1.7240
 6876SOL    HW232091   1.592   0.271   1.542 -0.1349 -1.0758  0.5462
 6877SOL     OW32092   1.665   3.312   8.780 -0.2083 -0.5398 -0.3512
 6877SOL    HW132093   1.755   3.325   8.751 -0.5327  0.9967 -0.6986
 6877SOL    HW232094   1.655   3.395   8.827 -0.8757 -1.0260  0.3652
 6878SOL     OW32095   2.745   2.043   5.225 -0.1453 -0.6253  0.3051
 6878SOL    HW132096   2.655   2.060   5.252  0.0469 -0.5484  0.8895
 6878SOL    HW232097   2.746   1.949   5.206  1.3205 -0.5421 -0.0380
 6879SOL     OW32098   4.534   3.876   1.373  0.1520  0.2785 -0.2009
 6879SOL    HW132099   4.531   3.781   1.367  3.8561  0.0939  1.2700
 6879SOL    HW232100   4.617   3.889   1.327 -0.4750  0.6745 -1.2206
 6880SOL     OW32101   4.569   2.782  13.579 -0.6409 -0.1298  0.6346
 6880SOL    HW132102   4.642   2.750  13.631  2.8649  0.5525 -3.9037
 6880SOL    HW232103   4.605   2.787  13.491 -0.0448 -0.7509  0.8514
 6881SOL     OW32104   3.668   2.440   5.146 -0.0757  0.5054  0.2013
 6881SOL    HW132105   3.696   2.440   5.238 -1.3719 -2.9543  0.5851
 6881SOL    HW232106   3.730   2.377   5.110  0.4392  0.3400  1.3725
 6882SOL     OW32107   3.110   3.445   2.231 -0.0549 -0.3766  0.0225
 6882SOL    HW132108   3.126   3.495   2.311  1.4527 -2.0797  0.7941
 6882SOL    HW232109   3.116   3.512   2.163 -2.2254  0.8336  1.0186
 6883SOL     OW32110   4.377   3.847   2.351 -0.1402  0.0366 -0.8151
 6883SOL    HW132111   4.457   3.896   2.333 -0.1141 -0.9915 -3.6144
 6883SOL    HW232112   4.332   3.852   2.266 -0.7098  0.3862 -0.4915
 6884SOL     OW32113   3.715   4.701   5.336  0.0032  0.3444 -0.6670
 6884SOL    HW132114   3.626   4.696   5.371  0.3613 -2.4961 -0.1751
 6884SOL    HW232115   3.743   0.061   5.370 -1.4426  0.1848  0.9285
 6885SOL     OW32116   1.105   1.350   9.186  0.5545  0.3273  0.5528
 6885SOL    HW132117   1.200   1.341   9.194  0.7935  0.8238 -1.6566
 6885SOL    HW232118   1.081   1.373   9.096 -0.6320  2.1756  1.3458
 6886SOL     OW32119   2.785   3.454   6.848 -0.1903 -0.3334  0.3325
 6886SOL    HW132120   2.808   3.397   6.774 -0.9645 -0.7192  0.3842
 6886SOL    HW232121   2.692   3.447   6.824  0.5964  0.7755 -3.0295
 6887SOL     OW32122   2.644   2.479   4.597  0.3242  0.2112  0.0444
 6887SOL    HW132123   2.649   2.412   4.529 -2.3084 -0.6983  0.7326
 6887SOL    HW232124   2.567   2.439   4.638  1.1678 -2.5307 -1.0735
 6888SOL     OW32125   2.005   3.547   6.174 -0.3428 -0.1566  0.3494
 6888SOL    HW132126   2.081   3.498   6.203 -0.0969  0.6662  1.0879
 6888SOL    HW232127   1.939   3.490   6.213  0.2844 -0.8694  0.3537
 6889SOL     OW32128   4.508   0.638  10.411 -0.6623  0.7434 -0.9361
 6889SOL    HW132129   4.452   0.561  10.422  0.5891  0.0061  0.4171
 6889SOL    HW232130   4.485   0.664  10.322 -0.3297  1.4462 -0.8197
 6890SOL     OW32131   0.722   1.255   7.770  0.2547  0.1279 -0.4550
 6890SOL    HW132132   0.741   1.183   7.710  1.0659 -0.0682  0.0393
 6890SOL    HW232133   0.720   1.331   7.712 -0.1036  0.3147 -0.1975
 6891SOL     OW32134   3.859   3.892   4.745 -0.0930  0.1790  0.5101
 6891SOL    HW132135   3.951   3.915   4.738 -0.4152  0.5331 -2.8225
 6891SOL    HW232136   3.866   3.799   4.768  1.5810  0.0206 -0.6444
 6892SOL     OW32137   2.704   2.701   5.127  0.2737  0.1735  0.5849
 6892SOL    HW132138   2.622   2.748   5.113  0.9810  0.8354 -1.2577
 6892SOL    HW232139   2.686   2.607   5.115  1.8295 -0.2444  1.4896
 6893SOL     OW32140   0.444   1.625   0.007 -0.0619  0.4223  0.6636
 6893SOL    HW132141   0.383   1.688   0.044  0.6288  0.1382  2.2574
 6893SOL    HW232142   0.434   1.649  17.615 -2.0863 -1.1579  0.4460
 6894SOL     OW32143   0.711   1.679  15.964  0.3716  0.1392  0.0039
 6894SOL    HW132144   0.648   1.715  15.901 -1.3857 -1.5883  0.7737
 6894SOL    HW232145   0.798   1.703  15.931 -0.2051 -0.5340 -2.0062
 6895SOL     OW32146   2.646   3.561   1.779  0.2883  0.2350  0.1420
 6895SOL    HW132147   2.668   3.653   1.795  1.9248  0.1061 -1.3704
 6895SOL    HW232148   2.572   3.552   1.839  0.8084  2.6808  1.1591
 6896SOL     OW32149   0.348   0.931  13.946  0.0156 -0.2363  0.1889
 6896SOL    HW132150   0.343   1.021  13.916  2.0583 -0.7056 -1.5295
 6896SOL    HW232151   0.373   0.890  13.863  1.8270  1.5325 -0.1363
 6897SOL     OW32152   3.497   2.577   4.520  0.4812 -0.4181  0.4306
 6897SOL    HW132153   3.484   2.650   4.460 -0.9146 -0.7915  0.2879
 6897SOL    HW232154   3.410   2.564   4.557  1.4272 -3.3739  1.6175
 6898SOL     OW32155   0.940   3.156   6.001 -0.2687  0.2191  0.1102
 6898SOL    HW132156   0.997   3.189   6.070 -0.0998 -0.5741  0.3593
 6898SOL    HW232157   0.871   3.222   5.992  1.6047  2.0799 -0.5770
 6899SOL     OW32158   3.455   0.495   5.989  0.1203 -0.4777  0.7225
 6899SOL    HW132159   3.497   0.410   6.001 -0.1746 -0.5310  1.3838
 6899SOL    HW232160   3.367   0.473   6.021 -0.9168  1.5303 -0.7518
 6900SOL     OW32161   2.714   1.246   4.218  0.3502  0.0523  0.3890
 6900SOL    HW132162   2.698   1.157   4.250 -1.6603  0.7420  1.2223
 6900SOL    HW232163   2.806   1.260   4.243  0.6562 -0.4306 -0.4360
 6901SOL     OW32164   1.596   2.501   0.666 -0.6423 -0.1749  0.5908
 6901SOL    HW132165   1.532   2.565   0.635  1.3274  2.6620  2.3476
 6901SOL    HW232166   1.537   2.430   0.691 -0.5466  0.1853  1.8267
 6902SOL     OW32167   3.965   4.443  12.978  0.1825 -0.1018  0.3048
 6902SOL    HW132168   3.965   4.514  12.913  0.2229 -1.2220 -0.9040
 6902SOL    HW232169   4.047   4.402  12.949 -0.2916 -0.2238 -0.8605
 6903SOL     OW32170   0.697   2.840  15.376 -0.1448 -0.2456 -0.4036
 6903SOL    HW132171   0.759   2.821  15.305 -2.3933 -2.4853 -1.7809
 6903SOL    HW232172   0.633   2.773  15.352 -1.8284  1.4492 -0.6270
 6904SOL     OW32173   2.216   2.809   9.401  0.0757 -0.3712  0.3987
 6904SOL    HW132174   2.270   2.858   9.462 -0.5798  0.8006  0.0404
 6904SOL    HW232175   2.151   2.878   9.382 -0.8309 -1.2271  0.3614
 6905SOL     OW32176   3.552   2.848   4.332 -0.2978  0.3096 -0.0152
 6905SOL    HW132177   3.515   2.843   4.243 -0.0710 -0.9049 -0.0499
 6905SOL    HW232178   3.549   2.943   4.335  1.4003  0.2864  1.8888
 6906SOL     OW32179   4.170   2.020   0.691 -0.1591  1.0726  0.0736
 6906SOL    HW132180   4.126   2.104   0.680 -1.6233  0.5634  1.9119
 6906SOL    HW232181   4.103   1.970   0.645  1.9793 -0.7957 -0.9938
 6907SOL     OW32182   4.212   3.037   3.536 -0.0006 -0.0201  0.1274
 6907SOL    HW132183   4.180   3.107   3.478  0.0122  1.1390  1.5167
 6907SOL    HW232184   4.213   2.953   3.490 -0.4524 -1.1229  2.1346
 6908SOL     OW32185   4.566   1.746   7.252  0.5631 -0.7345 -0.4230
 6908SOL    HW132186   4.548   1.701   7.169  3.4124  0.3791 -1.6512
 6908SOL    HW232187   4.499   1.701   7.304  1.2912 -1.4679 -0.1303
 6909SOL     OW32188   3.155   3.902   4.820  0.1973 -0.3860  0.5926
 6909SOL    HW132189   3.086   3.969   4.813 -0.7290 -1.5331 -1.3085
 6909SOL    HW232190   3.102   3.827   4.796 -0.0836  0.2618 -0.7981
 6910SOL     OW32191   0.342   1.578   3.471  0.4060 -0.3549 -0.0370
 6910SOL    HW132192   0.251   1.606   3.477  1.1094  1.8921  0.4674
 6910SOL    HW232193   0.329   1.487   3.447  0.5065 -0.7951  1.5803
 6911SOL     OW32194   1.942   0.453   4.022 -0.1989 -0.4518  0.1641
 6911SOL    HW132195   1.914   0.481   4.109 -2.3851  1.9821 -1.3108
 6911SOL    HW232196   1.977   0.367   4.044  0.9795  0.4102  1.6406
 6912SOL     OW32197   0.540   2.953   2.392 -0.3192  0.0415 -0.2821
 6912SOL    HW132198   0.534   3.013   2.317  2.2472  0.4400 -0.1727
 6912SOL    HW232199   0.474   2.997   2.445 -1.5903 -2.1271 -0.0891
 6913SOL     OW32200   4.001   2.206  17.229 -0.1036  0.4044  0.4079
 6913SOL    HW132201   4.087   2.248  17.227 -0.4812  1.0052 -2.7531
 6913SOL    HW232202   3.949   2.268  17.281 -0.3882  1.7486 -1.4659
 6914SOL     OW32203   1.013   0.964   0.222 -0.3974  0.0235  0.1208
 6914SOL    HW132204   0.937   0.979   0.166 -1.8385 -2.2984  1.4698
 6914SOL    HW232205   1.054   0.897   0.167 -0.7190  0.3875 -0.5732
 6915SOL     OW32206   0.271   4.612  15.600 -0.8516  0.1840 -0.3050
 6915SOL    HW132207   0.281   4.630  15.507  2.1204 -1.1652 -0.2354
 6915SOL    HW232208   0.342   4.549  15.613 -0.7607 -0.0650 -2.0135
 6916SOL     OW32209   3.538   0.374  12.396  0.2769 -0.2829 -0.2921
 6916SOL    HW132210   3.504   0.462  12.411 -1.3696 -1.0420  0.4296
 6916SOL    HW232211   3.480   0.341  12.328  1.0679 -0.0299 -1.0950
 6917SOL     OW32212   4.149   4.677   8.600  0.3316  0.4324 -0.2864
 6917SOL    HW132213   4.232   4.629   8.598 -0.3590 -0.8562  1.9627
 6917SOL    HW232214   4.180   0.043   8.604 -1.1869  0.9576 -0.3817
 6918SOL     OW32215   4.365   3.833  10.828  0.0149 -0.3432  0.0775
 6918SOL    HW132216   4.406   3.874  10.904  0.5729  2.4922 -1.7576
 6918SOL    HW232217   4.381   3.907  10.769 -1.5144 -0.2052 -0.1529
 6919SOL     OW32218   2.694   0.457   4.669  0.1921  0.0018  0.3409
 6919SOL    HW132219   2.738   0.534   4.634  1.0556 -0.9521 -0.6942
 6919SOL    HW232220   2.752   0.388   4.638  2.4670  2.2522 -0.3998
 6920SOL     OW32221   1.032   3.658   7.405 -0.0947  0.4656  0.4512
 6920SOL    HW132222   1.109   3.715   7.403 -1.9402  2.8801 -1.6411
 6920SOL    HW232223   1.037   3.600   7.329  2.1812 -0.2589  1.1519
 6921SOL     OW32224   1.433   3.808   0.713  0.5052  0.3693  0.8833
 6921SOL    HW132225   1.374   3.872   0.753 -0.4006 -0.0252  0.1579
 6921SOL    HW232226   1.387   3.732   0.747 -1.4814  1.2802  0.2321
 6922SOL     OW32227   3.403   3.989   6.458  0.1955 -0.5028  0.0776
 6922SOL    HW132228   3.432   3.923   6.395  1.3546  0.3133 -0.2430
 6922SOL    HW232229   3.308   3.981   6.444 -0.2126  0.5735  2.2587
 6923SOL     OW32230   4.113   4.335   7.825  0.1421 -0.3335 -0.3523
 6923SOL    HW132231   4.031   4.372   7.792 -0.6876 -0.8226  1.1695
 6923SOL    HW232232   4.092   4.317   7.916  4.3520  2.7483  1.2370
 6924SOL     OW32233   0.588   3.140   7.992  0.4294  0.1114 -0.1500
 6924SOL    HW132234   0.503   3.176   8.014  0.5897 -0.4755  1.3735
 6924SOL    HW232235   0.562   3.049   7.975 -0.0887 -0.1300  1.9263
 6925SOL     OW32236   3.354   1.724   7.424 -0.4696 -0.4172  0.0277
 6925SOL    HW132237   3.376   1.659   7.490 -1.1406  1.4471  2.0691
 6925SOL    HW232238   3.405   1.698   7.348 -2.0843  0.3927 -1.3470
 6926SOL     OW32239   2.641   0.951   3.446 -0.0109 -0.0568  0.8996
 6926SOL    HW132240   2.602   0.872   3.484  1.6271 -0.1061  2.4915
 6926SOL    HW232241   2.576   0.999   3.394  0.3173  0.0890  0.6216
 6927SOL     OW32242   0.027   3.088   3.912  0.2907  0.3716  0.4934
 6927SOL    HW132243   0.034   3.151   3.841 -2.5510 -0.6887 -0.7424
 6927SOL    HW232244   4.714   3.014   3.863 -0.6542  0.0504  1.7066
 6928SOL     OW32245   2.418   2.356   4.935 -0.0724  0.1253 -0.0939
 6928SOL    HW132246   2.478   2.423   4.903  1.0166 -0.8959 -0.1853
 6928SOL    HW232247   2.396   2.320   4.849 -1.9430  0.7925  0.1053
 6929SOL     OW32248   2.268   2.724   3.139 -0.0436 -0.0214  0.1081
 6929SOL    HW132249   2.233   2.640   3.169  0.6059 -0.1272  0.5687
 6929SOL    HW232250   2.301   2.749   3.225 -0.5924 -0.4458  0.4457
 6930SOL     OW32251   3.823   1.624   2.490  0.5079  0.0494  0.4203
 6930SOL    HW132252   3.808   1.718   2.493 -4.0551 -0.6474 -0.2187
 6930SOL    HW232253   3.818   1.624   2.394 -0.3838 -0.9895  0.4592
 6931SOL     OW32254   3.794   2.666  15.635  0.0245  0.3311  0.0481
 6931SOL    HW132255   3.699   2.649  15.633  0.2618 -0.8752 -0.6759
 6931SOL    HW232256   3.823   2.576  15.645  0.7949  0.2753 -2.6406
 6932SOL     OW32257   3.070   0.026   8.682  0.6950  0.0693  0.5725
 6932SOL    HW132258   3.141   0.090   8.674  0.3835  0.5388  1.6340
 6932SOL    HW232259   3.095   4.691   8.752 -0.1343 -1.1245 -0.1529
 6933SOL     OW32260   1.326   2.397   9.043  0.5697 -0.1816 -0.7425
 6933SOL    HW132261   1.283   2.313   9.029  1.0269 -0.0009 -3.3351
 6933SOL    HW232262   1.251   2.444   9.080  1.2681  0.9919 -0.8202
 6934SOL     OW32263   1.551   1.219   4.929 -0.0307  0.0496  0.1717
 6934SOL    HW132264   1.608   1.144   4.947 -0.0974 -0.3180 -1.1343
 6934SOL    HW232265   1.596   1.278   4.989 -0.2292  0.1085  0.2587
 6935SOL     OW32266   3.036   4.617   7.658  0.1689 -0.2586 -0.2403
 6935SOL    HW132267   2.954   4.657   7.686  0.7218 -0.9140  2.3073
 6935SOL    HW232268   3.014   4.590   7.569 -0.5824 -0.8608  0.1421
 6936SOL     OW32269   4.452   3.719  13.056  0.2023  0.4471  0.5890
 6936SOL    HW132270   4.462   3.790  13.119 -2.4331  1.2501  0.1087
 6936SOL    HW232271   4.523   3.663  13.087 -0.8611 -0.5506  1.2217
 6937SOL     OW32272   0.725   0.361   8.365  0.5104 -0.4839  0.2826
 6937SOL    HW132273   0.702   0.436   8.310 -0.9143 -0.4891  0.8790
 6937SOL    HW232274   0.667   0.295   8.327 -2.1259  2.1289 -0.1733
 6938SOL     OW32275   3.245   1.505   7.960  0.0469 -0.3516  0.2081
 6938SOL    HW132276   3.159   1.528   7.996  0.4123  2.8245 -0.9363
 6938SOL    HW232277   3.231   1.527   7.867  0.5851 -0.6998  0.0497
 6939SOL     OW32278   1.876   3.347   7.760  0.0696  0.2927 -0.0424
 6939SOL    HW132279   1.810   3.297   7.713 -0.0120 -0.1942  0.5777
 6939SOL    HW232280   1.832   3.345   7.845  1.0554 -0.7175  0.4501
 6940SOL     OW32281   1.434   0.761  17.322  0.0905 -0.2515 -0.4184
 6940SOL    HW132282   1.374   0.764  17.248 -0.4555  2.9820  0.1769
 6940SOL    HW232283   1.524   0.747  17.292  0.1410 -1.0543  0.1005
 6941SOL     OW32284   3.486   1.315   4.213 -0.3199 -0.6093  0.2984
 6941SOL    HW132285   3.445   1.369   4.281  0.1408  0.9658 -0.6651
 6941SOL    HW232286   3.534   1.249   4.263 -1.8054 -0.6007  1.7638
 6942SOL     OW32287   4.587   0.032   3.306 -0.2192 -0.4457  0.2133
 6942SOL    HW132288   4.624   4.668   3.317  1.8571  0.4858  0.8526
 6942SOL    HW232289   4.656   0.072   3.253  0.9376 -1.3544  1.0155
 6943SOL     OW32290   1.220   0.678   0.989 -0.4546  0.2063  0.7235
 6943SOL    HW132291   1.231   0.631   1.072 -0.6357  0.2823  0.7907
 6943SOL    HW232292   1.271   0.620   0.933  1.1441  0.4040  1.9843
 6944SOL     OW32293   2.243   1.712   3.969 -0.2763  0.3031 -0.3224
 6944SOL    HW132294   2.181   1.656   3.922 -0.5340 -2.4508  3.2845
 6944SOL    HW232295   2.281   1.753   3.891 -1.0925 -0.6400 -1.2047
 6945SOL     OW32296   0.057   2.827  12.903  0.3400  0.1596 -0.4423
 6945SOL    HW132297   0.026   2.898  12.958  0.0776 -1.5400  1.5776
 6945SOL    HW232298   0.147   2.848  12.877  0.3454  1.4636  0.6435
 6946SOL     OW32299   0.920   1.771   3.792 -0.2370 -0.2229  0.0166
 6946SOL    HW132300   0.874   1.748   3.873  0.2916  0.0095  0.3833
 6946SOL    HW232301   0.848   1.768   3.729  2.6308 -2.0909 -3.1338
 6947SOL     OW32302   3.423   0.955  13.573  0.6951  0.7644  0.6076
 6947SOL    HW132303   3.380   0.947  13.658 -0.2066 -0.5719  0.0115
 6947SOL    HW232304   3.442   0.868  13.540 -0.5520  1.3621 -1.6876
 6948SOL     OW32305   3.762   3.522   1.333  0.6192 -0.2131 -0.6121
 6948SOL    HW132306   3.674   3.537   1.367 -0.0270  1.6827 -3.1512
 6948SOL    HW232307   3.729   3.503   1.245 -0.4495 -1.4759  0.0705
 6949SOL     OW32308   3.363   0.727   5.461 -0.8205  0.2461 -0.2253
 6949SOL    HW132309   3.444   0.771   5.487 -1.6962  0.0852  2.7479
 6949SOL    HW232310   3.299   0.787   5.497 -0.6977  0.3740 -0.2226
 6950SOL     OW32311   4.202   2.042   2.961  0.3432 -0.5379  0.1927
 6950SOL    HW132312   4.224   2.104   2.891 -0.5860  1.5926  1.8162
 6950SOL    HW232313   4.117   2.076   2.987 -0.4004 -1.4275 -1.0625
 6951SOL     OW32314   3.432   1.137   0.070 -0.8744  0.1202  0.3914
 6951SOL    HW132315   3.389   1.095  17.696 -0.0246  0.3767 -0.2488
 6951SOL    HW232316   3.451   1.226   0.041 -2.2153  0.0909 -0.5259
 6952SOL     OW32317   2.800   1.304   7.878 -0.0842 -0.3583  0.2852
 6952SOL    HW132318   2.706   1.283   7.871  0.2948 -1.4477 -1.5731
 6952SOL    HW232319   2.814   1.377   7.818 -0.9971  0.5022  1.1364
 6953SOL     OW32320   3.174   3.489   3.206 -0.2959  0.0250  0.6445
 6953SOL    HW132321   3.139   3.534   3.129 -1.3181  0.0232  1.1056
 6953SOL    HW232322   3.229   3.562   3.234 -1.1006  1.4972 -1.6126
 6954SOL     OW32323   0.618   3.564   8.729 -0.2700 -0.0030  0.2838
 6954SOL    HW132324   0.569   3.545   8.649  1.4521  0.0278 -0.7666
 6954SOL    HW232325   0.689   3.619   8.697  0.9964 -0.6861  1.9198
 6955SOL     OW32326   0.920   0.290   4.785 -0.0002 -0.1239  0.2948
 6955SOL    HW132327   0.981   0.362   4.805  0.9004 -1.0835  1.0269
 6955SOL    HW232328   0.866   0.334   4.720 -1.4134 -2.0421  0.1721
 6956SOL     OW32329   4.701   4.008   1.777  0.0759 -0.1044  0.0538
 6956SOL    HW132330   4.616   4.023   1.736  1.1379  0.8153 -1.8073
 6956SOL    HW232331   4.702   3.934   1.838 -0.2707 -0.9462 -0.9484
 6957SOL     OW32332   3.697   4.511   8.519 -0.2853  0.3938  0.3799
 6957SOL    HW132333   3.691   4.436   8.460  0.9876  0.8471 -0.3245
 6957SOL    HW232334   3.616   4.495   8.567  0.2826 -1.8081  0.5795
 6958SOL     OW32335   1.807   0.764   1.796  0.3841 -0.3221 -0.1567
 6958SOL    HW132336   1.900   0.768   1.817 -0.3457  0.2318  2.9704
 6958SOL    HW232337   1.808   0.848   1.750  0.2790 -0.3049 -0.1276
 6959SOL     OW32338   2.153   1.997  12.591 -0.2910  0.4979  0.0749
 6959SOL    HW132339   2.114   2.027  12.509 -1.8565 -0.1752  0.5871
 6959SOL    HW232340   2.111   1.912  12.601 -0.0686  0.2456 -1.1317
 6960SOL     OW32341   2.953   0.493   1.622  0.1657  0.8565  0.4126
 6960SOL    HW132342   2.985   0.513   1.534 -2.9485 -1.4341 -1.2417
 6960SOL    HW232343   2.987   0.566   1.673  0.4800 -0.8116  2.5649
 6961SOL     OW32344   1.821   1.394   4.760 -0.1369  0.2798  0.5037
 6961SOL    HW132345   1.748   1.361   4.708  1.7774 -0.8061 -1.4767
 6961SOL    HW232346   1.775   1.462   4.810  2.4395  0.5033  2.5926
 6962SOL     OW32347   3.882   0.422  16.455 -0.7337 -0.0131  0.0124
 6962SOL    HW132348   3.818   0.383  16.395 -1.7647 -0.8458  1.6565
 6962SOL    HW232349   3.927   0.479  16.392  1.5504  1.3158  2.9026
 6963SOL     OW32350   3.804   0.034   2.239  0.2904  0.1232 -0.6010
 6963SOL    HW132351   3.750   0.111   2.259 -0.8078 -0.6629 -0.6053
 6963SOL    HW232352   3.759   0.005   2.160  0.0554  0.8814 -0.7496
 6964SOL     OW32353   3.638   2.153   7.496 -0.3196  0.0835  0.5247
 6964SOL    HW132354   3.594   2.215   7.438 -1.6699 -2.6914 -1.3920
 6964SOL    HW232355   3.626   2.067   7.456 -0.5570 -1.2950  3.4887
 6965SOL     OW32356   0.082   2.536  15.271 -0.4814  0.2055 -0.0879
 6965SOL    HW132357   0.172   2.522  15.241 -0.8919 -1.1509 -0.7130
 6965SOL    HW232358   0.037   2.506  15.192  0.5645 -0.0240 -0.6043
 6966SOL     OW32359   0.808   3.978   2.852  0.3632  0.3561  0.4125
 6966SOL    HW132360   0.731   3.978   2.908  0.9757 -0.0181  1.2497
 6966SOL    HW232361   0.844   3.890   2.864 -1.6088 -0.8054 -2.2398
 6967SOL     OW32362   3.936   2.828   4.824  0.5854 -0.2986  0.0374
 6967SOL    HW132363   3.849   2.850   4.790  0.1754 -3.0854 -0.7181
 6967SOL    HW232364   3.958   2.888   4.896  1.1865 -0.0616 -0.3413
 6968SOL     OW32365   0.959   2.871   5.967  0.2588  0.3342  0.0417
 6968SOL    HW132366   1.043   2.843   5.931  0.6721  0.3604  0.9836
 6968SOL    HW232367   0.969   2.965   5.981  0.2302  0.5082 -1.1690
 6969SOL     OW32368   3.205   3.265   8.621 -0.0730  0.1162 -0.2818
 6969SOL    HW132369   3.260   3.231   8.692  0.1246  1.4169  0.1934
 6969SOL    HW232370   3.277   3.298   8.567  0.0593 -0.3259 -0.3732
 6970SOL     OW32371   0.396   3.926   5.322 -0.0718 -0.4995  0.0806
 6970SOL    HW132372   0.459   3.995   5.343 -1.2551  0.0926  1.7761
 6970SOL    HW232373   0.407   3.854   5.385 -0.1500  0.5399  1.2889
 6971SOL     OW32374   0.860   3.704   7.702  0.2306  0.0098  0.3958
 6971SOL    HW132375   0.922   3.689   7.774 -0.4682 -1.3490  0.7012
 6971SOL    HW232376   0.781   3.656   7.727  0.2553 -0.5466 -0.6183
 6972SOL     OW32377   2.082   4.093   0.204 -0.4266 -0.3052  0.7088
 6972SOL    HW132378   2.078   4.109   0.109  0.9936 -0.0611  0.6883
 6972SOL    HW232379   2.173   4.103   0.231  0.7243  0.1406 -3.2707
 6973SOL     OW32380   2.425   1.187   1.134  0.2365 -0.1306 -0.5374
 6973SOL    HW132381   2.465   1.169   1.049  1.8489 -0.9211  0.3917
 6973SOL    HW232382   2.353   1.246   1.113  0.7057  1.7173  2.9288
 6974SOL     OW32383   1.396   3.870   9.817 -0.2378  0.4054 -0.2038
 6974SOL    HW132384   1.445   3.926   9.876 -1.7275  1.7275 -0.2218
 6974SOL    HW232385   1.307   3.889   9.848 -0.1135  0.0295  0.3601
 6975SOL     OW32386   1.422   0.301   4.328  0.0808 -0.0126 -0.5474
 6975SOL    HW132387   1.472   0.350   4.263  0.2433 -0.4957 -0.7893
 6975SOL    HW232388   1.355   0.263   4.272 -1.1248  0.2700  0.7182
 6976SOL     OW32389   2.598   0.183   8.840 -0.2979 -0.0640  0.0085
 6976SOL    HW132390   2.625   0.125   8.768  0.8719  2.3055 -1.4500
 6976SOL    HW232391   2.530   0.138   8.890 -0.4879 -0.5977 -0.7255
 6977SOL     OW32392   0.902   0.719  13.372  0.3117  0.1367 -0.7110
 6977SOL    HW132393   0.979   0.667  13.397  0.3713 -0.1909 -1.5689
 6977SOL    HW232394   0.884   0.679  13.287  0.3802  0.0185 -0.6711
 6978SOL     OW32395   1.458   3.496  10.040  0.0333  0.6042 -0.4011
 6978SOL    HW132396   1.537   3.505  10.093  0.8310  1.1675 -1.6750
 6978SOL    HW232397   1.419   3.442  10.108  2.7934 -0.9127 -0.0586
 6979SOL     OW32398   3.413   0.573  10.281 -0.4660  0.3823  0.2917
 6979SOL    HW132399   3.496   0.527  10.294  0.3089  1.8134  0.3528
 6979SOL    HW232400   3.419   0.596  10.188  0.2459  0.1188  0.2796
 6980SOL     OW32401   3.953   0.061   3.873  0.4569 -0.4517 -0.1351
 6980SOL    HW132402   4.041   0.033   3.850  0.1675  0.1327 -1.9068
 6980SOL    HW232403   3.954   0.043   3.967 -1.0118  4.3162  0.8210
 6981SOL     OW32404   0.028   0.725  17.479  0.3793  0.0822  0.0510
 6981SOL    HW132405   0.099   0.680  17.433  1.6210  0.1707  1.9025
 6981SOL    HW232406   4.682   0.741  17.415  1.1168 -0.9113 -1.0143
 6982SOL     OW32407   2.338   0.575   8.276 -0.0469 -0.7978  0.3330
 6982SOL    HW132408   2.296   0.643   8.330  0.8988  1.1684 -1.4249
 6982SOL    HW232409   2.277   0.546   8.208  1.4819 -1.9885 -0.5097
 6983SOL     OW32410   1.161   3.929   6.457 -0.2290 -0.0271  0.0217
 6983SOL    HW132411   1.130   3.856   6.404  1.4928 -0.2588 -0.6812
 6983SOL    HW232412   1.092   3.995   6.460 -0.2183  0.0050 -0.3979
 6984SOL     OW32413   4.604   0.677   1.162 -0.1021 -0.3025  0.1125
 6984SOL    HW132414   4.542   0.738   1.202  0.9754  0.5621  0.4729
 6984SOL    HW232415   4.556   0.604   1.121 -0.8787 -0.1264  0.7148
 6985SOL     OW32416   0.065   2.630   1.327  0.4947  0.3038 -0.0278
 6985SOL    HW132417   0.155   2.637   1.293 -0.0077  1.6110 -1.0883
 6985SOL    HW232418   0.084   2.636   1.421  0.9787  0.1693 -0.1129
 6986SOL     OW32419   0.618   1.942   2.896 -0.1399  0.2488 -0.2432
 6986SOL    HW132420   0.642   2.006   2.962  1.6550 -2.4084  1.6558
 6986SOL    HW232421   0.679   1.869   2.908 -0.8007 -0.3786 -0.7028
 6987SOL     OW32422   1.907   0.773  11.478 -0.5261 -0.3549  0.3047
 6987SOL    HW132423   1.985   0.730  11.443 -1.7404 -0.6605 -2.0459
 6987SOL    HW232424   1.835   0.721  11.442 -0.8218 -0.3357  0.8739
 6988SOL     OW32425   1.844   4.433   1.139 -0.4003 -0.0221 -0.1134
 6988SOL    HW132426   1.847   4.340   1.159  1.6283  0.2629  0.8424
 6988SOL    HW232427   1.833   4.460   1.230 -0.5997 -0.9666  0.1433
 6989SOL     OW32428   4.089   2.212   5.164 -0.6562  0.3901 -0.2498
 6989SOL    HW132429   4.089   2.262   5.083  0.7808  0.5785 -0.1299
 6989SOL    HW232430   4.111   2.126   5.129 -0.1788  1.0480 -1.5658
 6990SOL     OW32431   1.477   2.690   8.584  0.0135  0.4117  0.0640
 6990SOL    HW132432   1.393   2.673   8.542 -1.1953  1.6637  1.9441
 6990SOL    HW232433   1.461   2.656   8.672  2.0819 -1.1264 -0.1836
 6991SOL     OW32434   3.222   4.438  10.685  0.5490 -0.4286  0.2366
 6991SOL    HW132435   3.244   4.522  10.725  1.1049  0.0948 -1.1814
 6991SOL    HW232436   3.301   4.417  10.636  1.8361  2.2588  1.1654
 6992SOL     OW32437   0.246   3.109   7.461  0.0682 -0.3586 -0.0018
 6992SOL    HW132438   0.158   3.137   7.484 -0.6955 -2.4136 -0.4370
 6992SOL    HW232439   0.241   3.014   7.470  0.6048 -0.1770  2.2049
 6993SOL     OW32440   2.406   1.899   1.307 -0.2000  0.1634  0.2630
 6993SOL    HW132441   2.370   1.953   1.378 -1.9126 -0.2546 -0.2891
 6993SOL    HW232442   2.434   1.821   1.354 -4.2998 -1.4820 -0.0624
 6994SOL     OW32443   4.040   1.382   2.327 -0.1325  0.0260 -0.0646
 6994SOL    HW132444   3.987   1.457   2.300 -0.9897  0.6892  3.4385
 6994SOL    HW232445   3.969   1.318   2.321  0.3241 -0.5077  0.1970
 6995SOL     OW32446   1.472   1.612   3.941 -0.3319  0.1841  0.6411
 6995SOL    HW132447   1.406   1.567   3.888 -0.0492 -1.1250  1.3926
 6995SOL    HW232448   1.414   1.680   3.974 -0.6077  0.6234 -0.7608
 6996SOL     OW32449   0.609   4.469   2.986  0.0239  0.4513 -0.0175
 6996SOL    HW132450   0.543   4.423   2.935 -0.1920  1.4322 -0.6108
 6996SOL    HW232451   0.683   4.428   2.941 -0.3300 -0.5919  0.3436
 6997SOL     OW32452   2.538   2.262   5.389 -0.1745 -0.6873  0.0083
 6997SOL    HW132453   2.594   2.266   5.466 -2.0477 -0.6464  1.3771
 6997SOL    HW232454   2.494   2.182   5.418 -0.3861 -0.5262  0.1342
 6998SOL     OW32455   3.244   1.454   1.745 -0.1301 -0.1079 -0.2625
 6998SOL    HW132456   3.249   1.536   1.696  0.5332 -0.4656 -0.7899
 6998SOL    HW232457   3.278   1.484   1.829  1.6079  1.1336 -1.4149
 6999SOL     OW32458   0.550   3.627   8.107 -0.2840 -0.3207  0.0478
 6999SOL    HW132459   0.562   3.537   8.136  1.3604 -0.1035  0.0642
 6999SOL    HW232460   0.643   3.641   8.089  0.1550 -0.4960  2.2449
 7000SOL     OW32461   0.696   1.293   8.923 -0.1368 -0.3237  0.1197
 7000SOL    HW132462   0.662   1.317   8.837  0.2360 -0.7672 -0.1544
 7000SOL    HW232463   0.671   1.201   8.927  0.3004 -0.4113  0.8860
 7001SOL     OW32464   4.054   3.012   9.094  0.0538 -0.8591  0.0999
 7001SOL    HW132465   4.113   2.983   9.162 -0.9689 -1.7638  0.5999
 7001SOL    HW232466   4.098   2.971   9.019  0.8145 -0.4348  0.3198
 7002SOL     OW32467   2.742   2.003   9.777  0.1656 -0.0433 -0.3486
 7002SOL    HW132468   2.828   1.968   9.799 -0.1649  0.0525  1.0820
 7002SOL    HW232469   2.734   2.080   9.834 -0.7730 -1.7861  1.8692
 7003SOL     OW32470   1.798   4.569   3.490 -0.0588  0.4463 -0.3029
 7003SOL    HW132471   1.828   4.559   3.399 -2.2317 -0.5919 -0.8974
 7003SOL    HW232472   1.802   4.664   3.501 -4.0106  0.5018  0.3720
 7004SOL     OW32473   4.371   0.622   3.223 -0.0139 -0.0948 -0.3982
 7004SOL    HW132474   4.432   0.631   3.296 -0.9270  1.3418  0.1809
 7004SOL    HW232475   4.311   0.559   3.263  1.2626 -2.2710 -1.8838
 7005SOL     OW32476   0.364   4.105   4.428  0.4495  0.1240 -0.3745
 7005SOL    HW132477   0.332   4.092   4.517 -2.4315 -2.1558 -1.7549
 7005SOL    HW232478   0.393   4.196   4.423  1.5521 -0.0841  2.0929
 7006SOL     OW32479   2.751   2.370   4.258 -0.0042 -0.0712  0.1884
 7006SOL    HW132480   2.741   2.275   4.253 -0.1904 -0.0967  1.1589
 7006SOL    HW232481   2.661   2.398   4.241 -0.6720 -0.2351  3.4396
 7007SOL     OW32482   0.481   0.603   5.603 -0.4383  0.2847  0.0937
 7007SOL    HW132483   0.568   0.611   5.563 -0.7815  1.2650 -0.4589
 7007SOL    HW232484   0.446   0.515   5.586  0.3171  0.1679 -0.9188
 7008SOL     OW32485   2.740   3.671  12.161 -0.6537  0.0605  0.1318
 7008SOL    HW132486   2.672   3.611  12.190 -1.5274  0.3658 -1.2603
 7008SOL    HW232487   2.699   3.703  12.081 -2.0353  0.5840  1.0561
 7009SOL     OW32488   0.556   0.202   8.225 -1.1070 -0.2107 -0.4075
 7009SOL    HW132489   0.562   0.156   8.141 -0.6970 -2.4420  0.8269
 7009SOL    HW232490   0.462   0.219   8.233 -0.9926 -0.5793  1.7806
 7010SOL     OW32491   1.181   4.520   7.969 -0.6137  0.0200  0.0803
 7010SOL    HW132492   1.091   4.537   7.942 -0.3464  0.4946 -0.4801
 7010SOL    HW232493   1.168   4.449   8.032  2.2706  1.0298  1.8341
 7011SOL     OW32494   2.413   0.197  11.893  0.0811  0.1991 -0.5735
 7011SOL    HW132495   2.333   0.244  11.918  0.3511 -0.2995  1.2189
 7011SOL    HW232496   2.462   0.187  11.974 -0.0284  0.7218 -0.4436
 7012SOL     OW32497   4.511   3.144   8.082 -0.5178  0.1913 -0.4714
 7012SOL    HW132498   4.476   3.196   8.011 -0.5019  1.0882  0.1764
 7012SOL    HW232499   4.476   3.056   8.066  0.9598 -0.0874 -2.0729
 7013SOL     OW32500   4.446   4.066   1.654 -0.7545 -0.3469  0.2577
 7013SOL    HW132501   4.433   3.976   1.684 -1.1961 -0.1289  0.7133
 7013SOL    HW232502   4.453   4.051   1.559  2.6912 -2.2914  0.8134
 7014SOL     OW32503   0.179   2.322   9.382 -0.1936 -0.2880 -0.6025
 7014SOL    HW132504   0.113   2.329   9.451  2.0095 -1.0375  1.6069
 7014SOL    HW232505   0.167   2.402   9.331 -0.1912  0.5994  0.7772
 7015SOL     OW32506   1.848   0.032  10.908 -0.0168  0.3156 -0.3357
 7015SOL    HW132507   1.825   4.666  10.928  0.5283 -0.0303 -1.2585
 7015SOL    HW232508   1.762   0.072  10.922 -0.5057 -1.0046  0.4508
 7016SOL     OW32509   2.521   1.201   9.686  0.3639 -0.0449  0.1717
 7016SOL    HW132510   2.575   1.140   9.737 -1.2105  0.0067  1.8929
 7016SOL    HW232511   2.430   1.178   9.704 -0.4461  1.5848 -1.9386
 7017SOL     OW32512   0.101   1.081  12.251 -0.1315 -0.4744 -0.4904
 7017SOL    HW132513   0.066   1.158  12.296  2.5054  0.3035  0.2703
 7017SOL    HW232514   0.141   1.112  12.169 -0.2872 -0.5983 -0.6122
 7018SOL     OW32515   4.336   1.214  12.189 -0.3769  0.1296 -0.5181
 7018SOL    HW132516   4.247   1.244  12.171  0.4072  2.7824  0.0510
 7018SOL    HW232517   4.370   1.279  12.251 -0.7191 -1.7449  1.6187
 7019SOL     OW32518   1.354   2.595  11.282  0.2890 -0.6388 -0.7706
 7019SOL    HW132519   1.445   2.572  11.261  0.3695  0.0439 -1.1559
 7019SOL    HW232520   1.308   2.511  11.278 -1.1887  0.1398 -0.0844
 7020SOL     OW32521   3.199   2.681   6.176 -0.0895 -0.1390 -0.1120
 7020SOL    HW132522   3.243   2.766   6.183 -0.2642  0.0395 -1.1142
 7020SOL    HW232523   3.268   2.619   6.199  0.5134  1.3999  2.1735
 7021SOL     OW32524   2.803   1.489   2.829  0.1692  0.6668 -0.2351
 7021SOL    HW132525   2.734   1.431   2.797  1.4841 -1.1968  0.3038
 7021SOL    HW232526   2.822   1.546   2.754 -3.7129  2.0263 -0.1600
 7022SOL     OW32527   2.609   1.736  12.944 -0.5791 -0.2326 -0.4918
 7022SOL    HW132528   2.530   1.787  12.927 -1.9607 -1.3264  2.6623
 7022SOL    HW232529   2.613   1.677  12.869 -0.9189  1.0740 -1.5323
 7023SOL     OW32530   3.738   4.660   5.677 -0.1727 -0.5603  0.0841
 7023SOL    HW132531   3.710   4.574   5.648  1.1379 -0.6631 -0.8495
 7023SOL    HW232532   3.806   4.678   5.612 -0.4479 -0.4520 -0.1766
 7024SOL     OW32533   3.204   0.388  10.254  0.8909  0.9473  0.5101
 7024SOL    HW132534   3.207   0.380  10.158 -1.3065  2.3113  0.3261
 7024SOL    HW232535   3.285   0.438  10.270  1.4737  0.2861 -0.3658
 7025SOL     OW32536   1.654   0.706  14.996  0.3386 -0.2737 -0.1600
 7025SOL    HW132537   1.636   0.800  15.002  0.0891 -0.2777 -0.8230
 7025SOL    HW232538   1.713   0.707  14.921  0.7879  2.3705  0.2479
 7026SOL     OW32539   4.699   0.898  15.186  0.1868 -0.6761  0.9864
 7026SOL    HW132540   4.658   0.878  15.270  0.3777  1.8531  1.6622
 7026SOL    HW232541   4.692   0.993  15.182 -1.0160 -0.7359  1.6123
 7027SOL     OW32542   4.217   1.319   3.461  0.2649  0.0908  0.1739
 7027SOL    HW132543   4.163   1.392   3.431 -1.9186 -1.5398  0.2146
 7027SOL    HW232544   4.259   1.297   3.378  0.9151 -2.7417  1.2494
 7028SOL     OW32545   4.466   4.381   1.686  0.6022  0.4947  0.1530
 7028SOL    HW132546   4.547   4.429   1.704  1.5078 -0.8184 -0.4626
 7028SOL    HW232547   4.516   4.300   1.673 -1.6155 -0.5467 -1.8936
 7029SOL     OW32548   4.706   0.074   9.622  0.5253 -0.0499 -0.5196
 7029SOL    HW132549   4.618   0.049   9.596  0.3115 -0.4011  0.5557
 7029SOL    HW232550   0.025   4.714   9.619 -1.5866 -1.1218 -0.2264
 7030SOL     OW32551   3.150   4.539   5.236  0.0129 -0.4958  0.1163
 7030SOL    HW132552   3.111   4.518   5.151 -1.8015 -1.7240  1.2624
 7030SOL    HW232553   3.081   4.518   5.299  0.5321 -1.3840  0.3923
 7031SOL     OW32554   3.438   4.677   5.422  0.0633  0.7492 -0.1162
 7031SOL    HW132555   3.354   4.674   5.469  1.2716  0.0750  1.9578
 7031SOL    HW232556   3.428   4.597   5.371  0.7119  1.0057 -0.6385
 7032SOL     OW32557   2.057   2.405   6.036 -0.1109 -0.0723 -0.1469
 7032SOL    HW132558   2.010   2.327   6.066  1.7477 -1.3963 -0.6229
 7032SOL    HW232559   2.013   2.419   5.953 -1.3697  0.4968  0.6183
 7033SOL     OW32560   1.779   2.292   4.144  0.4667 -0.6095  0.1731
 7033SOL    HW132561   1.823   2.273   4.061  0.0591  2.7271 -0.8310
 7033SOL    HW232562   1.691   2.282   4.107  0.2394  1.9566 -0.0090
 7034SOL     OW32563   2.851   2.163   5.917 -0.0410 -0.4681  0.6318
 7034SOL    HW132564   2.862   2.216   5.837 -2.2027  1.7033  1.7748
 7034SOL    HW232565   2.885   2.078   5.891 -1.0074 -0.4680 -0.6557
 7035SOL     OW32566   1.544   0.878  13.576  0.3084 -0.2894  0.1309
 7035SOL    HW132567   1.482   0.899  13.646  1.3692  0.1825  0.9298
 7035SOL    HW232568   1.481   0.890  13.504  0.8968  1.7042 -0.0356
 7036SOL     OW32569   3.150   3.925   7.174  0.1627 -0.5538 -0.2795
 7036SOL    HW132570   3.064   3.912   7.134 -0.1039 -0.4421  0.2583
 7036SOL    HW232571   3.195   3.956   7.095 -1.0041 -0.2356 -0.8189
 7037SOL     OW32572   3.855   0.400   4.070  0.7017 -0.1372 -0.0107
 7037SOL    HW132573   3.850   0.346   4.149  2.0330  2.0355  1.5484
 7037SOL    HW232574   3.803   0.343   4.013  0.7101 -1.7363  1.5755
 7038SOL     OW32575   1.981   3.476   5.523 -0.4788 -0.5769 -0.0564
 7038SOL    HW132576   1.995   3.398   5.577 -0.4529  0.6819  1.7545
 7038SOL    HW232577   2.064   3.487   5.477 -0.2727 -2.3187 -0.1154
 7039SOL     OW32578   3.522   2.125   4.589 -0.1508 -0.0461 -0.2705
 7039SOL    HW132579   3.470   2.111   4.510 -0.3746  2.0473 -0.4856
 7039SOL    HW232580   3.507   2.218   4.602 -0.6004 -0.0711 -0.6232
 7040SOL     OW32581   2.651   4.269   8.821  0.4601 -0.4554 -0.2071
 7040SOL    HW132582   2.613   4.310   8.899  1.4782 -1.7695  0.9816
 7040SOL    HW232583   2.608   4.183   8.814 -1.1767  0.4594 -1.4374
 7041SOL     OW32584   2.746   3.229  10.278 -0.1133  0.0869 -0.2595
 7041SOL    HW132585   2.755   3.243  10.372 -0.8756  1.8991 -0.4567
 7041SOL    HW232586   2.827   3.266  10.242  0.2941  0.0260  0.6131
 7042SOL     OW32587   2.361   3.268   2.229  0.9585  0.3980 -0.5063
 7042SOL    HW132588   2.321   3.332   2.287 -1.0556 -2.5911  1.4172
 7042SOL    HW232589   2.357   3.196   2.293 -0.6346  0.3360 -0.6936
 7043SOL     OW32590   2.134   4.011   0.874  0.4669 -0.1655  0.5807
 7043SOL    HW132591   2.100   4.012   0.963  0.7582  0.2997  0.6850
 7043SOL    HW232592   2.184   3.930   0.882 -0.8495 -1.1978 -1.6683
 7044SOL     OW32593   1.801   2.883   6.526  0.2623 -0.0475  0.4970
 7044SOL    HW132594   1.766   2.925   6.447 -2.4744 -2.1277  0.5965
 7044SOL    HW232595   1.810   2.960   6.581 -2.3614  2.5956 -2.7373
 7045SOL     OW32596   1.461   0.539   3.744  0.2902 -0.6908  0.0812
 7045SOL    HW132597   1.516   0.601   3.697 -0.3637 -0.4091 -0.3129
 7045SOL    HW232598   1.504   0.525   3.829  0.8126 -1.9946 -0.4020
 7046SOL     OW32599   4.148   1.021  11.611  0.4410  0.0050 -0.1777
 7046SOL    HW132600   4.230   0.981  11.642  0.0554  0.0013  0.8427
 7046SOL    HW232601   4.170   1.056  11.525  1.2269  0.6877  0.3011
 7047SOL     OW32602   0.656   4.701   4.566 -0.4922  0.0277  0.2096
 7047SOL    HW132603   0.571   4.687   4.524  0.4337 -1.3865 -1.1940
 7047SOL    HW232604   0.698   0.016   4.490 -2.0367  0.5467 -0.3720
 7048SOL     OW32605   1.917   3.902  15.409  0.0725  0.1267 -0.1895
 7048SOL    HW132606   1.973   3.875  15.336  1.2195  0.7031  0.4770
 7048SOL    HW232607   1.824   3.892  15.391 -0.7253  1.1252  3.2599
 7049SOL     OW32608   3.547   1.344   8.146  0.1302  0.2527 -0.1997
 7049SOL    HW132609   3.613   1.326   8.079 -0.6954 -1.6308 -0.4941
 7049SOL    HW232610   3.595   1.299   8.216  0.0176  2.1991  1.1343
 7050SOL     OW32611   3.502   3.346   6.089 -0.6422 -0.3445  0.1153
 7050SOL    HW132612   3.431   3.283   6.075 -1.6912  0.4858  1.8316
 7050SOL    HW232613   3.551   3.297   6.155  0.5210  0.0873 -0.4261
 7051SOL     OW32614   1.497   1.087   1.107  0.3329  0.3788 -0.2464
 7051SOL    HW132615   1.528   1.004   1.145 -2.5429 -0.6201 -0.0999
 7051SOL    HW232616   1.406   1.063   1.091 -0.4165  2.4765  0.9348
 7052SOL     OW32617   1.094   3.381   7.474  0.0325 -0.2692 -0.2757
 7052SOL    HW132618   1.095   3.412   7.383  0.3503 -0.2513 -0.2647
 7052SOL    HW232619   1.145   3.449   7.518 -0.5482  0.1613 -0.2626
 7053SOL     OW32620   4.639   3.344   7.311 -0.7582 -0.5584 -0.3448
 7053SOL    HW132621   4.691   3.293   7.373 -0.1860  0.2880 -0.1338
 7053SOL    HW232622   4.666   3.308   7.226 -0.5190 -0.4281 -0.3225
 7054SOL     OW32623   3.675   2.917   0.607 -0.6005 -0.1585  0.3188
 7054SOL    HW132624   3.750   2.970   0.632 -0.5451  0.1726 -0.5445
 7054SOL    HW232625   3.636   2.922   0.694  0.1973  0.3084  0.6473
 7055SOL     OW32626   2.902   2.307   0.960 -0.2324  0.1655 -0.3848
 7055SOL    HW132627   2.945   2.389   0.984 -0.6163 -0.1475  1.3546
 7055SOL    HW232628   2.868   2.328   0.873  2.2773 -3.8728 -2.3289
 7056SOL     OW32629   1.247   1.280   3.968 -0.4365 -0.6633 -0.1804
 7056SOL    HW132630   1.273   1.350   3.908  2.1657  0.2138  1.9705
 7056SOL    HW232631   1.248   1.329   4.051 -0.0533  1.2177 -1.2831
 7057SOL     OW32632   1.461   3.878   8.779 -0.1248 -0.3245  0.1278
 7057SOL    HW132633   1.432   3.965   8.751  1.9632  0.3663  0.0630
 7057SOL    HW232634   1.543   3.896   8.826 -0.1060 -1.9521  0.7173
 7058SOL     OW32635   2.197   3.181   3.170 -0.2724  0.2209  0.0698
 7058SOL    HW132636   2.247   3.101   3.155 -0.4310  0.1070  0.1495
 7058SOL    HW232637   2.170   3.186   3.078 -1.2715 -1.5392  0.2559
 7059SOL     OW32638   4.079   3.903  15.515  0.2230 -0.5554  0.2384
 7059SOL    HW132639   4.102   3.930  15.425 -0.3409  1.0290  0.5613
 7059SOL    HW232640   4.016   3.973  15.534 -0.3912 -1.2424  0.7234
 7060SOL     OW32641   2.482   1.690   6.858  0.1980 -0.6414  0.4940
 7060SOL    HW132642   2.503   1.621   6.921 -0.5255 -0.7477  0.6202
 7060SOL    HW232643   2.460   1.758   6.922 -0.3340  1.5318 -1.9802
 7061SOL     OW32644   4.120   1.776  14.306  0.2178 -0.2676 -0.0531
 7061SOL    HW132645   4.184   1.847  14.314 -1.5845  1.1218  1.7741
 7061SOL    HW232646   4.174   1.707  14.344 -1.3505 -1.8399 -0.7071
 7062SOL     OW32647   0.088   3.747   5.334  0.3193 -0.1172 -0.1552
 7062SOL    HW132648   0.022   3.758   5.402  1.0838 -0.1363  0.5837
 7062SOL    HW232649   0.154   3.809   5.365  0.1701  0.3236 -0.7052
 7063SOL     OW32650   0.060   1.891  15.772 -0.3403  0.4003  0.1228
 7063SOL    HW132651   0.014   1.839  15.707 -0.3449  1.3887 -0.6761
 7063SOL    HW232652   4.707   1.898  15.826  1.0746  2.5779  1.8956
 7064SOL     OW32653   2.179   3.902   6.643 -0.1843  0.2315 -0.2117
 7064SOL    HW132654   2.191   3.911   6.737 -0.1200  1.6044 -0.3581
 7064SOL    HW232655   2.167   3.989   6.607  4.5038  2.1729  2.9215
 7065SOL     OW32656   0.956   1.618  16.285 -0.1553  0.8415 -0.1050
 7065SOL    HW132657   0.889   1.574  16.336  0.5643  2.2927  2.1059
 7065SOL    HW232658   0.957   1.572  16.201 -2.0540  0.5455  0.0425
 7066SOL     OW32659   3.581   4.088   7.914  0.3251 -0.6997  0.1334
 7066SOL    HW132660   3.539   4.044   7.988 -0.5737  2.1337  1.3066
 7066SOL    HW232661   3.569   4.024   7.844  1.7504 -0.5884 -0.2015
 7067SOL     OW32662   0.824   1.423  17.555  0.4226  0.1830 -0.2910
 7067SOL    HW132663   0.836   1.480  17.630 -1.6822 -2.3381  1.9576
 7067SOL    HW232664   0.733   1.402  17.574  0.6332  0.0171  0.5385
 7068SOL     OW32665   2.537   4.314   7.702  0.1521  0.0702 -0.7341
 7068SOL    HW132666   2.452   4.294   7.663 -1.2783  0.9763  1.9144
 7068SOL    HW232667   2.510   4.303   7.793  1.2904  2.9905 -0.0376
 7069SOL     OW32668   2.423   4.015  10.465 -0.1857 -0.6050 -0.3982
 7069SOL    HW132669   2.382   4.057  10.541  1.7492 -1.2452  1.0179
 7069SOL    HW232670   2.511   4.052  10.465 -0.3734 -0.1383  2.4061
 7070SOL     OW32671   2.296   1.777   2.624 -0.0164 -0.5372 -0.4693
 7070SOL    HW132672   2.272   1.863   2.659 -0.1191 -0.4859 -0.6646
 7070SOL    HW232673   2.218   1.727   2.650  0.3549  0.0377  1.7668
 7071SOL     OW32674   1.397   4.303  17.679  0.7821  0.2931  0.0861
 7071SOL    HW132675   1.456   4.378  17.674 -0.5128  1.4741  2.4322
 7071SOL    HW232676   1.437   4.237  17.622  0.8452 -1.0869  1.7413
 7072SOL     OW32677   3.603   2.606   9.657 -0.0860  0.5172  0.1155
 7072SOL    HW132678   3.519   2.560   9.663  1.4781 -2.6483 -2.1288
 7072SOL    HW232679   3.662   2.533   9.638  0.0098  0.9449 -1.2468
 7073SOL     OW32680   2.132   1.322  13.185  0.1190 -0.7067 -0.3771
 7073SOL    HW132681   2.205   1.269  13.217 -0.5580 -1.3238  0.1624
 7073SOL    HW232682   2.076   1.249  13.158 -1.3115  0.4025 -0.4548
 7074SOL     OW32683   0.774   2.585  16.266 -0.3768  0.2797 -0.0799
 7074SOL    HW132684   0.837   2.645  16.226 -1.5119  2.8777  1.9660
 7074SOL    HW232685   0.792   2.584  16.360 -0.6318 -1.0659 -0.0455
 7075SOL     OW32686   2.285   1.643   3.085 -0.5345 -0.6364 -0.1504
 7075SOL    HW132687   2.325   1.623   3.170 -0.2806  0.3235 -0.0425
 7075SOL    HW232688   2.349   1.615   3.019  2.1187  3.0486  0.8706
 7076SOL     OW32689   0.912   0.592   4.212  0.5115  0.2329  0.7830
 7076SOL    HW132690   0.892   0.623   4.124 -0.2018  0.1188  0.9022
 7076SOL    HW232691   0.885   0.667   4.265 -0.7894 -0.3928  1.0067
 7077SOL     OW32692   3.944   3.810   5.090  0.2941 -0.0536  0.0401
 7077SOL    HW132693   4.029   3.800   5.133 -1.1623 -1.4244  2.5620
 7077SOL    HW232694   3.961   3.753   5.016  1.6213  0.2943  0.0832
 7078SOL     OW32695   4.441   2.550   8.282  0.3686  0.2148  0.2908
 7078SOL    HW132696   4.374   2.538   8.349  1.1704 -1.7484  0.7512
 7078SOL    HW232697   4.506   2.489   8.318  1.5410  0.1814 -1.8845
 7079SOL     OW32698   0.638   3.467   3.369  0.3398 -0.0140  0.0618
 7079SOL    HW132699   0.543   3.473   3.370  0.3562  0.1347  0.9074
 7079SOL    HW232700   0.655   3.408   3.296 -2.1420 -1.7369  0.8895
 7080SOL     OW32701   3.156   4.329   6.386 -0.1463  0.0885 -0.2677
 7080SOL    HW132702   3.105   4.303   6.463 -1.0422  1.3612 -0.4271
 7080SOL    HW232703   3.139   4.265   6.317  0.7216 -0.0056 -0.3948
 7081SOL     OW32704   4.711   1.250   5.544 -0.2246  0.4613  0.4120
 7081SOL    HW132705   4.663   1.208   5.614 -0.0114 -1.5064 -0.6263
 7081SOL    HW232706   0.043   1.179   5.513 -0.8388 -0.0801  0.5343
 7082SOL     OW32707   2.913   4.354   8.964 -0.4894 -1.0041  0.2510
 7082SOL    HW132708   2.923   4.335   8.871  1.5531 -2.5493  0.7764
 7082SOL    HW232709   2.938   4.270   9.004  1.7843  0.3563  1.6645
 7083SOL     OW32710   3.612   2.774   7.624 -0.1749  0.2473 -0.2529
 7083SOL    HW132711   3.626   2.682   7.605  1.0858  0.0874  1.4645
 7083SOL    HW232712   3.599   2.803   7.533  0.5792 -0.9030 -0.7296
 7084SOL     OW32713   2.828   4.588   7.078 -0.3631  0.2881  0.1945
 7084SOL    HW132714   2.774   4.550   7.147 -1.1665 -0.0830 -0.6416
 7084SOL    HW232715   2.903   4.531   7.098  1.1988  2.8491  1.5341
 7085SOL     OW32716   0.810   1.196   0.095  0.4962  0.2134  0.0721
 7085SOL    HW132717   0.776   1.109   0.074  1.4316 -0.1367 -0.0100
 7085SOL    HW232718   0.753   1.257   0.049  0.1098  0.5619  1.0288
 7086SOL     OW32719   3.854   3.517   6.231 -0.5534  0.3546  0.0083
 7086SOL    HW132720   3.946   3.491   6.237 -1.1057 -0.9741  2.2977
 7086SOL    HW232721   3.826   3.567   6.307  0.5094 -2.3651  2.1672
 7087SOL     OW32722   1.535   2.385   3.592 -0.1616  0.2074  0.0757
 7087SOL    HW132723   1.539   2.455   3.527 -0.4625  0.2824  0.1385
 7087SOL    HW232724   1.446   2.366   3.620  0.5056 -3.5613 -0.2983
 7088SOL     OW32725   2.681   0.340   2.152  0.5003 -0.4171 -0.0941
 7088SOL    HW132726   2.682   0.436   2.149  0.1860 -0.3626  1.7262
 7088SOL    HW232727   2.728   0.329   2.235  1.4904 -0.8162 -0.7059
 7089SOL     OW32728   1.946   3.161   7.170 -0.6892  0.3233  0.3148
 7089SOL    HW132729   1.947   3.070   7.139 -1.1119  0.5575 -0.3639
 7089SOL    HW232730   1.923   3.222   7.101  1.2084  0.9332  0.2160
 7090SOL     OW32731   0.753   1.861   4.981 -0.2026  0.3403 -0.0452
 7090SOL    HW132732   0.695   1.814   5.041  2.7414 -0.2901  2.3166
 7090SOL    HW232733   0.693   1.923   4.940 -0.1884  0.5854  0.3107
 7091SOL     OW32734   0.563   0.020  17.355  0.4581  0.2836 -0.1783
 7091SOL    HW132735   0.567   0.097  17.299  2.0485 -1.6571 -2.7769
 7091SOL    HW232736   0.524   4.676  17.300  1.0980  0.4947 -0.9005
 7092SOL     OW32737   4.465   0.749   8.120  0.1652 -0.1953  0.2816
 7092SOL    HW132738   4.523   0.787   8.054  1.3840  0.8511  1.9445
 7092SOL    HW232739   4.450   0.663   8.081 -1.9891  0.6990 -0.8057
 7093SOL     OW32740   0.963   4.120   6.474  0.1707 -0.0789 -0.0305
 7093SOL    HW132741   0.878   4.122   6.516  0.5990  0.5230  0.8073
 7093SOL    HW232742   0.969   4.210   6.442  0.3297 -0.6801 -1.6869
 7094SOL     OW32743   0.558   1.479   7.221  1.0522 -0.3187  0.0007
 7094SOL    HW132744   0.604   1.529   7.153  0.4456  0.5946  0.2507
 7094SOL    HW232745   0.535   1.542   7.290  0.3612 -0.3633 -0.1900
 7095SOL     OW32746   3.735   4.685   1.960  0.2131  0.1893  0.3547
 7095SOL    HW132747   3.659   0.016   1.943 -0.9737 -1.4462  0.2968
 7095SOL    HW232748   3.692   4.613   2.006 -1.8919  0.9842 -0.3779
 7096SOL     OW32749   4.176   0.918  16.967 -0.3138 -0.4060  0.7476
 7096SOL    HW132750   4.162   0.972  16.890  0.2504 -3.0928 -1.2456
 7096SOL    HW232751   4.133   0.836  16.943 -2.8540  0.9687  0.6907
 7097SOL     OW32752   1.675   3.323   6.468  0.0632  0.0344 -0.3673
 7097SOL    HW132753   1.593   3.363   6.498  0.1094  1.6534 -2.3526
 7097SOL    HW232754   1.730   3.311   6.546  0.3777  2.2160 -0.2321
 7098SOL     OW32755   1.543   2.447   4.977 -1.0571  0.0095  0.2187
 7098SOL    HW132756   1.464   2.398   4.997 -1.1165  0.3906  0.8771
 7098SOL    HW232757   1.530   2.529   5.023  3.1101  0.7114  0.1712
 7099SOL     OW32758   3.378   2.170   3.628 -0.4860  0.5823  0.5260
 7099SOL    HW132759   3.430   2.194   3.705 -0.0867  1.8088 -0.1235
 7099SOL    HW232760   3.303   2.141   3.680  0.9250 -0.6946  1.8499
 7100SOL     OW32761   3.045   4.194   5.316  0.3108  0.0663  0.3850
 7100SOL    HW132762   3.131   4.176   5.352  0.8134  4.4833  1.3644
 7100SOL    HW232763   2.995   4.113   5.329  0.8992 -0.6013 -1.4879
 7101SOL     OW32764   2.076   3.367  14.954 -0.4747 -0.2724  0.0164
 7101SOL    HW132765   2.121   3.404  15.030  1.4689  0.9442 -1.7084
 7101SOL    HW232766   1.998   3.422  14.948 -1.6444 -1.7679  1.4668
 7102SOL     OW32767   3.090   4.017   8.174 -0.3198  0.4274  0.3671
 7102SOL    HW132768   3.142   4.085   8.132  3.1315 -2.2950  0.1539
 7102SOL    HW232769   3.137   3.944   8.133  2.9080  2.9150 -0.3389
 7103SOL     OW32770   2.988   3.916  13.866  0.2664  0.3470  0.1432
 7103SOL    HW132771   3.066   3.899  13.812 -0.5256  0.8551 -1.1583
 7103SOL    HW232772   3.019   3.886  13.951 -1.5649 -0.4977  0.4936
 7104SOL     OW32773   0.106   3.008   1.282 -0.3302  0.8751  0.3164
 7104SOL    HW132774   0.161   3.080   1.312  1.2940 -0.1185 -0.2996
 7104SOL    HW232775   0.172   2.949   1.247 -2.9028 -1.5720 -0.3891
 7105SOL     OW32776   3.115   3.144   8.273  0.1566 -0.4996 -0.0786
 7105SOL    HW132777   3.112   3.125   8.366  2.3851  2.1536  0.5365
 7105SOL    HW232778   3.193   3.200   8.270 -1.9142  2.3491 -1.0432
 7106SOL     OW32779   4.582   0.290   2.543 -0.5586  0.2244  0.4084
 7106SOL    HW132780   4.579   0.360   2.478  0.5876  1.4289  1.6435
 7106SOL    HW232781   4.635   0.225   2.496  1.6978  1.1491  1.6740
 7107SOL     OW32782   3.840   1.398  11.745  0.2631  0.6708 -0.1195
 7107SOL    HW132783   3.757   1.433  11.715  0.5113 -0.1327 -1.7264
 7107SOL    HW232784   3.881   1.372  11.663 -0.1621 -2.1152  0.5312
 7108SOL     OW32785   0.555   3.417   6.024  0.3012 -0.5355 -0.2355
 7108SOL    HW132786   0.535   3.325   6.009 -0.5330 -0.6565  1.6211
 7108SOL    HW232787   0.464   3.447   6.036  0.8756  0.5022  1.4979
 7109SOL     OW32788   1.362   3.362  17.474  0.0201  0.6642  0.1386
 7109SOL    HW132789   1.374   3.455  17.456  0.6923  0.5686  0.0960
 7109SOL    HW232790   1.343   3.368  17.567 -1.6295 -1.1596 -0.0672
 7110SOL     OW32791   4.393   2.579   1.250 -0.2209 -0.7889  0.0242
 7110SOL    HW132792   4.350   2.662   1.229 -0.7336 -1.4887 -1.6719
 7110SOL    HW232793   4.480   2.596   1.213  0.7063  0.5920  2.8145
 7111SOL     OW32794   3.515   4.427  12.700  0.1030  0.6187  0.0881
 7111SOL    HW132795   3.534   4.406  12.791 -0.4316  0.2935  0.1206
 7111SOL    HW232796   3.544   4.350  12.652  1.3699  0.2095  1.5234
 7112SOL     OW32797   2.272   2.453   2.883  0.0043 -0.5090  0.0645
 7112SOL    HW132798   2.179   2.445   2.866 -0.1516  1.1610  0.1338
 7112SOL    HW232799   2.305   2.371   2.845  0.8525  0.2015 -0.7420
 7113SOL     OW32800   0.763   3.573   5.006 -0.5059  0.4000 -0.0205
 7113SOL    HW132801   0.833   3.627   5.043 -0.9028  1.6195 -1.0614
 7113SOL    HW232802   0.806   3.489   4.991 -1.0110  0.0710  0.3313
 7114SOL     OW32803   2.038   3.691   5.926 -0.1802  0.0545 -0.5936
 7114SOL    HW132804   1.954   3.677   5.882  0.1799 -0.4707 -1.1181
 7114SOL    HW232805   2.014   3.655   6.012  0.1775  2.6752  0.5901
 7115SOL     OW32806   0.858   3.006   8.382  0.6363 -0.6803  0.2839
 7115SOL    HW132807   0.768   2.980   8.399  1.0604 -1.3379  1.4961
 7115SOL    HW232808   0.880   3.081   8.437 -1.1269  0.7427 -0.9629
 7116SOL     OW32809   0.383   4.310   8.157 -0.1450  0.8632  0.2946
 7116SOL    HW132810   0.321   4.249   8.118  0.9393 -0.6222  0.9307
 7116SOL    HW232811   0.461   4.259   8.137  2.0344  3.8561  1.1154
 7117SOL     OW32812   1.117   3.489  13.401 -0.0045  0.0040  0.3377
 7117SOL    HW132813   1.150   3.410  13.442  1.1820 -0.2333 -1.0734
 7117SOL    HW232814   1.046   3.528  13.453 -0.0599 -0.8958  0.9371
 7118SOL     OW32815   2.729   1.200  10.879 -0.0064  0.7629 -0.1168
 7118SOL    HW132816   2.808   1.167  10.922 -0.0490 -0.6163 -1.1116
 7118SOL    HW232817   2.670   1.125  10.872  1.5578 -0.2631 -2.2917
 7119SOL     OW32818   1.424   3.428  11.377 -0.1327 -0.1690  0.3739
 7119SOL    HW132819   1.365   3.471  11.316  0.8621 -1.3467 -1.4115
 7119SOL    HW232820   1.415   3.470  11.463 -2.2696 -0.9645  0.5432
 7120SOL     OW32821   4.637   1.562   7.958  0.2981  0.5302 -0.2668
 7120SOL    HW132822   4.608   1.628   7.894  0.4244  0.0103 -0.8666
 7120SOL    HW232823   4.604   1.601   8.039 -1.0230  0.3500 -0.7205
 7121SOL     OW32824   2.912   2.047   6.527 -0.0127  0.1841 -0.0029
 7121SOL    HW132825   2.939   2.078   6.441 -0.0733 -2.3211 -0.9083
 7121SOL    HW232826   2.860   2.119   6.563 -0.1225 -1.1213  2.4688
 7122SOL     OW32827   4.681   1.884   4.726  0.1394 -0.3772 -0.0304
 7122SOL    HW132828   0.024   1.890   4.794 -0.0049 -1.0711  0.1813
 7122SOL    HW232829   0.003   1.838   4.655 -0.9976  0.1159 -1.0904
 7123SOL     OW32830   1.306   0.756   6.003  0.2463 -0.1061  0.4436
 7123SOL    HW132831   1.381   0.805   6.036  1.9275 -1.9252 -0.6181
 7123SOL    HW232832   1.326   0.665   6.026 -1.4120 -0.8160 -0.8593
 7124SOL     OW32833   1.635   0.503   9.366 -0.1194  0.0013 -0.6588
 7124SOL    HW132834   1.650   0.591   9.332  1.6059 -0.3773 -0.8723
 7124SOL    HW232835   1.716   0.491   9.416  0.0726 -1.6944 -1.3869
 7125SOL     OW32836   2.833   4.175   9.393 -0.1410 -0.3274 -0.4917
 7125SOL    HW132837   2.925   4.201   9.395 -0.4237  0.8042 -2.3884
 7125SOL    HW232838   2.801   4.207   9.477  2.9120  3.0568 -0.6425
 7126SOL     OW32839   4.630   2.844   6.284 -0.0130 -0.5594 -0.4478
 7126SOL    HW132840   4.707   2.892   6.314  1.8621 -3.7344 -0.1567
 7126SOL    HW232841   4.660   2.753   6.281  1.0453 -0.2458  0.4357
 7127SOL     OW32842   1.971   0.413   5.300 -0.3588 -0.4742  0.3827
 7127SOL    HW132843   2.001   0.501   5.325 -0.8864  0.2250 -1.4740
 7127SOL    HW232844   1.972   0.436   5.207 -1.2404  0.5313  0.6220
 7128SOL     OW32845   0.319   2.489   3.129 -0.0831 -0.4177  0.3320
 7128SOL    HW132846   0.358   2.461   3.046 -1.2121  0.1676 -0.3911
 7128SOL    HW232847   0.401   2.488   3.179  1.1736  0.0127 -1.7300
 7129SOL     OW32848   2.665   1.024  15.628 -0.0161 -0.4095  0.0631
 7129SOL    HW132849   2.705   1.101  15.588  1.3080 -0.4225  1.3224
 7129SOL    HW232850   2.689   1.039  15.720 -0.6582  2.1269 -0.2077
 7130SOL     OW32851   3.726   2.413   4.571  0.2698 -0.0153  0.5800
 7130SOL    HW132852   3.770   2.475   4.629 -1.8450  0.2654  1.8629
 7130SOL    HW232853   3.665   2.479   4.540 -0.1910 -0.5700  0.3033
 7131SOL     OW32854   4.386   4.330   4.428  0.7324 -0.1016  0.1730
 7131SOL    HW132855   4.318   4.373   4.479  0.1378  0.2985 -0.9627
 7131SOL    HW232856   4.381   4.236   4.448  2.9734 -0.0723  0.8169
 7132SOL     OW32857   4.374   0.477   1.403  0.0872 -0.6436  0.5001
 7132SOL    HW132858   4.421   0.439   1.328 -1.1230  0.9887 -1.0920
 7132SOL    HW232859   4.318   0.402   1.422 -0.1531 -0.4280  0.6389
 7133SOL     OW32860   1.203   2.482   7.380  0.2584  0.3713 -0.2836
 7133SOL    HW132861   1.233   2.568   7.350  2.2358 -0.8296 -1.7522
 7133SOL    HW232862   1.142   2.502   7.450  1.0780  1.7750  0.0330
 7134SOL     OW32863   4.350   0.281   0.877  0.2224 -0.6269 -0.1995
 7134SOL    HW132864   4.313   0.335   0.807  1.5087  1.9524  1.1295
 7134SOL    HW232865   4.350   0.201   0.823  0.1059 -0.0398 -1.0735
 7135SOL     OW32866   3.556   1.593   1.836 -0.6018  0.0276 -0.4061
 7135SOL    HW132867   3.466   1.612   1.808 -0.8586 -1.9749 -0.9318
 7135SOL    HW232868   3.597   1.554   1.758 -0.1343 -1.9707  0.8520
 7136SOL     OW32869   3.964   2.049   6.502 -0.2754 -0.0315  0.0763
 7136SOL    HW132870   3.874   2.049   6.471  0.6569 -0.5539 -2.6628
 7136SOL    HW232871   3.967   2.108   6.577  1.4906  0.2233 -0.1991
 7137SOL     OW32872   0.409   0.490   3.719  0.6335 -0.0122  0.2392
 7137SOL    HW132873   0.333   0.448   3.678  0.0717  0.9643  0.2923
 7137SOL    HW232874   0.378   0.515   3.806  0.8009 -0.0348  0.3050
 7138SOL     OW32875   1.463   3.451   7.526 -0.1351 -0.6884  0.4966
 7138SOL    HW132876   1.376   3.466   7.563 -0.4093  1.1900 -0.9334
 7138SOL    HW232877   1.513   3.508   7.585 -0.2125  0.0935 -0.2016
 7139SOL     OW32878   2.651   0.390   6.375  0.1446  0.4311  0.0379
 7139SOL    HW132879   2.648   0.486   6.379  0.7752  0.4163  1.0503
 7139SOL    HW232880   2.573   0.371   6.428 -1.8344 -0.2161 -3.1645
 7140SOL     OW32881   0.108   3.915   3.044  0.0686 -0.0837 -0.1046
 7140SOL    HW132882   0.074   3.905   3.133  0.9151  1.2599  0.3755
 7140SOL    HW232883   0.094   4.010   3.037  1.8103  0.1551 -0.2081
 7141SOL     OW32884   1.596   0.734   7.016  0.6082  0.2663 -0.0885
 7141SOL    HW132885   1.536   0.733   7.091 -0.1151 -1.4203 -0.7037
 7141SOL    HW232886   1.586   0.820   6.974 -0.3547 -0.5725 -1.5642
 7142SOL     OW32887   0.740   1.806   5.634  0.2069  0.2760  0.6404
 7142SOL    HW132888   0.737   1.828   5.541  0.6711  1.1465  0.8381
 7142SOL    HW232889   0.672   1.738   5.635 -1.1850  1.6317 -3.4893
 7143SOL     OW32890   2.930   3.294   3.016 -0.5510  0.3746 -0.3235
 7143SOL    HW132891   2.834   3.294   3.018 -0.5184  0.7827  1.6193
 7143SOL    HW232892   2.950   3.376   2.972  2.3793 -0.3822 -0.3828
 7144SOL     OW32893   4.396   4.241   2.323 -0.3696 -0.1994  0.7548
 7144SOL    HW132894   4.459   4.300   2.364 -1.0850  1.0359  0.0933
 7144SOL    HW232895   4.330   4.245   2.391 -0.6705  0.0732  0.4495
 7145SOL     OW32896   2.294   1.072   0.008  0.1589  0.7815  0.5733
 7145SOL    HW132897   2.348   1.145   0.042 -1.1077  2.1986 -0.4891
 7145SOL    HW232898   2.263   1.024   0.085 -1.1030 -0.8530 -0.9901
 7146SOL     OW32899   4.307   2.645   1.513 -0.2028  0.0432  0.1082
 7146SOL    HW132900   4.381   2.665   1.570  1.7469  0.9348 -2.7277
 7146SOL    HW232901   4.352   2.595   1.445  1.0100 -0.2117  1.0889
 7147SOL     OW32902   1.654   2.203  13.705  0.1741 -0.4371  0.0323
 7147SOL    HW132903   1.625   2.262  13.774  2.9156  0.7035  0.2163
 7147SOL    HW232904   1.749   2.215  13.697  0.1142 -1.0977 -1.7277
 7148SOL     OW32905   1.804   2.837   6.885 -0.7660 -0.2323  0.1499
 7148SOL    HW132906   1.810   2.910   6.823  2.5511 -1.2153 -0.6857
 7148SOL    HW232907   1.708   2.827   6.888 -0.4066 -2.8322  3.4280
 7149SOL     OW32908   2.404   2.219   8.598 -0.2816  0.1799  0.4727
 7149SOL    HW132909   2.468   2.148   8.588 -1.3275 -0.8359  1.0705
 7149SOL    HW232910   2.357   2.189   8.676  3.0268 -2.0196  1.6126
 7150SOL     OW32911   2.232   1.431   7.288  0.0122 -0.4361  1.1188
 7150SOL    HW132912   2.223   1.499   7.221  1.7238 -1.1665  0.1334
 7150SOL    HW232913   2.214   1.474   7.371 -0.5673  3.0711 -0.8589
 7151SOL     OW32914   4.097   0.847  11.341  0.0084  0.0367  0.4836
 7151SOL    HW132915   4.008   0.857  11.375 -0.8138 -1.4987 -1.1407
 7151SOL    HW232916   4.133   0.931  11.366  1.4389 -0.5074  0.2327
 7152SOL     OW32917   2.692   1.650   8.534 -0.1666 -0.1270  0.1168
 7152SOL    HW132918   2.765   1.589   8.523  0.2188  0.1128  1.3145
 7152SOL    HW232919   2.622   1.624   8.474  0.6878 -0.2415 -0.8200
 7153SOL     OW32920   4.159   0.026  11.999  0.1427 -0.1698 -0.5851
 7153SOL    HW132921   4.168   0.030  11.904 -1.2167 -1.6585 -0.7714
 7153SOL    HW232922   4.186   4.661  12.020 -0.9316 -0.8582 -2.1370
 7154SOL     OW32923   4.420   4.633   8.623 -0.7032  0.1170 -1.0682
 7154SOL    HW132924   4.443   0.002   8.621  3.4932 -0.9421 -1.4881
 7154SOL    HW232925   4.493   4.602   8.675 -1.2950  0.2877 -0.1308
 7155SOL     OW32926   3.207   1.381  12.297  0.0625 -0.2955 -0.0179
 7155SOL    HW132927   3.235   1.292  12.277  0.6494  0.0452 -0.7264
 7155SOL    HW232928   3.269   1.400  12.368  0.3775 -1.0194 -0.1013
 7156SOL     OW32929   0.422   3.731   7.713 -0.3964  0.4245 -0.4509
 7156SOL    HW132930   0.405   3.823   7.733 -1.7617 -0.1030  0.8752
 7156SOL    HW232931   0.409   3.749   7.620 -1.4441  1.9802 -0.0030
 7157SOL     OW32932   3.044   3.914   3.086 -0.6159 -0.1175 -0.3043
 7157SOL    HW132933   3.134   3.887   3.101  0.7479  3.9426 -0.9421
 7157SOL    HW232934   3.021   3.949   3.172  0.5068  2.7087 -1.1226
 7158SOL     OW32935   2.972   1.608   3.170  0.2938 -0.1133  0.1971
 7158SOL    HW132936   2.952   1.700   3.189  0.6804 -0.1415  0.7272
 7158SOL    HW232937   2.965   1.580   3.261  2.4383  0.2356  0.4617
 7159SOL     OW32938   4.693   0.090   2.384  1.0554  0.7912 -0.4651
 7159SOL    HW132939   0.000   0.119   2.299  0.3241 -0.2801 -1.0985
 7159SOL    HW232940   4.598   0.083   2.377  0.9727  1.1587  0.2024
 7160SOL     OW32941   2.652   2.362   7.130  1.2219 -0.5601  0.0448
 7160SOL    HW132942   2.733   2.378   7.177  0.6499  0.1923  0.7626
 7160SOL    HW232943   2.673   2.408   7.048 -0.7902 -0.5555 -0.4671
 7161SOL     OW32944   2.262   1.367   7.896 -0.1111 -0.2358  0.6893
 7161SOL    HW132945   2.309   1.361   7.979  0.0494 -0.2235  0.6000
 7161SOL    HW232946   2.186   1.420   7.919  0.0638 -1.0695  3.1121
 7162SOL     OW32947   4.435   0.387  14.518  0.3987 -0.3976 -0.1527
 7162SOL    HW132948   4.389   0.461  14.477  0.3497 -0.1871  0.2832
 7162SOL    HW232949   4.415   0.388  14.612  1.6604  0.8687  0.1111
 7163SOL     OW32950   0.924   1.528  15.310  0.6447  0.4574  0.1773
 7163SOL    HW132951   0.998   1.580  15.342  1.2446 -1.2082  1.5166
 7163SOL    HW232952   0.939   1.461  15.377  0.7942 -0.1048 -0.4143
 7164SOL     OW32953   1.084   2.429   3.538  0.1399  0.4254 -0.4251
 7164SOL    HW132954   1.058   2.503   3.593  1.9678  0.1867  0.7408
 7164SOL    HW232955   1.160   2.458   3.486 -0.4491 -0.0924 -1.5747
 7165SOL     OW32956   0.481   2.792   2.577  0.5159  0.2891  0.7118
 7165SOL    HW132957   0.411   2.852   2.603 -1.8922 -1.6615 -1.2332
 7165SOL    HW232958   0.519   2.838   2.503  2.4369 -1.9019  0.3192
 7166SOL     OW32959   0.322   3.511   0.250  0.0248 -0.2643  0.2887
 7166SOL    HW132960   0.377   3.438   0.278 -0.8907 -1.0022  0.1488
 7166SOL    HW232961   0.267   3.469   0.184 -1.4933 -1.2287  2.1738
 7167SOL     OW32962   1.064   0.828  17.682 -0.4970  0.3637  0.4838
 7167SOL    HW132963   0.999   0.759  17.680 -2.5163  2.3009 -0.5950
 7167SOL    HW232964   1.108   0.810  17.599 -2.9014  0.0707 -0.7193
 7168SOL     OW32965   0.021   3.775   7.376 -0.0286 -0.2163 -0.3050
 7168SOL    HW132966   0.114   3.754   7.386  0.1547  0.3278 -0.8701
 7168SOL    HW232967   0.026   3.869   7.354  2.2349 -0.5546 -1.2338
 7169SOL     OW32968   1.059   1.329  17.214 -0.3990 -0.1691  0.1676
 7169SOL    HW132969   0.981   1.284  17.246  0.7568 -1.8693  0.5833
 7169SOL    HW232970   1.085   1.349  17.304  1.2868 -2.4511  0.1875
 7170SOL     OW32971   2.760   3.631  14.087 -0.1877 -0.3045 -0.0023
 7170SOL    HW132972   2.757   3.538  14.068  0.0758 -0.0058 -1.5977
 7170SOL    HW232973   2.803   3.642  14.172 -0.3476 -0.2148  0.0676
 7171SOL     OW32974   3.077   0.355   2.244  0.1329 -0.3204  0.0757
 7171SOL    HW132975   3.051   0.327   2.332 -1.9194 -1.4391 -0.8929
 7171SOL    HW232976   3.171   0.372   2.250 -0.1916  1.5415 -0.0570
 7172SOL     OW32977   4.694   3.089   4.371  0.4435 -0.0119  0.4462
 7172SOL    HW132978   0.059   3.092   4.338  1.3404  0.3191  2.8810
 7172SOL    HW232979   4.648   3.100   4.288  0.0148 -0.1310  0.6690
 7173SOL     OW32980   0.919   1.141   9.200 -0.2189  0.6449  0.6530
 7173SOL    HW132981   0.955   1.120   9.287  2.8179  1.7236 -0.3276
 7173SOL    HW232982   0.976   1.217   9.192  2.1580 -1.4576 -2.1567
 7174SOL     OW32983   3.829   1.392  14.688  0.0785 -0.0556  0.0067
 7174SOL    HW132984   3.916   1.413  14.653 -0.1562  0.3271 -0.3460
 7174SOL    HW232985   3.835   1.436  14.772  1.3386 -1.6323  0.7478
 7175SOL     OW32986   3.848   2.573   4.765  0.4495  0.4573 -0.1485
 7175SOL    HW132987   3.841   2.668   4.752  3.3250  0.4160 -1.8539
 7175SOL    HW232988   3.932   2.575   4.811  0.2649 -1.9434  0.2870
 7176SOL     OW32989   4.651   1.603   3.816  0.4375 -0.0784  0.6284
 7176SOL    HW132990   4.661   1.519   3.860 -1.2881 -0.8279 -0.4358
 7176SOL    HW232991   4.562   1.584   3.788  0.3941 -0.3693  0.9705
 7177SOL     OW32992   1.188   4.564  16.346 -0.0164  0.2572 -0.4836
 7177SOL    HW132993   1.230   4.508  16.281 -0.0374 -0.9718  0.5405
 7177SOL    HW232994   1.188   4.648  16.301  1.5384  0.6392  0.2244
 7178SOL     OW32995   1.552   0.649   1.723 -0.5808 -0.0485 -0.2367
 7178SOL    HW132996   1.616   0.693   1.779  1.8085 -0.7436 -2.4142
 7178SOL    HW232997   1.483   0.621   1.783  0.4040 -0.4890  0.6777
 7179SOL     OW32998   4.618   2.125  16.978 -0.5644  0.1481 -0.5916
 7179SOL    HW132999   4.608   2.205  17.029 -1.3541  1.7266 -3.2243
 7179SOL    HW233000   4.533   2.085  16.995 -1.3400  0.5179 -3.6403
 7180SOL     OW33001   2.694   1.980   7.551  0.0848 -0.2975  0.5764
 7180SOL    HW133002   2.772   1.951   7.504 -0.9497  0.2298 -1.4812
 7180SOL    HW233003   2.618   1.958   7.497 -0.0175  0.8778  0.2400
 7181SOL     OW33004   4.567   3.277   2.815  0.8100  0.2319  0.0994
 7181SOL    HW133005   4.530   3.194   2.843 -0.6168  0.4714 -1.0770
 7181SOL    HW233006   4.508   3.299   2.743  2.2556 -2.1030 -1.7884
 7182SOL     OW33007   1.225   3.688   6.223 -0.2894  0.1257 -0.0448
 7182SOL    HW133008   1.187   3.621   6.167  1.6793 -0.0846 -1.1195
 7182SOL    HW233009   1.262   3.736   6.149 -1.5181  2.5869  0.9252
 7183SOL     OW33010   3.293   0.375   6.955 -0.4070  0.5609 -0.0074
 7183SOL    HW133011   3.346   0.315   7.008 -0.3264  1.1285  0.5445
 7183SOL    HW233012   3.307   0.459   6.997 -1.4884  0.4003  0.6788
 7184SOL     OW33013   1.724   3.324  14.924 -0.2555  0.6696  0.9283
 7184SOL    HW133014   1.763   3.396  14.875 -0.6793  0.3168  0.0590
 7184SOL    HW233015   1.725   3.368  15.009  0.9488  1.2300  0.6205
 7185SOL     OW33016   0.640   0.303  16.166 -0.4767  0.1015 -0.7205
 7185SOL    HW133017   0.574   0.306  16.235  2.7974  0.5179  2.3928
 7185SOL    HW233018   0.574   0.291  16.098 -0.3990  0.8602 -0.9279
 7186SOL     OW33019   4.589   0.895   3.732  0.6258  0.1436  0.3232
 7186SOL    HW133020   4.557   0.805   3.732  0.9037  0.0289 -1.3851
 7186SOL    HW233021   4.511   0.947   3.750 -1.1060 -2.1357 -0.5731
 7187SOL     OW33022   1.840   4.407   8.891  0.2929 -0.2505  0.1911
 7187SOL    HW133023   1.747   4.428   8.886  0.5913  1.2445  0.9239
 7187SOL    HW233024   1.874   4.412   8.801 -1.3189  0.5320 -0.3786
 7188SOL     OW33025   2.355   2.272  16.644  0.6226  0.1704 -0.2210
 7188SOL    HW133026   2.366   2.354  16.596  1.2130  0.2053 -0.0332
 7188SOL    HW233027   2.324   2.218  16.572 -0.9256 -1.0396  1.3677
 7189SOL     OW33028   1.127   4.256   3.703 -0.1636  0.1257  0.4729
 7189SOL    HW133029   1.158   4.219   3.785  0.6729  0.4832  0.3212
 7189SOL    HW233030   1.204   4.304   3.670 -0.5913  0.1339 -0.5075
 7190SOL     OW33031   4.150   0.928   4.349  0.1944  0.1745 -0.4455
 7190SOL    HW133032   4.238   0.966   4.349  0.5086 -0.6064 -2.8089
 7190SOL    HW233033   4.126   0.976   4.271 -0.3062  0.2878 -0.2232
 7191SOL     OW33034   1.860   2.828   8.659  0.3265  0.1574  0.2611
 7191SOL    HW133035   1.908   2.746   8.668 -0.6881 -0.3780  0.8224
 7191SOL    HW233036   1.916   2.893   8.701 -0.3467  1.2635 -0.5558
 7192SOL     OW33037   3.008   4.698  13.875  0.1343 -0.2875  0.3863
 7192SOL    HW133038   3.083   4.697  13.815  1.8020 -0.2680  2.4848
 7192SOL    HW233039   2.934   4.707  13.814 -0.1762 -2.8868  0.3846
 7193SOL     OW33040   0.133   0.291  16.454 -0.1656  0.2235 -0.0780
 7193SOL    HW133041   0.080   0.346  16.397 -0.0683  1.1372  0.7091
 7193SOL    HW233042   0.156   0.344  16.531 -0.4118  1.7877 -1.0793
 7194SOL     OW33043   0.327   0.222   7.995  0.9016  0.1955  0.3278
 7194SOL    HW133044   0.390   0.280   7.954  0.8599  0.7792  1.1046
 7194SOL    HW233045   0.257   0.284   8.016  1.7088  0.9218  0.8441
 7195SOL     OW33046   4.012   3.868   5.724  0.2617 -0.0921 -0.5084
 7195SOL    HW133047   4.025   3.870   5.629 -2.3479  0.0455 -0.8667
 7195SOL    HW233048   3.938   3.927   5.737  0.4741 -0.0295  0.4396
 7196SOL     OW33049   0.254   1.523  11.299  0.2480  0.3082 -0.5710
 7196SOL    HW133050   0.276   1.464  11.227 -0.9983 -0.3350 -0.4231
 7196SOL    HW233051   0.203   1.468  11.359  0.8065 -0.0466 -0.4264
 7197SOL     OW33052   0.439   1.147   7.988 -0.2460 -0.0070 -0.2108
 7197SOL    HW133053   0.429   1.148   8.083 -2.6927 -0.6503 -0.4691
 7197SOL    HW233054   0.515   1.206   7.987  0.4234 -0.8461  1.0609
 7198SOL     OW33055   2.426   1.001   2.472 -0.4685  0.1900 -0.5024
 7198SOL    HW133056   2.439   1.094   2.488  2.6995 -0.2336 -0.5269
 7198SOL    HW233057   2.511   0.975   2.507 -1.6803 -0.8662  1.6869
 7199SOL     OW33058   0.479   0.956   1.136  0.2719  0.2871  0.5268
 7199SOL    HW133059   0.514   0.946   1.224  1.0235 -1.8595 -0.0216
 7199SOL    HW233060   0.393   0.995   1.153  0.7265  1.0321  1.1206
 7200SOL     OW33061   0.372   1.704   4.546  0.3096  0.3429 -0.1653
 7200SOL    HW133062   0.318   1.760   4.491  1.3895  1.0458 -0.5154
 7200SOL    HW233063   0.450   1.697   4.491 -0.0843 -2.0721 -0.4127
 7201SOL     OW33064   1.097   3.689   3.235 -0.4005  0.3061 -0.0622
 7201SOL    HW133065   1.051   3.684   3.319 -3.5712  1.6657 -1.7194
 7201SOL    HW233066   1.149   3.768   3.246  2.7841 -1.5594 -1.7601
 7202SOL     OW33067   2.182   0.358  11.997  0.0330  0.3530 -0.1562
 7202SOL    HW133068   2.256   0.404  12.036  0.9232 -0.6354 -0.6771
 7202SOL    HW233069   2.114   0.385  12.059 -2.4112 -2.7762 -1.4421
 7203SOL     OW33070   1.996   1.380  12.933 -0.2463  0.4937 -0.2571
 7203SOL    HW133071   1.924   1.326  12.965 -0.4141  0.6894 -0.3103
 7203SOL    HW233072   2.051   1.356  13.009  0.2826  2.5027 -0.0020
 7204SOL     OW33073   0.516   1.906  10.253  0.4726 -0.1092 -0.2863
 7204SOL    HW133074   0.439   1.962  10.258  1.9496  1.5602  3.0716
 7204SOL    HW233075   0.523   1.885  10.346  1.4141 -0.3855 -0.4179
 7205SOL     OW33076   0.418   0.866   5.263 -0.5774 -0.2003  0.0754
 7205SOL    HW133077   0.407   0.877   5.357 -0.0393 -0.3418  0.1552
 7205SOL    HW233078   0.379   0.943   5.222  1.3647  1.0681  0.6284
 7206SOL     OW33079   4.362   4.567  16.520 -0.2874 -0.7223  0.2402
 7206SOL    HW133080   4.398   4.573  16.432 -0.5165 -0.1032  0.1880
 7206SOL    HW233081   4.336   4.475  16.520 -1.0449 -0.5044  0.9882
 7207SOL     OW33082   2.100   4.584  14.293 -0.2762  0.5705 -0.1239
 7207SOL    HW133083   2.071   4.661  14.343  3.1257  2.1906 -0.6595
 7207SOL    HW233084   2.154   4.621  14.223  1.7405 -2.6621 -0.2676
 7208SOL     OW33085   1.944   3.091  13.867 -0.0680 -0.1344 -0.2137
 7208SOL    HW133086   2.027   3.096  13.914 -0.1352  1.3628 -0.2743
 7208SOL    HW233087   1.890   3.131  13.935  0.9931  0.9649 -0.0131
 7209SOL     OW33088   0.260   3.921  13.430 -0.0983 -0.1655  0.6465
 7209SOL    HW133089   0.217   3.991  13.479 -0.4001  0.0482  0.0716
 7209SOL    HW233090   0.252   3.948  13.339 -0.2073  1.4949  1.1384
 7210SOL     OW33091   1.078   2.729   4.225 -0.3690 -0.6018  0.0926
 7210SOL    HW133092   1.167   2.724   4.259  0.1169 -0.6331 -1.1866
 7210SOL    HW233093   1.051   2.820   4.237  1.3604 -0.1477  0.4797
 7211SOL     OW33094   3.777   1.398   1.082 -0.4452 -0.1890 -0.3686
 7211SOL    HW133095   3.847   1.429   1.023  1.0872  1.4037  2.2911
 7211SOL    HW233096   3.737   1.339   1.018  0.7485 -2.1413  0.7050
 7212SOL     OW33097   3.824   3.865   8.633  0.1308  0.2123  0.2662
 7212SOL    HW133098   3.811   3.774   8.660  1.4841  0.5120  1.8576
 7212SOL    HW233099   3.747   3.859   8.575  0.7478 -0.3172 -0.5064
 7213SOL     OW33100   3.523   2.333   8.599 -0.6055  0.2701 -0.4037
 7213SOL    HW133101   3.556   2.303   8.515  0.3820  1.2174 -0.3576
 7213SOL    HW233102   3.434   2.303   8.582  0.0467 -1.7074 -0.2434
 7214SOL     OW33103   2.486   0.371   7.285 -0.1306  0.1327  0.4325
 7214SOL    HW133104   2.423   0.411   7.346 -0.2306 -1.4087  1.3480
 7214SOL    HW233105   2.529   0.315   7.350 -0.5754  2.5823  2.8306
 7215SOL     OW33106   0.202   2.213   4.033 -0.5192  0.1535  0.3112
 7215SOL    HW133107   0.129   2.254   4.079 -0.8484  1.4851 -1.4037
 7215SOL    HW233108   0.213   2.274   3.960 -0.3112  1.1603  1.1856
 7216SOL     OW33109   3.963   2.526   3.749  0.2793 -0.2253  0.1676
 7216SOL    HW133110   4.023   2.571   3.808 -0.1549 -0.2575  0.6373
 7216SOL    HW233111   3.883   2.551   3.795 -0.0126  0.0401 -0.4949
 7217SOL     OW33112   2.098   0.300   4.989 -0.3054 -0.0410 -0.3863
 7217SOL    HW133113   2.137   0.387   4.986 -0.5140  0.0757  0.3644
 7217SOL    HW233114   2.168   0.237   4.970 -0.9443 -1.2268  1.2090
 7218SOL     OW33115   2.516   1.765  17.430  0.5779  0.3055 -0.2649
 7218SOL    HW133116   2.540   1.721  17.512 -0.8548 -0.0630 -0.0467
 7218SOL    HW233117   2.427   1.791  17.453  1.0110 -0.2827  2.0620
 7219SOL     OW33118   1.260   4.423  16.119 -0.5760  0.2793 -0.5225
 7219SOL    HW133119   1.200   4.369  16.068  0.3585 -1.6300  0.3696
 7219SOL    HW233120   1.342   4.373  16.115  0.8473  2.3824  2.3341
 7220SOL     OW33121   2.376   2.021   8.184  0.2208 -0.0403  0.0278
 7220SOL    HW133122   2.441   2.083   8.215  0.8110 -1.2131  1.1225
 7220SOL    HW233123   2.311   2.085   8.154 -1.0555 -0.8499  1.0310
 7221SOL     OW33124   1.747   3.922   9.477  0.6736  0.2187 -0.2726
 7221SOL    HW133125   1.672   3.964   9.518 -0.5177 -2.4168  0.1888
 7221SOL    HW233126   1.777   3.855   9.538 -0.3465 -0.0575 -0.0788
 7222SOL     OW33127   1.736   1.789  12.988  0.1206 -0.6799  0.7961
 7222SOL    HW133128   1.832   1.782  12.988  0.0913 -1.0808 -0.7466
 7222SOL    HW233129   1.712   1.800  13.080 -1.6239  0.1278  0.2471
 7223SOL     OW33130   3.104   4.220   0.936 -0.5866 -0.2978  0.3389
 7223SOL    HW133131   3.080   4.295   0.882  0.5128 -0.4665 -0.4004
 7223SOL    HW233132   3.093   4.145   0.878  1.6095 -1.2441  1.1329
 7224SOL     OW33133   4.039   2.222  10.679 -0.3660  0.1110  0.0778
 7224SOL    HW133134   4.049   2.307  10.722  2.0106 -0.0066 -0.2494
 7224SOL    HW233135   3.946   2.225  10.653 -0.3322  0.0923 -0.0454
 7225SOL     OW33136   4.581   4.645   6.134 -0.0054  0.2825 -0.4099
 7225SOL    HW133137   4.553   0.006   6.102 -1.1619 -0.2557 -0.8493
 7225SOL    HW233138   4.503   4.608   6.176 -1.0993 -0.5242 -3.1512
 7226SOL     OW33139   0.198   2.318   3.739  0.2719  0.2449  0.4370
 7226SOL    HW133140   0.156   2.232   3.737 -1.5915  1.1580  0.4839
 7226SOL    HW233141   0.213   2.323   3.645  0.4781 -0.9560  0.4070
 7227SOL     OW33142   0.997   4.632   4.774 -0.5887 -0.2279  0.3915
 7227SOL    HW133143   1.065   4.682   4.729 -0.9127  0.8556  1.1086
 7227SOL    HW233144   0.980   4.697   4.842  2.2231  0.0313  0.8350
 7228SOL     OW33145   3.362   0.729   6.135 -0.5260 -0.5237 -0.1085
 7228SOL    HW133146   3.422   0.654   6.131 -0.5504 -0.4655 -1.3609
 7228SOL    HW233147   3.309   0.716   6.057 -1.0711  0.3591  0.1084
 7229SOL     OW33148   4.463   2.703  13.059  0.4465 -0.1012  0.0852
 7229SOL    HW133149   4.408   2.781  13.060 -0.0170 -0.4251 -0.1021
 7229SOL    HW233150   4.417   2.657  12.989 -0.5180  0.8752  0.0717
 7230SOL     OW33151   1.953   2.868   7.108  0.2552 -0.3360 -0.8364
 7230SOL    HW133152   1.864   2.845   7.136 -0.5096 -0.5702 -3.4616
 7230SOL    HW233153   1.913   2.875   7.021 -1.5138  0.3434  0.0251
 7231SOL     OW33154   0.089   2.966   6.022 -0.6770 -0.0793  0.0488
 7231SOL    HW133155   0.134   3.019   5.956 -0.0078  0.4088  0.9049
 7231SOL    HW233156   4.722   2.994   6.020 -0.3394  1.0533  0.6739
 7232SOL     OW33157   1.559   1.067   7.161 -0.4363  0.2213 -0.3378
 7232SOL    HW133158   1.551   1.080   7.066 -0.5444  0.1679 -0.3366
 7232SOL    HW233159   1.475   1.025   7.179  0.2187  0.5014  3.2632
 7233SOL     OW33160   2.930   1.645   8.721  0.4733  0.3894 -0.3408
 7233SOL    HW133161   2.875   1.617   8.793  0.9793  0.2879  0.0079
 7233SOL    HW233162   2.930   1.570   8.662  0.1458  0.0095  0.1448
 7234SOL     OW33163   4.152   0.364  15.130 -0.1546  0.2145 -0.4523
 7234SOL    HW133164   4.093   0.343  15.203 -0.5294 -0.1278 -0.8522
 7234SOL    HW233165   4.164   0.276  15.094 -0.4335 -0.3425  0.7953
 7235SOL     OW33166   0.744   1.669   0.244  0.2349 -0.5805 -0.1514
 7235SOL    HW133167   0.810   1.642   0.179  0.3380  0.6595 -0.5561
 7235SOL    HW233168   0.710   1.582   0.266  0.1486 -0.1122  1.5403
 7236SOL     OW33169   0.196   4.189   2.570 -0.0768 -0.5990  0.3674
 7236SOL    HW133170   0.288   4.215   2.568 -0.1585 -0.3469 -0.1490
 7236SOL    HW233171   0.204   4.118   2.634 -2.4903 -1.7246 -0.5711
 7237SOL     OW33172   1.037   4.387   4.897  0.3287 -0.2517 -0.1123
 7237SOL    HW133173   1.045   4.324   4.825 -2.7802 -1.0341  0.2619
 7237SOL    HW233174   1.023   4.474   4.860 -0.1965 -0.4498 -0.3698
 7238SOL     OW33175   1.840   3.513  14.036 -0.4240  0.1409 -0.5329
 7238SOL    HW133176   1.815   3.569  14.110  0.6057  0.1409 -0.1796
 7238SOL    HW233177   1.908   3.573  14.007 -0.0522 -0.2844 -0.5421
 7239SOL     OW33178   0.055   3.835  16.603  1.0619  0.9130 -0.3183
 7239SOL    HW133179   0.138   3.830  16.650  1.1619  0.7192 -0.5160
 7239SOL    HW233180   4.719   3.855  16.675  0.8178 -0.0565 -0.2615
 7240SOL     OW33181   2.721   2.852   6.951  0.2949 -0.3085  0.9107
 7240SOL    HW133182   2.784   2.856   7.024 -0.7184 -2.5497  1.9050
 7240SOL    HW233183   2.643   2.820   6.996 -0.0442  1.4160  1.5542
 7241SOL     OW33184   1.158   1.311   4.688  0.6351  0.7973 -0.1084
 7241SOL    HW133185   1.162   1.324   4.594 -1.4734 -0.3872 -0.3465
 7241SOL    HW233186   1.103   1.387   4.707  0.8979  0.7986  0.6422
 7242SOL     OW33187   1.648   2.736  15.889  0.4523 -0.3475 -0.4434
 7242SOL    HW133188   1.592   2.811  15.906  0.3664 -0.3790 -0.5822
 7242SOL    HW233189   1.653   2.738  15.793  0.5556 -0.1049 -0.4340
 7243SOL     OW33190   1.396   0.010   1.180 -0.1751 -0.7382  0.2602
 7243SOL    HW133191   1.346   4.657   1.203  0.9201 -1.3916  0.4607
 7243SOL    HW233192   1.482   4.699   1.156 -0.6535 -0.8554 -1.2990
 7244SOL     OW33193   1.879   0.901   7.534  0.0937 -0.4590 -0.1804
 7244SOL    HW133194   1.831   0.982   7.518  0.7755 -0.2796 -1.2847
 7244SOL    HW233195   1.862   0.846   7.458 -2.3977  0.8755 -0.5814
 7245SOL     OW33196   2.154   2.558   4.288  0.2689 -0.5553  0.0434
 7245SOL    HW133197   2.154   2.649   4.255  1.4393 -0.4052  0.4700
 7245SOL    HW233198   2.068   2.545   4.328  0.1776  1.5987  0.5478
 7246SOL     OW33199   0.599   1.349  11.532 -0.2243 -0.1973  0.6451
 7246SOL    HW133200   0.518   1.303  11.552 -0.8010 -1.0475 -3.5703
 7246SOL    HW233201   0.646   1.304  11.461  0.3994  0.0630  0.8946
 7247SOL     OW33202   2.406   4.455   2.767  0.4795  0.0407  0.4134
 7247SOL    HW133203   2.377   4.541   2.737  0.8678 -0.6320 -1.9068
 7247SOL    HW233204   2.462   4.486   2.838  2.1138 -0.2920 -0.7412
 7248SOL     OW33205   1.601   3.971  10.473 -0.1501  0.5029 -0.8044
 7248SOL    HW133206   1.517   4.016  10.485 -1.0202 -1.3933  0.0961
 7248SOL    HW233207   1.632   4.018  10.396 -3.1472  2.9997 -0.5104
 7249SOL     OW33208   4.424   2.033   3.740 -0.0712  0.5758 -0.3267
 7249SOL    HW133209   4.412   2.113   3.690 -0.5879 -0.4701 -1.8864
 7249SOL    HW233210   4.475   1.975   3.682  1.4978  0.9726  0.6457
 7250SOL     OW33211   3.142   3.571   2.904  0.1716  0.3651  0.4926
 7250SOL    HW133212   3.098   3.616   2.832  0.6310 -0.9896 -0.6420
 7250SOL    HW233213   3.174   3.489   2.868  0.8498  0.6957  0.3474
 7251SOL     OW33214   4.161   0.700  17.516 -0.5178 -0.1568 -0.2917
 7251SOL    HW133215   4.135   0.612  17.544 -0.4488 -0.4546 -1.1715
 7251SOL    HW233216   4.250   0.706  17.552 -0.6688  0.2567  0.0005
 7252SOL     OW33217   1.015   4.456   6.626 -0.6787  0.2133 -0.1811
 7252SOL    HW133218   0.930   4.454   6.670  0.2452  0.0639  1.5655
 7252SOL    HW233219   1.076   4.427   6.694 -0.7482  2.6825  0.9383
 7253SOL     OW33220   4.516   4.659   0.798 -0.2220  0.5267 -0.8354
 7253SOL    HW133221   4.454   4.723   0.762 -1.9664  0.9802  3.0273
 7253SOL    HW233222   4.477   4.642   0.884  2.3780 -0.4526  0.1488
 7254SOL     OW33223   1.701   4.312  17.222 -0.0512  0.3413  0.5270
 7254SOL    HW133224   1.645   4.236  17.210  0.1233  0.2449  0.3271
 7254SOL    HW233225   1.639   4.373  17.261  0.7921  0.0008  2.4100
 7255SOL     OW33226   0.845   1.745   3.281  0.0854 -0.3350 -0.2904
 7255SOL    HW133227   0.768   1.791   3.314  0.2922 -0.9942  1.0993
 7255SOL    HW233228   0.905   1.820   3.291 -1.9538  1.4567 -1.3863
 7256SOL     OW33229   0.421   3.671  11.450 -0.1276  0.1760  0.2807
 7256SOL    HW133230   0.466   3.753  11.469 -0.2742  0.4682 -0.6278
 7256SOL    HW233231   0.343   3.692  11.398  0.3961 -1.3866 -1.1156
 7257SOL     OW33232   3.683   0.570   7.149  0.1299  0.1489  0.6261
 7257SOL    HW133233   3.714   0.482   7.127  0.8267  0.1529  1.6162
 7257SOL    HW233234   3.677   0.607   7.061  0.0164  0.2668  0.6831
 7258SOL     OW33235   0.089   4.223   3.045 -0.2179  0.3253  0.3210
 7258SOL    HW133236   0.125   4.278   2.976 -2.4024  1.6090  0.2023
 7258SOL    HW233237   0.140   4.243   3.124  0.3346  1.3013 -0.2948
 7259SOL     OW33238   4.576   2.786   9.023  0.2610 -0.0970 -0.1002
 7259SOL    HW133239   4.481   2.786   9.022  0.2385  1.3171  1.2666
 7259SOL    HW233240   4.595   2.864   9.076 -0.1584 -1.7165  2.4605
 7260SOL     OW33241   2.607   0.803  12.796 -0.0145 -0.0033  0.6486
 7260SOL    HW133242   2.549   0.878  12.811 -0.2494 -0.1931  0.7038
 7260SOL    HW233243   2.677   0.838  12.851  1.2362 -0.9705 -0.3384
 7261SOL     OW33244   2.492   1.983  13.188  0.2726 -0.0028 -0.0088
 7261SOL    HW133245   2.571   1.930  13.174 -1.1598 -2.3040  0.6411
 7261SOL    HW233246   2.422   1.920  13.204 -2.1099  2.0673 -2.4744
 7262SOL     OW33247   2.332   2.727   7.523  0.2562  0.0923 -0.8652
 7262SOL    HW133248   2.328   2.807   7.575  0.7548  0.3126 -1.1656
 7262SOL    HW233249   2.404   2.746   7.462 -0.6863  3.5822 -0.9105
 7263SOL     OW33250   3.024   0.869   1.377  0.0479 -0.3044 -0.2944
 7263SOL    HW133251   3.045   0.941   1.437 -0.7656  1.1440 -1.7505
 7263SOL    HW233252   3.051   0.904   1.292 -1.6707 -0.1257 -0.7732
 7264SOL     OW33253   1.121   3.591   2.996  0.1058 -0.2623 -0.1676
 7264SOL    HW133254   1.105   3.639   3.077 -0.1439 -0.1727 -0.2719
 7264SOL    HW233255   1.212   3.609   2.972 -0.7931  1.0221 -2.6236
 7265SOL     OW33256   4.648   3.462  14.107 -0.8291 -0.2377 -0.1540
 7265SOL    HW133257   0.009   3.419  14.112 -0.0606  0.9431 -3.2602
 7265SOL    HW233258   4.610   3.414  14.034 -0.2948  1.0286 -1.2755
 7266SOL     OW33259   2.366   1.964   4.040 -0.6145  0.0398  0.2488
 7266SOL    HW133260   2.406   2.049   4.026 -1.6631  0.7884  1.7881
 7266SOL    HW233261   2.450   1.920   4.027 -1.0232 -1.2262  1.8030
 7267SOL     OW33262   4.224   4.670   0.893  0.5880  0.4718  0.4151
 7267SOL    HW133263   4.282   4.669   0.969  1.9562  0.3538 -0.6332
 7267SOL    HW233264   4.275   4.724   0.831  0.9628 -0.7603 -0.3436
 7268SOL     OW33265   1.010   2.209  11.032 -0.4673 -0.4067 -0.6866
 7268SOL    HW133266   0.923   2.193  11.068 -0.7555 -0.1129 -1.2478
 7268SOL    HW233267   1.005   2.150  10.956  0.5372  0.1906 -1.2268
 7269SOL     OW33268   4.691   3.939   4.366  0.0633  0.2193 -0.0187
 7269SOL    HW133269   0.010   3.856   4.389  0.6460  0.0714 -1.6038
 7269SOL    HW233270   4.599   3.929   4.389  0.1404 -0.7804 -0.1127
 7270SOL     OW33271   2.456   4.443   3.138 -0.3748  0.3069 -0.4731
 7270SOL    HW133272   2.508   4.473   3.063 -1.8029  1.5486 -0.9717
 7270SOL    HW233273   2.457   4.349   3.118  1.3276  0.7446 -2.4434
 7271SOL     OW33274   3.478   1.458   3.455  0.4286 -0.1457 -0.4237
 7271SOL    HW133275   3.510   1.466   3.545  0.2533 -1.6146 -0.2322
 7271SOL    HW233276   3.552   1.413   3.414 -1.3437 -2.2865 -1.2320
 7272SOL     OW33277   1.514   3.396   2.564  0.1208  0.6411  0.3499
 7272SOL    HW133278   1.504   3.326   2.500 -0.0132 -0.0734  1.1544
 7272SOL    HW233279   1.562   3.459   2.511  0.7761 -0.2461 -0.1117
 7273SOL     OW33280   4.536   1.776   7.789 -0.4259 -0.3491  0.2456
 7273SOL    HW133281   4.454   1.825   7.791  0.7155  1.5295  1.6277
 7273SOL    HW233282   4.597   1.841   7.755  0.1746 -0.3613  1.2950
 7274SOL     OW33283   3.297   3.224   7.343  0.2816 -0.0326 -0.0600
 7274SOL    HW133284   3.231   3.175   7.293 -2.9814 -0.0245  4.2211
 7274SOL    HW233285   3.352   3.231   7.265  0.5744 -0.1441  0.1360
 7275SOL     OW33286   1.082   2.100   7.998 -0.4305  0.0707 -0.9191
 7275SOL    HW133287   1.122   2.017   8.026  1.7866  1.1252 -0.9460
 7275SOL    HW233288   1.152   2.127   7.938 -0.1999  0.8795 -0.2809
 7276SOL     OW33289   1.273   0.489   2.704 -0.2656  0.1189 -0.2754
 7276SOL    HW133290   1.290   0.473   2.611 -2.7082  0.3667 -0.7549
 7276SOL    HW233291   1.274   0.584   2.699  0.2215  0.2531  2.7746
 7277SOL     OW33292   2.508   3.250   2.640 -0.6854  0.6643  0.3327
 7277SOL    HW133293   2.591   3.254   2.687 -1.4492 -0.1240  1.7736
 7277SOL    HW233294   2.497   3.341   2.612  0.8569  0.5068 -0.7437
 7278SOL     OW33295   4.618   0.249  15.084 -0.8020 -0.0167  0.1145
 7278SOL    HW133296   4.631   0.330  15.034 -0.6964 -0.9511 -1.3641
 7278SOL    HW233297   4.534   0.226  15.044 -0.9299 -1.3180  1.1605
 7279SOL     OW33298   3.422   4.529   8.546  0.2912  0.0272 -0.0913
 7279SOL    HW133299   3.347   4.480   8.581 -0.2082 -1.1548 -2.7737
 7279SOL    HW233300   3.433   4.604   8.604  1.2200 -1.0181  1.0923
 7280SOL     OW33301   1.240   0.084  13.530  0.0668  0.1740 -0.0686
 7280SOL    HW133302   1.200   0.166  13.561 -0.7220 -1.4968  3.2895
 7280SOL    HW233303   1.251   0.034  13.611 -0.8819  0.5609  0.3007
 7281SOL     OW33304   2.023   4.001   8.122  0.0018 -0.0563  0.0966
 7281SOL    HW133305   2.101   3.951   8.149 -0.5899 -0.5554  0.8881
 7281SOL    HW233306   1.965   3.993   8.198  0.8999 -0.6039  0.7311
 7282SOL     OW33307   2.335   3.570   4.568  0.0524 -0.5364 -0.2841
 7282SOL    HW133308   2.276   3.503   4.604  0.1510 -1.8894 -2.6368
 7282SOL    HW233309   2.288   3.579   4.485 -1.1872 -2.8406  0.1675
 7283SOL     OW33310   0.911   3.363  12.151  0.5055  0.0110  0.1345
 7283SOL    HW133311   0.835   3.408  12.114  1.5875  0.9432 -0.9944
 7283SOL    HW233312   0.920   3.304  12.077 -0.2065 -0.4651  0.4283
 7284SOL     OW33313   3.324   1.747   4.316  0.1105  0.3132 -0.0205
 7284SOL    HW133314   3.335   1.654   4.339 -0.6118 -0.1888 -1.6796
 7284SOL    HW233315   3.386   1.794   4.371  0.5364  0.8779 -0.9773
 7285SOL     OW33316   1.194   1.266   6.228 -0.3349 -0.6863 -0.2700
 7285SOL    HW133317   1.250   1.312   6.165 -1.3965 -0.3112 -0.9354
 7285SOL    HW233318   1.110   1.311   6.229  0.3418  0.5588  0.9345
 7286SOL     OW33319   4.505   2.966  10.740 -0.6705 -0.0945 -0.4456
 7286SOL    HW133320   4.546   2.902  10.798 -1.4078  0.0125  0.1920
 7286SOL    HW233321   4.546   2.968  10.653 -2.8165  0.9270 -1.4367
 7287SOL     OW33322   0.047   0.747   7.099 -0.4725 -0.1790 -0.4460
 7287SOL    HW133323   0.011   0.767   7.013  0.7459  1.6065 -0.5182
 7287SOL    HW233324   0.047   0.833   7.140 -2.9958 -1.1034  1.5556
 7288SOL     OW33325   3.503   2.206  10.132  0.4843  0.1531 -0.4305
 7288SOL    HW133326   3.438   2.158  10.182  1.6981 -0.2440  0.7581
 7288SOL    HW233327   3.476   2.157  10.054  1.8404 -1.1969 -0.0510
 7289SOL     OW33328   2.719   1.519  12.161  0.9123 -0.4935 -0.6508
 7289SOL    HW133329   2.777   1.459  12.207 -0.1200 -1.9148 -1.1781
 7289SOL    HW233330   2.747   1.500  12.071 -0.8927 -0.5519 -1.2049
 7290SOL     OW33331   1.574   1.919   7.047 -0.2696  0.0244  0.2634
 7290SOL    HW133332   1.561   1.905   6.953 -0.2289  1.2263  0.0785
 7290SOL    HW233333   1.495   1.876   7.080 -1.6954  2.8553  0.4823
 7291SOL     OW33334   2.407   2.245   6.509 -0.0324 -0.2326 -0.5723
 7291SOL    HW133335   2.381   2.163   6.467 -0.4668 -1.7599  2.6424
 7291SOL    HW233336   2.321   2.287   6.499 -0.7512 -1.5959 -0.1597
 7292SOL     OW33337   2.874   1.410   6.981 -0.7746  0.4067  0.0827
 7292SOL    HW133338   2.950   1.387   6.927 -0.8288  1.6745 -0.5394
 7292SOL    HW233339   2.803   1.366   6.933  0.8431 -1.5348 -0.5505
 7293SOL     OW33340   0.489   4.360   4.130 -0.2942 -0.1664 -0.0884
 7293SOL    HW133341   0.460   4.448   4.104 -2.0811 -0.9344 -0.6861
 7293SOL    HW233342   0.406   4.313   4.123 -0.0282 -0.8640  1.4269
 7294SOL     OW33343   1.592   1.466  17.229 -0.7908 -0.6151  0.3733
 7294SOL    HW133344   1.513   1.516  17.250 -0.7322 -0.9067  1.2679
 7294SOL    HW233345   1.554   1.381  17.247 -0.9460 -0.7726 -0.6541
 7295SOL     OW33346   4.301   3.494   1.916 -0.7549  0.2287  0.5243
 7295SOL    HW133347   4.301   3.525   1.825 -1.9065 -2.1655 -0.2793
 7295SOL    HW233348   4.379   3.534   1.955  0.8339  0.3189 -2.7118
 7296SOL     OW33349   1.778   4.355  14.230 -0.2410 -0.2854  0.0581
 7296SOL    HW133350   1.759   4.431  14.285 -2.8069  0.7471 -2.2377
 7296SOL    HW233351   1.759   4.380  14.140  1.0794  1.8535  0.3817
 7297SOL     OW33352   2.997   0.417   5.831  0.5269 -0.1661  0.6085
 7297SOL    HW133353   3.042   0.448   5.752 -2.8209 -1.7752 -1.9512
 7297SOL    HW233354   2.986   0.497   5.881  0.6272  1.2137 -1.5874
 7298SOL     OW33355   2.968   4.118   6.433 -0.1799  0.1556  0.6111
 7298SOL    HW133356   3.031   4.049   6.454 -1.4652 -1.4101 -0.6735
 7298SOL    HW233357   2.962   4.160   6.519 -1.5340  0.3316  0.4280
 7299SOL     OW33358   2.161   0.284  15.042 -0.6440  0.3528 -0.1656
 7299SOL    HW133359   2.078   0.306  15.000 -1.4606 -3.0466 -0.3472
 7299SOL    HW233360   2.183   0.348  15.110  2.1337  0.8524 -1.5231
 7300SOL     OW33361   3.335   2.036   0.877 -0.0839  0.0048 -0.0732
 7300SOL    HW133362   3.240   2.025   0.878  0.0989 -1.4621  1.0925
 7300SOL    HW233363   3.363   2.016   0.966  3.2901  1.8580 -0.6812
 7301SOL     OW33364   0.896   3.084   9.073  0.0604 -0.2173 -0.3948
 7301SOL    HW133365   0.848   3.085   8.991  0.0730  1.7671 -0.3925
 7301SOL    HW233366   0.980   3.044   9.049 -0.0461 -1.1883  0.8520
 7302SOL     OW33367   0.652   4.311   5.699  0.4577 -0.8570 -0.2351
 7302SOL    HW133368   0.620   4.317   5.789  1.2252 -1.9647  0.1126
 7302SOL    HW233369   0.660   4.215   5.693  1.7537 -0.7556 -0.1439
 7303SOL     OW33370   2.053   1.183   0.159  0.6165  0.0016 -0.3043
 7303SOL    HW133371   2.023   1.273   0.162  1.2120  0.2120 -0.5881
 7303SOL    HW233372   2.032   1.151   0.072 -1.8334  1.3570 -0.1837
 7304SOL     OW33373   4.394   4.132   5.892  0.6366  0.1115  0.7355
 7304SOL    HW133374   4.318   4.079   5.917  2.1618 -3.1325 -1.3985
 7304SOL    HW233375   4.370   4.224   5.902  0.3063  0.1804 -0.6943
 7305SOL     OW33376   0.602   1.330  17.676  0.7720 -0.0534  0.0473
 7305SOL    HW133377   0.592   1.278   0.055  0.6080 -0.9679 -0.5803
 7305SOL    HW233378   0.525   1.382  17.655  1.3957  0.6017 -0.6356
 7306SOL     OW33379   1.979   0.190  11.092  0.2396 -0.1726 -0.2360
 7306SOL    HW133380   1.952   0.129  11.023 -0.6571 -0.8429  0.7074
 7306SOL    HW233381   1.916   0.262  11.093  0.5598  0.0959  0.3106
 7307SOL     OW33382   0.322   0.576   2.776  0.4216 -0.3308  0.3342
 7307SOL    HW133383   0.355   0.657   2.737 -1.5480  1.9022  3.2846
 7307SOL    HW233384   0.246   0.595   2.831  0.9138  2.7801 -0.0808
 7308SOL     OW33385   3.813   0.315   6.553 -0.6433 -0.0145 -0.7553
 7308SOL    HW133386   3.763   0.248   6.600  1.3207 -1.7707 -1.1455
 7308SOL    HW233387   3.752   0.388   6.550 -0.7020  0.1132  3.1731
 7309SOL     OW33388   3.166   0.156   4.073 -0.1030 -0.1752  0.0827
 7309SOL    HW133389   3.154   0.113   4.157 -0.2670 -1.1463 -0.4337
 7309SOL    HW233390   3.101   0.103   4.026 -0.3401  0.7137 -0.6076
 7310SOL     OW33391   2.645   4.652   3.316  0.5355  0.0306 -0.0612
 7310SOL    HW133392   2.636   4.568   3.271 -1.7657  0.9290 -1.2851
 7310SOL    HW233393   2.562   4.655   3.363  0.3556  0.6657 -0.4137
 7311SOL     OW33394   0.756   2.671  11.550  0.0538  0.0494  0.4462
 7311SOL    HW133395   0.813   2.740  11.518 -1.5947  1.7687  1.2459
 7311SOL    HW233396   0.816   2.598  11.534  1.8255  1.5832  0.1057
 7312SOL     OW33397   3.289   1.445   6.167  0.5065  1.0414 -0.0347
 7312SOL    HW133398   3.318   1.379   6.230 -0.1861  0.1357 -0.6654
 7312SOL    HW233399   3.194   1.437   6.158  0.4667 -1.2618  2.6869
 7313SOL     OW33400   3.186   3.863   5.779  0.1398  0.3339  0.3785
 7313SOL    HW133401   3.204   3.871   5.685 -2.4040  0.2832 -0.1344
 7313SOL    HW233402   3.104   3.912   5.791 -0.9722 -1.5891  0.6445
 7314SOL     OW33403   3.288   0.394   3.974  0.2317  0.4634 -0.2119
 7314SOL    HW133404   3.257   0.407   3.884  0.4068  2.6985  0.0442
 7314SOL    HW233405   3.248   0.309   3.995  0.6403  0.0812 -0.9793
 7315SOL     OW33406   4.573   2.504   8.706  0.0032  0.3716  0.4270
 7315SOL    HW133407   4.624   2.438   8.658 -0.5349  2.1292 -2.6011
 7315SOL    HW233408   4.490   2.500   8.657 -0.0532 -1.0224  0.6278
 7316SOL     OW33409   2.825   0.610   7.284  0.9213 -0.3347  0.4986
 7316SOL    HW133410   2.759   0.611   7.354  1.1256 -0.3717  0.6899
 7316SOL    HW233411   2.800   0.528   7.240  2.6285 -0.5022 -0.1552
 7317SOL     OW33412   1.883   4.136  14.374 -0.2736 -0.0594 -0.0243
 7317SOL    HW133413   1.961   4.155  14.426 -0.0907 -0.0514 -0.2964
 7317SOL    HW233414   1.859   4.214  14.324  0.2250  0.2088  0.1553
 7318SOL     OW33415   2.905   0.583   4.274  0.0264  0.2474 -0.3165
 7318SOL    HW133416   2.887   0.563   4.366 -0.7783  1.5663 -0.1744
 7318SOL    HW233417   2.862   0.511   4.228 -0.4399  0.1671  0.2537
 7319SOL     OW33418   1.472   2.964  14.555  0.8861  0.0962 -0.0244
 7319SOL    HW133419   1.567   2.957  14.546  0.7636  0.8317 -1.8215
 7319SOL    HW233420   1.444   2.950  14.464 -1.6059 -1.6324  1.0217
 7320SOL     OW33421   4.084   0.753   8.344  0.0660 -0.2601 -0.3617
 7320SOL    HW133422   4.147   0.706   8.399 -0.6271  1.0392  1.5331
 7320SOL    HW233423   4.133   0.832   8.323 -1.5381  0.6986 -0.4544
 7321SOL     OW33424   1.506   0.894   5.140  0.3561 -0.1520  0.0713
 7321SOL    HW133425   1.556   0.951   5.199  0.2756 -0.5660  0.5378
 7321SOL    HW233426   1.575   0.841   5.101  0.0171 -0.8849  0.4576
 7322SOL     OW33427   0.449   2.600   1.036 -0.1807  0.1213  0.1115
 7322SOL    HW133428   0.542   2.624   1.031 -0.2389  0.8451  2.2921
 7322SOL    HW233429   0.443   2.558   0.951 -1.8662  4.1361 -1.7388
 7323SOL     OW33430   3.392   2.278   7.374 -0.3890  0.1407 -0.1297
 7323SOL    HW133431   3.342   2.196   7.386 -0.0403  0.1499  1.3719
 7323SOL    HW233432   3.357   2.337   7.440  1.0678  1.3871 -0.4799
 7324SOL     OW33433   3.311   2.068   2.435 -0.5274  0.1442 -0.2083
 7324SOL    HW133434   3.365   1.996   2.404  0.4400  0.1000  1.5552
 7324SOL    HW233435   3.381   2.132   2.451  0.0687 -0.8177  1.0685
 7325SOL     OW33436   4.171   2.928  10.044 -0.7511  0.0072  0.5661
 7325SOL    HW133437   4.090   2.967  10.076 -2.0428 -0.9962 -1.4567
 7325SOL    HW233438   4.185   2.864  10.114 -2.6388 -0.1769  0.7716
 7326SOL     OW33439   3.452   4.376   8.290 -0.1670 -0.1978 -0.3417
 7326SOL    HW133440   3.478   4.318   8.361 -2.5756  1.8209  2.1704
 7326SOL    HW233441   3.363   4.403   8.313 -0.2751 -1.0346  0.1912
 7327SOL     OW33442   4.238   0.379   1.695  0.4687  0.0390  0.3850
 7327SOL    HW133443   4.181   0.411   1.765 -1.3275 -2.3914  0.0067
 7327SOL    HW233444   4.218   0.286   1.707 -0.4977  0.1121 -0.7609
 7328SOL     OW33445   1.532   2.949   4.470 -0.0645 -0.5968  0.2307
 7328SOL    HW133446   1.499   3.013   4.407 -1.4851 -0.5320  1.0501
 7328SOL    HW233447   1.623   2.980   4.466 -0.2626  0.0400  0.6905
 7329SOL     OW33448   1.699   0.421  14.995 -0.1872  0.2600 -0.3093
 7329SOL    HW133449   1.615   0.378  15.009 -0.0547  0.7140  1.8090
 7329SOL    HW233450   1.678   0.511  15.021 -0.9434 -0.0378  0.0974
 7330SOL     OW33451   0.146   2.376  16.069  0.2167  0.5030  0.5183
 7330SOL    HW133452   0.166   2.349  16.158 -1.9669  0.1114  0.9011
 7330SOL    HW233453   0.144   2.286  16.036  1.3717  1.1267 -1.3069
 7331SOL     OW33454   0.595   1.693  11.168 -0.3850  0.1179  0.0923
 7331SOL    HW133455   0.576   1.615  11.116  0.5425  1.6034 -2.4395
 7331SOL    HW233456   0.556   1.671  11.253 -0.4780  2.2976  0.6068
 7332SOL     OW33457   2.162   1.715   7.807 -0.0070 -0.4397  0.1889
 7332SOL    HW133458   2.094   1.741   7.745  0.7295 -0.5640 -0.6712
 7332SOL    HW233459   2.120   1.635   7.839  0.5662 -0.4606  0.8696
 7333SOL     OW33460   4.668   1.624   8.453 -0.5280  0.1716 -0.1775
 7333SOL    HW133461   4.594   1.675   8.487 -1.0680 -0.5247 -0.3177
 7333SOL    HW233462   0.009   1.685   8.421 -0.4422  0.6322  0.8725
 7334SOL     OW33463   1.004   0.528   5.796 -0.7017 -0.2355  0.3261
 7334SOL    HW133464   1.035   0.470   5.866  0.4054 -1.3770 -1.1015
 7334SOL    HW233465   0.925   0.480   5.774 -0.9919 -0.1091  1.1032
 7335SOL     OW33466   2.828   1.652  16.574  0.1590  0.1747  0.5385
 7335SOL    HW133467   2.827   1.558  16.553 -1.0988 -0.3362  2.9726
 7335SOL    HW233468   2.819   1.654  16.669  3.1816  2.9926  0.7603
 7336SOL     OW33469   4.246   1.397   3.884 -0.5341  0.3309  0.0074
 7336SOL    HW133470   4.203   1.399   3.969 -1.4960 -0.0900 -0.4658
 7336SOL    HW233471   4.202   1.474   3.847  1.2582  1.7953  0.9044
 7337SOL     OW33472   4.062   1.075   5.424  0.1312 -1.0876  0.0055
 7337SOL    HW133473   4.148   1.087   5.465 -0.1094  0.1068  0.1885
 7337SOL    HW233474   4.079   1.112   5.338 -0.1223  0.5714  0.6612
 7338SOL     OW33475   4.206   1.421   5.863  0.0613  0.0218 -0.1801
 7338SOL    HW133476   4.129   1.389   5.909  1.2823 -1.4152  0.8668
 7338SOL    HW233477   4.173   1.507   5.838  1.5203  0.7218  0.2965
 7339SOL     OW33478   4.455   0.524   4.394  0.0764 -0.2127  0.1935
 7339SOL    HW133479   4.528   0.475   4.431  0.4540 -0.4321 -0.8357
 7339SOL    HW233480   4.480   0.537   4.302  3.4842 -0.9097  1.0345
 7340SOL     OW33481   0.755   0.865  17.427  0.0188 -0.1978  0.4874
 7340SOL    HW133482   0.802   0.796  17.475 -1.0463 -0.3143  1.3740
 7340SOL    HW233483   0.797   0.942  17.464  0.7679  0.1192 -1.0430
 7341SOL     OW33484   3.084   3.948   7.898  0.1592  0.0878 -0.3906
 7341SOL    HW133485   3.035   3.881   7.947  0.3147 -0.0550 -0.4311
 7341SOL    HW233486   3.017   4.016   7.886 -0.5428 -0.7133 -1.0502
 7342SOL     OW33487   3.014   3.062   2.884  0.0068  0.0984 -0.3867
 7342SOL    HW133488   3.004   3.134   2.947  1.2097 -0.2539  0.1876
 7342SOL    HW233489   3.075   3.097   2.819  1.6151  0.8450  1.5287
 7343SOL     OW33490   2.422   2.544   3.820  0.0359  0.3749 -0.4212
 7343SOL    HW133491   2.506   2.574   3.852 -1.7481  3.1477  1.6865
 7343SOL    HW233492   2.392   2.609   3.756  2.1266  1.6591 -0.0704
 7344SOL     OW33493   3.043   3.260  11.996 -0.2463  0.0764  0.4916
 7344SOL    HW133494   3.025   3.173  11.961 -0.6194  0.3147  0.0942
 7344SOL    HW233495   3.020   3.324  11.928 -2.0977 -1.4420 -0.2934
 7345SOL     OW33496   3.356   2.416   6.115 -0.4335  0.2184 -0.4311
 7345SOL    HW133497   3.361   2.400   6.021  1.1617  3.8896 -0.9649
 7345SOL    HW233498   3.396   2.503   6.124 -0.3500  0.2275 -0.9050
 7346SOL     OW33499   3.532   2.575   2.925  0.0069  0.1413  0.5283
 7346SOL    HW133500   3.586   2.647   2.959  1.2768 -0.4370 -0.2473
 7346SOL    HW233501   3.496   2.628   2.854  1.5036 -0.2903 -0.5531
 7347SOL     OW33502   3.645   0.908   6.173  0.2628 -0.0032 -0.2717
 7347SOL    HW133503   3.694   0.879   6.251 -0.0879 -1.0969 -0.4507
 7347SOL    HW233504   3.675   0.838   6.115  1.3228 -0.1559  0.4656
 7348SOL     OW33505   2.228   2.486   6.226  0.1757 -0.2522 -0.2566
 7348SOL    HW133506   2.307   2.513   6.179  0.7060 -0.2969  0.6205
 7348SOL    HW233507   2.166   2.457   6.159 -2.3839  0.8337  1.6465
 7349SOL     OW33508   1.395   3.291   4.692  0.3628 -0.1619  0.4485
 7349SOL    HW133509   1.436   3.205   4.704 -1.6394 -1.3966 -1.7946
 7349SOL    HW233510   1.375   3.302   4.599 -2.0246  1.2074  1.1226
 7350SOL     OW33511   2.143   1.554   0.398  0.1740 -0.0319 -0.1279
 7350SOL    HW133512   2.141   1.464   0.366  2.1514 -0.1463  0.0436
 7350SOL    HW233513   2.231   1.584   0.372  0.3606 -1.1718 -0.8388
 7351SOL     OW33514   2.179   0.708   7.787 -0.1477 -0.5867 -0.2678
 7351SOL    HW133515   2.101   0.679   7.834 -0.0931  0.4514  0.4643
 7351SOL    HW233516   2.144   0.734   7.702  2.1934 -1.7511 -1.5802
 7352SOL     OW33517   1.700   1.744   7.200 -0.6869  0.2245  1.1805
 7352SOL    HW133518   1.664   1.788   7.122 -0.2396  1.4888  1.6938
 7352SOL    HW233519   1.696   1.809   7.269  0.1606  2.4644 -0.8946
 7353SOL     OW33520   3.519   1.309   4.953 -0.0013 -0.3211 -0.5442
 7353SOL    HW133521   3.438   1.356   4.976 -0.0500 -0.1261 -1.1061
 7353SOL    HW233522   3.486   1.219   4.952 -0.8050 -0.0234 -3.1963
 7354SOL     OW33523   4.105   3.431   6.372 -1.0661 -0.3676  0.4685
 7354SOL    HW133524   4.139   3.439   6.461  1.2651 -0.6112 -0.4044
 7354SOL    HW233525   4.088   3.338   6.360  2.0672 -1.1023  1.6260
 7355SOL     OW33526   1.032   3.258   9.257  0.2045 -0.3804  0.2005
 7355SOL    HW133527   0.951   3.279   9.304  1.2060 -0.0730  1.7875
 7355SOL    HW233528   0.994   3.229   9.174  2.4546  0.3355 -1.0857
 7356SOL     OW33529   1.388   1.626   8.371 -0.3091 -0.5679 -0.3131
 7356SOL    HW133530   1.422   1.583   8.292  0.1957  0.8071 -0.8488
 7356SOL    HW233531   1.297   1.599   8.384 -0.6574  0.3059 -0.9296
 7357SOL     OW33532   3.218   1.748   6.726 -0.4070  0.7388  0.0212
 7357SOL    HW133533   3.240   1.835   6.691  0.6074  0.5097  0.0778
 7357SOL    HW233534   3.298   1.718   6.770 -1.3285 -0.7019  0.6885
 7358SOL     OW33535   2.590   3.593   4.486  0.1016  0.4185 -0.1371
 7358SOL    HW133536   2.575   3.531   4.415 -2.8707 -0.9431  1.6668
 7358SOL    HW233537   2.500   3.606   4.516  0.0490  1.6802 -0.8609
 7359SOL     OW33538   1.833   3.503  10.602 -0.1951  0.2043  0.3071
 7359SOL    HW133539   1.756   3.447  10.591  1.5124 -1.9263 -0.8117
 7359SOL    HW233540   1.812   3.545  10.686  0.6630 -1.4621  1.3492
 7360SOL     OW33541   0.969   3.660   5.490  0.3847 -0.3339 -0.1902
 7360SOL    HW133542   1.046   3.645   5.436  1.3319  1.9199  0.5307
 7360SOL    HW233543   0.969   3.754   5.476  2.6178 -0.5315 -1.5332
 7361SOL     OW33544   1.977   2.703   7.552  0.6267  0.2678  0.5261
 7361SOL    HW133545   1.957   2.645   7.478  1.2088  0.0256  0.5523
 7361SOL    HW233546   2.072   2.701   7.560  0.7304  0.1488 -0.7889
 7362SOL     OW33547   2.436   1.231   7.206  0.1981  0.2767  0.0231
 7362SOL    HW133548   2.385   1.311   7.217 -1.8758 -1.0337  0.0121
 7362SOL    HW233549   2.381   1.165   7.164  0.3536  0.5143 -0.5531
 7363SOL     OW33550   2.998   1.568   7.536  0.1610 -0.7269  0.2440
 7363SOL    HW133551   3.032   1.487   7.497  1.3779  1.0152 -2.3167
 7363SOL    HW233552   2.910   1.534   7.554 -0.1027 -1.1755 -1.9000
 7364SOL     OW33553   3.769   3.020   2.583 -0.1145 -0.1194 -0.6730
 7364SOL    HW133554   3.841   2.960   2.602 -0.8650 -1.0316 -0.6445
 7364SOL    HW233555   3.819   3.099   2.566  0.3131 -0.4095 -0.7446
 7365SOL     OW33556   3.664   0.999   8.096 -0.5389  0.5820 -0.4889
 7365SOL    HW133557   3.574   0.969   8.089 -0.3251 -0.4032  0.9019
 7365SOL    HW233558   3.708   0.920   8.128  1.4145  0.8225 -2.5663
 7366SOL     OW33559   0.348   0.949   6.238  0.2654 -0.0540  0.5013
 7366SOL    HW133560   0.372   0.939   6.146  1.2540 -0.0940  0.7556
 7366SOL    HW233561   0.296   1.029   6.227  0.9405  0.4888  1.2447
 7367SOL     OW33562   4.502   4.234   6.904  0.8116 -0.3567  0.4312
 7367SOL    HW133563   4.473   4.188   6.825 -2.8400  1.2083  0.8581
 7367SOL    HW233564   4.508   4.161   6.965 -1.1626 -0.2482  0.7407
 7368SOL     OW33565   1.863   3.497   8.599  0.0639  0.2527 -0.4560
 7368SOL    HW133566   1.903   3.510   8.685 -0.2659 -2.1826  0.0753
 7368SOL    HW233567   1.807   3.574   8.585 -4.2092 -2.2419  2.8755
 7369SOL     OW33568   3.381   0.017  13.507 -0.0021  0.0514 -0.1346
 7369SOL    HW133569   3.466   4.720  13.469  0.0664 -0.8109  0.5188
 7369SOL    HW233570   3.333   4.672  13.463  1.1874 -1.7300  1.3541
 7370SOL     OW33571   4.606   3.557   6.007 -0.0279  0.5103  0.0557
 7370SOL    HW133572   4.538   3.613   5.970  0.1109  0.5306 -0.1681
 7370SOL    HW233573   4.575   3.569   6.097 -1.2044 -0.1794 -0.2732
 7371SOL     OW33574   0.104   3.287   1.603 -0.3005 -0.3968 -0.6163
 7371SOL    HW133575   0.019   3.306   1.564  0.0003 -0.3630 -1.2523
 7371SOL    HW233576   0.149   3.238   1.533  0.1348  0.2628 -0.8014
 7372SOL     OW33577   1.024   0.267   1.864 -0.3835 -0.0962 -0.7385
 7372SOL    HW133578   1.029   0.363   1.862  1.7003 -0.2184 -0.9209
 7372SOL    HW233579   0.930   0.251   1.868 -0.7463  2.3303  0.7378
 7373SOL     OW33580   3.421   2.091  10.396 -0.4577  0.8318  0.3398
 7373SOL    HW133581   3.355   2.161  10.398  1.7918  3.0139 -1.1472
 7373SOL    HW233582   3.497   2.148  10.383 -1.3945  1.6847 -1.4019
 7374SOL     OW33583   3.960   3.507   3.806  0.0448  0.2982  0.7475
 7374SOL    HW133584   3.896   3.443   3.838  1.8084 -1.2702  1.1000
 7374SOL    HW233585   3.929   3.591   3.840 -0.0640  0.5597 -0.0015
 7375SOL     OW33586   3.141   4.132   9.844  0.6080  0.2734  0.4093
 7375SOL    HW133587   3.142   4.037   9.852 -0.5391  0.0626 -1.8001
 7375SOL    HW233588   3.227   4.151   9.806 -0.3246  4.0097  0.1529
 7376SOL     OW33589   3.873   0.354   9.290 -0.8466  0.4097  0.4777
 7376SOL    HW133590   3.795   0.395   9.253 -1.4828 -2.0975 -0.9845
 7376SOL    HW233591   3.833   0.301   9.359  0.6748 -1.6774 -0.2626
 7377SOL     OW33592   4.573   3.369   4.420  0.1934 -0.1586 -0.6606
 7377SOL    HW133593   4.604   3.404   4.504  0.1889 -2.1262  0.1370
 7377SOL    HW233594   4.605   3.279   4.412  1.0912  0.1869 -1.0123
 7378SOL     OW33595   4.053   3.779   5.449  0.6695 -0.3090  1.0880
 7378SOL    HW133596   4.070   3.690   5.482 -0.4734 -1.9343 -2.7043
 7378SOL    HW233597   4.125   3.794   5.388 -0.0569  0.2278  0.3753
 7379SOL     OW33598   1.997   0.795   2.723 -0.5983 -0.5810  0.0990
 7379SOL    HW133599   2.070   0.806   2.663 -0.4498 -0.7421  0.2515
 7379SOL    HW233600   2.049   0.807   2.802 -0.5221  2.1811 -0.3875
 7380SOL     OW33601   0.484   4.105   1.402  0.2402 -0.2941  0.1536
 7380SOL    HW133602   0.579   4.105   1.410  0.1776 -5.5341  0.6051
 7380SOL    HW233603   0.468   4.044   1.330  2.5644  0.7088 -1.2004
 7381SOL     OW33604   4.684   4.375  14.546  0.7474  0.0911 -0.1085
 7381SOL    HW133605   4.666   4.306  14.483 -0.6494 -0.3805  0.7815
 7381SOL    HW233606   4.609   4.352  14.601  1.8321 -0.9519  0.9217
 7382SOL     OW33607   0.246   0.005   4.294  0.0780  0.0743 -0.8553
 7382SOL    HW133608   0.190   4.653   4.283 -1.3241  0.9103  0.3964
 7382SOL    HW233609   0.216   0.067   4.227 -0.1169 -0.4587 -1.2546
 7383SOL     OW33610   3.037   3.774  14.090 -0.2714  0.3217  1.2180
 7383SOL    HW133611   2.957   3.722  14.083  1.5759 -2.4456  0.7057
 7383SOL    HW233612   3.084   3.725  14.158  2.5669  1.3219 -0.0487
 7384SOL     OW33613   4.046   0.018   5.583 -0.0496 -0.4077 -0.4323
 7384SOL    HW133614   4.071   4.650   5.589 -0.3532 -0.3124  2.6170
 7384SOL    HW233615   4.069   0.053   5.670  2.3276 -0.0442 -1.1946
 7385SOL     OW33616   4.574   1.571  15.819  0.0001 -0.6203 -0.2812
 7385SOL    HW133617   4.599   1.509  15.751 -2.0442 -0.7381 -0.9208
 7385SOL    HW233618   4.487   1.599  15.790  0.2609  0.5004 -0.0155
 7386SOL     OW33619   0.000   0.202   9.863  0.1995 -0.7002  0.1607
 7386SOL    HW133620   4.684   0.130   9.911  2.2996 -1.7732  0.3235
 7386SOL    HW233621   0.006   0.168   9.774  0.0786 -1.0847  0.2975
 7387SOL     OW33622   2.728   2.080   0.551 -0.0731  0.3793 -0.6443
 7387SOL    HW133623   2.783   2.003   0.563 -1.8568 -1.1822 -2.5127
 7387SOL    HW233624   2.723   2.094   0.457 -2.1431  0.2954 -0.5375
 7388SOL     OW33625   4.678   0.743   1.780  0.1097  0.2954  0.2244
 7388SOL    HW133626   4.635   0.690   1.712 -0.2469  1.8103 -0.7407
 7388SOL    HW233627   4.612   0.792   1.829 -0.2670 -1.5720  1.5902
 7389SOL     OW33628   2.049   1.892   4.458 -0.3263 -0.1341  0.4890
 7389SOL    HW133629   2.020   1.972   4.503 -2.2216 -0.7308  0.3068
 7389SOL    HW233630   1.987   1.832   4.497 -0.3432 -0.3344  0.1528
 7390SOL     OW33631   3.859   1.956   4.408  0.6791  0.1378  0.0137
 7390SOL    HW133632   3.921   1.974   4.337  1.0843 -1.6932 -0.1079
 7390SOL    HW233633   3.866   2.022   4.477 -0.7808  0.7823 -0.4647
 7391SOL     OW33634   4.287   4.387  16.210 -0.1792 -0.0047 -0.2179
 7391SOL    HW133635   4.330   4.473  16.212  1.3414 -0.7956  1.1288
 7391SOL    HW233636   4.228   4.403  16.136 -1.9974  1.6413  1.5963
 7392SOL     OW33637   3.362   3.722  13.846  0.2198 -0.2960  0.1344
 7392SOL    HW133638   3.298   3.793  13.838  1.7602  1.0139 -0.5523
 7392SOL    HW233639   3.421   3.741  13.773 -0.5096  2.3967  0.2407
 7393SOL     OW33640   3.602   1.275   4.692 -0.0542 -0.3964 -0.4767
 7393SOL    HW133641   3.571   1.290   4.781 -1.3925 -0.3516 -0.9536
 7393SOL    HW233642   3.692   1.268   4.724 -0.0046  1.8518 -0.0590
 7394SOL     OW33643   4.714   3.920  11.611  0.1086  0.8684  0.2418
 7394SOL    HW133644   0.032   3.954  11.690 -0.2799  1.7605  0.0774
 7394SOL    HW233645   4.624   3.925  11.641 -0.0958 -0.7737 -0.0981
 7395SOL     OW33646   3.437   4.561  14.897 -0.4739 -0.1636 -0.3462
 7395SOL    HW133647   3.471   4.538  14.810 -2.9250 -2.3928 -0.7273
 7395SOL    HW233648   3.512   4.568  14.956 -0.7471 -0.5199  0.0527
 7396SOL     OW33649   0.224   3.957   2.716 -0.1444 -0.6791  0.5175
 7396SOL    HW133650   0.251   3.934   2.805  0.3666  3.1507  1.3789
 7396SOL    HW233651   0.244   3.887   2.655  2.0665  1.5206 -1.3129
 7397SOL     OW33652   3.485   1.635   4.103 -0.6051 -0.2431  0.2876
 7397SOL    HW133653   3.429   1.636   4.026 -1.7378  0.9202  1.1246
 7397SOL    HW233654   3.432   1.689   4.163  0.4334  0.9696  0.1034
 7398SOL     OW33655   0.933   2.279   9.673 -0.4070  0.1787  0.5163
 7398SOL    HW133656   0.870   2.349   9.689  0.1302  0.6809  0.4075
 7398SOL    HW233657   1.008   2.313   9.721  0.7648 -0.1835 -1.0480
 7399SOL     OW33658   4.701   3.650   0.853  0.3274 -0.4742 -0.8118
 7399SOL    HW133659   0.049   3.610   0.804  0.4543 -2.0752  0.6645
 7399SOL    HW233660   4.679   3.733   0.812  1.5550 -0.0106 -0.5183
 7400SOL     OW33661   4.416   1.282   4.177 -0.0563 -0.2227  0.5252
 7400SOL    HW133662   4.491   1.334   4.149  0.2795 -0.5639  0.7948
 7400SOL    HW233663   4.396   1.232   4.098 -0.0596 -1.1553  1.1207
 7401SOL     OW33664   2.380   0.166   4.028 -0.3423  0.2484 -0.2826
 7401SOL    HW133665   2.436   0.111   4.083 -1.1297 -0.4285 -0.1678
 7401SOL    HW233666   2.402   0.252   4.065  0.3593  0.8715 -2.1330
 7402SOL     OW33667   2.464   0.725   5.491 -0.2022  0.5092  0.8655
 7402SOL    HW133668   2.384   0.770   5.464  0.5348  1.3183  0.0507
 7402SOL    HW233669   2.524   0.799   5.487  1.9554 -1.2996 -0.3797
 7403SOL     OW33670   0.204   3.695  11.254 -0.4134  0.3911  0.4132
 7403SOL    HW133671   0.239   3.739  11.176  0.4852 -3.4624 -1.3448
 7403SOL    HW233672   0.202   3.604  11.225 -0.0806  1.0561 -1.6638
 7404SOL     OW33673   3.337   4.030   1.460 -0.1050 -0.0897  0.2297
 7404SOL    HW133674   3.387   3.956   1.494 -1.9634  0.6599  4.4533
 7404SOL    HW233675   3.320   3.988   1.375  1.8854 -1.5603  0.5548
 7405SOL     OW33676   4.553   0.848  13.936  0.4487  0.7581 -0.3917
 7405SOL    HW133677   4.640   0.832  13.972 -0.0622 -1.0721  0.0013
 7405SOL    HW233678   4.498   0.859  14.014 -0.5958 -0.8875 -0.8920
 7406SOL     OW33679   2.539   2.267  16.333  0.9188 -0.0469 -0.1299
 7406SOL    HW133680   2.463   2.213  16.353 -0.2710  2.1635  1.4176
 7406SOL    HW233681   2.503   2.352  16.359  2.1836 -0.1763  2.0147
 7407SOL     OW33682   3.245   2.743   8.162  0.3930 -0.6148  0.2786
 7407SOL    HW133683   3.224   2.724   8.253  1.9622 -0.1536  0.7374
 7407SOL    HW233684   3.159   2.745   8.119  1.3466  1.5007 -1.4994
 7408SOL     OW33685   2.800   2.965   9.634 -0.6126  0.2250  0.1581
 7408SOL    HW133686   2.802   2.994   9.542 -1.5475 -0.5045 -0.0940
 7408SOL    HW233687   2.709   2.934   9.643 -0.0392 -1.2001  1.0706
 7409SOL     OW33688   1.452   1.968  10.443 -0.0155 -1.0512 -0.4297
 7409SOL    HW133689   1.470   2.018  10.523 -0.5800  0.9154 -1.5398
 7409SOL    HW233690   1.534   1.989  10.397 -0.6574  0.7615 -0.7473
 7410SOL     OW33691   3.286   1.701   3.517  0.3124  0.1082 -0.8938
 7410SOL    HW133692   3.296   1.743   3.432 -1.3914  0.2323 -1.0321
 7410SOL    HW233693   3.293   1.611   3.484  2.1522  0.1827 -0.7092
 7411SOL     OW33694   0.164   4.348   7.282  0.2145 -0.4034  0.0363
 7411SOL    HW133695   0.123   4.327   7.199  0.6634 -0.1978 -0.2370
 7411SOL    HW233696   0.225   4.408   7.239 -0.9860  0.3243 -0.6430
 7412SOL     OW33697   4.142   1.227   5.118  0.3286 -0.1629 -0.4366
 7412SOL    HW133698   4.113   1.138   5.133  0.3042  0.1666  1.5200
 7412SOL    HW233699   4.143   1.226   5.022 -0.6183  0.0869 -0.4451
 7413SOL     OW33700   0.233   4.099   7.077 -0.4685  0.2119 -0.6451
 7413SOL    HW133701   0.232   4.008   7.046 -1.7653  0.7095 -2.0173
 7413SOL    HW233702   0.157   4.127   7.027 -0.5805  0.7170 -0.1924
 7414SOL     OW33703   3.090   1.162   3.546  0.1191 -0.4841 -0.6426
 7414SOL    HW133704   3.161   1.109   3.580  1.0761 -0.0195 -1.9251
 7414SOL    HW233705   3.020   1.110   3.585 -0.6453 -0.9631 -2.6429
 7415SOL     OW33706   3.211   2.687  10.206 -0.4719 -0.1274 -0.3348
 7415SOL    HW133707   3.127   2.728  10.189  0.9062  1.8999 -2.2960
 7415SOL    HW233708   3.233   2.641  10.125 -1.3622 -1.4430  0.1786
 7416SOL     OW33709   4.358   1.938  15.381 -0.0611  0.4088 -0.0150
 7416SOL    HW133710   4.339   1.960  15.290 -0.2259  1.2655  0.2310
 7416SOL    HW233711   4.316   2.007  15.432 -2.0602 -0.1939 -0.8434
 7417SOL     OW33712   1.840   2.972   8.305 -0.1754 -0.1394 -0.2404
 7417SOL    HW133713   1.866   2.891   8.261 -0.0845  0.9070 -2.1051
 7417SOL    HW233714   1.756   2.943   8.341 -0.1814 -0.3203 -0.3993
 7418SOL     OW33715   1.755   1.047  12.400 -0.7036  0.5250  0.0633
 7418SOL    HW133716   1.731   1.071  12.311  0.3155  0.6963 -0.1618
 7418SOL    HW233717   1.675   1.005  12.433 -0.3658  0.6973  1.1019
 7419SOL     OW33718   1.994   4.422   2.060 -0.5901  0.7761 -0.3773
 7419SOL    HW133719   2.036   4.505   2.041  0.4486 -0.0407 -1.5818
 7419SOL    HW233720   1.906   4.446   2.029 -0.9171  1.9054  1.4562
 7420SOL     OW33721   1.087   2.528   7.803 -0.3833  0.1616 -0.3243
 7420SOL    HW133722   1.132   2.613   7.806  0.2137 -0.0316 -4.0085
 7420SOL    HW233723   1.153   2.464   7.827 -1.0723 -0.2556  0.4620
 7421SOL     OW33724   3.119   0.796   2.605 -0.2627  0.0843 -0.0124
 7421SOL    HW133725   3.050   0.733   2.623  0.0767 -0.4322 -0.5365
 7421SOL    HW233726   3.195   0.745   2.633 -1.0291 -0.8342  0.3862
 7422SOL     OW33727   0.247   1.153   0.074  0.0539  0.2885  0.0855
 7422SOL    HW133728   0.237   1.230   0.019  1.3115 -0.3095 -0.9952
 7422SOL    HW233729   0.162   1.110   0.064  0.6039 -0.7776  0.0160
 7423SOL     OW33730   3.805   4.148   6.876  0.3239  0.2542  0.2943
 7423SOL    HW133731   3.856   4.114   6.950 -0.8605 -0.3823  0.8215
 7423SOL    HW233732   3.866   4.205   6.829  0.2843  0.1570  0.1254
 7424SOL     OW33733   1.309   3.841   8.204  0.9568  0.6211  0.2572
 7424SOL    HW133734   1.281   3.775   8.268  0.1036 -0.2451 -1.0152
 7424SOL    HW233735   1.328   3.898   8.279  1.5163 -2.5780  2.5624
 7425SOL     OW33736   3.256   3.038   3.606 -0.2489 -0.3130 -0.1674
 7425SOL    HW133737   3.223   3.055   3.518 -1.0822 -0.1998  0.1695
 7425SOL    HW233738   3.303   2.956   3.596 -0.6225 -0.4748 -0.5928
 7426SOL     OW33739   2.029   1.485  11.121  0.1614 -0.0696 -0.6026
 7426SOL    HW133740   1.999   1.395  11.110 -0.2855  0.0629 -0.4852
 7426SOL    HW233741   1.960   1.523  11.175  1.3347  1.8298 -0.4309
 7427SOL     OW33742   4.557   3.126   4.121 -0.2174 -0.2846 -0.6863
 7427SOL    HW133743   4.620   3.106   4.053  2.2546  1.8611  0.9768
 7427SOL    HW233744   4.522   3.037   4.118 -0.2000 -0.2760 -1.2299
 7428SOL     OW33745   1.028   1.466   7.979 -0.0974  0.0808 -0.4988
 7428SOL    HW133746   1.082   1.498   7.906  0.7005 -4.3199 -1.8735
 7428SOL    HW233747   0.942   1.497   7.951  0.6755  1.5863 -1.2514
 7429SOL     OW33748   2.111   0.573   3.026 -0.3948 -0.4061 -0.3421
 7429SOL    HW133749   2.155   0.623   2.958  0.1840 -0.1378  0.2317
 7429SOL    HW233750   2.105   0.483   2.994  0.0715 -0.7933  0.6550
 7430SOL     OW33751   0.716   2.720   7.782  0.0543 -0.0690 -1.1321
 7430SOL    HW133752   0.803   2.750   7.759  0.6079 -1.2636 -0.6019
 7430SOL    HW233753   0.679   2.706   7.695  1.1798  0.0178 -1.6221
 7431SOL     OW33754   0.446   2.875   4.305  0.0848 -0.2159 -0.0834
 7431SOL    HW133755   0.483   2.957   4.272  0.1257  0.2166  1.0552
 7431SOL    HW233756   0.456   2.815   4.230 -1.6711 -1.1998  0.4770
 7432SOL     OW33757   3.301   0.967  12.449  0.1576 -0.0447  0.5205
 7432SOL    HW133758   3.305   0.872  12.438 -0.8733  0.0887 -1.0050
 7432SOL    HW233759   3.391   0.985  12.421 -0.5908  1.5113 -0.8874
 7433SOL     OW33760   1.273   0.308   1.545  0.0612  0.4351  0.5954
 7433SOL    HW133761   1.220   0.267   1.478  1.5426  1.6690 -1.3373
 7433SOL    HW233762   1.318   0.379   1.499 -0.8063  0.3351 -0.3929
 7434SOL     OW33763   2.520   4.057   4.866 -0.1944 -0.1088  0.4921
 7434SOL    HW133764   2.612   4.043   4.889  0.2030 -0.7940 -1.5221
 7434SOL    HW233765   2.500   3.990   4.801 -0.3449 -0.3502  0.7853
 7435SOL     OW33766   0.283   4.103   9.683  0.2777  0.3175  0.0500
 7435SOL    HW133767   0.305   4.196   9.682 -1.4162  0.7213 -1.5602
 7435SOL    HW233768   0.349   4.061   9.737  1.0398  0.1290 -1.0200
 7436SOL     OW33769   2.382   0.349   3.785 -0.4551  0.2628  0.5771
 7436SOL    HW133770   2.392   0.292   3.861  1.9062 -1.0432 -0.7369
 7436SOL    HW233771   2.355   0.432   3.825  1.5564  0.0944  2.3359
 7437SOL     OW33772   4.531   2.388   6.831  0.4810 -0.0579  0.3128
 7437SOL    HW133773   4.446   2.413   6.866  0.2937  1.0829 -0.9175
 7437SOL    HW233774   4.501   2.319   6.772  0.1406  1.0684 -0.8363
 7438SOL     OW33775   3.298   3.616   1.270 -0.4241 -0.3621 -0.3249
 7438SOL    HW133776   3.301   3.570   1.186 -3.8242  2.2761 -1.8558
 7438SOL    HW233777   3.203   3.619   1.275 -0.3224 -0.0331  1.5213
 7439SOL     OW33778   1.989   4.409   6.311  0.6438 -0.2848 -0.1304
 7439SOL    HW133779   1.937   4.343   6.356 -1.0056  0.1271 -1.4140
 7439SOL    HW233780   1.956   4.434   6.225  0.4705  1.7445  0.5240
 7440SOL     OW33781   2.592   1.341   2.760 -0.1227 -0.3622  0.3057
 7440SOL    HW133782   2.516   1.389   2.726 -0.8348 -2.0855 -0.5367
 7440SOL    HW233783   2.604   1.263   2.705 -0.9932 -0.3049  0.0254
 7441SOL     OW33784   3.802   4.443   5.344  0.0323  0.0592 -0.5947
 7441SOL    HW133785   3.784   4.535   5.322  1.1064  0.2595 -0.6373
 7441SOL    HW233786   3.838   4.402   5.265  0.9833  1.7198 -1.0330
 7442SOL     OW33787   2.885   4.434   8.299  0.1953  0.3076 -0.1470
 7442SOL    HW133788   2.821   4.367   8.322  1.9191 -1.8600 -1.7435
 7442SOL    HW233789   2.884   4.479   8.384 -1.3583  0.3564 -0.1873
 7443SOL     OW33790   4.274   1.924   4.168  0.0728  0.7253  0.6516
 7443SOL    HW133791   4.318   1.881   4.241  3.9867  1.7922 -1.0617
 7443SOL    HW233792   4.188   1.953   4.198 -0.2950  0.1238  0.1882
 7444SOL     OW33793   0.478   2.309  14.236 -0.1329 -0.5311  0.2903
 7444SOL    HW133794   0.422   2.386  14.245  0.0880 -0.4525  1.0461
 7444SOL    HW233795   0.430   2.244  14.288  1.2992 -1.5937  0.3054
 7445SOL     OW33796   4.666   1.768   8.775  0.0506 -0.4813 -0.1499
 7445SOL    HW133797   4.640   1.821   8.851  1.8964  1.2667 -0.7240
 7445SOL    HW233798   4.599   1.700   8.767 -2.4463  1.9924 -0.6052
 7446SOL     OW33799   3.900   0.595  11.388  0.1487 -0.4412  0.0658
 7446SOL    HW133800   3.971   0.546  11.431 -0.1748 -0.4742  0.5523
 7446SOL    HW233801   3.844   0.604  11.464 -1.1861  0.7137 -1.0519
 7447SOL     OW33802   1.233   0.215   4.157 -0.5224  0.0955  0.2389
 7447SOL    HW133803   1.163   0.150   4.160  0.6153 -1.1237  0.3834
 7447SOL    HW233804   1.206   0.266   4.081 -1.5658 -0.7164  0.0630
 7448SOL     OW33805   0.191   3.423   6.684  0.2919 -0.4146 -0.2970
 7448SOL    HW133806   0.188   3.327   6.679  2.4011 -0.5326  0.8495
 7448SOL    HW233807   0.191   3.446   6.591 -0.4530  1.4632  0.1670
 7449SOL     OW33808   4.662   2.018  16.543 -0.0760 -0.1281 -0.7829
 7449SOL    HW133809   4.653   2.034  16.449 -2.5457  0.1305 -0.5040
 7449SOL    HW233810   4.572   2.031  16.571  0.3942 -3.3423  2.2398
 7450SOL     OW33811   3.434   3.650   8.597  0.0864 -0.8229 -0.2733
 7450SOL    HW133812   3.502   3.587   8.618  0.1875 -1.2018 -1.6847
 7450SOL    HW233813   3.358   3.607   8.636  0.2485 -0.5615  0.3180
 7451SOL     OW33814   3.572   0.275   4.663  0.2877 -0.0222  0.4215
 7451SOL    HW133815   3.545   0.367   4.657  1.2945  0.1865 -0.9811
 7451SOL    HW233816   3.662   0.282   4.696 -0.8778  0.6601  3.4335
 7452SOL     OW33817   2.062   3.898   6.923  0.1324  0.7166  0.4335
 7452SOL    HW133818   1.984   3.872   6.875  1.1249 -0.3212 -0.6327
 7452SOL    HW233819   2.017   3.960   6.980 -1.5939 -1.1906  1.1153
 7453SOL     OW33820   0.945   3.165   8.578  0.9383  0.0625 -0.0827
 7453SOL    HW133821   0.930   3.205   8.664 -1.0255  1.3529 -1.0262
 7453SOL    HW233822   1.033   3.129   8.577  0.6055 -0.7232 -0.7390
 7454SOL     OW33823   3.230   3.828   3.447  0.0444  0.2404  0.0483
 7454SOL    HW133824   3.249   3.911   3.403  0.8272  0.0284 -0.0219
 7454SOL    HW233825   3.201   3.864   3.531 -0.8868 -0.8421  0.1914
 7455SOL     OW33826   1.543   0.853   6.238  0.1957  0.6670  0.0850
 7455SOL    HW133827   1.506   0.906   6.169  0.4635  1.0640  0.2486
 7455SOL    HW233828   1.571   0.922   6.298  1.1329  1.2260 -1.0102
 7456SOL     OW33829   4.316   0.682   8.470 -0.4443  0.0455  0.1807
 7456SOL    HW133830   4.338   0.764   8.515  1.8539 -0.2764 -0.3627
 7456SOL    HW233831   4.368   0.695   8.390  0.7141 -2.9545  0.4562
 7457SOL     OW33832   1.046   2.769   9.085 -0.2070 -0.2721 -0.2195
 7457SOL    HW133833   1.109   2.840   9.096  0.4312 -1.0731  1.3581
 7457SOL    HW233834   1.051   2.755   8.991  1.1753  1.5208 -0.4057
 7458SOL     OW33835   1.168   3.312   6.745  0.3240  0.3530 -0.9441
 7458SOL    HW133836   1.246   3.260   6.762  0.6541  0.9676 -0.5814
 7458SOL    HW233837   1.136   3.261   6.670 -0.9009 -0.2578 -0.0090
 7459SOL     OW33838   1.172   3.535  13.887 -0.3011  0.1170  0.6622
 7459SOL    HW133839   1.222   3.523  13.968 -0.3752  1.2548  0.8868
 7459SOL    HW233840   1.114   3.464  13.913  1.2512 -1.0547  0.9221
 7460SOL     OW33841   0.279   4.376   0.804  0.3990  0.1000  0.2182
 7460SOL    HW133842   0.259   4.377   0.897  1.3687 -0.1247  0.4352
 7460SOL    HW233843   0.363   4.331   0.810 -0.1393 -0.8930  0.2606
 7461SOL     OW33844   2.019   0.667   5.356 -0.1480  0.8761 -0.5365
 7461SOL    HW133845   2.034   0.701   5.444  0.2514  1.1721 -0.7144
 7461SOL    HW233846   1.996   0.745   5.306 -0.0259  0.4590 -1.2589
 7462SOL     OW33847   4.295   2.022  14.319 -0.8666 -0.1969 -0.1647
 7462SOL    HW133848   4.369   1.968  14.348  0.6454  1.4307 -1.0433
 7462SOL    HW233849   4.302   2.082  14.394 -2.5312  0.1179 -0.2659
 7463SOL     OW33850   3.837   0.775   8.437  0.5011  0.1598 -0.2918
 7463SOL    HW133851   3.923   0.765   8.396  0.6867 -2.4349  0.7567
 7463SOL    HW233852   3.861   0.817   8.520 -3.4907 -1.8019  1.8950
 7464SOL     OW33853   3.486   0.525   4.419  0.3339  0.3282  0.4982
 7464SOL    HW133854   3.498   0.448   4.364 -0.2247  1.1989 -0.8631
 7464SOL    HW233855   3.427   0.489   4.486 -1.3767  0.3864 -0.9709
 7465SOL     OW33856   4.134   0.895  15.073 -0.4849 -0.0085  0.5237
 7465SOL    HW133857   4.122   0.830  15.142 -0.0016 -0.1218  0.5041
 7465SOL    HW233858   4.228   0.909  15.086 -0.3737 -0.8179  0.6257
 7466SOL     OW33859   2.271   2.095  12.798  0.0999 -0.3518  0.0852
 7466SOL    HW133860   2.318   2.164  12.751  2.9025 -1.7903  0.8041
 7466SOL    HW233861   2.246   2.043  12.722 -0.8011  0.7126 -0.3464
 7467SOL     OW33862   4.057   4.588  17.507  0.0302 -0.3458 -0.0417
 7467SOL    HW133863   4.147   4.564  17.483 -0.2873 -2.1749  0.5777
 7467SOL    HW233864   4.059   4.560  17.599 -0.5235 -1.8113 -0.4740
 7468SOL     OW33865   0.112   3.454   1.340  0.3492 -0.3772  0.1928
 7468SOL    HW133866   0.084   3.433   1.250 -1.7817  1.5575  0.4140
 7468SOL    HW233867   0.204   3.428   1.341  0.4978  0.0164 -2.4359
 7469SOL     OW33868   3.741   0.291   7.093 -0.0506  0.4882  0.2981
 7469SOL    HW133869   3.750   0.198   7.115  0.2641  0.7908  1.4581
 7469SOL    HW233870   3.808   0.307   7.026  0.1871 -3.3526 -0.4162
 7470SOL     OW33871   1.515   0.410   6.571 -0.0408 -0.5385 -0.0363
 7470SOL    HW133872   1.490   0.433   6.661  1.8797 -0.1976  0.4319
 7470SOL    HW233873   1.474   0.324   6.567  0.2000 -0.7051  0.8891
 7471SOL     OW33874   0.785   0.540  14.076  0.2588  0.1699 -0.4301
 7471SOL    HW133875   0.829   0.481  14.138 -1.0557  1.8003  2.0792
 7471SOL    HW233876   0.757   0.473  14.014 -0.4299 -1.1738  1.3353
 7472SOL     OW33877   3.152   2.427   3.146  0.0577 -0.2393 -0.2412
 7472SOL    HW133878   3.146   2.348   3.200  0.5328  0.9045  1.4932
 7472SOL    HW233879   3.103   2.475   3.213  0.4853 -0.0274 -0.0840
 7473SOL     OW33880   3.011   3.667   2.682  0.1075 -0.1010 -1.1155
 7473SOL    HW133881   2.935   3.681   2.625 -0.9792 -0.7055  0.1795
 7473SOL    HW233882   3.023   3.759   2.706  0.9471 -0.7161  0.8695
 7474SOL     OW33883   3.288   3.341   9.096 -0.1748 -0.7103 -0.2400
 7474SOL    HW133884   3.223   3.294   9.044 -0.8390 -1.7098  1.4866
 7474SOL    HW233885   3.249   3.341   9.183  0.4798  0.1580  0.0563
 7475SOL     OW33886   1.114   1.648   9.552 -0.8024 -0.1661  0.1075
 7475SOL    HW133887   1.184   1.683   9.607  0.1521  0.7865 -1.7487
 7475SOL    HW233888   1.041   1.693   9.595 -1.5379 -1.9867  0.7923
 7476SOL     OW33889   4.507   0.616  15.353  0.3074  0.2386  0.4618
 7476SOL    HW133890   4.444   0.595  15.284  0.5266  0.2066  0.2716
 7476SOL    HW233891   4.576   0.654  15.299 -3.0377  2.3654 -2.3099
 7477SOL     OW33892   3.910   2.607   5.736 -0.0549 -0.0566  0.7457
 7477SOL    HW133893   3.872   2.680   5.784 -1.5489 -1.9411  2.4021
 7477SOL    HW233894   3.836   2.573   5.686 -0.2230  0.3844  0.6969
 7478SOL     OW33895   1.953   2.410   2.860  0.5928  0.3959 -0.4849
 7478SOL    HW133896   1.933   2.331   2.910 -1.8519 -0.7921 -3.2806
 7478SOL    HW233897   1.930   2.391   2.769  1.7467  1.4627 -0.9907
 7479SOL     OW33898   3.992   0.762   3.172 -0.1328 -0.0097 -0.2245
 7479SOL    HW133899   4.029   0.686   3.126 -0.9963  0.4482 -1.6786
 7479SOL    HW233900   3.952   0.803   3.095  1.5546  0.6095 -0.7814
 7480SOL     OW33901   2.249   4.135   4.704 -0.2598  0.1855  0.0772
 7480SOL    HW133902   2.275   4.163   4.792  0.1150 -1.8637  0.6335
 7480SOL    HW233903   2.334   4.130   4.659 -0.2205 -0.9209  0.2634
 7481SOL     OW33904   2.778   2.992   6.718  0.0742  0.7641  0.1325
 7481SOL    HW133905   2.784   2.944   6.800  1.0186  0.5207 -0.0840
 7481SOL    HW233906   2.743   2.918   6.668  0.9614 -0.3417  1.1680
 7482SOL     OW33907   1.760   4.122   3.316 -0.1204  0.2894 -0.0550
 7482SOL    HW133908   1.731   4.046   3.266  0.2863  0.3022 -0.3069
 7482SOL    HW233909   1.808   4.076   3.385 -1.6551  1.1378  1.5844
 7483SOL     OW33910   1.664   0.427   4.218 -0.0714  0.0242  0.1963
 7483SOL    HW133911   1.750   0.457   4.248  0.0672 -0.3373  0.1648
 7483SOL    HW233912   1.671   0.333   4.235  0.7877 -0.3819 -2.3051
 7484SOL     OW33913   2.017   3.160  17.040  0.2784  0.0006 -0.0236
 7484SOL    HW133914   1.991   3.175  17.131  1.2259  0.8602  0.1065
 7484SOL    HW233915   1.931   3.173  17.000 -1.2031  0.2369  3.2290
 7485SOL     OW33916   0.858   2.478   8.637 -0.0582  0.3309 -0.3853
 7485SOL    HW133917   0.811   2.535   8.576 -2.3133  0.1405  1.1763
 7485SOL    HW233918   0.876   2.536   8.712  1.3785  1.0055 -1.2592
 7486SOL     OW33919   2.685   1.421  11.040  0.2982 -0.5493  0.3872
 7486SOL    HW133920   2.678   1.352  10.974 -0.1689  2.1395 -2.4293
 7486SOL    HW233921   2.778   1.416  11.061  0.5693  1.6492 -0.2515
 7487SOL     OW33922   4.647   1.540   0.538 -0.3391 -0.4435  0.0164
 7487SOL    HW133923   4.642   1.543   0.442  1.1346  0.4866 -0.0309
 7487SOL    HW233924   4.596   1.462   0.559 -1.2577  0.9181  2.8562
 7488SOL     OW33925   1.633   3.817   0.437  0.0112 -0.5367 -0.2863
 7488SOL    HW133926   1.687   3.792   0.511  0.0747  0.7224  0.0845
 7488SOL    HW233927   1.556   3.860   0.474  1.2610  1.1266  0.3332
 7489SOL     OW33928   2.877   4.411  12.107  0.0229 -0.1684 -0.1408
 7489SOL    HW133929   2.896   4.326  12.068 -0.2113 -0.2005 -0.1852
 7489SOL    HW233930   2.888   4.472  12.035 -0.6435  0.3863  0.2207
 7490SOL     OW33931   4.605   1.775   1.503 -0.0408 -0.3871  0.0125
 7490SOL    HW133932   4.573   1.744   1.588  0.1456  1.2566  0.6882
 7490SOL    HW233933   4.668   1.708   1.477  2.0041  1.0442  1.2042
 7491SOL     OW33934   3.790   1.849   0.318  0.2196 -0.1386  0.3856
 7491SOL    HW133935   3.747   1.763   0.316 -0.7745  0.3514  0.8028
 7491SOL    HW233936   3.725   1.900   0.366 -0.4314 -1.0678  0.4826
 7492SOL     OW33937   3.095   0.293   7.798 -0.0373 -0.0777 -0.3355
 7492SOL    HW133938   3.064   0.342   7.721 -0.8396  0.8278  0.5626
 7492SOL    HW233939   3.137   0.216   7.759 -0.1169 -0.7326  0.8628
 7493SOL     OW33940   2.050   1.826   4.102  0.2236  0.1253 -0.1993
 7493SOL    HW133941   2.063   1.813   4.196  0.3859  4.2747  0.3308
 7493SOL    HW233942   2.130   1.782   4.073  0.0147 -1.0064  0.9276
 7494SOL     OW33943   4.104   0.811   2.154  0.1433 -0.4052 -0.1814
 7494SOL    HW133944   4.064   0.812   2.067  1.8437  0.8586 -0.9771
 7494SOL    HW233945   4.172   0.878   2.143 -2.0753  1.9958  0.7564
 7495SOL     OW33946   4.259   3.838  15.695  0.1282  0.3294  0.0277
 7495SOL    HW133947   4.282   3.928  15.717 -0.9860  0.2600  1.5245
 7495SOL    HW233948   4.216   3.859  15.613  1.5151  0.6208 -0.6312
 7496SOL     OW33949   0.977   3.347   3.392 -0.3339  0.2611  0.4606
 7496SOL    HW133950   0.970   3.254   3.371  3.9484  0.0441  0.0966
 7496SOL    HW233951   1.064   3.366   3.358 -1.4552  1.2040 -1.8559
 7497SOL     OW33952   1.243   4.412   5.086 -0.3684 -0.1566 -0.9700
 7497SOL    HW133953   1.264   4.504   5.072 -1.0754  0.6619  3.1063
 7497SOL    HW233954   1.165   4.390   5.036 -0.3944 -3.4837  0.5397
 7498SOL     OW33955   3.359   3.310   8.256  0.1117 -0.0580 -0.2184
 7498SOL    HW133956   3.371   3.404   8.245  0.4924 -0.1059 -0.2317
 7498SOL    HW233957   3.417   3.290   8.329  1.1707  2.2320 -0.4339
 7499SOL     OW33958   1.173   0.059  15.691  0.3027 -0.1560  0.5529
 7499SOL    HW133959   1.093   0.062  15.639  1.3473  0.3976 -1.0090
 7499SOL    HW233960   1.171   4.695  15.729  1.8233  0.4868  2.1414
 7500SOL     OW33961   1.974   4.184  14.009  0.4221  0.3827 -0.1308
 7500SOL    HW133962   2.050   4.211  14.061 -0.6937  0.7739  1.3044
 7500SOL    HW233963   1.941   4.273  13.995  3.9477  1.6981 -0.1798
 7501SOL     OW33964   2.621   3.977   4.141 -0.0693  0.2491  0.6704
 7501SOL    HW133965   2.609   4.071   4.131 -1.0289 -0.3377 -3.5271
 7501SOL    HW233966   2.548   3.953   4.199 -2.0218 -0.5002 -2.0752
 7502SOL     OW33967   4.612   2.333   8.084  0.3505  0.7580 -0.4909
 7502SOL    HW133968   4.597   2.327   8.178  3.2279  0.4173 -0.0659
 7502SOL    HW233969   4.697   2.289   8.079  0.9766  1.9152  0.0833
 7503SOL     OW33970   2.283   1.196   1.533  0.1980 -0.2550 -0.3662
 7503SOL    HW133971   2.222   1.162   1.467  1.0317 -0.0718 -1.2374
 7503SOL    HW233972   2.364   1.167   1.492  0.5967  1.5140 -0.8388
 7504SOL     OW33973   4.296   2.411   6.646 -0.0822 -0.1589  0.0453
 7504SOL    HW133974   4.236   2.441   6.577  1.1389  0.5329 -0.7215
 7504SOL    HW233975   4.262   2.325   6.670 -0.1097  0.0690  0.7979
 7505SOL     OW33976   1.107   1.608   2.530 -0.0019 -0.4069  0.5377
 7505SOL    HW133977   1.062   1.669   2.589  1.7195 -1.7916  3.2771
 7505SOL    HW233978   1.130   1.541   2.594  0.3350 -0.2980  0.5315
 7506SOL     OW33979   4.579   4.192   2.014 -0.8306  0.1413  0.6538
 7506SOL    HW133980   4.531   4.151   1.943 -0.1426 -0.0407  0.2884
 7506SOL    HW233981   4.647   4.124   2.019 -1.1301 -0.2723 -0.8464
 7507SOL     OW33982   1.710   1.221   8.084  0.2927  0.7323 -0.0496
 7507SOL    HW133983   1.699   1.300   8.137  0.4302  1.5544 -1.2408
 7507SOL    HW233984   1.705   1.255   7.994  0.5377  0.1090 -0.3014
 7508SOL     OW33985   0.089   0.334   6.949 -0.1228 -0.2146  0.5349
 7508SOL    HW133986   0.033   0.398   6.907 -2.0224 -2.1710  0.1222
 7508SOL    HW233987   0.105   0.278   6.873  3.8465 -0.7707  1.7662
 7509SOL     OW33988   3.314   0.354  12.595 -0.1019 -0.0436 -1.0060
 7509SOL    HW133989   3.311   0.268  12.636 -0.9426  0.0395 -0.8826
 7509SOL    HW233990   3.409   0.369  12.598 -0.3857  1.2626  1.9207
 7510SOL     OW33991   3.141   2.159   9.013  0.0173 -0.0193 -0.2721
 7510SOL    HW133992   3.112   2.077   8.972 -1.6488 -0.3710  1.6103
 7510SOL    HW233993   3.067   2.214   8.987  2.2340  3.7840  1.4150
 7511SOL     OW33994   1.935   1.701   6.423  0.0462  0.3751 -0.3049
 7511SOL    HW133995   1.972   1.721   6.509  1.1310  0.1395 -0.7163
 7511SOL    HW233996   1.914   1.788   6.390  3.1384  1.6306  1.0900
 7512SOL     OW33997   1.765   3.636   5.460  0.4349  0.4930  0.1213
 7512SOL    HW133998   1.857   3.609   5.465  0.2269 -0.1321  0.4411
 7512SOL    HW233999   1.780   3.728   5.440  2.1372  0.2710  0.3628
 7513SOL     OW34000   2.463   2.420   3.099  0.0822 -1.1581  0.1560
 7513SOL    HW134001   2.409   2.341   3.103  1.0305 -1.9066 -1.6202
 7513SOL    HW234002   2.443   2.463   3.016  2.3174  0.2450  0.3364
 7514SOL     OW34003   2.717   2.365   5.058  0.3643 -0.2594 -0.8562
 7514SOL    HW134004   2.646   2.373   5.121 -0.9023  3.6323 -2.7718
 7514SOL    HW234005   2.790   2.340   5.115 -1.2767 -0.8342  0.9912
 7515SOL     OW34006   3.226   1.343   7.219  0.2889  0.1595 -0.0362
 7515SOL    HW134007   3.220   1.433   7.186  0.0226  0.2758  0.3346
 7515SOL    HW234008   3.276   1.303   7.147 -0.5257 -2.1386  0.6774
 7516SOL     OW34009   4.279   0.763   5.411  0.7327  0.2326 -0.9340
 7516SOL    HW134010   4.289   0.744   5.504  0.6089  0.9474 -0.7704
 7516SOL    HW234011   4.368   0.792   5.392  1.0122  0.0574  0.1149
 7517SOL     OW34012   1.027   1.163   0.996  0.1685 -0.3752  0.4474
 7517SOL    HW134013   1.038   1.173   0.902  0.5414 -1.1201  0.4148
 7517SOL    HW234014   0.932   1.158   1.008 -0.2809  0.9256 -2.6689
 7518SOL     OW34015   3.655   0.165   5.127 -0.2018 -0.6528 -0.3525
 7518SOL    HW134016   3.697   0.095   5.177  0.4674 -2.5891 -3.6249
 7518SOL    HW234017   3.595   0.200   5.193 -0.4347 -1.4568 -0.1246
 7519SOL     OW34018   3.824   1.993   9.381  0.2421 -0.2848  0.4824
 7519SOL    HW134019   3.743   2.039   9.357  0.4563 -0.2678 -0.2114
 7519SOL    HW234020   3.780   1.910   9.395 -0.3832 -0.2578 -1.3679
 7520SOL     OW34021   1.405   3.622  17.610 -0.0135 -0.1999  0.3319
 7520SOL    HW134022   1.401   3.708  17.651  4.4121  0.3921 -0.4476
 7520SOL    HW234023   1.314   3.592  17.615 -1.4777  4.3570  0.1542
 7521SOL     OW34024   2.134   3.021   4.399  0.2120 -0.3243  0.2065
 7521SOL    HW134025   2.136   2.943   4.344  1.0641  1.6143 -2.4723
 7521SOL    HW234026   2.085   3.083   4.345  0.7003  1.8075  2.1989
 7522SOL     OW34027   3.870   2.608   1.650  0.3454  0.0704 -0.0933
 7522SOL    HW134028   3.957   2.647   1.658 -0.5766  1.7240  1.9745
 7522SOL    HW234029   3.813   2.683   1.669  1.8015  0.9942  0.6600
 7523SOL     OW34030   4.524   1.347   7.205  0.3144 -0.0771  0.2692
 7523SOL    HW134031   4.557   1.341   7.116  0.9765  2.3712  0.3478
 7523SOL    HW234032   4.483   1.433   7.210 -0.6842 -0.5602  0.4974
 7524SOL     OW34033   0.342   0.034   7.057 -0.0452  0.0085 -0.5045
 7524SOL    HW134034   0.252   0.059   7.079  0.6307  0.9160  1.2751
 7524SOL    HW234035   0.355   0.080   6.974  4.2791 -2.8896 -1.4006
 7525SOL     OW34036   2.207   0.553   5.126  0.3864  0.1298 -0.3520
 7525SOL    HW134037   2.294   0.578   5.095 -0.3136  1.3298 -1.3230
 7525SOL    HW234038   2.195   0.623   5.190  0.9628 -1.0791  1.0728
 7526SOL     OW34039   2.385   3.396   8.519 -0.3317 -0.0783  0.2247
 7526SOL    HW134040   2.431   3.313   8.525  0.0192  0.1205  0.2641
 7526SOL    HW234041   2.347   3.409   8.605 -1.0010 -1.8823  0.1911
 7527SOL     OW34042   1.914   3.288   5.994 -0.1585 -0.2869  0.2401
 7527SOL    HW134043   1.857   3.328   6.059 -0.5094 -0.8099  0.2501
 7527SOL    HW234044   1.995   3.275   6.044 -0.0449  1.2260  0.4669
 7528SOL     OW34045   3.068   3.693   7.761 -0.0766  0.0419 -0.3233
 7528SOL    HW134046   3.150   3.650   7.786 -0.7836 -1.8785 -1.3031
 7528SOL    HW234047   3.091   3.741   7.681 -1.0151 -1.0888 -1.2884
 7529SOL     OW34048   3.828   0.371   1.102 -0.1316 -0.8051 -0.5361
 7529SOL    HW134049   3.758   0.343   1.044 -0.9865  1.4099 -0.5734
 7529SOL    HW234050   3.859   0.451   1.061 -1.4775  0.2781  0.5694
 7530SOL     OW34051   0.923   3.900  16.896 -0.4632 -0.0777 -0.1862
 7530SOL    HW134052   0.972   3.825  16.864 -2.0886 -1.1009 -0.2842
 7530SOL    HW234053   0.869   3.927  16.822 -1.7471 -0.9162  0.4383
 7531SOL     OW34054   1.304   0.179   8.391 -0.2664 -0.3688  0.2058
 7531SOL    HW134055   1.352   0.243   8.444  1.9473 -1.4889 -0.4724
 7531SOL    HW234056   1.366   0.164   8.320 -0.3383 -4.0953  0.9385
 7532SOL     OW34057   3.477   3.456   2.527  0.2303 -0.5618 -0.1098
 7532SOL    HW134058   3.522   3.394   2.585  1.1267  0.9131  0.7992
 7532SOL    HW234059   3.383   3.448   2.537  0.4006  1.4134  2.9119
 7533SOL     OW34060   3.170   3.631   0.119  0.0435  0.5876  0.0136
 7533SOL    HW134061   3.212   3.661   0.200  1.1410  0.5019 -0.5234
 7533SOL    HW234062   3.079   3.643   0.148  0.2854  3.0510 -0.2581
 7534SOL     OW34063   3.704   4.539  13.028 -0.0010  0.3885 -0.1924
 7534SOL    HW134064   3.628   4.489  12.997 -0.7022  0.0535  2.0877
 7534SOL    HW234065   3.711   4.601  12.956  1.1865  1.2804  0.7003
 7535SOL     OW34066   3.028   0.170   8.981  0.2688 -0.2868 -0.2507
 7535SOL    HW134067   3.089   0.238   8.952  2.6277 -1.4205  2.0016
 7535SOL    HW234068   2.942   0.205   8.959  1.0793  1.2205 -0.9899
 7536SOL     OW34069   2.759   0.494  12.532  0.0292 -0.0566  0.0731
 7536SOL    HW134070   2.667   0.476  12.510  0.0031  0.3462 -0.1436
 7536SOL    HW234071   2.792   0.512  12.444 -1.2105  1.5023 -0.0825
 7537SOL     OW34072   3.790   1.788   6.367 -0.0729  0.1843  0.0798
 7537SOL    HW134073   3.761   1.879   6.369 -1.5609 -0.3082  1.8439
 7537SOL    HW234074   3.711   1.736   6.350  1.5751 -0.8915 -4.3994
 7538SOL     OW34075   4.347   0.431  17.036  0.2072  0.8925 -0.3840
 7538SOL    HW134076   4.413   0.395  17.094 -2.5313 -2.9688  0.3577
 7538SOL    HW234077   4.402   0.459  16.963 -0.9669  1.5607 -1.0217
 7539SOL     OW34078   3.991   0.654   5.050 -0.6047  0.1128  0.1714
 7539SOL    HW134079   3.931   0.590   5.089  1.0785 -0.2440  2.2002
 7539SOL    HW234080   4.071   0.602   5.035 -1.5367 -1.4547  0.6555
 7540SOL     OW34081   0.210   0.535  14.202 -0.2918  0.0662  0.2135
 7540SOL    HW134082   0.118   0.562  14.210 -0.5353 -0.5494 -0.4206
 7540SOL    HW234083   0.188   0.445  14.179 -1.7270 -0.3483  3.2011
 7541SOL     OW34084   4.406   2.952   0.471 -0.3181 -0.2728  0.3114
 7541SOL    HW134085   4.380   2.923   0.559  0.9834  1.4846  1.2751
 7541SOL    HW234086   4.328   3.007   0.457  0.2524  0.4345 -0.0599
 7542SOL     OW34087   3.808   4.229   3.069  0.1399  0.4595  0.6273
 7542SOL    HW134088   3.833   4.151   3.020  0.1282  1.1228 -0.4382
 7542SOL    HW234089   3.883   4.241   3.127 -0.0920  2.5918  0.4967
 7543SOL     OW34090   0.641   0.305   3.839 -0.6441 -0.0582 -0.6651
 7543SOL    HW134091   0.550   0.276   3.831 -0.4727 -1.0052  0.8839
 7543SOL    HW234092   0.639   0.366   3.912  2.9053 -0.0337 -0.6042
 7544SOL     OW34093   3.646   1.370   5.277  0.2220 -0.0395  0.4322
 7544SOL    HW134094   3.697   1.301   5.320 -0.1040  0.2357  1.2684
 7544SOL    HW234095   3.602   1.405   5.354  1.1458 -1.7069  1.7200
 7545SOL     OW34096   2.162   0.934   8.079  0.3351 -0.0327 -0.1687
 7545SOL    HW134097   2.070   0.928   8.103  0.7114  0.7993  1.4759
 7545SOL    HW234098   2.188   1.002   8.141  1.3652  1.2272 -1.9869
 7546SOL     OW34099   3.844   2.424   9.675 -0.1299 -0.1701 -0.1960
 7546SOL    HW134100   3.930   2.395   9.704 -0.0034 -1.3132 -1.7439
 7546SOL    HW234101   3.865   2.509   9.635  0.0607 -0.2185 -0.1967
 7547SOL     OW34102   3.459   2.034  11.892  0.1075 -0.8073  0.0573
 7547SOL    HW134103   3.525   1.977  11.932 -0.3094 -2.1607 -1.1870
 7547SOL    HW234104   3.384   1.976  11.907  0.8884 -1.1748  2.6229
 7548SOL     OW34105   0.908   1.148   6.550  0.6377  0.2436  0.1972
 7548SOL    HW134106   0.855   1.211   6.500  0.2293  0.7540  1.2885
 7548SOL    HW234107   0.878   1.180   6.635 -0.8390 -1.4569  0.3203
 7549SOL     OW34108   0.998   2.615  13.476  0.0407 -0.1079 -0.0860
 7549SOL    HW134109   0.972   2.546  13.537 -0.4568 -1.5284 -1.8951
 7549SOL    HW234110   0.915   2.658  13.453  0.0377  0.2274  0.5548
 7550SOL     OW34111   1.148   2.332   5.289 -0.8937  0.3990 -0.4720
 7550SOL    HW134112   1.092   2.407   5.310  0.4233  1.3996 -0.5939
 7550SOL    HW234113   1.146   2.274   5.364 -2.5099  0.7570 -0.2310
 7551SOL     OW34114   0.490   4.153  11.265  0.1722 -0.1125 -0.2292
 7551SOL    HW134115   0.565   4.181  11.317 -0.7897  1.0273  0.5654
 7551SOL    HW234116   0.519   4.184  11.179  0.0808  1.0812  0.1582
 7552SOL     OW34117   1.702   1.841   9.083  0.2412 -0.2516 -0.3993
 7552SOL    HW134118   1.657   1.819   9.164 -1.7338 -2.3035 -2.0716
 7552SOL    HW234119   1.790   1.825   9.118  1.0712  1.9938 -1.4725
 7553SOL     OW34120   0.049   3.428  10.219 -0.1679  0.2726 -0.0561
 7553SOL    HW134121   4.695   3.449  10.168 -0.6537 -2.0131 -0.2230
 7553SOL    HW234122   0.115   3.478  10.170  0.8716 -0.4543  0.6118
 7554SOL     OW34123   1.928   1.658   5.675  0.2204  0.1400 -0.0068
 7554SOL    HW134124   1.888   1.745   5.675  0.2014  0.1419  1.1269
 7554SOL    HW234125   1.997   1.670   5.741  0.9684  0.4947 -0.8629
 7555SOL     OW34126   2.478   1.588   8.351 -0.4584 -0.5602  0.1686
 7555SOL    HW134127   2.418   1.657   8.322  0.7319  0.6209  0.4899
 7555SOL    HW234128   2.493   1.547   8.266 -0.5068  1.8629 -1.0163
 7556SOL     OW34129   1.360   1.280   6.937  0.0963  0.3113 -0.4606
 7556SOL    HW134130   1.452   1.278   6.913  0.3673  1.4972  0.5138
 7556SOL    HW234131   1.320   1.228   6.866  0.0551  1.2446 -1.1174
 7557SOL     OW34132   0.486   1.437  10.032  0.5598  0.5925  0.5398
 7557SOL    HW134133   0.510   1.515  10.082  1.9558 -0.0304  0.8224
 7557SOL    HW234134   0.429   1.404  10.101 -0.9961 -0.2349 -1.1446
 7558SOL     OW34135   4.168   3.903   4.216 -0.0056 -0.5542  0.5500
 7558SOL    HW134136   4.101   3.842   4.184 -0.0678 -1.6356  2.7893
 7558SOL    HW234137   4.221   3.894   4.136 -0.9005  0.8545 -0.2065
 7559SOL     OW34138   1.919   3.936   3.431 -0.1818 -0.1558  0.0549
 7559SOL    HW134139   1.901   3.848   3.465 -2.6641 -0.0616 -0.9681
 7559SOL    HW234140   1.893   3.985   3.509  2.2710 -1.2933  1.5790
 7560SOL     OW34141   0.835   0.363   5.312 -0.0328 -0.1979 -0.5515
 7560SOL    HW134142   0.832   0.439   5.369  1.4791 -0.4978 -0.0678
 7560SOL    HW234143   0.773   0.381   5.242  2.3007 -2.0294 -3.1067
 7561SOL     OW34144   3.461   2.765   2.469  0.4926  0.0112  0.6324
 7561SOL    HW134145   3.389   2.826   2.451 -0.9382 -2.0648 -0.6837
 7561SOL    HW234146   3.417   2.697   2.519 -1.5795  0.2341 -0.8749
 7562SOL     OW34147   2.815   3.625   5.012 -0.4346 -0.1522 -0.3063
 7562SOL    HW134148   2.831   3.595   4.922  2.7885  0.5948  0.0003
 7562SOL    HW234149   2.758   3.552   5.035 -1.1394 -0.1225 -1.9758
 7563SOL     OW34150   4.060   0.832   7.143  0.4214  0.6959  0.1408
 7563SOL    HW134151   4.005   0.829   7.221  0.8764 -0.7885  0.4008
 7563SOL    HW234152   4.125   0.765   7.164 -0.6249 -0.5077 -0.5142
 7564SOL     OW34153   4.716   3.488  10.810  0.6703  0.2583 -0.4227
 7564SOL    HW134154   4.659   3.412  10.802 -0.0557  0.6837  0.7413
 7564SOL    HW234155   0.023   3.492  10.720 -0.3110  1.1600 -0.7403
 7565SOL     OW34156   4.233   0.710   2.547 -0.0343 -0.2752  0.5316
 7565SOL    HW134157   4.253   0.790   2.498  1.3831 -1.2806 -0.5309
 7565SOL    HW234158   4.161   0.668   2.500  0.7655 -0.8189 -0.2034
 7566SOL     OW34159   0.595   0.780   3.583 -0.1583 -0.1579  0.4805
 7566SOL    HW134160   0.573   0.820   3.667  0.2014 -0.3914  0.6858
 7566SOL    HW234161   0.675   0.733   3.606  1.0686  1.8048  0.1614
 7567SOL     OW34162   2.627   1.323   6.823 -0.7250 -0.6969  0.2393
 7567SOL    HW134163   2.550   1.267   6.819  0.3122 -2.1273  0.4565
 7567SOL    HW234164   2.697   1.275   6.777 -0.9196 -1.9034  1.2136
 7568SOL     OW34165   3.649   0.194   6.780  0.1616 -0.3358  0.5372
 7568SOL    HW134166   3.699   0.129   6.829 -1.0588 -0.6397  1.3776
 7568SOL    HW234167   3.570   0.154   6.816  0.1897  0.1674  1.1500
 7569SOL     OW34168   2.134   4.403   6.009 -0.2796  0.3492  0.2351
 7569SOL    HW134169   2.149   4.469   5.941  2.2957 -0.2846  0.1948
 7569SOL    HW234170   2.045   4.422   6.037 -0.0092  3.0154 -0.7215
 7570SOL     OW34171   3.591   0.133   1.460  0.1833 -0.1834 -0.1884
 7570SOL    HW134172   3.540   0.085   1.395  0.3233 -0.1049 -0.3564
 7570SOL    HW234173   3.608   0.062   1.522 -1.1259 -0.9165 -0.6841
 7571SOL     OW34174   0.753   3.119   5.104  0.2678 -0.1181  0.2430
 7571SOL    HW134175   0.675   3.144   5.054 -0.1958 -2.9953 -0.4917
 7571SOL    HW234176   0.750   3.175   5.181  0.7714  1.4510 -0.8873
 7572SOL     OW34177   2.952   3.207   9.708  0.2294 -0.3427 -0.3732
 7572SOL    HW134178   2.883   3.268   9.735  0.1066 -0.7361  0.1996
 7572SOL    HW234179   2.895   3.130   9.700 -0.5825  0.4670 -2.6233
 7573SOL     OW34180   0.902   1.362   7.511 -0.4107  0.1153  0.0372
 7573SOL    HW134181   0.899   1.379   7.417 -0.9990 -1.4864 -0.2301
 7573SOL    HW234182   0.924   1.269   7.502  0.3483  0.1571  1.4580
 7574SOL     OW34183   1.205   1.779  15.753  0.3837 -0.2024  0.2970
 7574SOL    HW134184   1.180   1.867  15.725  1.8141 -0.4519 -1.8149
 7574SOL    HW234185   1.300   1.790  15.741  0.2582 -1.2858 -1.8224
 7575SOL     OW34186   3.549   4.397   8.047 -0.7395 -0.0168  0.4558
 7575SOL    HW134187   3.627   4.342   8.061  2.0615  3.6999 -0.7502
 7575SOL    HW234188   3.507   4.387   8.133 -1.2268  0.1358  0.2328
 7576SOL     OW34189   0.484   1.251  14.396 -0.6254 -0.0073 -0.1257
 7576SOL    HW134190   0.411   1.310  14.415 -1.3090 -0.5027 -1.2349
 7576SOL    HW234191   0.435   1.171  14.375  0.3702 -1.6192  3.6501
 7577SOL     OW34192   1.387   3.697  17.200 -0.0173  0.2101 -0.0791
 7577SOL    HW134193   1.442   3.630  17.159  1.0831  0.7002  0.5855
 7577SOL    HW234194   1.307   3.645  17.205  0.7648 -1.0184 -0.2905
 7578SOL     OW34195   1.433   4.497   3.226 -0.1286 -0.2347 -0.6410
 7578SOL    HW134196   1.344   4.529   3.234  0.1538  0.4128 -0.0954
 7578SOL    HW234197   1.483   4.578   3.229  0.9666 -0.8956 -0.8152
 7579SOL     OW34198   0.747   3.859   5.881  0.1627 -0.3406 -0.3884
 7579SOL    HW134199   0.669   3.812   5.853 -0.0033  0.1958 -0.8090
 7579SOL    HW234200   0.798   3.790   5.925 -1.3687 -0.7370  0.7639
 7580SOL     OW34201   0.319   3.504  10.925  0.2561  0.4292 -0.3006
 7580SOL    HW134202   0.250   3.491  10.860 -1.4151  0.2858  1.5004
 7580SOL    HW234203   0.373   3.575  10.889  1.2890  0.8406  2.0308
 7581SOL     OW34204   1.768   0.229   6.169 -0.4498  0.6099  0.5962
 7581SOL    HW134205   1.681   0.258   6.197  0.5473  0.3794  3.9625
 7581SOL    HW234206   1.794   0.177   6.245  1.1681 -1.3524 -1.3175
 7582SOL     OW34207   3.859   3.565   5.901 -0.2924 -0.0002  0.1658
 7582SOL    HW134208   3.905   3.649   5.897  1.7069 -1.2045 -2.1168
 7582SOL    HW234209   3.885   3.534   5.988 -0.4739 -0.7985 -0.0634
 7583SOL     OW34210   0.199   0.922   4.940  0.3363 -0.3384  0.1285
 7583SOL    HW134211   0.272   0.893   4.995 -0.3932 -0.9355  0.7820
 7583SOL    HW234212   0.162   0.836   4.921 -0.6132  0.3733 -1.2566
 7584SOL     OW34213   0.661   2.271   4.328  0.3164  0.0345  0.1951
 7584SOL    HW134214   0.668   2.363   4.352  0.2277  0.3603 -1.0306
 7584SOL    HW234215   0.632   2.267   4.237 -0.4403 -1.0300  0.4819
 7585SOL     OW34216   0.597   3.967   4.633  0.3572  0.0498 -0.2539
 7585SOL    HW134217   0.667   3.995   4.691  0.2640 -2.5516  1.1270
 7585SOL    HW234218   0.516   4.010   4.660 -0.3608 -0.7663 -1.1011
 7586SOL     OW34219   0.648   1.411   0.326 -0.1176  0.8375 -0.1743
 7586SOL    HW134220   0.655   1.387   0.419 -0.8723  1.6335  0.0988
 7586SOL    HW234221   0.596   1.336   0.296  1.6746  0.0187 -1.1660
 7587SOL     OW34222   3.458   0.438  11.226 -0.0426  0.6006  0.0257
 7587SOL    HW134223   3.515   0.362  11.219 -0.9487  0.0499 -1.2184
 7587SOL    HW234224   3.520   0.507  11.204 -0.1755  0.5419 -0.5429
 7588SOL     OW34225   4.562   3.433   3.586  0.5027  0.1488 -0.1072
 7588SOL    HW134226   4.577   3.428   3.492 -1.5625  2.5917 -0.5595
 7588SOL    HW234227   4.500   3.506   3.593  1.1873  0.7837 -0.7733
 7589SOL     OW34228   1.537   3.621  15.616  0.0366 -0.1396  0.0274
 7589SOL    HW134229   1.469   3.602  15.551 -1.5217 -0.8361  1.8368
 7589SOL    HW234230   1.620   3.612  15.569  0.4506  1.3021  0.4582
 7590SOL     OW34231   2.573   3.398   4.207 -0.5483  0.1833 -0.0967
 7590SOL    HW134232   2.597   3.343   4.282 -0.2184  0.2689 -0.1368
 7590SOL    HW234233   2.661   3.408   4.169 -0.2159 -0.6872  0.4485
 7591SOL     OW34234   1.920   3.317  10.093 -0.4648 -0.1476  0.2917
 7591SOL    HW134235   1.905   3.377  10.166  0.9404 -0.2147  0.6426
 7591SOL    HW234236   1.992   3.365  10.051 -0.2721 -0.5125  0.2045
 7592SOL     OW34237   3.234   0.021   2.754  0.0981  0.5663 -0.5208
 7592SOL    HW134238   3.214   0.115   2.753  0.4890  0.6538 -0.1836
 7592SOL    HW234239   3.314   0.035   2.705  1.2803  0.5854  1.4137
 7593SOL     OW34240   3.540   3.094   3.171 -0.7271  0.1443  0.0891
 7593SOL    HW134241   3.612   3.060   3.117 -0.7906  0.6794 -0.3347
 7593SOL    HW234242   3.512   3.012   3.212  2.2282 -0.7579  0.3737
 7594SOL     OW34243   4.366   0.406   2.120 -0.4228  0.2404 -0.0038
 7594SOL    HW134244   4.386   0.450   2.038 -0.2910  0.7558  0.3046
 7594SOL    HW234245   4.327   0.326   2.085  2.2583 -1.7741  1.5226
 7595SOL     OW34246   0.068   1.936   8.590  0.1495 -1.0056  0.1969
 7595SOL    HW134247   0.130   1.980   8.647  1.5154 -3.6922  0.8015
 7595SOL    HW234248   0.011   1.894   8.655 -1.3137  0.9240  0.1765
 7596SOL     OW34249   2.115   3.501   7.740 -0.1567  0.6374 -0.1907
 7596SOL    HW134250   2.144   3.490   7.831  0.3925  0.6772 -0.3578
 7596SOL    HW234251   2.033   3.453   7.748 -0.0935  0.7695  1.2732
 7597SOL     OW34252   3.522   0.137   2.005 -0.6184  0.4798  0.0363
 7597SOL    HW134253   3.441   0.169   1.965 -0.6791 -0.1588 -0.3547
 7597SOL    HW234254   3.485   0.084   2.075 -3.7476  0.0582 -1.9368
 7598SOL     OW34255   0.271   2.964  15.377 -0.6345  0.3404 -0.3383
 7598SOL    HW134256   0.274   3.029  15.307 -2.5576  0.4714 -0.2784
 7598SOL    HW234257   0.176   2.954  15.382 -0.6553  0.5375 -0.3283
 7599SOL     OW34258   3.528   3.708   4.807  0.4751 -0.4035 -0.2335
 7599SOL    HW134259   3.575   3.730   4.887  0.9019  1.1724 -0.9156
 7599SOL    HW234260   3.602   3.685   4.751  1.3295  0.3867  0.5781
 7600SOL     OW34261   2.860   0.344   8.216  0.2418  0.1023  0.4073
 7600SOL    HW134262   2.824   0.413   8.271 -2.0120 -1.2404  0.6301
 7600SOL    HW234263   2.793   0.275   8.214 -2.0461  2.3341 -1.3338
 7601SOL     OW34264   3.557   0.966   1.839 -0.6146  0.3461  0.5563
 7601SOL    HW134265   3.651   0.978   1.828 -0.7704  1.8826  0.8360
 7601SOL    HW234266   3.526   1.045   1.795  1.2753  2.0413  2.2193
 7602SOL     OW34267   3.991   0.664   7.869  0.7310  0.2014  0.0742
 7602SOL    HW134268   3.960   0.712   7.945  1.5109  0.7910  0.0227
 7602SOL    HW234269   4.039   0.735   7.826  0.7876 -0.2434 -0.5999
 7603SOL     OW34270   1.886   0.337   2.656 -0.1411 -0.3494 -0.2474
 7603SOL    HW134271   1.861   0.364   2.744 -1.5686 -1.6760 -0.2577
 7603SOL    HW234272   1.801   0.323   2.615  0.5773  1.9897 -2.5997
 7604SOL     OW34273   1.017   3.902   8.113  0.3927  0.3016  0.0565
 7604SOL    HW134274   1.107   3.896   8.145 -0.0288 -1.0399  0.9962
 7604SOL    HW234275   0.983   3.980   8.156 -0.5463  0.7982 -1.5993
 7605SOL     OW34276   3.339   0.962   5.887  0.2206 -0.1888 -0.6248
 7605SOL    HW134277   3.432   0.939   5.885  0.7756  2.0888 -0.3862
 7605SOL    HW234278   3.332   1.022   5.961 -0.5347 -1.1628  0.1069
 7606SOL     OW34279   3.522   1.837   4.925 -0.4859 -0.1716  0.0153
 7606SOL    HW134280   3.596   1.866   4.872 -0.6930 -0.4420 -0.4225
 7606SOL    HW234281   3.505   1.759   4.873  0.3870  0.0015 -0.5321
 7607SOL     OW34282   0.181   0.414   8.106  0.6946 -0.5820  0.2220
 7607SOL    HW134283   0.175   0.489   8.047  0.3723 -1.9331 -1.4942
 7607SOL    HW234284   0.105   0.417   8.163 -0.5690  3.1318 -1.6600
 7608SOL     OW34285   4.182   1.230   1.935 -0.5231 -0.3520  0.4834
 7608SOL    HW134286   4.146   1.254   1.850 -0.5229 -1.3749  0.1956
 7608SOL    HW234287   4.274   1.251   1.923 -0.7758  0.1141 -0.5858
 7609SOL     OW34288   1.455   2.275   7.538  0.3032  0.1192  0.4091
 7609SOL    HW134289   1.392   2.347   7.534  0.8882  0.4851 -2.6118
 7609SOL    HW234290   1.477   2.243   7.450  3.2527  2.6625  0.2337
 7610SOL     OW34291   0.924   2.053  12.368 -0.2767  0.7462 -0.2159
 7610SOL    HW134292   0.949   1.997  12.442  1.3487  1.8363  0.0597
 7610SOL    HW234293   0.928   1.997  12.290  0.9914  0.0587  0.3523
 7611SOL     OW34294   4.558   1.827   0.053 -0.7405 -0.3400 -0.2551
 7611SOL    HW134295   4.509   1.895   0.100 -0.0980 -0.4261  0.5301
 7611SOL    HW234296   4.573   1.870  17.669 -0.0307 -1.1458 -0.5374
 7612SOL     OW34297   0.340   3.071  11.646 -0.1902  0.1137 -0.2002
 7612SOL    HW134298   0.350   3.166  11.642 -3.7758  0.4678 -0.6301
 7612SOL    HW234299   0.379   3.041  11.728  2.6863 -1.0315 -1.9538
 7613SOL     OW34300   3.535   1.373   9.434  0.2027 -0.0562 -0.8273
 7613SOL    HW134301   3.589   1.300   9.463  1.7406  0.5007 -2.2351
 7613SOL    HW234302   3.457   1.377   9.490  0.8767 -1.1977  0.1975
 7614SOL     OW34303   1.111   4.379   7.683 -0.1972 -0.0691  0.4170
 7614SOL    HW134304   1.066   4.295   7.669 -0.2197  0.0724 -0.3596
 7614SOL    HW234305   1.196   4.353   7.647 -1.0551 -0.6931 -1.1644
 7615SOL     OW34306   4.528   1.922   3.400  0.0759  0.9512 -0.2405
 7615SOL    HW134307   4.498   1.993   3.458 -0.2197 -0.6587  1.5695
 7615SOL    HW234308   4.491   1.955   3.318  0.8948 -1.5610 -1.6164
 7616SOL     OW34309   0.556   1.141  11.916  0.0180 -0.7242 -0.4782
 7616SOL    HW134310   0.535   1.079  11.986 -1.3752  0.9357  0.5755
 7616SOL    HW234311   0.506   1.217  11.945 -0.0945 -1.2465  0.7080
 7617SOL     OW34312   0.453   1.961  15.179 -0.1273 -0.5806 -0.2076
 7617SOL    HW134313   0.399   1.882  15.172 -0.7238 -0.1479 -0.4819
 7617SOL    HW234314   0.544   1.937  15.159  0.1610  1.6041 -1.4991
 7618SOL     OW34315   1.748   2.015   5.411  0.2814  0.5805  0.0970
 7618SOL    HW134316   1.763   1.939   5.355  1.7460  0.9494 -0.0075
 7618SOL    HW234317   1.659   2.039   5.383 -0.2046 -2.5604 -1.0515
 7619SOL     OW34318   1.515   3.705   9.652  0.0004 -0.0835  0.0564
 7619SOL    HW134319   1.480   3.772   9.711 -1.1267 -0.4560 -0.1956
 7619SOL    HW234320   1.604   3.692   9.685  0.8009  2.2984 -1.1355
 7620SOL     OW34321   1.579   1.293   4.375  0.4550  0.0460  0.1290
 7620SOL    HW134322   1.634   1.233   4.324  0.8237 -0.9446  1.6781
 7620SOL    HW234323   1.586   1.380   4.336 -1.4112  0.7987  1.4786
 7621SOL     OW34324   4.613   0.866   4.780 -0.2517 -0.0660 -0.1505
 7621SOL    HW134325   4.564   0.800   4.732 -1.8615 -0.5036  2.1026
 7621SOL    HW234326   4.685   0.815   4.816  2.0004  2.1179 -1.5959
 7622SOL     OW34327   0.981   1.881  12.127 -0.1259  0.4135  0.3752
 7622SOL    HW134328   1.016   1.962  12.090 -0.6536  1.1507  1.4934
 7622SOL    HW234329   0.912   1.862  12.064 -0.4813 -1.7201  1.4057
 7623SOL     OW34330   0.819   3.599   8.016  0.1949  0.6329  0.0068
 7623SOL    HW134331   0.823   3.518   7.966 -1.3853  0.0094  0.8846
 7623SOL    HW234332   0.849   3.568   8.101  1.0919 -0.4135 -0.6959
 7624SOL     OW34333   3.728   1.724   7.420 -0.0379  0.1378 -0.0760
 7624SOL    HW134334   3.761   1.655   7.477 -1.6766 -0.0400  0.6605
 7624SOL    HW234335   3.772   1.791   7.471 -1.9030  1.3650 -0.0692
 7625SOL     OW34336   4.458   0.878   4.124  0.4299 -0.0856 -0.0050
 7625SOL    HW134337   4.480   0.906   4.213  1.9795 -0.7144 -0.1866
 7625SOL    HW234338   4.545   0.844   4.103  0.3132  0.2069 -0.9612
 7626SOL     OW34339   2.062   2.708   8.332 -0.3791 -0.1570 -0.5243
 7626SOL    HW134340   2.126   2.668   8.391 -1.2459 -1.9693 -0.8110
 7626SOL    HW234341   2.097   2.795   8.316 -1.9473  0.3538 -1.1593
 7627SOL     OW34342   4.696   1.937   1.733  0.1062  0.4811 -0.3974
 7627SOL    HW134343   4.636   2.010   1.718 -0.7639 -0.2405 -0.3711
 7627SOL    HW234344   4.637   1.862   1.730 -0.5414  1.0269 -1.3766
 7628SOL     OW34345   3.489   2.650   8.479 -0.8768  0.4803 -0.0761
 7628SOL    HW134346   3.409   2.703   8.488  0.4881  2.5508 -0.0488
 7628SOL    HW234347   3.469   2.591   8.407  0.0313  0.5263 -0.3649
 7629SOL     OW34348   0.937   3.433   4.287 -0.4067 -0.1278 -0.0178
 7629SOL    HW134349   0.946   3.493   4.361  0.2421 -1.1665  0.7298
 7629SOL    HW234350   0.955   3.495   4.216 -0.9369 -0.9139 -0.8455
 7630SOL     OW34351   0.537   0.868   2.537 -0.2244 -0.2366  0.0062
 7630SOL    HW134352   0.581   0.923   2.472  0.1085  0.4620  0.8260
 7630SOL    HW234353   0.581   0.783   2.529  2.5476  1.1843  0.2207
 7631SOL     OW34354   1.795   3.251  16.936  0.6384 -0.0375  0.2561
 7631SOL    HW134355   1.774   3.342  16.958 -2.0598 -0.7417  0.5971
 7631SOL    HW234356   1.785   3.264  16.842 -2.3754 -1.8243  0.3355
 7632SOL     OW34357   2.143   2.358   0.533 -0.6582  0.4150  0.3154
 7632SOL    HW134358   2.064   2.309   0.556 -1.8342  0.9027 -2.7235
 7632SOL    HW234359   2.107   2.439   0.496 -0.1177  0.1372 -0.7833
 7633SOL     OW34360   2.727   0.996   7.376  0.3804 -0.1802  0.5223
 7633SOL    HW134361   2.736   1.084   7.339 -2.8468  0.6658  1.8067
 7633SOL    HW234362   2.763   0.948   7.301 -3.9068 -1.1852 -0.8611
 7634SOL     OW34363   1.156   2.885  15.226 -0.2409  0.2126  0.3865
 7634SOL    HW134364   1.131   2.933  15.304 -1.6951 -2.0758  1.3367
 7634SOL    HW234365   1.236   2.846  15.259  0.5161  0.6126 -0.9677
 7635SOL     OW34366   0.534   4.570   2.523  0.4554 -0.0528  0.0473
 7635SOL    HW134367   0.592   4.509   2.569  1.3828 -0.4315 -1.6078
 7635SOL    HW234368   0.569   4.654   2.553 -0.6683  0.3830  0.1220
 7636SOL     OW34369   3.469   3.347  13.895 -0.5673 -0.1797 -0.7552
 7636SOL    HW134370   3.412   3.277  13.862 -0.0264 -1.5552  1.2070
 7636SOL    HW234371   3.518   3.374  13.817 -0.2194 -1.0829 -0.8580
 7637SOL     OW34372   1.405   1.572   5.894 -0.1440 -0.3253  0.1987
 7637SOL    HW134373   1.328   1.628   5.886  0.6373  0.4944 -1.4640
 7637SOL    HW234374   1.476   1.616   5.848 -0.7731 -1.2928 -1.7060
 7638SOL     OW34375   1.054   3.020  14.909 -0.0346 -0.2890  0.4223
 7638SOL    HW134376   1.031   3.088  14.973  0.8053  0.9524 -0.5935
 7638SOL    HW234377   0.972   2.990  14.871  0.5898 -2.4344  0.7793
 7639SOL     OW34378   4.634   2.658  11.416  0.1578  0.5942 -0.0755
 7639SOL    HW134379   4.561   2.619  11.466 -0.7584  1.9296 -0.3560
 7639SOL    HW234380   4.711   2.617  11.456 -1.2333 -1.6611  0.3294
 7640SOL     OW34381   3.301   4.608   4.194 -0.0965  0.0801 -0.1072
 7640SOL    HW134382   3.348   4.571   4.269  0.7585  0.2901 -0.5413
 7640SOL    HW234383   3.220   4.629   4.242  0.5850 -0.3819  1.2533
 7641SOL     OW34384   0.304   2.034   7.263  1.0860  0.0363  0.3486
 7641SOL    HW134385   0.251   1.976   7.209  0.5356 -0.9562  1.9556
 7641SOL    HW234386   0.379   2.054   7.208 -0.3225 -1.0216 -1.9546
 7642SOL     OW34387   3.260   2.336   8.212  0.4307  0.2296 -0.4821
 7642SOL    HW134388   3.344   2.376   8.188 -0.7165  2.2726 -1.0028
 7642SOL    HW234389   3.204   2.345   8.136 -2.3030  0.6930  1.6018
 7643SOL     OW34390   1.844   0.437   7.182 -0.1341  0.0622 -0.6095
 7643SOL    HW134391   1.915   0.445   7.118  0.0796 -0.2365 -0.4126
 7643SOL    HW234392   1.872   0.357   7.226  4.5579  3.0306  1.8814
 7644SOL     OW34393   3.051   4.641   6.277  0.2826  0.2208  0.2372
 7644SOL    HW134394   3.121   4.706   6.265 -0.4596  0.7940 -1.0241
 7644SOL    HW234395   3.026   4.663   6.367  0.4174 -2.6517  0.9555
 7645SOL     OW34396   2.482   3.355   7.074  0.0968  0.6143 -0.4144
 7645SOL    HW134397   2.557   3.407   7.103  0.7294  0.1459 -1.2141
 7645SOL    HW234398   2.521   3.269   7.058 -1.4646 -0.1565 -0.0856
 7646SOL     OW34399   2.637   1.734   9.056  0.2688 -0.2667 -0.1859
 7646SOL    HW134400   2.562   1.718   9.113  1.3140  0.5052  1.4178
 7646SOL    HW234401   2.649   1.828   9.070 -2.8490  0.0728  0.2268
 7647SOL     OW34402   3.255   0.318   2.987 -0.7938  0.2283 -0.0173
 7647SOL    HW134403   3.251   0.258   3.061 -0.9720  0.3492  0.0694
 7647SOL    HW234404   3.318   0.384   3.017 -1.3826  0.3255  1.0113
 7648SOL     OW34405   2.421   4.499   3.431 -0.4484 -0.3096  0.2096
 7648SOL    HW134406   2.336   4.527   3.467 -1.0585 -0.1963 -1.2970
 7648SOL    HW234407   2.404   4.441   3.357 -1.4714 -0.7507  0.7854
 7649SOL     OW34408   3.584   1.172  17.491  0.0565 -0.3977 -0.1507
 7649SOL    HW134409   3.625   1.244  17.537  1.8395 -0.9458 -0.8598
 7649SOL    HW234410   3.640   1.099  17.519  0.7552  0.4006  0.5190
 7650SOL     OW34411   1.743   3.401   5.666  0.1038  0.0717 -0.7197
 7650SOL    HW134412   1.815   3.422   5.607  0.0531  0.6488 -0.5680
 7650SOL    HW234413   1.682   3.356   5.606  1.2759 -0.1848 -1.7239
 7651SOL     OW34414   3.059   3.504   9.422 -0.1998  0.5318 -0.3534
 7651SOL    HW134415   3.132   3.559   9.450 -1.4207  2.2180 -0.4592
 7651SOL    HW234416   2.988   3.543   9.474 -0.9070  0.8842 -1.5893
 7652SOL     OW34417   3.908   4.550   2.355 -0.6706 -0.7842 -0.7211
 7652SOL    HW134418   3.859   4.624   2.320 -0.9234 -0.3273  0.6034
 7652SOL    HW234419   3.901   4.489   2.282 -0.2727 -3.0257  1.1200
 7653SOL     OW34420   0.568   0.067   6.234  0.1217 -0.2891  0.4216
 7653SOL    HW134421   0.520   0.106   6.161  0.2317 -0.4167  0.2813
 7653SOL    HW234422   0.594   4.705   6.201  2.8287 -0.7958  3.8771
 7654SOL     OW34423   1.845   1.728   6.702 -0.0716 -0.4972 -0.1321
 7654SOL    HW134424   1.906   1.793   6.737  1.8244 -0.9395 -2.6265
 7654SOL    HW234425   1.768   1.749   6.756 -1.0054  0.3836 -1.8187
 7655SOL     OW34426   1.649   1.131   5.285 -0.1616 -0.5326 -0.3861
 7655SOL    HW134427   1.699   1.211   5.297  1.1879 -1.4904  0.5036
 7655SOL    HW234428   1.674   1.084   5.365  0.4122  1.2470  0.4613
 7656SOL     OW34429   3.126   3.963   2.354 -0.4340 -0.3980  0.4104
 7656SOL    HW134430   3.037   3.956   2.320 -1.7896 -1.0794  4.0903
 7656SOL    HW234431   3.176   3.953   2.272 -0.8970  1.1587 -0.0565
 7657SOL     OW34432   0.494   1.172   3.156  0.0918  0.2512 -0.7411
 7657SOL    HW134433   0.554   1.201   3.087  0.2270  0.3956 -0.5622
 7657SOL    HW234434   0.557   1.134   3.217 -2.4695  3.0830  3.6944
 7658SOL     OW34435   2.852   2.371   0.694  0.4381  0.0613 -0.0504
 7658SOL    HW134436   2.780   2.412   0.646 -1.3699 -1.6632  1.1532
 7658SOL    HW234437   2.862   2.281   0.664  1.3666  0.6613 -1.5616
 7659SOL     OW34438   0.116   0.698   9.777 -0.1254 -0.9362  0.1740
 7659SOL    HW134439   0.155   0.659   9.699 -0.1810 -1.3390  0.3514
 7659SOL    HW234440   0.107   0.615   9.823  0.5811 -1.3348 -0.4068
 7660SOL     OW34441   3.243   2.805  13.767 -0.5519 -0.1399  0.0513
 7660SOL    HW134442   3.194   2.723  13.765 -0.5583 -0.1234 -0.4320
 7660SOL    HW234443   3.314   2.797  13.831 -0.7557 -0.6211  0.2173
 7661SOL     OW34444   1.226   1.089   4.849 -0.2177 -0.3833  0.2192
 7661SOL    HW134445   1.318   1.075   4.825  0.2578  0.3936  1.5948
 7661SOL    HW234446   1.200   1.170   4.807 -2.3949 -1.4238 -0.4020
 7662SOL     OW34447   0.753   2.462   3.773  0.1269  0.3636  0.2608
 7662SOL    HW134448   0.768   2.389   3.713 -0.7954  0.0558  0.4021
 7662SOL    HW234449   0.658   2.458   3.766  0.2629 -1.4592 -0.6011
 7663SOL     OW34450   2.603   3.031  14.371  0.2429  0.0772 -0.1231
 7663SOL    HW134451   2.657   3.014  14.448  0.6393  0.6339 -0.2773
 7663SOL    HW234452   2.628   3.122  14.352 -0.2873  0.0379 -1.0389
 7664SOL     OW34453   1.990   3.542  12.910  0.1602  0.4675 -0.9403
 7664SOL    HW134454   1.995   3.455  12.871  2.2967 -0.1436  0.6902
 7664SOL    HW234455   2.033   3.598  12.845  2.4201 -0.1602 -0.0026
 7665SOL     OW34456   0.689   0.493   2.370  0.0112  0.1532  0.3655
 7665SOL    HW134457   0.645   0.504   2.286  0.3022 -0.0583  0.1881
 7665SOL    HW234458   0.654   0.408   2.397 -2.5962  1.0648 -0.1190
 7666SOL     OW34459   2.459   1.626   3.427 -0.1818  0.1824  0.0693
 7666SOL    HW134460   2.502   1.544   3.399  1.4788  1.7678 -2.0344
 7666SOL    HW234461   2.535   1.684   3.438 -0.2645  0.4989 -1.0651
 7667SOL     OW34462   2.266   0.024   2.668  0.9764  0.4246  0.1095
 7667SOL    HW134463   2.190   0.072   2.634  0.5350 -1.0341 -0.9660
 7667SOL    HW234464   2.312   0.018   2.584 -0.7986 -0.6319 -0.8035
 7668SOL     OW34465   1.768   4.239   9.364  0.0997  0.3171  0.1715
 7668SOL    HW134466   1.817   4.241   9.446  2.3611  0.4843 -1.1748
 7668SOL    HW234467   1.772   4.145   9.347  2.1492  0.5567 -0.7289
 7669SOL     OW34468   1.584   2.750  12.589  0.3352 -0.0684  0.2378
 7669SOL    HW134469   1.620   2.676  12.638 -1.7389 -0.7994  0.6640
 7669SOL    HW234470   1.514   2.766  12.652  0.2969 -0.5902  0.3227
 7670SOL     OW34471   1.756   0.538   6.468 -0.6704  0.1730 -0.3095
 7670SOL    HW134472   1.681   0.489   6.501 -1.4694  0.4898 -1.6875
 7670SOL    HW234473   1.813   0.513   6.541  1.8324 -0.6001 -2.4942
 7671SOL     OW34474   2.099   0.011   3.393  0.6419  0.1335  0.1685
 7671SOL    HW134475   2.192   0.033   3.381  0.2744  0.9657 -1.1170
 7671SOL    HW234476   2.110   4.664   3.456 -0.6632  1.9099  2.4057
 7672SOL     OW34477   1.179   0.409   7.979  0.7373 -0.3406 -0.2708
 7672SOL    HW134478   1.130   0.414   8.060  0.4897  1.6423 -0.5533
 7672SOL    HW234479   1.191   0.314   7.982 -0.9758 -0.4074  3.8487
 7673SOL     OW34480   4.433   3.281   7.523  0.0739  0.1360 -0.0666
 7673SOL    HW134481   4.407   3.354   7.579  2.3564  0.6339  0.3150
 7673SOL    HW234482   4.491   3.323   7.460 -1.9017  1.1230 -1.2260
 7674SOL     OW34483   0.672   1.047   8.524 -0.1770 -0.0458 -0.1425
 7674SOL    HW134484   0.746   0.997   8.560 -1.2947 -1.6077 -0.0463
 7674SOL    HW234485   0.606   0.982   8.545 -0.6352 -0.0844 -1.7185
 7675SOL     OW34486   0.396   2.792   3.339 -0.2369 -0.8058  0.5201
 7675SOL    HW134487   0.303   2.799   3.318 -0.2598 -2.6612 -0.0180
 7675SOL    HW234488   0.420   2.699   3.345 -1.9515 -1.4109 -1.8206
 7676SOL     OW34489   0.485   3.534   4.510 -0.5506 -0.4935  0.3526
 7676SOL    HW134490   0.426   3.464   4.480 -1.7065  1.1267 -1.1651
 7676SOL    HW234491   0.506   3.582   4.430  0.5867 -1.2489  0.1986
 7677SOL     OW34492   4.250   0.960   5.738 -0.0562  0.0203  0.0476
 7677SOL    HW134493   4.243   0.865   5.731 -1.7080  0.0730  0.8038
 7677SOL    HW234494   4.341   0.962   5.768 -0.4807 -2.1294  1.4746
 7678SOL     OW34495   2.965   2.145   8.091  0.2534 -0.0215  0.2630
 7678SOL    HW134496   2.999   2.063   8.127  3.7424  2.2151  1.9341
 7678SOL    HW234497   2.907   2.116   8.020 -0.2604  1.9353 -0.1165
 7679SOL     OW34498   0.091   2.912  12.540 -0.0073  0.1063  0.3927
 7679SOL    HW134499   0.049   2.832  12.571 -0.3083  0.4457  0.8584
 7679SOL    HW234500   0.098   2.890  12.447 -2.6565 -2.3011  0.7312
 7680SOL     OW34501   4.722   1.932  16.792 -0.2327  0.0393  0.9669
 7680SOL    HW134502   4.670   2.001  16.833 -0.0081 -0.2617  1.7668
 7680SOL    HW234503   4.706   1.943  16.698 -0.8498  3.6508  1.4786
 7681SOL     OW34504   2.457   2.321   2.045  0.2808 -0.1247  0.2405
 7681SOL    HW134505   2.434   2.230   2.063  0.3805  0.1002  1.5609
 7681SOL    HW234506   2.368   2.356   2.035 -0.1228 -0.9239  1.0105
 7682SOL     OW34507   0.886   2.206   8.672 -0.2143  0.2882 -0.1050
 7682SOL    HW134508   0.870   2.230   8.763  1.6546  0.6240  0.1236
 7682SOL    HW234509   0.867   2.291   8.633  0.2207 -0.9294 -2.9451
 7683SOL     OW34510   4.582   0.004  15.829  0.6244 -0.2451  0.1734
 7683SOL    HW134511   4.675   4.704  15.829  0.5187 -0.6523  0.2021
 7683SOL    HW234512   4.564   4.714  15.736  2.9124 -1.4824 -0.0906
 7684SOL     OW34513   2.874   0.978   3.595 -0.3008  0.3785  0.3936
 7684SOL    HW134514   2.887   0.885   3.616 -1.5684  0.3258  0.9909
 7684SOL    HW234515   2.787   0.978   3.554  0.1115  0.9516 -0.4735
 7685SOL     OW34516   1.091   1.593   6.297 -0.0545  0.5863 -0.2818
 7685SOL    HW134517   1.042   1.661   6.250  2.2964  0.7659 -2.5093
 7685SOL    HW234518   1.044   1.522   6.253 -2.4059  2.5800 -0.9828
 7686SOL     OW34519   1.301   2.938   7.120  0.1986 -0.0786  0.3063
 7686SOL    HW134520   1.258   2.996   7.057 -1.9221 -1.0289  0.8716
 7686SOL    HW234521   1.349   3.002   7.174  0.3258 -1.7879  2.2038
 7687SOL     OW34522   0.793   0.625   1.366 -0.7889 -0.1551 -0.2825
 7687SOL    HW134523   0.882   0.655   1.385 -0.2323  0.8116 -4.3426
 7687SOL    HW234524   0.757   0.659   1.448 -0.9605 -0.2277 -0.3293
 7688SOL     OW34525   2.978   4.681   1.947  0.2117 -0.2387  0.2778
 7688SOL    HW134526   2.899   4.639   1.982 -0.0787  1.0024  1.1012
 7688SOL    HW234527   2.972   0.039   1.994 -0.5263 -0.2721  0.2433
 7689SOL     OW34528   1.974   4.220  12.030  0.1734 -0.1421  0.3074
 7689SOL    HW134529   2.015   4.271  11.960  0.7856 -2.6355 -1.1191
 7689SOL    HW234530   1.980   4.133  11.991  0.9647 -1.0909  2.5493
 7690SOL     OW34531   3.402   0.689  12.436 -0.0342 -0.5273  0.0624
 7690SOL    HW134532   3.497   0.691  12.449 -0.2228 -0.5810  1.4766
 7690SOL    HW234533   3.376   0.700  12.528  1.4032  0.2607  0.3696
 7691SOL     OW34534   3.752   1.933  10.774  0.2120  0.0992  0.3789
 7691SOL    HW134535   3.847   1.935  10.780  0.4011 -1.4808 -2.2118
 7691SOL    HW234536   3.732   2.021  10.744 -0.8747  0.7328  2.8946
 7692SOL     OW34537   0.185   0.605   6.585 -0.4164  0.4151  0.9802
 7692SOL    HW134538   0.227   0.529   6.626  1.4953  1.1925  0.4623
 7692SOL    HW234539   0.264   0.656   6.564  0.2120 -0.6054  0.8689
 7693SOL     OW34540   2.861   2.029   7.091 -0.2295 -0.4498  0.1352
 7693SOL    HW134541   2.799   1.959   7.113  1.6680 -1.4869  2.2603
 7693SOL    HW234542   2.850   2.040   6.997 -0.3143 -2.3669 -0.0825
 7694SOL     OW34543   1.073   4.243  15.229  0.2394 -0.7049  0.6797
 7694SOL    HW134544   1.124   4.320  15.203 -0.7828 -0.4753 -0.6080
 7694SOL    HW234545   1.039   4.267  15.315 -2.6627 -1.5596 -0.2326
 7695SOL     OW34546   1.656   4.354  14.633 -0.6953  0.1662  0.2118
 7695SOL    HW134547   1.704   4.419  14.582 -0.4483 -2.2875 -2.6320
 7695SOL    HW234548   1.568   4.391  14.634 -0.7497  0.0420 -0.1775
 7696SOL     OW34549   1.009   1.926   4.880  0.3322 -0.1683  0.1682
 7696SOL    HW134550   0.999   1.909   4.787 -0.4273 -1.2760  0.4569
 7696SOL    HW234551   0.919   1.920   4.911 -0.3974  0.0715 -1.9587
 7697SOL     OW34552   0.356   3.545   5.747  0.0491  0.5681  0.3526
 7697SOL    HW134553   0.331   3.478   5.683  2.1520  0.1842 -0.0895
 7697SOL    HW234554   0.279   3.540   5.803 -1.3032  2.7893 -1.3555
 7698SOL     OW34555   3.268   2.806  12.211  0.2478 -0.7013  0.2419
 7698SOL    HW134556   3.348   2.817  12.160  0.9409  0.6115  1.6271
 7698SOL    HW234557   3.223   2.765  12.137  0.1210 -0.1984  0.0449
 7699SOL     OW34558   1.842   0.967   3.460  0.4649 -0.3183 -1.3880
 7699SOL    HW134559   1.794   1.020   3.396 -0.9493 -0.4179 -0.4066
 7699SOL    HW234560   1.828   0.884   3.414 -0.4279 -0.3333 -1.0867
 7700SOL     OW34561   2.947   1.201   3.150  0.0420  0.3535  0.4772
 7700SOL    HW134562   2.905   1.276   3.192 -0.7764 -0.7275  1.5992
 7700SOL    HW234563   3.026   1.198   3.204  1.4503  1.5174 -1.5038
 7701SOL     OW34564   3.689   1.461   2.775  0.3574  0.0109 -0.0767
 7701SOL    HW134565   3.686   1.366   2.763 -0.4051 -0.0910  0.8974
 7701SOL    HW234566   3.642   1.480   2.856 -0.1383 -0.6841 -0.2000
 7702SOL     OW34567   0.351   0.536   6.840  0.3334 -0.1994  0.0438
 7702SOL    HW134568   0.348   0.449   6.800  0.9648 -0.2585  0.1250
 7702SOL    HW234569   0.314   0.514   6.925  0.4694 -2.1282 -0.4003
 7703SOL     OW34570   0.514   1.419  16.573 -0.1058  0.0155  0.0802
 7703SOL    HW134571   0.442   1.453  16.626  0.7161  2.1831 -0.2150
 7703SOL    HW234572   0.587   1.473  16.601 -0.6479  1.1111 -0.6250
 7704SOL     OW34573   2.163   2.369   7.361 -0.3959 -0.0513  0.5608
 7704SOL    HW134574   2.161   2.302   7.294  0.3938  2.2654 -1.7700
 7704SOL    HW234575   2.195   2.314   7.433  0.9722 -1.9168 -1.4635
 7705SOL     OW34576   0.190   0.244   8.818  0.0095 -0.1464  0.2839
 7705SOL    HW134577   0.229   0.160   8.841 -2.8751 -1.4229  0.4072
 7705SOL    HW234578   0.129   0.250   8.892 -0.3441 -0.9308  0.0520
 7706SOL     OW34579   3.994   3.234  16.133 -0.5840  0.2707  0.3513
 7706SOL    HW134580   4.039   3.194  16.059 -0.5091  2.0178 -0.5541
 7706SOL    HW234581   4.076   3.259  16.176  1.0978 -2.4559 -1.2834
 7707SOL     OW34582   0.827   2.331  12.652  0.0982 -0.0925  0.2151
 7707SOL    HW134583   0.846   2.417  12.690 -0.3295  1.0878 -2.2375
 7707SOL    HW234584   0.877   2.346  12.572 -1.3333 -0.2145 -0.7063
 7708SOL     OW34585   1.996   0.858   4.148 -0.2985  0.2731 -0.1881
 7708SOL    HW134586   1.918   0.810   4.121  0.4194 -0.0312 -1.7075
 7708SOL    HW234587   1.948   0.931   4.187 -2.7567 -1.1117 -0.6414
 7709SOL     OW34588   4.568   1.848  15.924 -0.5166  0.1281  0.3132
 7709SOL    HW134589   4.573   1.767  15.977 -2.4214  0.6855  1.3564
 7709SOL    HW234590   4.472   1.854  15.921 -0.5859  0.0960  2.3178
 7710SOL     OW34591   0.291   3.824   9.084 -0.1903 -0.1475  0.5979
 7710SOL    HW134592   0.244   3.785   9.011  1.4735 -1.4159  0.2027
 7710SOL    HW234593   0.304   3.755   9.149 -5.0620 -2.2056 -0.6049
 7711SOL     OW34594   2.452   3.245   4.851  0.1875 -0.1098  0.4109
 7711SOL    HW134595   2.499   3.163   4.836  0.9761  0.3154  0.5105
 7711SOL    HW234596   2.372   3.222   4.897 -0.2727 -0.8339 -0.7536
 7712SOL     OW34597   0.384   0.864   8.842  0.3791  0.4492  0.3304
 7712SOL    HW134598   0.361   0.796   8.905  1.7392 -1.1603 -0.9009
 7712SOL    HW234599   0.438   0.814   8.781 -0.9622 -1.3600  0.6243
 7713SOL     OW34600   2.829   2.026   9.221 -0.1953  0.0977 -0.1010
 7713SOL    HW134601   2.882   2.105   9.209  1.2909 -1.0359 -0.9905
 7713SOL    HW234602   2.766   2.026   9.149  0.2553  0.2807 -0.4996
 7714SOL     OW34603   0.868   0.324   8.108  0.1775  0.5886  0.1845
 7714SOL    HW134604   0.811   0.275   8.166 -0.1434  0.3086 -0.3642
 7714SOL    HW234605   0.933   0.352   8.173  1.5156 -0.9279 -0.5036
 7715SOL     OW34606   3.812   1.903  12.102 -0.2849 -0.0210 -0.5274
 7715SOL    HW134607   3.847   1.969  12.162 -2.0090 -1.2072  1.8031
 7715SOL    HW234608   3.868   1.831  12.131  0.3859 -0.0156 -1.8317
 7716SOL     OW34609   2.199   0.619   4.302 -0.0949 -0.4165  0.0864
 7716SOL    HW134610   2.210   0.683   4.372  0.6473 -1.7580  1.1824
 7716SOL    HW234611   2.213   0.676   4.226 -0.9714  1.1369  1.0880
 7717SOL     OW34612   0.749   3.989  11.670 -0.4444 -0.4277  0.4724
 7717SOL    HW134613   0.719   4.063  11.617  1.6822  0.9377  1.1944
 7717SOL    HW234614   0.702   4.002  11.752  0.5462 -0.5196  1.0563
 7718SOL     OW34615   4.723   2.108   3.758  0.2428  0.0263 -0.7994
 7718SOL    HW134616   4.696   2.022   3.726  2.9249 -0.8903 -0.6150
 7718SOL    HW234617   4.704   2.113   3.852 -0.4681 -0.4245 -0.9185
 7719SOL     OW34618   3.018   0.295   1.770  0.0462  0.5640  0.1354
 7719SOL    HW134619   3.043   0.360   1.836 -0.6444  0.4221  0.5346
 7719SOL    HW234620   2.975   0.358   1.712  2.3996 -0.5982 -2.8469
 7720SOL     OW34621   1.518   2.357  14.999  0.2041  0.0849  0.0998
 7720SOL    HW134622   1.536   2.351  14.905  0.3192  0.6820  0.0854
 7720SOL    HW234623   1.523   2.270  15.039  0.1153  0.5987  1.2019
 7721SOL     OW34624   0.496   3.144   4.994  0.5069 -0.5278 -0.2855
 7721SOL    HW134625   0.442   3.108   4.923  1.1409 -0.2293 -0.9176
 7721SOL    HW234626   0.457   3.103   5.072  0.3628 -1.2098 -0.7196
 7722SOL     OW34627   0.320   2.180  15.116  0.2744  0.4604 -0.2412
 7722SOL    HW134628   0.366   2.096  15.122  0.4500  0.6054  0.4408
 7722SOL    HW234629   0.231   2.163  15.146  0.7504 -0.7377  0.4832
 7723SOL     OW34630   1.359   1.874  16.870  0.1432 -0.3594  0.6555
 7723SOL    HW134631   1.397   1.961  16.859  1.4946 -0.9919  0.3335
 7723SOL    HW234632   1.338   1.856  16.778  2.8059  0.0060 -0.0003
 7724SOL     OW34633   2.198   0.138   8.008  0.1993 -0.1501 -0.0476
 7724SOL    HW134634   2.110   0.131   7.970  1.5280  2.1069 -3.5743
 7724SOL    HW234635   2.205   0.066   8.069 -2.5078 -0.7603 -0.4309
 7725SOL     OW34636   0.491   2.986  11.864  0.2196  0.6164 -0.1096
 7725SOL    HW134637   0.423   2.931  11.904 -0.2216  2.9885  2.4114
 7725SOL    HW234638   0.516   2.929  11.791 -0.0300 -1.4963  1.4306
 7726SOL     OW34639   4.050   0.231  10.332  0.5854  0.1548 -0.3998
 7726SOL    HW134640   4.072   0.161  10.394 -0.7811  0.3450  0.2897
 7726SOL    HW234641   3.958   0.218  10.310  0.6733 -3.1330  1.2606
 7727SOL     OW34642   2.759   1.063  11.651 -0.0979  0.1602  0.2393
 7727SOL    HW134643   2.678   1.032  11.691  0.7142 -2.0722  0.1604
 7727SOL    HW234644   2.756   1.158  11.656  1.3475  0.1856  0.5575
 7728SOL     OW34645   2.404   4.436   6.043  0.1485  0.3598 -0.0068
 7728SOL    HW134646   2.412   4.359   6.100  1.0109 -1.0741 -2.0415
 7728SOL    HW234647   2.310   4.448   6.041 -0.0193 -0.8452  0.3288
 7729SOL     OW34648   2.788   3.964   2.949 -0.0662 -0.3982  0.3807
 7729SOL    HW134649   2.876   3.977   2.984  1.0840 -1.1852 -2.2608
 7729SOL    HW234650   2.814   3.947   2.859  0.5927  2.1359  0.0829
 7730SOL     OW34651   1.848   0.107   5.212  0.1928  0.1697  0.1217
 7730SOL    HW134652   1.846   0.183   5.154  0.8561  0.1147  0.0213
 7730SOL    HW234653   1.891   0.035   5.165  0.3427  1.8206 -2.2879
 7731SOL     OW34654   3.204   2.264   4.597 -0.2087  0.5307  0.0242
 7731SOL    HW134655   3.242   2.352   4.603  0.0088  0.6489 -2.7243
 7731SOL    HW234656   3.117   2.288   4.567 -0.7479 -3.6405 -1.7719
 7732SOL     OW34657   1.543   0.947  12.524  0.0021 -0.1962 -0.1515
 7732SOL    HW134658   1.479   0.914  12.462  0.7620  3.2629 -2.7635
 7732SOL    HW234659   1.509   0.913  12.607  1.1045 -3.4304 -1.0313
 7733SOL     OW34660   1.337   3.228   6.390 -0.2317 -0.2911 -0.5787
 7733SOL    HW134661   1.368   3.312   6.425  0.0854 -0.7095  0.1331
 7733SOL    HW234662   1.352   3.174   6.468  1.3239  0.7674 -0.1399
 7734SOL     OW34663   3.947   2.119   0.326 -0.0990 -0.0646 -0.2447
 7734SOL    HW134664   3.935   2.047   0.388  0.6160  0.0633  0.0411
 7734SOL    HW234665   3.855   2.131   0.304 -0.9285 -1.0773  2.7444
 7735SOL     OW34666   3.213   2.680   9.647  0.6055  0.6478 -0.3872
 7735SOL    HW134667   3.134   2.718   9.685 -0.5287 -4.0231  1.8848
 7735SOL    HW234668   3.189   2.679   9.554  0.1319 -0.3083 -0.2519
 7736SOL     OW34669   4.260   0.958   2.412 -0.1854  0.0059 -0.4479
 7736SOL    HW134670   4.282   1.013   2.337 -0.0872  0.0047 -0.4199
 7736SOL    HW234671   4.261   1.028   2.478 -0.5124 -0.2285 -0.1916
 7737SOL     OW34672   1.065   3.894  14.370 -0.5326 -0.1222  0.5467
 7737SOL    HW134673   1.036   3.804  14.385 -0.4187 -0.1879  0.3623
 7737SOL    HW234674   1.119   3.891  14.292  1.2328  0.4457  1.7419
 7738SOL     OW34675   0.132   3.608   3.151  0.2006 -0.3221 -0.0498
 7738SOL    HW134676   0.096   3.592   3.063  0.4657  2.6021 -0.6874
 7738SOL    HW234677   0.067   3.672   3.181  1.3907  1.4328 -1.2401
 7739SOL     OW34678   3.301   2.443   7.581  0.6157 -0.1895 -0.1814
 7739SOL    HW134679   3.245   2.381   7.628 -0.7070  0.1571 -1.2865
 7739SOL    HW234680   3.238   2.510   7.555 -1.3652 -2.1129 -0.3993
 7740SOL     OW34681   0.883   0.659   0.638  0.2971 -0.7097 -0.5553
 7740SOL    HW134682   0.979   0.653   0.639  0.3636  0.4619 -0.5302
 7740SOL    HW234683   0.871   0.663   0.543 -0.8899 -1.4710 -0.4307
 7741SOL     OW34684   2.038   2.659  15.204  0.0219 -0.3292 -0.3922
 7741SOL    HW134685   2.131   2.674  15.219 -0.3487  2.4203 -0.9496
 7741SOL    HW234686   2.029   2.654  15.109  2.7502  0.5576 -0.6983
 7742SOL     OW34687   0.996   1.658   5.755 -0.8267  0.1398  0.1861
 7742SOL    HW134688   0.955   1.572   5.761  0.2089 -0.1999  2.4283
 7742SOL    HW234689   0.922   1.705   5.715  0.1489  1.2666 -0.2990
 7743SOL     OW34690   0.724   4.055   4.886  0.4445  0.4775 -0.4393
 7743SOL    HW134691   0.816   4.041   4.911  0.6482  0.5702 -1.1317
 7743SOL    HW234692   0.685   4.012   4.962 -1.3569  3.0694  0.1001
 7744SOL     OW34693   4.232   2.541  10.650 -0.1081 -0.7304 -0.1294
 7744SOL    HW134694   4.224   2.630  10.617  0.6320 -1.9697 -3.6584
 7744SOL    HW234695   4.142   2.524  10.679 -0.1832  0.9171  0.5820
 7745SOL     OW34696   4.218   0.284   3.839 -0.2504 -0.1460 -0.3653
 7745SOL    HW134697   4.222   0.191   3.861 -3.7599 -0.9273 -2.9893
 7745SOL    HW234698   4.167   0.320   3.912  1.1585 -0.1405  0.6109
 7746SOL     OW34699   1.339   1.371   5.630  0.1172  0.1093 -0.5553
 7746SOL    HW134700   1.382   1.394   5.547  1.0692  1.0657  0.2137
 7746SOL    HW234701   1.273   1.440   5.631 -1.3428 -1.2850 -0.6632
 7747SOL     OW34702   3.856   4.484   6.986 -1.2149  0.8745 -0.7816
 7747SOL    HW134703   3.884   4.560   7.037  0.4368  1.4861 -2.6249
 7747SOL    HW234704   3.933   4.431   7.003 -1.9879 -0.2007 -0.6419
 7748SOL     OW34705   3.366   1.413  15.980 -0.3987  0.0461 -0.2417
 7748SOL    HW134706   3.426   1.430  16.052 -0.9684  3.0011 -0.4906
 7748SOL    HW234707   3.285   1.403  16.029  0.7485  0.4408  1.7152
 7749SOL     OW34708   1.165   1.010   7.051 -0.0586 -0.0674 -0.0578
 7749SOL    HW134709   1.123   0.955   6.985 -1.0627  0.2370  0.3302
 7749SOL    HW234710   1.239   0.960   7.084  1.0472  0.6142 -1.5022
 7750SOL     OW34711   1.212   2.224   3.125 -0.3439 -0.1037  0.4042
 7750SOL    HW134712   1.297   2.237   3.166  0.0716 -0.9219 -0.2152
 7750SOL    HW234713   1.221   2.202   3.033 -1.6382 -0.7687  0.4349
 7751SOL     OW34714   3.782   4.191   8.029 -0.0493  0.1479  0.3128
 7751SOL    HW134715   3.862   4.191   7.977 -0.7375 -0.9437 -0.7573
 7751SOL    HW234716   3.719   4.138   7.979  0.5255  0.7592 -1.0649
 7752SOL     OW34717   3.255   3.612   5.565  0.4764  0.6318  0.7404
 7752SOL    HW134718   3.311   3.596   5.489 -0.5359 -2.2018  0.5934
 7752SOL    HW234719   3.297   3.552   5.626  0.4439  1.0551  1.1792
 7753SOL     OW34720   0.172   2.093   7.491  0.0230  0.5452  0.0421
 7753SOL    HW134721   0.217   2.072   7.409 -1.6156  2.3369 -1.3229
 7753SOL    HW234722   0.088   2.048   7.487 -0.7577  1.8780  1.5201
 7754SOL     OW34723   0.694   4.694  14.457  0.1208  0.6550 -0.1627
 7754SOL    HW134724   0.614   4.721  14.502  0.0841 -0.4285  0.4240
 7754SOL    HW234725   0.688   0.016  14.374 -1.6280  1.0627  0.1905
 7755SOL     OW34726   1.407   2.574   5.978  0.6346 -0.1339 -0.3457
 7755SOL    HW134727   1.357   2.633   5.922  1.2439  0.1785 -0.5615
 7755SOL    HW234728   1.472   2.536   5.920  1.2613 -2.2472  1.7376
 7756SOL     OW34729   1.264   3.049  10.328 -0.1017 -0.2304 -0.2469
 7756SOL    HW134730   1.168   3.050  10.320 -0.3594 -2.4383  2.4090
 7756SOL    HW234731   1.264   2.995  10.407  1.6036  1.0470  0.6169
 7757SOL     OW34732   4.300   3.710  12.013  0.3711  0.0505 -0.4296
 7757SOL    HW134733   4.344   3.626  12.001  0.2495 -0.2534  1.2165
 7757SOL    HW234734   4.276   3.700  12.105 -0.6408 -0.9457 -0.8026
 7758SOL     OW34735   0.554   2.326  14.633  0.5811 -0.0475  0.4838
 7758SOL    HW134736   0.639   2.310  14.675 -0.5609  0.0811  2.8429
 7758SOL    HW234737   0.559   2.418  14.610 -0.1178  0.6847  3.2661
 7759SOL     OW34738   2.557   1.449   1.062  0.1250  0.2470  0.0259
 7759SOL    HW134739   2.588   1.496   0.985 -0.7752 -0.1250 -0.5564
 7759SOL    HW234740   2.469   1.432   1.029  0.0441  1.5816 -0.4228
 7760SOL     OW34741   4.200   0.891   6.909 -0.0152 -0.1333 -0.1739
 7760SOL    HW134742   4.278   0.942   6.929 -1.6667  2.0094  0.8633
 7760SOL    HW234743   4.162   0.869   6.994 -0.0619  2.2686  0.4413
 7761SOL     OW34744   2.909   2.409   7.875  0.0434  0.1990 -0.2376
 7761SOL    HW134745   2.846   2.421   7.947  2.2249 -0.9206  1.8426
 7761SOL    HW234746   2.877   2.334   7.826  0.8446 -0.6815  0.5921
 7762SOL     OW34747   3.284   4.620   3.893  0.1238  0.3994 -0.0783
 7762SOL    HW134748   3.281   4.529   3.866  2.6335 -0.0539  1.2022
 7762SOL    HW234749   3.291   4.621   3.989 -3.3520 -0.2119  0.1795
 7763SOL     OW34750   2.387   3.713   7.319  0.5311 -0.2283  0.2243
 7763SOL    HW134751   2.321   3.782   7.320  1.0143  0.2281 -0.8728
 7763SOL    HW234752   2.345   3.647   7.375 -1.2277  0.7430  0.0410
 7764SOL     OW34753   2.040   1.586   3.799  0.2371  0.1744  0.1872
 7764SOL    HW134754   2.090   1.591   3.717  1.1372 -1.9537  0.5983
 7764SOL    HW234755   1.950   1.567   3.772  0.4195 -0.9141  0.3638
 7765SOL     OW34756   1.215   4.160   8.890  0.4267 -0.0131  0.1370
 7765SOL    HW134757   1.215   4.124   8.801 -0.3471 -2.4728  1.1331
 7765SOL    HW234758   1.301   4.140   8.927 -0.3733 -2.5643  0.6089
 7766SOL     OW34759   3.606   2.701   2.089  0.0361 -0.3736  0.3810
 7766SOL    HW134760   3.675   2.722   2.025  1.7794 -1.2064  1.9741
 7766SOL    HW234761   3.638   2.623   2.135 -0.5885  0.3928  2.1057
 7767SOL     OW34762   2.288   2.383   5.355  0.2223 -0.6588  0.1277
 7767SOL    HW134763   2.236   2.325   5.411  2.7242 -1.3800  1.7136
 7767SOL    HW234764   2.375   2.343   5.361 -0.0256 -1.5606 -2.2600
 7768SOL     OW34765   0.477   1.307   1.902 -0.1601 -0.5116 -0.4355
 7768SOL    HW134766   0.430   1.342   1.827  1.1183  0.7289 -0.6498
 7768SOL    HW234767   0.443   1.367   1.969  2.2691  0.5020 -0.1031
 7769SOL     OW34768   0.418   0.293   7.266  0.2023 -0.3474 -0.3822
 7769SOL    HW134769   0.430   0.333   7.352 -1.6791 -2.5797  0.9091
 7769SOL    HW234770   0.323   0.288   7.277  0.3416 -4.4700 -1.2237
 7770SOL     OW34771   3.022   0.708   0.567 -0.1276 -0.0081 -0.8470
 7770SOL    HW134772   2.956   0.639   0.562 -0.5243  0.3764 -0.8974
 7770SOL    HW234773   3.100   0.656   0.590  1.0307  1.5668 -1.1966
 7771SOL     OW34774   4.433   3.679   3.586 -0.2055  0.5226 -0.1262
 7771SOL    HW134775   4.355   3.695   3.533  0.6012  1.6471 -0.9715
 7771SOL    HW234776   4.482   3.761   3.590 -0.1821  0.5367 -0.7269
 7772SOL     OW34777   2.403   2.521   1.486  0.0715  0.3346  0.7883
 7772SOL    HW134778   2.493   2.489   1.480  0.6228  2.1294 -0.3592
 7772SOL    HW234779   2.368   2.481   1.566  0.4684  0.5772  1.0840
 7773SOL     OW34780   0.046   3.261   7.061 -0.0628  0.1401  0.0269
 7773SOL    HW134781   0.122   3.206   7.042 -1.2640 -0.5144 -2.7708
 7773SOL    HW234782   0.082   3.349   7.078 -0.3506  0.3939 -0.6654
 7774SOL     OW34783   0.737   4.581   8.191  0.1078 -0.6814 -0.1778
 7774SOL    HW134784   0.820   4.629   8.177 -0.7867  0.1464 -2.6069
 7774SOL    HW234785   0.676   4.649   8.163 -1.2519 -0.6663  2.9103
 7775SOL     OW34786   0.138   3.448  11.127 -0.0998 -1.1449  0.1381
 7775SOL    HW134787   0.052   3.474  11.094  1.2077 -0.1387 -2.5174
 7775SOL    HW234788   0.194   3.472  11.053 -0.7200 -1.8621 -0.5594
 7776SOL     OW34789   2.500   2.882  11.695 -0.1922  0.3437 -0.2532
 7776SOL    HW134790   2.440   2.946  11.734 -2.4323 -1.6678 -0.4272
 7776SOL    HW234791   2.435   2.819  11.664 -0.7373  0.9185 -0.2825
 7777SOL     OW34792   3.614   4.582  16.892  0.1436  0.1372  0.4344
 7777SOL    HW134793   3.636   4.674  16.876  0.3422 -0.0230 -0.2251
 7777SOL    HW234794   3.609   4.558  16.799  3.1764 -1.6992  0.7525
 7778SOL     OW34795   3.508   0.211  10.123  0.6514  0.0740  0.2629
 7778SOL    HW134796   3.582   0.272  10.117  0.5337 -0.0258 -2.1841
 7778SOL    HW234797   3.464   0.246  10.200 -0.1727  0.2914 -0.3062
 7779SOL     OW34798   1.006   3.170  12.613  0.0148 -0.7019  0.1991
 7779SOL    HW134799   0.964   3.116  12.546 -2.7168 -1.0019  2.1320
 7779SOL    HW234800   1.055   3.107  12.666 -0.3885  0.3074  1.7786
 7780SOL     OW34801   2.190   2.619   3.990  0.4504  0.3094 -0.2539
 7780SOL    HW134802   2.196   2.545   4.051 -2.5288  1.1427  1.0316
 7780SOL    HW234803   2.247   2.593   3.918  2.2391 -1.9554  1.9344
 7781SOL     OW34804   0.473   2.411   3.826  0.5473  0.7959  0.2130
 7781SOL    HW134805   0.447   2.326   3.790  1.6260  0.1270  1.0088
 7781SOL    HW234806   0.395   2.464   3.809 -0.4127 -0.5666  0.4090
 7782SOL     OW34807   0.355   2.931  12.208  0.3223  0.4573 -0.3238
 7782SOL    HW134808   0.369   2.866  12.138  3.8635  1.2010 -0.2789
 7782SOL    HW234809   0.269   2.902  12.238  0.2615  0.1939 -0.7492
 7783SOL     OW34810   3.622   1.064   9.304  0.1916 -0.1558 -0.0862
 7783SOL    HW134811   3.616   1.071   9.208 -0.0787 -0.0196 -0.0613
 7783SOL    HW234812   3.709   1.101   9.314 -0.0935  0.2970  0.6860
 7784SOL     OW34813   0.572   1.425   2.616  0.3792 -0.4793  0.0933
 7784SOL    HW134814   0.595   1.353   2.675  1.6922  2.4993  3.1774
 7784SOL    HW234815   0.585   1.502   2.671 -1.7068 -0.3432  0.3963
 7785SOL     OW34816   1.224   3.647   9.978  0.3582 -0.5684 -0.8997
 7785SOL    HW134817   1.270   3.710   9.921  1.2587  0.9365  1.4606
 7785SOL    HW234818   1.299   3.588   9.989  1.0712  0.2733 -1.1738
 7786SOL     OW34819   1.917   4.472   7.968 -0.3522 -0.3020 -0.4617
 7786SOL    HW134820   1.963   4.468   8.052 -1.2859  0.2944  0.0815
 7786SOL    HW234821   1.880   4.385   7.956  1.2177 -1.0047 -0.0904
 7787SOL     OW34822   2.766   4.179   4.968 -0.0878  0.5088 -0.4691
 7787SOL    HW134823   2.696   4.241   4.984  0.1186  0.7619 -0.5380
 7787SOL    HW234824   2.832   4.211   5.029  0.9509  4.5431 -3.7089
 7788SOL     OW34825   0.893   0.490   3.711 -0.0125 -0.5575  0.1210
 7788SOL    HW134826   0.805   0.502   3.746 -0.0014 -0.3667  0.0807
 7788SOL    HW234827   0.927   0.576   3.687 -0.7831 -0.9027 -2.2287
 7789SOL     OW34828   1.087   0.790   7.754 -0.0020  0.1115 -0.2416
 7789SOL    HW134829   1.123   0.849   7.687 -1.0461  1.4821  0.4003
 7789SOL    HW234830   1.168   0.756   7.792 -0.9362 -0.2342  1.4251
 7790SOL     OW34831   1.577   1.173   2.123 -0.0841 -0.3610  0.0788
 7790SOL    HW134832   1.603   1.265   2.125 -2.3184  0.2907 -1.1612
 7790SOL    HW234833   1.633   1.128   2.186 -0.9162 -1.5921 -0.0520
 7791SOL     OW34834   1.466   4.130  17.503 -0.2268  0.0132 -0.0628
 7791SOL    HW134835   1.412   4.062  17.463  0.0755 -0.4712  0.3372
 7791SOL    HW234836   1.529   4.136  17.431  0.2539 -1.0534  0.2571
 7792SOL     OW34837   3.111   1.571   5.360  0.7429  0.5229 -0.5014
 7792SOL    HW134838   3.196   1.614   5.359  1.3367 -0.7343 -2.1942
 7792SOL    HW234839   3.072   1.628   5.294 -0.0238  1.1935  0.5258
 7793SOL     OW34840   4.270   2.688   9.043 -0.2275  0.0392  0.5062
 7793SOL    HW134841   4.298   2.680   9.134 -0.3953 -0.6928  0.4932
 7793SOL    HW234842   4.350   2.659   8.999 -1.9006 -0.6818 -2.0203
 7794SOL     OW34843   2.294   4.713  11.579  0.3355  0.2370 -0.2229
 7794SOL    HW134844   2.278   4.635  11.526  1.0739  1.2333 -1.9337
 7794SOL    HW234845   2.256   4.686  11.662  1.0619  0.3785  0.1599
 7795SOL     OW34846   4.487   0.755  11.594  0.1962  0.0967  0.3856
 7795SOL    HW134847   4.557   0.725  11.653  2.3097 -2.1374 -3.2316
 7795SOL    HW234848   4.460   0.829  11.647 -2.2189 -1.2644  1.0962
 7796SOL     OW34849   1.133   0.111   7.751  0.1413 -0.2227  0.1077
 7796SOL    HW134850   1.100   0.142   7.667  0.6435  0.4538  0.1559
 7796SOL    HW234851   1.068   0.041   7.763  0.1540 -0.1969  0.3400
 7797SOL     OW34852   3.323   0.801   2.404 -0.0880 -0.4564 -0.6734
 7797SOL    HW134853   3.389   0.840   2.348 -0.2779 -0.8181 -1.1476
 7797SOL    HW234854   3.299   0.876   2.458  0.2392 -0.7429 -0.1206
 7798SOL     OW34855   1.786   2.467   8.543 -0.6262  0.1701  0.5226
 7798SOL    HW134856   1.837   2.478   8.623  1.9349  0.2913 -1.1214
 7798SOL    HW234857   1.699   2.491   8.575  0.0307  0.3247  2.1744
 7799SOL     OW34858   1.550   1.825   6.791  0.5223  0.3270  0.6235
 7799SOL    HW134859   1.462   1.824   6.754  0.3534  3.8360  0.9420
 7799SOL    HW234860   1.595   1.886   6.733 -2.3393  0.9692 -0.9105
 7800SOL     OW34861   0.926   1.085  17.501 -0.1409 -0.3694  0.2062
 7800SOL    HW134862   1.017   1.077  17.474 -0.7924 -1.5732 -1.6526
 7800SOL    HW234863   0.926   1.141  17.579  0.7054 -2.7305  1.8976
 7801SOL     OW34864   0.563   3.582  12.643 -0.3569 -0.0381  0.2629
 7801SOL    HW134865   0.496   3.616  12.584 -2.0801 -1.0185  1.6582
 7801SOL    HW234866   0.511   3.543  12.713 -0.2394  0.9023  0.8615
 7802SOL     OW34867   2.387   2.308   9.092  0.5067  0.4667 -0.5473
 7802SOL    HW134868   2.316   2.364   9.061 -0.9800 -0.6006  0.9351
 7802SOL    HW234869   2.386   2.298   9.187 -2.3087  0.7108 -0.5642
 7803SOL     OW34870   2.884   3.305   2.206 -0.3056 -0.2463  0.2826
 7803SOL    HW134871   2.901   3.252   2.129  4.4114  0.2696  0.9415
 7803SOL    HW234872   2.963   3.357   2.217 -1.5100  2.0500 -1.8550
 7804SOL     OW34873   2.124   2.274  11.458 -0.2167 -0.1537 -0.3193
 7804SOL    HW134874   2.124   2.315  11.545  0.3988 -1.0990  0.1328
 7804SOL    HW234875   2.193   2.208  11.465 -0.1783  0.3810  4.7124
 7805SOL     OW34876   1.478   0.699   0.405  0.1542  0.1311  0.4195
 7805SOL    HW134877   1.518   0.758   0.341 -0.2721  1.2409  1.1662
 7805SOL    HW234878   1.529   0.733   0.480  1.6482  1.9162 -1.4113
 7806SOL     OW34879   2.031   2.925   8.048 -0.1327 -0.0110  0.0487
 7806SOL    HW134880   2.050   2.856   7.984 -1.5986  0.2191 -0.6325
 7806SOL    HW234881   2.090   2.993   8.015 -0.5117  0.2973  0.0180
 7807SOL     OW34882   1.814   2.091  11.274 -0.2914 -0.1198  0.3056
 7807SOL    HW134883   1.752   2.053  11.212 -0.4354  0.3969  0.1323
 7807SOL    HW234884   1.830   2.179  11.241 -0.4125 -0.3914 -0.4793
 7808SOL     OW34885   1.010   4.090   4.748  0.1026  0.3841 -0.3528
 7808SOL    HW134886   1.081   4.086   4.685  1.7076  0.8621  1.4318
 7808SOL    HW234887   0.959   4.011   4.728 -2.1969  1.0829  2.7512
 7809SOL     OW34888   0.111   0.146   6.749  0.1203 -0.8820 -0.0475
 7809SOL    HW134889   0.029   0.104   6.725 -1.8749  1.5171  2.5935
 7809SOL    HW234890   0.159   0.080   6.799  2.9098  0.0672 -1.4197
 7810SOL     OW34891   1.084   0.917   9.842  0.2480  0.1883 -0.4555
 7810SOL    HW134892   1.034   0.972   9.782 -0.7010 -0.4205 -0.2349
 7810SOL    HW234893   1.061   0.828   9.815 -2.3797  1.1034 -1.3066
 7811SOL     OW34894   2.261   3.062   7.981  0.4653  0.1220 -0.3037
 7811SOL    HW134895   2.237   3.117   7.906 -1.6598 -1.2124 -0.6088
 7811SOL    HW234896   2.338   3.016   7.947 -0.3786  0.4179 -2.6409
 7812SOL     OW34897   3.252   4.278   4.061  0.3863 -0.1632 -0.2581
 7812SOL    HW134898   3.342   4.309   4.057  0.6106 -0.5710  1.3376
 7812SOL    HW234899   3.224   4.281   3.970  0.0205  1.4932 -0.0884
 7813SOL     OW34900   0.255   3.683   6.698 -0.4498  0.1751 -0.6501
 7813SOL    HW134901   0.227   3.720   6.782  0.2796 -1.6926  0.4209
 7813SOL    HW234902   0.231   3.592   6.715 -1.1219 -0.1438 -3.2389
 7814SOL     OW34903   0.142   4.594  15.833  0.6000 -0.0592  0.0918
 7814SOL    HW134904   0.197   4.612  15.757  0.5605  0.2579  0.1370
 7814SOL    HW234905   0.111   4.503  15.826  2.5764 -0.5706 -1.7442
 7815SOL     OW34906   3.305   0.281  13.674 -0.2846  0.1101 -0.4382
 7815SOL    HW134907   3.386   0.236  13.698 -0.9410 -0.6496  0.3986
 7815SOL    HW234908   3.245   0.240  13.737  0.4599 -1.4927 -0.7795
 7816SOL     OW34909   1.277   1.829   6.715 -0.7572  0.8351  0.4975
 7816SOL    HW134910   1.237   1.866   6.637 -1.0573 -1.0634 -0.2321
 7816SOL    HW234911   1.214   1.841   6.786 -1.6978 -1.3081  0.0177
 7817SOL     OW34912   0.772   2.204   5.994 -0.2054 -0.1472  0.1808
 7817SOL    HW134913   0.752   2.130   5.938  2.0333  0.0908 -0.9242
 7817SOL    HW234914   0.719   2.276   5.959  0.6568  0.4555  0.0926
 7818SOL     OW34915   0.533   0.693   4.785 -0.1127 -0.0361  0.5225
 7818SOL    HW134916   0.583   0.681   4.704  0.5592 -1.8601  1.2128
 7818SOL    HW234917   0.573   0.629   4.845  0.5615  1.0290  1.2107
 7819SOL     OW34918   3.861   2.869   5.896 -0.8476  0.1340 -0.0740
 7819SOL    HW134919   3.835   2.835   5.981  0.6578 -1.2851 -0.1857
 7819SOL    HW234920   3.786   2.928   5.892 -0.1874  0.9374 -0.3894
 7820SOL     OW34921   2.991   1.906  13.281  0.0785 -0.1614 -0.4175
 7820SOL    HW134922   3.015   1.844  13.212 -0.7079  0.2712 -1.0828
 7820SOL    HW234923   3.053   1.975  13.258 -0.4750 -0.5541 -3.1413
 7821SOL     OW34924   1.329   3.676  12.855  0.4680 -0.3079  0.5819
 7821SOL    HW134925   1.352   3.643  12.768  0.6116  0.9659  0.1393
 7821SOL    HW234926   1.332   3.592  12.902  0.2062 -1.8772 -2.2286
 7822SOL     OW34927   0.452   2.495   5.668  0.0755 -0.6387  0.0057
 7822SOL    HW134928   0.538   2.528   5.642  0.0293 -0.5048  0.0238
 7822SOL    HW234929   0.413   2.576   5.700  0.5109 -0.8179  0.9993
 7823SOL     OW34930   3.488   3.952   6.163 -0.2205 -0.2453 -0.3177
 7823SOL    HW134931   3.557   3.974   6.100  0.2169  0.9232  0.5589
 7823SOL    HW234932   3.526   3.869   6.192 -1.1446 -0.1257  1.2637
 7824SOL     OW34933   2.461   2.462  13.348 -0.2937 -0.1648  0.4576
 7824SOL    HW134934   2.391   2.477  13.412 -3.2650 -1.4574 -2.5018
 7824SOL    HW234935   2.510   2.544  13.337 -0.5449 -0.4927 -3.1661
 7825SOL     OW34936   4.207   0.673   7.510 -0.2725  0.4776  0.0972
 7825SOL    HW134937   4.250   0.692   7.594  1.3452 -1.4638 -0.3075
 7825SOL    HW234938   4.181   0.585   7.535 -1.3637 -0.0995 -3.0979
 7826SOL     OW34939   1.591   3.355  11.781  0.5161  0.1699 -0.5176
 7826SOL    HW134940   1.657   3.418  11.751  1.5434 -0.0929  1.1960
 7826SOL    HW234941   1.610   3.335  11.873  1.4362  0.1924 -0.7025
 7827SOL     OW34942   0.964   4.412   7.307  0.1775  0.1834 -0.4247
 7827SOL    HW134943   1.015   4.463   7.244  1.0348 -0.3568 -0.1671
 7827SOL    HW234944   0.980   4.318   7.297  1.3432  0.3582 -0.2859
 7828SOL     OW34945   3.805   1.888   4.001 -0.5809 -0.5321 -0.5663
 7828SOL    HW134946   3.726   1.935   3.976  1.1081  2.6645  0.0949
 7828SOL    HW234947   3.876   1.933   3.955 -0.3983 -0.2362  0.0078
 7829SOL     OW34948   4.451   3.006   2.859 -0.1487  0.1576  0.5074
 7829SOL    HW134949   4.437   2.929   2.804  0.8297  1.2449 -1.2357
 7829SOL    HW234950   4.529   2.977   2.906  1.3871 -0.3090 -2.3401
 7830SOL     OW34951   2.986   2.300   4.103  0.2510  0.6727 -0.2342
 7830SOL    HW134952   3.045   2.354   4.156 -0.8646  1.6833 -0.0129
 7830SOL    HW234953   2.898   2.322   4.133  1.0861  1.2897  1.8077
 7831SOL     OW34954   1.362   4.135  10.276  0.2927  0.6316  0.4451
 7831SOL    HW134955   1.278   4.154  10.234  1.1486  1.6599 -0.8092
 7831SOL    HW234956   1.332   4.097  10.359  1.1942  0.5644  0.7384
 7832SOL     OW34957   0.533   0.613   6.274 -0.2809 -0.4997 -0.7569
 7832SOL    HW134958   0.615   0.662   6.264 -0.4141  0.0239  0.6178
 7832SOL    HW234959   0.504   0.609   6.183  0.8762  0.6245 -1.1691
 7833SOL     OW34960   0.308   1.057   0.385  0.5558  0.2483 -0.0865
 7833SOL    HW134961   0.220   1.025   0.365  0.4014  1.2946 -1.1093
 7833SOL    HW234962   0.313   1.041   0.479  1.2529 -1.6698 -0.4578
 7834SOL     OW34963   0.341   3.491   3.303 -0.0009  0.5539  0.1788
 7834SOL    HW134964   0.380   3.560   3.249 -0.1966  0.6982  0.2200
 7834SOL    HW234965   0.253   3.510   3.271  0.7249  0.9225 -1.6034
 7835SOL     OW34966   4.478   2.669   4.243  0.9367 -0.4632  0.0565
 7835SOL    HW134967   4.441   2.594   4.196  0.6058 -0.3148  0.0786
 7835SOL    HW234968   4.570   2.644   4.255  0.4323 -1.8398  0.9597
 7836SOL     OW34969   0.674   0.460   7.735 -0.0119  0.5332 -0.0361
 7836SOL    HW134970   0.763   0.451   7.771 -0.2613  0.9994  0.6938
 7836SOL    HW234971   0.691   0.536   7.680 -1.8033 -0.4355 -1.9172
 7837SOL     OW34972   4.699   1.098   0.863 -0.4613 -0.3284 -0.1034
 7837SOL    HW134973   4.642   1.170   0.835 -0.0274 -0.0016 -0.1550
 7837SOL    HW234974   0.058   1.144   0.870 -1.4348  1.2980  0.8881
 7838SOL     OW34975   4.543   1.937  14.830 -0.0867  0.3496 -0.3669
 7838SOL    HW134976   4.543   1.865  14.767  0.2871 -0.2770  0.3377
 7838SOL    HW234977   4.485   2.003  14.792 -2.0846 -0.8177  0.6418
 7839SOL     OW34978   3.738   3.837   3.349  0.0883 -0.1231 -0.0670
 7839SOL    HW134979   3.702   3.925   3.346 -2.1739 -1.1715 -3.6452
 7839SOL    HW234980   3.659   3.798   3.386  0.7764 -0.2324  1.2972
 7840SOL     OW34981   1.396   1.776   5.184 -0.1814  0.1077 -1.0168
 7840SOL    HW134982   1.309   1.780   5.146 -0.5431  0.5783 -0.1356
 7840SOL    HW234983   1.406   1.869   5.206  2.1710 -0.5718  0.8641
 7841SOL     OW34984   3.535   0.467  13.312 -0.1288 -0.8804 -0.1771
 7841SOL    HW134985   3.528   0.544  13.368 -1.1918 -1.7441  0.8771
 7841SOL    HW234986   3.463   0.416  13.349  0.0859 -0.3618  0.9522
 7842SOL     OW34987   0.267   0.658  10.860 -0.3549 -0.4131  0.6649
 7842SOL    HW134988   0.179   0.692  10.880  0.3906  1.0981  1.3492
 7842SOL    HW234989   0.260   0.575  10.908  0.8137  0.7710  2.8917
 7843SOL     OW34990   3.857   0.381   2.283  0.2626  0.4859  0.2647
 7843SOL    HW134991   3.782   0.439   2.292  0.1478 -0.0130  2.6118
 7843SOL    HW234992   3.828   0.336   2.204 -0.0326  0.6847  0.2613
 7844SOL     OW34993   0.604   0.153   5.886  0.4295  0.2131  0.4400
 7844SOL    HW134994   0.520   0.173   5.929 -0.0604  1.0768 -0.9128
 7844SOL    HW234995   0.572   0.066   5.861 -1.0259  0.9737 -0.3236
 7845SOL     OW34996   2.060   4.343   0.680 -0.2484  0.0487 -0.7164
 7845SOL    HW134997   2.015   4.260   0.666  0.9371 -0.2090 -2.9962
 7845SOL    HW234998   2.058   4.355   0.775  3.1473  1.6634 -0.8537
 7846SOL     OW34999   3.463   3.881  12.381 -0.1288 -0.1536  0.6529
 7846SOL    HW135000   3.485   3.922  12.465  1.3135  1.3396 -0.4495
 7846SOL    HW235001   3.423   3.796  12.402 -2.4297  0.3939 -1.4526
 7847SOL     OW35002   3.117   3.605   7.203 -0.1861 -0.1245  0.0021
 7847SOL    HW135003   3.127   3.690   7.246  0.8845 -0.1682 -0.1772
 7847SOL    HW235004   3.205   3.578   7.178 -0.2497 -1.1053  0.8236
 7848SOL     OW35005   4.553   1.812   2.047  0.6757  1.0224  0.5049
 7848SOL    HW135006   4.483   1.858   2.092  1.0071  0.9514  1.1046
 7848SOL    HW235007   4.633   1.844   2.089  1.1834  0.7669 -0.2519
 7849SOL     OW35008   0.733   4.029  17.112  0.0047 -0.3248  0.3407
 7849SOL    HW135009   0.653   3.978  17.104 -0.0412 -0.1542 -0.2598
 7849SOL    HW235010   0.712   4.104  17.057 -1.9157 -2.3496 -1.6680
 7850SOL     OW35011   1.489   4.149   8.942 -0.1431  0.3738  0.2100
 7850SOL    HW135012   1.521   4.065   8.976  0.3719  0.2322 -0.5911
 7850SOL    HW235013   1.535   4.210   8.999 -1.2049  0.9234  0.4656
 7851SOL     OW35014   2.937   0.711   3.641 -0.2155 -0.2717  0.5640
 7851SOL    HW135015   2.942   0.651   3.716 -2.9634 -0.3233  0.7029
 7851SOL    HW235016   2.872   0.659   3.595  1.0188 -1.3361  0.0168
 7852SOL     OW35017   0.603   2.612   5.898 -0.0812  0.2211  0.2426
 7852SOL    HW135018   0.673   2.658   5.851 -2.1333  0.8952 -2.1379
 7852SOL    HW235019   0.532   2.674   5.880  0.7517  1.6546  1.8641
 7853SOL     OW35020   3.946   1.739   7.134 -0.1280 -0.2381  0.0791
 7853SOL    HW135021   3.971   1.771   7.221 -0.8177 -0.0942  0.2206
 7853SOL    HW235022   4.014   1.779   7.081 -1.2863  1.7211  0.0897
 7854SOL     OW35023   3.340   0.082   5.012 -0.3270  0.0038 -0.4499
 7854SOL    HW135024   3.369   0.172   4.998  0.0212  0.5281  3.7578
 7854SOL    HW235025   3.377   0.029   4.940 -0.6794 -2.3621  1.1200
 7855SOL     OW35026   0.729   3.353  16.535  0.5041  0.5225  0.5357
 7855SOL    HW135027   0.640   3.347  16.500  0.7482  1.1817 -0.2071
 7855SOL    HW235028   0.782   3.325  16.461 -0.6233  0.6432 -0.3221
 7856SOL     OW35029   2.362   2.020   2.147 -0.3033  0.3846  0.4324
 7856SOL    HW135030   2.328   1.958   2.212  0.3876  0.1162  0.5357
 7856SOL    HW235031   2.453   2.015   2.174 -0.2326 -0.2381  0.0844
 7857SOL     OW35032   2.292   1.229   4.955  0.1087 -0.1175  0.0774
 7857SOL    HW135033   2.279   1.320   4.929 -0.7536 -0.3285 -0.2170
 7857SOL    HW235034   2.208   1.233   4.999 -0.6477  2.5684 -1.6244
 7858SOL     OW35035   2.816   1.272   4.595  0.0622 -0.1562  0.0821
 7858SOL    HW135036   2.857   1.333   4.533 -2.5099 -0.2239 -1.6938
 7858SOL    HW235037   2.810   1.194   4.539 -3.5047  1.1328 -1.3460
 7859SOL     OW35038   0.454   2.708  16.531  0.2485 -0.9167  0.5800
 7859SOL    HW135039   0.519   2.778  16.523 -1.4976  0.5824 -0.5309
 7859SOL    HW235040   0.418   2.718  16.619 -1.2825 -1.6664  0.0345
 7860SOL     OW35041   4.540   1.582   5.140  0.2448 -0.1807  0.2925
 7860SOL    HW135042   4.568   1.635   5.215  0.0097  0.4775 -0.0844
 7860SOL    HW235043   4.446   1.575   5.158  0.5349  0.6283  2.1316
 7861SOL     OW35044   2.128   3.145   2.384  0.7050  0.0692  0.2920
 7861SOL    HW135045   2.091   3.059   2.403  3.0287 -1.1040 -0.3950
 7861SOL    HW235046   2.221   3.129   2.403  0.4018 -2.3711 -0.2404
 7862SOL     OW35047   0.878   0.289   1.214 -0.3201  0.0249  0.0437
 7862SOL    HW135048   0.950   0.300   1.151 -0.6105  1.5152 -0.0126
 7862SOL    HW235049   0.894   0.351   1.285  1.8174 -0.3649 -0.1073
 7863SOL     OW35050   3.176   2.401   9.177 -0.0552  0.0268  0.0159
 7863SOL    HW135051   3.108   2.390   9.243 -0.3286 -2.2840 -0.6496
 7863SOL    HW235052   3.171   2.328   9.115  1.0128 -0.4257  0.4573
 7864SOL     OW35053   3.013   0.120   5.512 -0.4661  0.4283  0.2892
 7864SOL    HW135054   3.056   0.156   5.434 -2.4542 -1.5090 -1.6990
 7864SOL    HW235055   3.082   0.059   5.538  0.6304  0.6325 -2.1389
 7865SOL     OW35056   4.036   1.648   5.833 -0.7102  0.2245 -0.3162
 7865SOL    HW135057   4.072   1.668   5.919  3.0182 -1.3454 -1.5150
 7865SOL    HW235058   4.044   1.729   5.782  0.5994  0.5292  0.3862
 7866SOL     OW35059   3.697   3.869  12.843  0.2816  0.2362 -0.0346
 7866SOL    HW135060   3.669   3.778  12.840  2.0331 -0.3811  2.5278
 7866SOL    HW235061   3.634   3.889  12.912 -0.8037 -1.3023 -0.5928
 7867SOL     OW35062   2.242   3.397  16.083 -0.1167 -0.4703 -0.5508
 7867SOL    HW135063   2.226   3.470  16.023 -0.6369 -2.4579 -2.8323
 7867SOL    HW235064   2.174   3.343  16.044 -0.4456 -0.5703  0.1544
 7868SOL     OW35065   3.473   2.738  12.025 -0.5916 -0.5902  0.5800
 7868SOL    HW135066   3.458   2.788  11.944  0.2215  0.1773  0.8967
 7868SOL    HW235067   3.534   2.674  11.989  1.9365  0.5000  2.9446
 7869SOL     OW35068   1.656   1.324  14.728 -0.0379 -0.1848  0.5393
 7869SOL    HW135069   1.623   1.360  14.646 -0.0372 -0.3858  0.4501
 7869SOL    HW235070   1.576   1.297  14.773 -1.5706 -0.2290 -2.2918
 7870SOL     OW35071   3.749   4.153   4.390 -0.2268  0.1230 -0.4151
 7870SOL    HW135072   3.767   4.118   4.303 -0.5873 -0.9237 -0.0705
 7870SOL    HW235073   3.680   4.217   4.368  0.9841  1.4486 -0.3669
 7871SOL     OW35074   0.884   3.349   8.313 -0.5974 -0.4320 -0.4811
 7871SOL    HW135075   0.954   3.385   8.258 -0.1609  0.3088  0.5622
 7871SOL    HW235076   0.935   3.304   8.380 -0.7903 -1.5397 -1.0626
 7872SOL     OW35077   4.669   4.408  16.087 -0.6556 -0.1524 -0.0381
 7872SOL    HW135078   4.696   4.400  16.178 -1.2124 -3.3108 -0.1405
 7872SOL    HW235079   4.673   4.314  16.066  0.5231 -0.5294  1.8846
 7873SOL     OW35080   3.472   0.356   1.331 -0.5182  0.1736 -0.3079
 7873SOL    HW135081   3.423   0.364   1.412  0.6097 -2.2433  0.6265
 7873SOL    HW235082   3.531   0.283   1.352 -0.2104  1.0127  1.6885
 7874SOL     OW35083   0.883   3.529   2.475  0.0707 -0.6231 -0.3250
 7874SOL    HW135084   0.841   3.446   2.454 -3.5293  0.9041  0.7840
 7874SOL    HW235085   0.848   3.584   2.404  2.9545  1.0005 -0.5175
 7875SOL     OW35086   0.590   4.312   6.890  0.3401 -0.7144 -0.5644
 7875SOL    HW135087   0.571   4.241   6.830 -0.6216 -0.6007 -0.4028
 7875SOL    HW235088   0.531   4.297   6.965  0.7270  2.4772  0.3834
 7876SOL     OW35089   2.560   2.700   8.704  0.0670  0.2304  0.3891
 7876SOL    HW135090   2.527   2.612   8.722 -1.2827  0.7149  0.3322
 7876SOL    HW235091   2.534   2.739   8.788 -0.9928  1.2489 -0.4094
 7877SOL     OW35092   4.004   1.148   3.171  0.1240  0.4205  1.0501
 7877SOL    HW135093   4.089   1.183   3.198 -0.0167  1.7913 -0.2633
 7877SOL    HW235094   4.026   1.061   3.136 -0.7994  0.5493  0.1425
 7878SOL     OW35095   3.624   2.298   6.131  0.1476 -0.4276 -0.1843
 7878SOL    HW135096   3.532   2.288   6.154  0.2557 -0.3805  0.2688
 7878SOL    HW235097   3.649   2.209   6.106  1.7301  0.5707 -2.2285
 7879SOL     OW35098   4.469   0.750   2.271 -0.0682 -0.4148  0.9241
 7879SOL    HW135099   4.532   0.789   2.332  0.9672  2.3242 -1.9074
 7879SOL    HW235100   4.389   0.803   2.269 -0.3185 -0.9080 -1.7217
 7880SOL     OW35101   3.802   2.417   6.970 -0.6284 -0.0650 -0.0230
 7880SOL    HW135102   3.753   2.354   6.917 -1.7420  0.9084 -0.1573
 7880SOL    HW235103   3.775   2.501   6.931  1.8655  0.5571 -0.4232
 7881SOL     OW35104   2.500   0.723  13.380 -0.4087  0.5608 -0.2231
 7881SOL    HW135105   2.459   0.773  13.450  0.6687 -0.5975  1.2331
 7881SOL    HW235106   2.587   0.712  13.418 -0.6266 -1.2540 -0.2479
 7882SOL     OW35107   4.107   2.242   8.617  0.4321  0.1159 -0.1127
 7882SOL    HW135108   4.084   2.326   8.656 -3.0681 -0.7127 -0.3440
 7882SOL    HW235109   4.197   2.225   8.644 -0.1485 -1.8352  0.6936
 7883SOL     OW35110   4.650   2.164   4.636 -1.0466  0.0455  0.0426
 7883SOL    HW135111   4.596   2.203   4.705  0.6915  0.3769  1.2086
 7883SOL    HW235112   4.654   2.072   4.663 -0.0040  0.9009  2.8325
 7884SOL     OW35113   2.851   1.437   1.115 -0.0076  0.4131  0.1561
 7884SOL    HW135114   2.872   1.359   1.167 -0.9888 -1.3201 -2.0159
 7884SOL    HW235115   2.756   1.426   1.107  0.2195 -0.7070 -0.9882
 7885SOL     OW35116   0.932   3.930   3.236  0.3104 -0.1125  0.0744
 7885SOL    HW135117   0.852   3.969   3.202  2.0989  2.7414 -0.8887
 7885SOL    HW235118   1.000   3.993   3.211  2.4248 -1.9114  1.2307
 7886SOL     OW35119   2.453   2.458   8.765 -0.7006 -0.1148 -0.3745
 7886SOL    HW135120   2.394   2.438   8.837 -0.8766 -0.1245 -0.5213
 7886SOL    HW235121   2.420   2.399   8.697  0.6308 -0.2061 -0.9402
 7887SOL     OW35122   3.048   1.437   3.608  0.2443 -0.1216 -0.5867
 7887SOL    HW135123   3.048   1.343   3.590  1.8695 -0.0112 -1.1257
 7887SOL    HW235124   3.121   1.443   3.670 -0.9816 -2.2465  1.0953
 7888SOL     OW35125   1.944   3.953  14.167  0.1029 -0.0395 -0.3587
 7888SOL    HW135126   1.892   4.009  14.225 -0.1771 -0.3769 -0.2840
 7888SOL    HW235127   1.981   4.011  14.101  0.3268 -1.2375 -1.2926
 7889SOL     OW35128   2.342   1.997   9.086 -0.0139 -0.0814  0.1248
 7889SOL    HW135129   2.261   1.945   9.092  0.5783 -1.2151 -1.5607
 7889SOL    HW235130   2.346   2.030   9.176 -2.6228  1.4297 -0.3176
 7890SOL     OW35131   3.071   0.106   8.418 -0.4068  0.4319 -0.2022
 7890SOL    HW135132   3.053   0.064   8.502 -0.0974 -0.2668 -0.4835
 7890SOL    HW235133   3.031   0.190   8.438  0.1095  0.7054 -0.3140
 7891SOL     OW35134   2.736   0.397   7.157 -0.2256  0.4737  0.0398
 7891SOL    HW135135   2.743   0.302   7.146 -1.2962  0.4474 -0.4750
 7891SOL    HW235136   2.645   0.400   7.189 -0.3410  1.2131 -0.3639
 7892SOL     OW35137   0.782   4.565  14.149 -0.1670  0.1613  0.9319
 7892SOL    HW135138   0.735   4.644  14.175 -0.2992  0.5027 -0.3680
 7892SOL    HW235139   0.852   4.565  14.215  0.5114 -0.0862  0.2104
 7893SOL     OW35140   1.215   4.420   8.938  0.0969  0.2530 -0.1066
 7893SOL    HW135141   1.177   4.470   8.866  1.7087  1.1716 -0.3383
 7893SOL    HW235142   1.203   4.329   8.911  0.5376  0.6253 -1.5570
 7894SOL     OW35143   2.812   0.930   1.116 -0.1106  0.0862  0.3043
 7894SOL    HW135144   2.792   0.968   1.031 -0.6932  1.3288  1.0012
 7894SOL    HW235145   2.892   0.880   1.099 -1.9539 -3.0088  0.7357
 7895SOL     OW35146   1.169   2.153   0.404 -0.2171  1.4549 -0.6054
 7895SOL    HW135147   1.216   2.160   0.487  0.4001 -1.7398 -0.6833
 7895SOL    HW235148   1.237   2.126   0.342 -1.5680 -0.4484 -1.2495
 7896SOL     OW35149   0.073   1.755   2.995  0.0272  0.1343  0.1085
 7896SOL    HW135150   0.012   1.699   3.043 -2.4405  2.9511  0.2417
 7896SOL    HW235151   0.135   1.785   3.061  0.3713  0.6747 -0.4621
 7897SOL     OW35152   0.761   3.230  13.515  0.1789  0.1263 -0.1215
 7897SOL    HW135153   0.742   3.274  13.432  0.4292  2.4728  1.0619
 7897SOL    HW235154   0.848   3.265  13.530 -0.0186  0.2855  0.6389
 7898SOL     OW35155   2.607   2.094  14.636  0.2526 -0.3445 -0.0965
 7898SOL    HW135156   2.636   2.047  14.715 -0.7439  1.5529  1.3804
 7898SOL    HW235157   2.686   2.146  14.622 -0.6068  0.6802 -1.0111
 7899SOL     OW35158   1.958   3.324  12.372 -0.5239  0.5992  0.2946
 7899SOL    HW135159   2.050   3.297  12.374 -1.5944 -3.1992 -0.8953
 7899SOL    HW235160   1.940   3.334  12.278  0.0388 -0.3388  0.0909
 7900SOL     OW35161   0.051   4.513  16.329 -0.8750 -0.6906 -0.1204
 7900SOL    HW135162   0.122   4.553  16.280 -1.7809  1.1632  0.0641
 7900SOL    HW235163   0.092   4.458  16.395 -0.5000  0.7126  0.8165
 7901SOL     OW35164   2.887   4.384   4.413  0.0096 -0.6809 -0.1921
 7901SOL    HW135165   2.970   4.337   4.425 -0.3233 -1.8147 -2.2726
 7901SOL    HW235166   2.850   4.345   4.333  0.6471  1.2534 -1.4207
 7902SOL     OW35167   0.241   1.786  11.245 -0.2998 -0.2413 -0.0686
 7902SOL    HW135168   0.152   1.808  11.271 -0.3416  0.0515 -0.4563
 7902SOL    HW235169   0.258   1.694  11.265 -2.1054 -0.2404  1.3823
 7903SOL     OW35170   3.571   3.773  13.673  0.5064 -0.2846  0.3170
 7903SOL    HW135171   3.662   3.795  13.653  0.2651  1.2178  0.8467
 7903SOL    HW235172   3.527   3.857  13.690 -1.7410 -0.9992 -2.1002
 7904SOL     OW35173   4.373   3.788   0.539  0.3541 -0.4461  0.4668
 7904SOL    HW135174   4.423   3.816   0.616 -1.0376  0.1896  1.1411
 7904SOL    HW235175   4.431   3.733   0.486  3.1375  1.7301  1.2410
 7905SOL     OW35176   3.995   0.763   1.911 -0.4051  0.0572  0.0182
 7905SOL    HW135177   3.910   0.734   1.942 -0.8432  1.1885 -0.1181
 7905SOL    HW235178   4.022   0.689   1.856 -1.1934  0.9285 -1.5323
 7906SOL     OW35179   0.931   0.647   0.345  0.2659 -0.4955  0.3383
 7906SOL    HW135180   0.943   0.575   0.283 -2.2816 -0.1229 -0.5761
 7906SOL    HW235181   1.018   0.679   0.369 -0.1334 -0.3271  1.5454
 7907SOL     OW35182   4.375   4.590   6.298 -0.1616  0.1907  0.4193
 7907SOL    HW135183   4.374   4.606   6.392  1.6863 -2.4136  0.8683
 7907SOL    HW235184   4.358   4.496   6.298 -0.2228  0.1990  1.2433
 7908SOL     OW35185   0.907   2.676   5.068  0.1092 -0.0221  0.7343
 7908SOL    HW135186   0.898   2.640   4.980 -0.5391  1.5496  0.1445
 7908SOL    HW235187   0.997   2.646   5.083  0.7912  1.0004 -1.3226
 7909SOL     OW35188   3.629   3.320   3.268  0.1947  0.1043 -0.7261
 7909SOL    HW135189   3.618   3.293   3.359  0.1496 -0.5546 -0.9228
 7909SOL    HW235190   3.603   3.238   3.225  0.2053 -0.3705  0.1764
 7910SOL     OW35191   3.996   4.439   1.488  0.3982 -0.4659  0.3763
 7910SOL    HW135192   4.063   4.448   1.555  0.4357  1.8395  0.0082
 7910SOL    HW235193   3.927   4.410   1.549  2.0706 -0.9757  2.0157
 7911SOL     OW35194   0.377   2.867   8.428 -0.2562  0.3533  0.2234
 7911SOL    HW135195   0.321   2.941   8.405 -2.3513 -0.7614  1.7207
 7911SOL    HW235196   0.340   2.792   8.382  0.2708  1.0739 -1.3539
 7912SOL     OW35197   1.890   0.059   7.957  0.2308  0.4563  0.4478
 7912SOL    HW135198   1.895   4.689   7.946 -0.6725  0.4132  0.3722
 7912SOL    HW235199   1.815   0.083   7.903 -1.5956 -0.8290  2.4034
 7913SOL     OW35200   1.427   1.474   8.129  0.1071  0.1225  0.0052
 7913SOL    HW135201   1.413   1.408   8.061  3.6526  1.1862 -1.7790
 7913SOL    HW235202   1.496   1.522   8.083 -0.7703  1.4877  0.0901
 7914SOL     OW35203   0.494   3.812   6.130  0.7927  0.0843 -0.1151
 7914SOL    HW135204   0.554   3.796   6.203  1.9458  2.6113 -0.5266
 7914SOL    HW235205   0.451   3.887   6.171 -1.5983 -0.9057 -0.8175
 7915SOL     OW35206   1.922   0.563   4.653 -0.5044 -0.5360  0.0364
 7915SOL    HW135207   1.909   0.552   4.748  1.5088 -0.7242  0.3086
 7915SOL    HW235208   1.985   0.493   4.633 -0.3639 -0.6505  0.8753
 7916SOL     OW35209   3.221   1.232   4.333 -0.1940  0.2637 -0.0523
 7916SOL    HW135210   3.205   1.176   4.410  2.0401 -0.8830 -0.4118
 7916SOL    HW235211   3.299   1.281   4.357  1.6513 -2.1391 -1.1223
 7917SOL     OW35212   3.854   2.582   7.454  0.3886 -0.9775 -0.0520
 7917SOL    HW135213   3.797   2.534   7.514 -0.6560 -1.1621 -1.1881
 7917SOL    HW235214   3.863   2.513   7.387 -2.4549 -1.0390 -0.3703
 7918SOL     OW35215   3.031   0.326   5.244  0.0203  0.2806 -0.3664
 7918SOL    HW135216   2.949   0.307   5.198 -0.8907 -0.3598  1.5234
 7918SOL    HW235217   3.085   0.247   5.235  0.2193  0.2069  1.4760
 7919SOL     OW35218   3.938   1.761   8.929 -0.3954  0.1064  0.3655
 7919SOL    HW135219   3.979   1.796   9.008 -0.6233 -0.9471  0.9513
 7919SOL    HW235220   3.992   1.684   8.911  0.4374  0.2789  2.0694
 7920SOL     OW35221   3.312   4.395   2.304 -0.4695 -0.1785  0.0055
 7920SOL    HW135222   3.268   4.326   2.354 -1.1768 -0.5967 -1.2033
 7920SOL    HW235223   3.269   4.469   2.347  0.0214  1.5423 -2.4535
 7921SOL     OW35224   1.840   2.827   1.047 -0.0173  0.4482  0.1321
 7921SOL    HW135225   1.813   2.918   1.031 -0.5868  0.3927  0.7671
 7921SOL    HW235226   1.934   2.818   1.032 -0.3892  1.4960 -2.7897
 7922SOL     OW35227   2.838   3.325   3.486  0.2512  0.2621 -0.3962
 7922SOL    HW135228   2.891   3.299   3.561  0.2687 -0.4591 -0.6532
 7922SOL    HW235229   2.903   3.319   3.416 -0.2304  2.0088 -0.9982
 7923SOL     OW35230   3.819   2.646  12.174 -0.3734  0.0175 -0.3721
 7923SOL    HW135231   3.765   2.569  12.193 -1.5975  0.8804 -0.3718
 7923SOL    HW235232   3.899   2.612  12.135 -0.6205  0.3519 -1.1697
 7924SOL     OW35233   3.134   3.048   9.467 -0.2002  0.1541 -0.2760
 7924SOL    HW135234   3.116   3.137   9.437 -1.0475 -0.4449 -1.5212
 7924SOL    HW235235   3.075   3.039   9.542  0.9975 -0.4505  0.6105
 7925SOL     OW35236   2.969   4.077   1.821 -0.6543  0.0322  0.3942
 7925SOL    HW135237   3.049   4.041   1.784 -0.8777  0.0436 -0.1008
 7925SOL    HW235238   2.948   3.992   1.861 -0.0776  0.5672  1.8318
 7926SOL     OW35239   3.986   4.092   4.515 -0.3281 -0.3859 -0.1609
 7926SOL    HW135240   3.979   4.168   4.572 -1.2110 -0.6456  0.0714
 7926SOL    HW235241   3.925   4.110   4.444  0.9621 -0.6651 -1.3528
 7927SOL     OW35242   2.875   0.249  14.031 -0.0801 -0.2814 -0.2423
 7927SOL    HW135243   2.860   0.343  14.016 -0.5314  0.0300  2.2602
 7927SOL    HW235244   2.970   0.253  14.016  0.6536 -1.8285  3.9694
 7928SOL     OW35245   1.046   1.947   3.330  0.4328 -0.4467  0.1268
 7928SOL    HW135246   1.131   1.985   3.308  0.3517  0.8487  2.0095
 7928SOL    HW235247   1.061   1.944   3.425 -0.2233  1.5980  0.2964
 7929SOL     OW35248   3.722   2.755   2.379 -0.0449 -0.7877 -0.1187
 7929SOL    HW135249   3.633   2.771   2.411  0.8050  0.9506  1.3921
 7929SOL    HW235250   3.706   2.664   2.355 -1.2638 -0.7148  0.4259
 7930SOL     OW35251   0.746   1.257   2.972  0.1520 -0.3489 -0.5593
 7930SOL    HW135252   0.839   1.240   2.961  0.3602  1.0665 -0.9910
 7930SOL    HW235253   0.715   1.252   2.881 -0.4998 -0.3544 -0.3387
 7931SOL     OW35254   0.678   1.197   5.504 -0.3205 -0.0530  0.7303
 7931SOL    HW135255   0.660   1.256   5.431  0.7706  0.1115  0.5900
 7931SOL    HW235256   0.771   1.212   5.523  0.0094  1.8355 -2.5243
 7932SOL     OW35257   2.549   1.486   9.787 -0.1531 -0.0853  0.1812
 7932SOL    HW135258   2.501   1.414   9.747  1.1050 -0.4879 -0.5978
 7932SOL    HW235259   2.633   1.443   9.802  1.0285  1.8701 -0.9085
 7933SOL     OW35260   3.413   0.633   2.586  0.4280  0.2542  0.0678
 7933SOL    HW135261   3.358   0.673   2.519 -1.3499 -2.7918 -0.2985
 7933SOL    HW235262   3.494   0.681   2.572  0.5920 -0.1996 -0.5065
 7934SOL     OW35263   3.806   1.315   5.056 -0.0842 -0.1941  0.3611
 7934SOL    HW135264   3.720   1.328   5.096  0.4299 -0.6282  1.5983
 7934SOL    HW235265   3.860   1.367   5.116  0.9195 -2.1619  1.1586
 7935SOL     OW35266   4.657   0.486  14.942  0.3192  0.2732  0.3559
 7935SOL    HW135267   4.576   0.535  14.925  0.7083  1.3909  1.6646
 7935SOL    HW235268   4.722   0.557  14.940  0.8528 -0.2193  0.3573
 7936SOL     OW35269   0.665   1.350   8.028  0.3489 -0.0832 -0.0142
 7936SOL    HW135270   0.681   1.349   7.934 -0.7308 -1.2427 -0.1761
 7936SOL    HW235271   0.631   1.439   8.033  1.1264  0.1064  2.3237
 7937SOL     OW35272   0.392   4.566   6.313  0.3049 -0.3211 -0.5208
 7937SOL    HW135273   0.298   4.586   6.312  0.1071 -1.2356 -0.8111
 7937SOL    HW235274   0.418   4.649   6.273 -0.9086 -0.0190 -0.6835
 7938SOL     OW35275   1.825   4.190   3.602  0.0739 -0.2023 -0.3116
 7938SOL    HW135276   1.865   4.276   3.616 -0.9280  0.5875 -2.3208
 7938SOL    HW235277   1.899   4.142   3.639  0.4009 -1.5597 -2.7664
 7939SOL     OW35278   3.497   3.376   4.192  0.2339 -0.0719  0.1544
 7939SOL    HW135279   3.492   3.444   4.125 -1.0961 -2.0557 -1.7630
 7939SOL    HW235280   3.482   3.293   4.145  2.7395  0.1428 -1.0233
 7940SOL     OW35281   2.242   4.425   4.515  0.2631  0.3921 -0.3575
 7940SOL    HW135282   2.316   4.434   4.574 -0.3331 -0.4081  0.5095
 7940SOL    HW235283   2.243   4.338   4.474  2.9276  0.2908 -0.0806
 7941SOL     OW35284   1.307   2.956   2.013 -0.0996  0.3620 -0.0689
 7941SOL    HW135285   1.360   2.889   1.971 -1.3513 -1.7649  1.7207
 7941SOL    HW235286   1.365   3.032   2.015  1.4155 -0.8384  0.7972
 7942SOL     OW35287   1.651   0.413  13.515  0.1297  0.3179 -0.7281
 7942SOL    HW135288   1.704   0.335  13.532 -0.9789  0.2827  2.5400
 7942SOL    HW235289   1.711   0.472  13.469 -1.5651  0.2592 -3.0134
 7943SOL     OW35290   1.888   1.773   2.572  0.4241 -0.0485 -0.9027
 7943SOL    HW135291   1.900   1.687   2.532  1.4173 -1.3715  2.1936
 7943SOL    HW235292   1.858   1.753   2.661  0.4906 -0.0101 -0.8717
 7944SOL     OW35293   0.149   2.113  15.935 -0.2859 -0.6570  0.9294
 7944SOL    HW135294   0.086   2.153  15.875 -0.6102 -1.9093  0.4425
 7944SOL    HW235295   0.146   2.022  15.904  0.2007  0.1367 -1.4714
 7945SOL     OW35296   3.046   2.040   4.245  0.4713 -0.0562 -0.0146
 7945SOL    HW135297   3.002   2.113   4.286 -0.5390 -0.4474 -0.3977
 7945SOL    HW235298   2.993   2.024   4.167  0.5379  0.5540 -0.1843
 7946SOL     OW35299   3.827   1.197   8.170  0.6890  0.0288  0.1125
 7946SOL    HW135300   3.853   1.226   8.083  1.1365  1.5262  0.7318
 7946SOL    HW235301   3.772   1.124   8.142  0.6560  0.1956 -0.2568
 7947SOL     OW35302   0.571   0.555   2.133  0.5433 -0.3460  0.1004
 7947SOL    HW135303   0.529   0.501   2.067  0.5308  0.9063 -0.9128
 7947SOL    HW235304   0.622   0.614   2.078 -1.0140  0.6208 -0.3332
 7948SOL     OW35305   2.123   0.503   8.067 -0.3040  0.4052  0.0740
 7948SOL    HW135306   2.056   0.568   8.047 -0.9026 -0.2378 -0.0457
 7948SOL    HW235307   2.059   0.435   8.045  0.5895 -1.6042  3.5679
 7949SOL     OW35308   3.943   0.193   6.345 -0.2982  0.3245  0.0597
 7949SOL    HW135309   3.888   0.115   6.336 -0.2621  0.4646 -1.3275
 7949SOL    HW235310   3.894   0.249   6.406 -2.0034  0.0474 -1.0557
 7950SOL     OW35311   1.087   2.389   9.452 -0.2487 -0.1427  0.3563
 7950SOL    HW135312   1.139   2.318   9.415  2.0443  1.7996 -0.1428
 7950SOL    HW235313   1.014   2.344   9.495 -0.1777 -1.5481 -1.0145
 7951SOL     OW35314   1.454   3.953  10.082 -0.2369  0.8804  0.2244
 7951SOL    HW135315   1.394   4.003  10.137 -3.1880 -1.0696 -1.1414
 7951SOL    HW235316   1.528   4.013  10.077 -0.5372  1.2133 -0.2905
 7952SOL     OW35317   3.077   3.637   5.904 -0.8900  0.0497  0.3539
 7952SOL    HW135318   3.106   3.700   5.838 -3.0216  2.1771  1.4382
 7952SOL    HW235319   3.149   3.661   5.964  0.4641 -0.8353 -0.9107
 7953SOL     OW35320   2.187   0.818  14.774 -0.0259  0.8018  0.0129
 7953SOL    HW135321   2.190   0.726  14.747 -0.4651  0.2436  1.8828
 7953SOL    HW235322   2.276   0.836  14.806  0.6766 -2.0292 -0.3296
 7954SOL     OW35323   3.640   0.853  11.701 -0.2352  0.3083 -0.0347
 7954SOL    HW135324   3.716   0.827  11.754  0.2023  0.7935 -0.4272
 7954SOL    HW235325   3.566   0.850  11.761  0.0877  0.6819  0.3864
 7955SOL     OW35326   2.862   2.483   7.313  0.2929  0.0666  0.1529
 7955SOL    HW135327   2.870   2.549   7.381  1.7291  0.6944 -0.6234
 7955SOL    HW235328   2.949   2.444   7.320 -0.4887 -1.4861  1.1772
 7956SOL     OW35329   2.676   0.920   4.013  0.3782 -0.0290 -0.0237
 7956SOL    HW135330   2.695   1.006   3.974 -0.0043  0.0139 -0.1169
 7956SOL    HW235331   2.762   0.896   4.048  0.3881 -1.5150 -1.0861
 7957SOL     OW35332   2.005   1.803   1.478 -0.6742 -0.5344  0.8420
 7957SOL    HW135333   1.928   1.792   1.421 -0.6211  0.5600  0.5633
 7957SOL    HW235334   2.033   1.888   1.445  1.5658 -1.6395 -0.1148
 7958SOL     OW35335   2.604   3.401  13.990  0.2139 -0.4254  0.0777
 7958SOL    HW135336   2.643   3.314  13.975  0.0020 -0.8750  2.2219
 7958SOL    HW235337   2.624   3.427  13.900  0.1714  0.0484  0.2064
 7959SOL     OW35338   0.352   2.722   5.850 -0.3911  0.0878  0.3534
 7959SOL    HW135339   0.359   2.814   5.824 -1.8190  0.1357  0.1343
 7959SOL    HW235340   0.257   2.715   5.861 -0.4708 -0.8403 -0.8195
 7960SOL     OW35341   3.146   3.464   4.226  0.6851 -0.0074 -0.3591
 7960SOL    HW135342   3.195   3.391   4.263  0.6175 -0.0403 -0.3336
 7960SOL    HW235343   3.156   3.461   4.131 -0.5744  1.3329 -0.5296
 7961SOL     OW35344   1.413   3.457  13.020  0.1425  0.4488 -0.1156
 7961SOL    HW135345   1.501   3.492  13.016 -0.9589  3.1330 -0.5842
 7961SOL    HW235346   1.396   3.461  13.114  2.1536  0.6727  0.2380
 7962SOL     OW35347   2.513   0.261   6.158  0.1953  0.2680 -0.6542
 7962SOL    HW135348   2.578   0.299   6.217  0.6187  0.6012 -1.3233
 7962SOL    HW235349   2.520   0.325   6.086 -1.0999  0.1466 -0.8867
 7963SOL     OW35350   0.477   4.193   7.137 -0.0218 -0.8392  0.2685
 7963SOL    HW135351   0.471   4.178   7.232  0.1183  3.2442  0.9530
 7963SOL    HW235352   0.385   4.183   7.113 -0.1924  1.4818 -0.0313
 7964SOL     OW35353   4.464   3.701   5.542 -0.2729 -0.2184 -0.2706
 7964SOL    HW135354   4.464   3.767   5.472  0.7017  0.8673  0.7542
 7964SOL    HW235355   4.475   3.624   5.486  0.4937 -1.1391  1.1733
 7965SOL     OW35356   0.844   2.213   6.292 -0.3620  0.0742 -0.2534
 7965SOL    HW135357   0.781   2.221   6.221 -0.3673  0.9520 -0.1546
 7965SOL    HW235358   0.881   2.301   6.303  0.1541 -0.3015  1.0090
 7966SOL     OW35359   3.221   2.165   7.667 -0.5544  0.0948 -0.0990
 7966SOL    HW135360   3.280   2.090   7.656  0.0076  0.7555 -1.4879
 7966SOL    HW235361   3.139   2.148   7.622 -0.1210 -0.0613 -0.8317
 7967SOL     OW35362   3.518   3.701   3.455  0.4181 -0.4294  0.3776
 7967SOL    HW135363   3.424   3.709   3.467  0.1215  0.0452 -2.2256
 7967SOL    HW235364   3.521   3.642   3.380 -0.9747 -0.3001  0.2289
 7968SOL     OW35365   0.350   3.904  14.000 -0.0831  0.0202  0.2684
 7968SOL    HW135366   0.423   3.904  14.062 -0.5699 -0.7836  0.8452
 7968SOL    HW235367   0.398   3.851  13.937  1.9874  1.0124  1.0011
 7969SOL     OW35368   0.121   4.484   4.237  0.3106  0.0154  0.0859
 7969SOL    HW135369   0.060   4.411   4.228  0.9569 -0.7195  1.5669
 7969SOL    HW235370   0.193   4.441   4.192  1.0465  0.0055  1.2513
 7970SOL     OW35371   4.438   3.635  13.998 -0.6542 -0.1200  0.0298
 7970SOL    HW135372   4.415   3.711  14.051  1.0467  2.0041 -2.3061
 7970SOL    HW235373   4.484   3.582  14.064 -1.1932 -1.7659 -0.9093
 7971SOL     OW35374   3.499   3.536   1.433  0.0647 -0.2120 -0.0758
 7971SOL    HW135375   3.436   3.577   1.374  1.7080 -1.0071 -2.3399
 7971SOL    HW235376   3.445   3.524   1.512  0.2546 -0.1279  0.0672
 7972SOL     OW35377   3.072   2.640  13.137  0.1172  0.3877 -0.2315
 7972SOL    HW135378   3.142   2.624  13.201  2.7798 -0.4864 -3.3931
 7972SOL    HW235379   3.084   2.567  13.077 -1.8972 -0.0161 -0.1560
 7973SOL     OW35380   1.739   0.334   8.228  0.7525  0.4931  0.5431
 7973SOL    HW135381   1.746   0.367   8.138 -0.0263 -0.2717  0.2112
 7973SOL    HW235382   1.709   0.415   8.270 -0.0617  1.6572 -2.2823
 7974SOL     OW35383   0.857   1.793   6.800 -0.1963 -0.0728  0.8947
 7974SOL    HW135384   0.917   1.810   6.873 -0.5766 -1.6452  1.5618
 7974SOL    HW235385   0.901   1.714   6.769  0.8256  0.6568  0.4789
 7975SOL     OW35386   1.965   1.893  17.329  0.2797  0.0702  0.2616
 7975SOL    HW135387   1.914   1.825  17.374  1.6749 -0.7726  0.5743
 7975SOL    HW235388   1.981   1.854  17.244  1.8202 -3.0958  2.0089
 7976SOL     OW35389   1.241   3.174  11.266  1.2541  0.1397  0.7088
 7976SOL    HW135390   1.311   3.220  11.313  0.7838  0.8211  0.7431
 7976SOL    HW235391   1.275   3.177  11.177  0.5214  1.0808  0.4679
 7977SOL     OW35392   4.194   4.483   2.259  0.1023 -0.8534 -0.0328
 7977SOL    HW135393   4.239   4.424   2.199  2.1806  0.7259 -0.0394
 7977SOL    HW235394   4.111   4.436   2.266  1.0476 -2.1645  2.3972
 7978SOL     OW35395   4.268   3.928   2.066  0.3432 -0.1236  0.2346
 7978SOL    HW135396   4.299   4.006   2.019 -1.1381  1.3093  1.6127
 7978SOL    HW235397   4.212   3.892   1.997  0.7830 -2.6081  1.1740
 7979SOL     OW35398   2.061   4.293   9.923  0.4228 -0.0020 -0.0249
 7979SOL    HW135399   2.085   4.320  10.012  0.0944  1.9423 -0.5416
 7979SOL    HW235400   2.148   4.287   9.885 -0.1795 -0.5082 -1.3337
 7980SOL     OW35401   0.589   2.636   7.509 -0.5805  0.1974  1.0072
 7980SOL    HW135402   0.628   2.552   7.536 -0.0588  0.3716  0.8028
 7980SOL    HW235403   0.651   2.669   7.443 -1.1330  1.1764  0.9933
 7981SOL     OW35404   1.130   0.529  13.419 -0.3299  0.4649  0.6062
 7981SOL    HW135405   1.129   0.473  13.497 -0.6347  0.1167  0.3487
 7981SOL    HW235406   1.203   0.590  13.430 -0.6770  1.1910 -1.1601
 7982SOL     OW35407   1.745   3.558  11.688  0.0530 -0.0986 -0.2168
 7982SOL    HW135408   1.745   3.536  11.595  1.0331  2.4475 -0.8112
 7982SOL    HW235409   1.721   3.650  11.698  0.0862 -0.0353 -0.7309
 7983SOL     OW35410   2.070   2.584   9.315  0.3486 -0.1598  0.0688
 7983SOL    HW135411   2.110   2.665   9.346 -0.7932  0.4119  0.0524
 7983SOL    HW235412   2.128   2.523   9.360  0.8914  0.4212  0.1678
 7984SOL     OW35413   2.375   2.871   6.184  0.0545 -0.0753  0.1659
 7984SOL    HW135414   2.432   2.843   6.111 -1.5414 -0.6011 -0.8794
 7984SOL    HW235415   2.293   2.841   6.144  1.0374 -0.4732 -1.5911
 7985SOL     OW35416   0.195   3.181   5.861 -0.7516  0.6484  0.1584
 7985SOL    HW135417   0.118   3.157   5.810  0.1689 -1.9897  0.0030
 7985SOL    HW235418   0.180   3.261   5.911 -0.6802  1.0555 -0.4765
 7986SOL     OW35419   3.988   3.558   8.170 -0.0066 -0.1372 -0.0538
 7986SOL    HW135420   3.980   3.561   8.074 -1.8685 -1.5096  0.0809
 7986SOL    HW235421   4.017   3.467   8.180  0.4959  0.0794  0.4582
 7987SOL     OW35422   2.617   2.430   6.534  0.0343 -0.9683  0.4813
 7987SOL    HW135423   2.535   2.386   6.511 -0.1150 -0.5618  0.2444
 7987SOL    HW235424   2.580   2.508   6.575  2.2099 -0.1435  0.8263
 7988SOL     OW35425   2.573   3.573  15.975  0.5573  0.2773 -0.1392
 7988SOL    HW135426   2.529   3.629  15.911 -0.0938 -2.3454 -1.9824
 7988SOL    HW235427   2.519   3.603  16.049 -1.0147 -2.2252 -0.2895
 7989SOL     OW35428   0.068   1.611   5.001  0.2370 -0.1441  0.1327
 7989SOL    HW135429   4.708   1.635   5.039  1.1757 -1.0832  2.8169
 7989SOL    HW235430   0.106   1.558   5.072  0.2227 -0.4765 -0.1100
 7990SOL     OW35431   0.570   0.082  17.688  0.4364  0.0999  0.4916
 7990SOL    HW135432   0.582   0.085  17.593  0.6638  1.9130  0.5891
 7990SOL    HW235433   0.491   0.030   0.002  1.5781 -1.9261 -0.5653
 7991SOL     OW35434   3.336   0.101   3.728 -0.6316 -0.4486  0.8499
 7991SOL    HW135435   3.334   0.038   3.800 -1.8111  0.3368  1.5068
 7991SOL    HW235436   3.303   0.040   3.662  0.7204  0.4151 -0.6554
 7992SOL     OW35437   3.574   4.642   4.079 -0.4262  0.0688  0.1620
 7992SOL    HW135438   3.493   4.614   4.120 -0.0938 -1.4215 -0.1882
 7992SOL    HW235439   3.557   0.011   4.066 -1.6939 -0.1921 -0.0346
 7993SOL     OW35440   1.790   4.265   5.460  0.6289 -0.0534 -0.1126
 7993SOL    HW135441   1.711   4.271   5.407  0.6813 -1.4243 -0.3458
 7993SOL    HW235442   1.845   4.338   5.432 -1.3417  2.0836  1.5681
 7994SOL     OW35443   2.392   2.940   8.264  0.3094  0.8489  0.1420
 7994SOL    HW135444   2.297   2.949   8.258  0.1462  0.0260  1.4420
 7994SOL    HW235445   2.410   2.896   8.181 -0.1708  2.2557 -0.6917
 7995SOL     OW35446   1.877   0.442   5.548 -0.4773  0.5988  0.0290
 7995SOL    HW135447   1.940   0.433   5.619  1.0952 -0.3341 -1.4895
 7995SOL    HW235448   1.924   0.425   5.466  0.8631 -1.1636  1.1816
 7996SOL     OW35449   2.950   4.297   6.923  0.0177 -0.2131 -0.2804
 7996SOL    HW135450   2.862   4.293   6.962  0.2463 -0.3934  0.2082
 7996SOL    HW235451   2.955   4.204   6.905  1.7906 -0.3245  0.8185
 7997SOL     OW35452   3.310   1.041   3.644 -0.6806  0.2452  0.3549
 7997SOL    HW135453   3.365   1.101   3.695  0.9309 -2.7238  2.1100
 7997SOL    HW235454   3.375   0.977   3.615 -0.3259  0.5753  0.4104
 7998SOL     OW35455   3.261   3.391  16.684 -0.7637 -0.1253  0.1895
 7998SOL    HW135456   3.287   3.409  16.594  1.5187  2.5929  1.3806
 7998SOL    HW235457   3.293   3.469  16.729 -1.2642  1.4617 -2.2076
 7999SOL     OW35458   3.088   0.750   5.587 -0.0884  0.5118 -0.5186
 7999SOL    HW135459   3.090   0.655   5.576 -0.6644  0.5924 -1.3163
 7999SOL    HW235460   3.044   0.770   5.504  0.8202  0.2116 -1.0702
 8000SOL     OW35461   3.723   1.797   6.947 -0.5733  0.1066 -0.4770
 8000SOL    HW135462   3.775   1.717   6.934 -0.7421  0.5132 -3.6573
 8000SOL    HW235463   3.755   1.824   7.034 -0.2775 -1.5940 -0.0559
 8001SOL     OW35464   0.588   3.586  17.613 -0.0929  0.0490  0.2580
 8001SOL    HW135465   0.498   3.617  17.615  0.4199  1.7358 -3.4311
 8001SOL    HW235466   0.572   3.492  17.625  1.2297 -0.1167  0.7341
 8002SOL     OW35467   4.566   3.922   9.013  0.0333 -0.4992  0.3440
 8002SOL    HW135468   4.571   3.999   9.070 -0.7009  0.1860 -0.5104
 8002SOL    HW235469   4.499   3.869   9.056 -0.3099  0.0561  0.5003
 8003SOL     OW35470   4.542   0.064  17.039 -0.4191  0.5480  0.4261
 8003SOL    HW135471   4.555   0.147  17.085  1.7592 -0.5562  1.8120
 8003SOL    HW235472   4.513   0.091  16.952 -2.5416  0.0736  0.9811
 8004SOL     OW35473   1.398   4.538   2.642  0.2675 -0.3215  0.3006
 8004SOL    HW135474   1.432   4.560   2.729  0.7772 -1.0439  0.2871
 8004SOL    HW235475   1.431   4.450   2.629 -0.6828 -0.5214 -0.6987
 8005SOL     OW35476   4.712   3.375  10.528  0.7741 -0.2144 -0.1418
 8005SOL    HW135477   4.643   3.316  10.499  1.1172 -0.7071  0.0440
 8005SOL    HW235478   0.062   3.329  10.490  0.1971 -1.5840  0.3799
 8006SOL     OW35479   2.755   0.630  13.436 -0.1889 -0.0926  0.2696
 8006SOL    HW135480   2.825   0.646  13.498  0.6805 -0.7995 -0.5160
 8006SOL    HW235481   2.790   0.651  13.349  1.3101  0.9429  1.1329
 8007SOL     OW35482   1.461   1.930   3.566  0.6304  0.3829 -0.1837
 8007SOL    HW135483   1.544   1.938   3.613  0.5713  0.3560 -0.0766
 8007SOL    HW235484   1.411   1.902   3.643  2.0487 -0.2032  0.5276
 8008SOL     OW35485   4.101   1.669   2.070  0.4051  0.6531  0.0634
 8008SOL    HW135486   4.148   1.751   2.060 -0.4666  1.2648  1.0396
 8008SOL    HW235487   4.072   1.647   1.981 -0.6744  0.2336  0.5222
 8009SOL     OW35488   1.396   2.947   8.568 -0.7347  0.0443  0.2490
 8009SOL    HW135489   1.482   2.979   8.596 -0.4567 -2.2675  1.9825
 8009SOL    HW235490   1.417   2.855   8.582  1.0504  0.4862  0.5093
 8010SOL     OW35491   1.248   4.570   6.538  0.1724 -0.4396  0.1608
 8010SOL    HW135492   1.170   4.514   6.533 -0.4921  0.4845  0.1516
 8010SOL    HW235493   1.306   4.537   6.606  0.4399  3.0143  1.6156
 8011SOL     OW35494   1.605   3.507   3.556  0.0296 -0.6961 -0.4048
 8011SOL    HW135495   1.560   3.575   3.507 -0.6730  0.9544  2.5092
 8011SOL    HW235496   1.619   3.551   3.640 -2.0571  0.3756 -0.6335
 8012SOL     OW35497   0.848   0.653  10.817 -0.5986 -0.1935 -0.2207
 8012SOL    HW135498   0.758   0.667  10.845 -0.3966  0.0751  0.2993
 8012SOL    HW235499   0.840   0.568  10.774 -1.6483 -1.0409  1.6349
 8013SOL     OW35500   2.990   0.135   0.753  0.3743 -0.0325  0.4890
 8013SOL    HW135501   2.967   0.228   0.760 -0.2113 -0.2621  1.6450
 8013SOL    HW235502   3.042   0.140   0.674  0.8956 -0.7792  0.7906
 8014SOL     OW35503   3.175   2.843   6.613  0.4599  0.2247  0.1071
 8014SOL    HW135504   3.092   2.844   6.565 -0.9507  1.1460  2.5750
 8014SOL    HW235505   3.219   2.916   6.571  1.6933 -0.4761  0.1865
 8015SOL     OW35506   4.371   1.750   3.658 -0.0112  0.2444 -0.0919
 8015SOL    HW135507   4.331   1.800   3.730 -1.8272  1.5149 -2.0108
 8015SOL    HW235508   4.294   1.724   3.608 -2.5262  0.3942  3.6650
 8016SOL     OW35509   4.333   1.311   8.835  0.2578 -0.3468 -0.2126
 8016SOL    HW135510   4.293   1.339   8.918 -1.2751 -0.8434 -0.7726
 8016SOL    HW235511   4.361   1.222   8.857  1.4610  0.6432  2.2381
 8017SOL     OW35512   3.577   3.343   3.723 -0.4907  0.7460 -0.0229
 8017SOL    HW135513   3.622   3.423   3.698 -1.1816  0.7793 -1.1433
 8017SOL    HW235514   3.560   3.307   3.636  0.0715  0.4695 -0.0178
 8018SOL     OW35515   1.365   3.209   6.972  0.0379 -0.6799  0.0053
 8018SOL    HW135516   1.380   3.211   7.067  3.0546  1.5012 -0.5312
 8018SOL    HW235517   1.270   3.198   6.976 -0.2683  2.4423  1.3138
 8019SOL     OW35518   4.002   1.099  16.321 -0.1608  0.4248  0.0009
 8019SOL    HW135519   3.910   1.096  16.347  0.2140 -3.4894  0.8796
 8019SOL    HW235520   4.051   1.065  16.395  1.6677 -1.4301 -2.0575
 8020SOL     OW35521   0.376   1.178   6.051 -0.5386 -0.0944  0.3433
 8020SOL    HW135522   0.450   1.236   6.069 -0.8949  1.0349 -1.9175
 8020SOL    HW235523   0.413   1.097   6.017 -0.2897  0.1640  0.0063
 8021SOL     OW35524   1.243   3.777   3.720  0.6749  0.3603  0.1019
 8021SOL    HW135525   1.208   3.836   3.654  3.1587  1.4055 -0.2848
 8021SOL    HW235526   1.312   3.737   3.666 -1.6197 -2.6315 -0.6543
 8022SOL     OW35527   0.589   1.369   4.563  0.3350  0.4437  0.2974
 8022SOL    HW135528   0.500   1.334   4.569  0.5810 -0.5862 -1.9249
 8022SOL    HW235529   0.611   1.360   4.656 -1.9201  0.3742  0.8342
 8023SOL     OW35530   0.081   3.719  16.328  0.0044  0.1237  0.0117
 8023SOL    HW135531   0.057   3.751  16.415 -0.3783  0.8659 -0.3679
 8023SOL    HW235532   0.067   3.797  16.274 -0.9143 -1.5188 -2.1391
 8024SOL     OW35533   2.720   4.516   7.976  0.1363  0.2914 -0.4176
 8024SOL    HW135534   2.811   4.488   7.984  0.3991  0.1909 -3.6231
 8024SOL    HW235535   2.696   4.521   8.068  0.5760  0.7672 -0.3293
 8025SOL     OW35536   4.252   0.020   5.820  0.9809 -0.2809  0.1319
 8025SOL    HW135537   4.338   4.705   5.837  0.8531 -0.4092  0.4805
 8025SOL    HW235538   4.205   4.699   5.890  0.2486 -0.2547 -0.3425
 8026SOL     OW35539   1.930   0.353   2.171 -1.0273 -0.0176 -0.7609
 8026SOL    HW135540   1.844   0.357   2.214 -0.4890 -1.8242  0.4560
 8026SOL    HW235541   1.930   0.270   2.124 -1.9848 -0.9796  0.8958
 8027SOL     OW35542   2.752   2.884   5.305  0.3212  0.2338 -0.1249
 8027SOL    HW135543   2.761   2.800   5.261 -2.6671  0.5521 -1.3030
 8027SOL    HW235544   2.799   2.857   5.384 -2.6295 -0.3843  1.4145
 8028SOL     OW35545   2.219   2.581   7.990  0.0521  0.2242 -0.1198
 8028SOL    HW135546   2.128   2.609   7.997  0.5404  1.0443  2.7298
 8028SOL    HW235547   2.222   2.595   7.895 -0.1390 -0.8227 -0.2893
 8029SOL     OW35548   2.173   3.193   8.951 -0.4864  0.6151 -0.5656
 8029SOL    HW135549   2.195   3.110   8.995 -0.7177 -0.2231 -2.0234
 8029SOL    HW235550   2.094   3.221   8.998 -0.2117 -0.7169  0.6936
 8030SOL     OW35551   1.109   0.453   6.041 -0.4515 -0.0269 -0.4184
 8030SOL    HW135552   1.204   0.463   6.032 -0.4084 -0.6758 -0.6190
 8030SOL    HW235553   1.108   0.362   6.070 -1.0060  1.1782  3.3727
 8031SOL     OW35554   3.450   3.265   8.001  0.2386  0.2317  0.2272
 8031SOL    HW135555   3.484   3.176   8.000 -1.6825 -0.4800 -1.3558
 8031SOL    HW235556   3.425   3.267   8.094 -2.6694  1.0627 -0.5793
 8032SOL     OW35557   0.890   1.423   3.200 -0.5700  0.1455  0.1929
 8032SOL    HW135558   0.918   1.356   3.138  1.7657  1.3255  0.0006
 8032SOL    HW235559   0.959   1.489   3.200 -0.5690  0.1493  3.6423
 8033SOL     OW35560   2.738   1.839   6.442  0.0236  0.9050 -0.6320
 8033SOL    HW135561   2.724   1.811   6.532  1.0855  0.9123 -0.4711
 8033SOL    HW235562   2.795   1.916   6.451 -1.8740  2.3641 -1.0097
 8034SOL     OW35563   1.319   4.190   7.597 -0.1512  0.6336 -0.3884
 8034SOL    HW135564   1.404   4.225   7.621 -1.5993  2.7212  1.6141
 8034SOL    HW235565   1.297   4.127   7.665  1.1773  0.5486 -0.0465
 8035SOL     OW35566   0.507   3.566   7.424  0.1719 -0.2070 -0.1104
 8035SOL    HW135567   0.601   3.569   7.441  0.2433  0.4646 -0.6147
 8035SOL    HW235568   0.506   3.484   7.374 -0.3821 -1.3607  1.7793
 8036SOL     OW35569   3.631   1.644   9.303 -0.3400 -0.5002 -0.1854
 8036SOL    HW135570   3.596   1.582   9.367 -0.0669  0.9395  1.3563
 8036SOL    HW235571   3.723   1.628   9.325 -0.8514 -3.5197 -0.3200
 8037SOL     OW35572   0.548   2.502   3.270  0.2918 -0.7958  0.2983
 8037SOL    HW135573   0.634   2.460   3.262  0.1242 -0.8107 -1.3553
 8037SOL    HW235574   0.550   2.510   3.366  1.4047 -0.9972  0.2936
 8038SOL     OW35575   3.478   3.496   5.190  0.4974 -0.4039 -0.4464
 8038SOL    HW135576   3.436   3.470   5.108 -3.5164 -1.4016  1.9146
 8038SOL    HW235577   3.432   3.575   5.218  1.0965 -1.2596  2.9505
 8039SOL     OW35578   0.822   2.036   2.511 -0.2296 -0.4897 -0.5438
 8039SOL    HW135579   0.794   2.111   2.459 -0.6091 -0.4609 -0.2993
 8039SOL    HW235580   0.763   1.968   2.478 -1.6368  0.2908  0.3859
 8040SOL     OW35581   3.021   4.396   2.833 -0.6578 -0.5393  0.2103
 8040SOL    HW135582   2.979   4.428   2.753 -0.2165 -0.2062  0.1077
 8040SOL    HW235583   3.108   4.434   2.817  0.0086 -1.2789  2.0800
 8041SOL     OW35584   3.524   4.475   2.708  0.0815  0.5412 -0.6074
 8041SOL    HW135585   3.564   4.537   2.769 -0.2654 -0.6742  0.8449
 8041SOL    HW235586   3.574   4.399   2.737 -0.2639  0.7075  0.4127
 8042SOL     OW35587   4.472   2.559   2.160 -0.4738  0.4369 -0.4241
 8042SOL    HW135588   4.509   2.471   2.149 -0.1420  0.4496  0.6150
 8042SOL    HW235589   4.498   2.577   2.251 -1.7539  0.9929 -0.1697
 8043SOL     OW35590   1.652   3.727  12.721 -0.5653 -0.5824  0.0400
 8043SOL    HW135591   1.744   3.751  12.706 -0.3662 -1.5008 -0.2196
 8043SOL    HW235592   1.660   3.700  12.812 -0.5463 -0.0322  0.2013
 8044SOL     OW35593   3.494   0.350   4.992  0.2259  0.5855 -0.0208
 8044SOL    HW135594   3.570   0.386   4.946  1.1588 -0.6254  0.5668
 8044SOL    HW235595   3.530   0.280   5.047 -1.8334 -1.0822 -0.8029
 8045SOL     OW35596   3.725   0.230   3.874 -0.2034 -0.7605 -0.4391
 8045SOL    HW135597   3.720   0.270   3.787  1.6434 -1.0761 -0.6913
 8045SOL    HW235598   3.799   0.170   3.863  0.7362  0.1629  0.8247
 8046SOL     OW35599   0.747   1.115   8.141 -0.0156 -0.3660 -0.5320
 8046SOL    HW135600   0.839   1.140   8.154 -0.0689 -0.6626  0.3568
 8046SOL    HW235601   0.710   1.198   8.110  1.4543 -0.1314 -1.6974
 8047SOL     OW35602   0.792   2.044   9.711 -0.3402 -0.1192  0.1088
 8047SOL    HW135603   0.853   2.118   9.709 -0.0420 -0.3879 -0.9560
 8047SOL    HW235604   0.724   2.079   9.653 -0.9676  0.9598  1.4784
 8048SOL     OW35605   0.709   1.922   6.424 -0.0693 -0.5277 -0.1029
 8048SOL    HW135606   0.650   1.996   6.411  2.4197  1.5195  0.1908
 8048SOL    HW235607   0.791   1.958   6.459 -0.1473  0.2572 -0.7204
 8049SOL     OW35608   2.100   3.150  12.601  0.2129  0.0694 -0.1705
 8049SOL    HW135609   2.054   3.121  12.522  1.4392  0.6406 -1.1057
 8049SOL    HW235610   2.187   3.109  12.604  0.2191 -0.0521 -2.0755
 8050SOL     OW35611   0.507   0.197   1.993  0.0914 -0.1772 -0.1075
 8050SOL    HW135612   0.443   0.143   1.947  0.8386  1.1230 -2.6751
 8050SOL    HW235613   0.491   0.174   2.085 -1.2703 -2.1043 -0.8305
 8051SOL     OW35614   1.122   3.146   6.980 -0.3188  0.0878  0.3844
 8051SOL    HW135615   1.047   3.176   6.929 -0.9202 -1.0936  0.5819
 8051SOL    HW235616   1.075   3.108   7.053 -1.1523  0.8229  0.2326
 8052SOL     OW35617   0.372   0.060   6.774 -0.1585 -0.1247 -0.3836
 8052SOL    HW135618   0.382   0.138   6.719  0.7558  0.0251  0.0051
 8052SOL    HW235619   0.446   0.007   6.746  0.7700  0.9417  0.0490
 8053SOL     OW35620   3.186   2.429   7.132 -0.0796  0.6241 -0.1153
 8053SOL    HW135621   3.176   2.512   7.178 -3.3761 -0.3207  0.8621
 8053SOL    HW235622   3.271   2.448   7.092  0.5976 -0.1467  0.9622
 8054SOL     OW35623   4.488   1.891   9.848 -1.0179  0.3378  0.3975
 8054SOL    HW135624   4.444   1.956   9.792  1.7639  1.3150 -0.6507
 8054SOL    HW235625   4.475   1.937   9.931 -1.9330  0.3353  0.2596
 8055SOL     OW35626   4.676   3.495   9.002 -0.5017  0.6792 -0.4860
 8055SOL    HW135627   4.580   3.498   8.995 -0.4656  1.3872 -0.6841
 8055SOL    HW235628   4.700   3.449   8.922  0.7852  0.8161 -0.1722
 8056SOL     OW35629   4.489   1.910   2.664 -0.0472 -0.2031  0.2333
 8056SOL    HW135630   4.575   1.927   2.625  1.0153  0.3063  2.8225
 8056SOL    HW235631   4.458   1.847   2.599  1.3125 -0.6801  0.0281
 8057SOL     OW35632   1.213   1.135   3.305 -0.2596  0.0457 -0.6412
 8057SOL    HW135633   1.133   1.126   3.253 -0.0713  0.5237 -1.0144
 8057SOL    HW235634   1.217   1.231   3.303 -1.1027  0.0984  0.1790
 8058SOL     OW35635   3.815   4.313   5.963 -0.6950 -0.0387  0.2269
 8058SOL    HW135636   3.732   4.301   5.915 -0.6679 -0.9347  0.3988
 8058SOL    HW235637   3.790   4.347   6.048 -0.0212  1.2468 -0.0925
 8059SOL     OW35638   3.073   1.487   9.005 -0.3393 -0.0329  0.1391
 8059SOL    HW135639   3.131   1.562   9.014  0.2223 -0.8879  3.6194
 8059SOL    HW235640   2.984   1.522   9.009 -0.8799 -1.2489 -1.1655
 8060SOL     OW35641   3.659   0.795   9.362  0.1326 -0.0042  0.0006
 8060SOL    HW135642   3.619   0.736   9.298 -0.7896 -1.1414  1.6199
 8060SOL    HW235643   3.603   0.871   9.346  1.0724  0.6052 -0.3508
 8061SOL     OW35644   3.931   2.151   6.750  0.0718  0.1068 -0.0495
 8061SOL    HW135645   3.841   2.177   6.772  0.2639  0.1777  0.6435
 8061SOL    HW235646   3.966   2.136   6.838 -0.2863  1.4487  0.3294
 8062SOL     OW35647   0.836   1.532   4.936 -0.2598  0.4148 -0.3490
 8062SOL    HW135648   0.903   1.515   4.870  1.8469  0.0362  1.9143
 8062SOL    HW235649   0.765   1.491   4.887 -1.1278 -1.0217  2.1336
 8063SOL     OW35650   1.785   2.053   4.377  0.5292  0.3920 -0.0398
 8063SOL    HW135651   1.777   2.078   4.469 -2.8544  0.7567 -0.4387
 8063SOL    HW235652   1.839   1.975   4.391  2.9287  2.0589 -0.0097
 8064SOL     OW35653   2.388   0.104   3.376  0.4243  0.4398  0.0950
 8064SOL    HW135654   2.439   0.150   3.309 -2.1145  1.4456 -1.1394
 8064SOL    HW235655   2.384   0.170   3.446 -1.9029  0.9924 -0.5604
 8065SOL     OW35656   1.939   4.165   7.421  0.1493  1.1354 -0.4162
 8065SOL    HW135657   1.944   4.168   7.516 -0.5597  1.5837 -0.3951
 8065SOL    HW235658   1.855   4.121   7.407 -0.3324  1.5563  1.1622
 8066SOL     OW35659   3.848   1.180   0.498 -0.9725  0.4437  0.5620
 8066SOL    HW135660   3.894   1.231   0.565  1.0756  0.0550 -0.5455
 8066SOL    HW235661   3.901   1.196   0.420  0.8765  2.3357  2.1960
 8067SOL     OW35662   4.652   2.219   6.386  0.1732 -0.1552 -0.7066
 8067SOL    HW135663   0.021   2.199   6.393 -0.7584 -4.0806  0.5885
 8067SOL    HW235664   4.623   2.193   6.299 -1.0650 -3.4099  0.6564
 8068SOL     OW35665   3.802   4.401   9.021 -0.2005 -0.0688  0.2350
 8068SOL    HW135666   3.844   4.317   9.037 -0.5826 -0.6966 -2.1258
 8068SOL    HW235667   3.869   4.461   9.055 -0.5049  0.4211 -0.0293
 8069SOL     OW35668   3.006   4.642  10.112  0.4601 -0.4278  0.0898
 8069SOL    HW135669   3.080   4.589  10.140 -0.9302 -2.7159 -0.5594
 8069SOL    HW235670   3.025   0.001  10.155  3.0910 -0.6560 -0.6411
 8070SOL     OW35671   2.437   2.024   9.371 -0.9580  0.4234 -0.6796
 8070SOL    HW135672   2.380   2.087   9.416 -0.0334 -0.6329  1.9630
 8070SOL    HW235673   2.520   2.057   9.405 -1.4060  0.0593  0.7742
 8071SOL     OW35674   4.272   2.950   8.236 -0.3989  0.0570  0.0322
 8071SOL    HW135675   4.299   2.862   8.207  2.7840  0.7360  0.9086
 8071SOL    HW235676   4.248   2.996   8.156 -1.1095 -0.5624 -0.1034
 8072SOL     OW35677   4.375   2.429   7.980  0.0651 -0.3796  0.1115
 8072SOL    HW135678   4.300   2.396   8.029 -0.0107 -1.3738 -0.6560
 8072SOL    HW235679   4.446   2.402   8.039 -1.4680 -2.0431  1.1774
 8073SOL     OW35680   0.642   3.367   8.198  0.1194 -0.3669 -0.2595
 8073SOL    HW135681   0.724   3.352   8.246  1.0675  0.0006 -1.7680
 8073SOL    HW235682   0.663   3.324   8.115  0.2323  0.9224 -0.9115
 8074SOL     OW35683   0.367   1.971   8.337  0.3098  0.0539  0.3621
 8074SOL    HW135684   0.411   1.911   8.397  2.1624  0.5057 -0.5242
 8074SOL    HW235685   0.424   1.957   8.261 -2.3080 -1.5209 -1.2968
 8075SOL     OW35686   0.987   0.595   5.443 -0.0065 -0.1474  0.1675
 8075SOL    HW135687   1.019   0.607   5.354  1.8338  0.1383  0.8657
 8075SOL    HW235688   1.057   0.547   5.487  1.5347 -0.1163 -2.2401
 8076SOL     OW35689   4.133   1.701   4.547  0.1510 -0.4217  0.2504
 8076SOL    HW135690   4.202   1.748   4.594  0.4565 -1.6543  1.0326
 8076SOL    HW235691   4.055   1.729   4.594  1.2261  1.7927  0.7230
 8077SOL     OW35692   0.929   3.682   2.099 -0.0925  0.0080 -0.3719
 8077SOL    HW135693   0.989   3.743   2.141 -1.2618  2.5169 -2.3427
 8077SOL    HW235694   0.884   3.738   2.036  0.6946  0.2080 -0.7495
 8078SOL     OW35695   0.231   4.049  10.063 -0.1029 -0.3154 -0.4424
 8078SOL    HW135696   0.226   3.976  10.001 -1.0084  1.7236 -2.7948
 8078SOL    HW235697   0.279   4.116  10.013 -1.0891  1.4975  1.0326
 8079SOL     OW35698   1.650   0.264  15.381 -0.0341  0.2173  0.0679
 8079SOL    HW135699   1.563   0.246  15.417  0.1234 -1.8745 -0.6162
 8079SOL    HW235700   1.661   0.181  15.335  0.2675  0.1891  0.1938
 8080SOL     OW35701   3.999   2.726   3.340 -0.1232 -0.1828 -0.0634
 8080SOL    HW135702   3.981   2.817   3.364  1.3034 -0.4710  2.1300
 8080SOL    HW235703   3.979   2.725   3.246 -1.9809  0.8350  0.3242
 8081SOL     OW35704   0.979   0.174  15.268 -0.7917 -0.0585  0.6242
 8081SOL    HW135705   1.012   0.249  15.317 -4.1041  1.5109  0.4855
 8081SOL    HW235706   0.969   0.107  15.336 -0.2814 -0.5137  0.2440
 8082SOL     OW35707   2.704   4.206   5.380  0.3066  0.0810  0.0718
 8082SOL    HW135708   2.640   4.158   5.432  1.3459 -0.3591  0.9407
 8082SOL    HW235709   2.746   4.134   5.335 -1.4496  0.8112 -2.7641
 8083SOL     OW35710   0.424   0.923   0.121  0.0982 -0.3755  0.2350
 8083SOL    HW135711   0.384   0.996   0.073 -0.5320 -0.8091  0.1038
 8083SOL    HW235712   0.423   0.955   0.211  0.5566 -3.0421  1.1854
 8084SOL     OW35713   0.612   0.721   0.895 -0.0047  0.5207  0.1279
 8084SOL    HW135714   0.604   0.656   0.825 -0.4078  0.7364 -0.0302
 8084SOL    HW235715   0.621   0.668   0.975  1.5302  1.1790  0.3829
 8085SOL     OW35716   3.215   3.777  11.396 -0.1125 -0.5482 -0.0756
 8085SOL    HW135717   3.259   3.861  11.406 -3.1472  0.9119  1.2508
 8085SOL    HW235718   3.291   3.721  11.411 -0.3163 -0.4005  1.4982
 8086SOL     OW35719   0.008   0.015   8.538 -0.0030  0.7105 -0.1547
 8086SOL    HW135720   0.098   0.047   8.539 -0.0148  0.6603  1.4306
 8086SOL    HW235721   4.688   0.099   8.526  0.4860  1.0856  0.6500
 8087SOL     OW35722   2.337   1.143   5.394 -0.5501  0.6828  0.6222
 8087SOL    HW135723   2.394   1.070   5.369 -0.6012  0.3181  1.5313
 8087SOL    HW235724   2.393   1.217   5.417  1.0097  0.1092 -1.3822
 8088SOL     OW35725   3.874   3.637  13.568 -0.0555 -0.6519  0.2934
 8088SOL    HW135726   3.969   3.636  13.583 -0.0483 -3.3091  0.1840
 8088SOL    HW235727   3.855   3.705  13.504  2.1164 -2.5961 -2.3687
 8089SOL     OW35728   4.707   0.238   5.579 -0.0450 -0.1257  0.9314
 8089SOL    HW135729   4.617   0.261   5.555  0.2540 -0.1106 -0.1797
 8089SOL    HW235730   4.714   0.147   5.551 -0.5988  0.2175 -0.3721
 8090SOL     OW35731   0.800   1.211   7.087 -0.0202  0.2480  0.5597
 8090SOL    HW135732   0.817   1.206   6.993 -1.1836 -1.1793  0.4267
 8090SOL    HW235733   0.706   1.194   7.092 -0.1643  0.6505 -0.8874
 8091SOL     OW35734   3.424   0.125   4.486 -0.0410 -0.1007 -0.7284
 8091SOL    HW135735   3.453   0.185   4.417  1.5331  0.5133  0.4628
 8091SOL    HW235736   3.453   0.168   4.566  0.9060 -1.3768 -0.3884
 8092SOL     OW35737   1.901   0.126   2.024  0.2955 -0.6885  0.1735
 8092SOL    HW135738   1.867   0.137   1.935  0.9251  1.3229  0.1832
 8092SOL    HW235739   1.824   0.109   2.078 -1.4958 -1.8388 -2.7468
 8093SOL     OW35740   1.765   1.982   7.681  0.0788 -0.4110  0.4226
 8093SOL    HW135741   1.709   1.986   7.759  0.1598  1.5547  0.3650
 8093SOL    HW235742   1.838   2.039   7.703  0.6120 -0.2717 -1.7673
 8094SOL     OW35743   1.961   4.089   7.140  0.4221 -0.3491  0.0897
 8094SOL    HW135744   1.979   4.142   7.218 -1.2437 -0.1776  0.3701
 8094SOL    HW235745   1.918   4.158   7.089 -0.2394  0.9705  2.4086
 8095SOL     OW35746   0.539   2.197   4.625  0.2123  0.5162  0.5579
 8095SOL    HW135747   0.571   2.205   4.535  1.0083 -3.3295  0.5077
 8095SOL    HW235748   0.446   2.216   4.611  0.4358  0.3027 -1.2789
 8096SOL     OW35749   0.456   2.306  17.580  0.5120  0.3205 -0.6319
 8096SOL    HW135750   0.468   2.384  17.633 -0.9799  0.4692 -0.5076
 8096SOL    HW235751   0.544   2.285  17.548  1.8144  2.9907  1.2573
 8097SOL     OW35752   3.282   0.201   5.625  0.5229  0.6154 -0.1742
 8097SOL    HW135753   3.217   0.152   5.675 -0.1774  0.9729 -0.7521
 8097SOL    HW235754   3.361   0.154   5.653  0.2395  0.4890  0.3977
 8098SOL     OW35755   1.675   4.203   1.572  0.5515 -0.6006 -0.4930
 8098SOL    HW135756   1.584   4.223   1.596  0.5676 -1.6006  0.3982
 8098SOL    HW235757   1.714   4.155   1.645  3.3796 -0.2737 -1.8191
 8099SOL     OW35758   0.072   0.378  14.446  0.0958  0.3337  0.0943
 8099SOL    HW135759   0.049   0.394  14.537  0.0496 -0.5824  0.2422
 8099SOL    HW235760   0.030   0.452  14.402 -1.1323 -0.2003  0.3666
 8100SOL     OW35761   1.735   2.411   5.590 -0.4794  0.1074  0.0100
 8100SOL    HW135762   1.805   2.358   5.552 -1.0399 -0.9997  0.4954
 8100SOL    HW235763   1.676   2.412   5.515 -0.5788 -1.3777  0.0501
 8101SOL     OW35764   1.562   3.817  11.253  0.4991 -0.6986 -0.4455
 8101SOL    HW135765   1.579   3.910  11.238 -0.6889 -0.1001  1.8937
 8101SOL    HW235766   1.648   3.782  11.274  1.3947  1.6482 -0.1346
 8102SOL     OW35767   1.832   3.849   4.281  0.1814  0.6447 -0.0908
 8102SOL    HW135768   1.775   3.791   4.231  1.3483 -0.0754 -0.5947
 8102SOL    HW235769   1.801   3.936   4.257 -0.4501  0.2426 -0.7489
 8103SOL     OW35770   3.093   2.753   2.023 -0.0795  0.2143  0.1717
 8103SOL    HW135771   3.184   2.782   2.012 -1.3136  3.5813 -1.1150
 8103SOL    HW235772   3.056   2.783   1.939 -0.3566 -1.6903 -0.3874
 8104SOL     OW35773   4.117   0.154  15.339 -0.3883  1.3896 -0.1470
 8104SOL    HW135774   4.047   0.210  15.371  0.2742  0.1448  3.4990
 8104SOL    HW235775   4.064   0.102  15.279  1.6892 -0.1781 -0.6316
 8105SOL     OW35776   4.375   0.602   1.922 -0.1141 -0.6975  0.4065
 8105SOL    HW135777   4.430   0.680   1.928  1.9422 -2.1471  0.4584
 8105SOL    HW235778   4.296   0.649   1.896  0.5781  1.6720  2.5340
 8106SOL     OW35779   2.263   4.276   7.656  0.1473 -0.3051 -0.2115
 8106SOL    HW135780   2.264   4.252   7.563  2.0673  1.9964 -0.7926
 8106SOL    HW235781   2.169   4.286   7.672  0.3577  2.5910 -0.6365
 8107SOL     OW35782   1.360   1.076  13.693  0.3030 -0.4100 -0.1863
 8107SOL    HW135783   1.314   1.144  13.742  0.4436  0.2432 -0.9568
 8107SOL    HW235784   1.311   1.068  13.612  0.8132  1.0369 -0.6356
 8108SOL     OW35785   1.003   2.025   6.195 -0.2873 -0.4517  0.1177
 8108SOL    HW135786   1.074   2.084   6.169 -2.4604  0.0036 -4.6225
 8108SOL    HW235787   0.945   2.087   6.241 -0.3024  1.4121 -2.4450
 8109SOL     OW35788   0.211   3.867  16.828 -0.6060  0.4428  0.2608
 8109SOL    HW135789   0.222   3.820  16.911 -2.9030 -0.6313 -0.0444
 8109SOL    HW235790   0.289   3.923  16.833 -1.0981  1.2280 -1.1006
 8110SOL     OW35791   4.300   1.957   6.494 -0.1904  0.3199  0.2716
 8110SOL    HW135792   4.362   1.898   6.453  0.1546  0.4374  0.6252
 8110SOL    HW235793   4.243   1.893   6.537 -3.7816  1.7279 -2.3585
 8111SOL     OW35794   3.770   2.354  12.928  0.1047 -0.6308  0.8120
 8111SOL    HW135795   3.776   2.265  12.962 -1.6815 -0.2771  2.0859
 8111SOL    HW235796   3.675   2.364  12.928  0.2041  0.4002  1.5806
 8112SOL     OW35797   1.554   0.050  13.694  0.3891 -0.5310  0.0503
 8112SOL    HW135798   1.554   0.145  13.707 -0.5710 -0.6097  0.5786
 8112SOL    HW235799   1.470   0.041  13.650  0.5135  1.6079 -0.6159
 8113SOL     OW35800   2.684   2.519  16.187 -0.2391 -0.2157 -0.3765
 8113SOL    HW135801   2.731   2.591  16.146 -1.6080  1.5069  1.1089
 8113SOL    HW235802   2.595   2.547  16.169  0.4094  1.2440 -1.3378
 8114SOL     OW35803   2.475   4.468  17.631  0.0636  0.1522 -0.3450
 8114SOL    HW135804   2.388   4.483  17.667  0.4294 -0.0297  0.6192
 8114SOL    HW235805   2.532   4.501   0.001  0.3892  1.5312 -1.2552
 8115SOL     OW35806   0.714   2.716   6.602  0.3832 -0.3256  0.1534
 8115SOL    HW135807   0.727   2.807   6.630  0.3308 -0.5711  0.9870
 8115SOL    HW235808   0.656   2.689   6.673  1.6338 -2.3811  0.4131
 8116SOL     OW35809   3.808   4.266  10.089 -0.5155 -0.3264 -0.0732
 8116SOL    HW135810   3.857   4.316  10.023  0.2073 -0.7378  0.1450
 8116SOL    HW235811   3.865   4.189  10.088  0.6935  0.5560  1.6715
 8117SOL     OW35812   0.351   3.603  11.721  0.9458 -0.2091  0.0142
 8117SOL    HW135813   0.437   3.605  11.764  0.4603  2.0109  0.8618
 8117SOL    HW235814   0.366   3.649  11.638  0.5021  0.2453  0.1913
 8118SOL     OW35815   4.069   2.987   2.001  0.5505  0.4483 -0.1023
 8118SOL    HW135816   4.027   3.036   1.931  1.2815  0.7489 -0.3284
 8118SOL    HW235817   4.151   2.963   1.959  0.2217  0.6075 -0.8296
 8119SOL     OW35818   4.227   1.713   4.965 -0.2809  0.1798  0.1710
 8119SOL    HW135819   4.303   1.742   4.914  0.9995 -4.2012 -0.4670
 8119SOL    HW235820   4.179   1.669   4.895  0.0515  0.6644 -0.3569
 8120SOL     OW35821   0.398   3.023   5.503 -0.0412  0.2973  0.0350
 8120SOL    HW135822   0.463   2.954   5.489  2.3124  2.0272  2.2988
 8120SOL    HW235823   0.445   3.095   5.461 -0.3074 -0.1108 -0.9537
 8121SOL     OW35824   3.015   0.206   3.630  0.2084  0.2033  0.2799
 8121SOL    HW135825   2.969   0.257   3.563 -0.5209  0.1801  0.7667
 8121SOL    HW235826   3.050   0.129   3.585  1.1765  1.8154 -1.7478
 8122SOL     OW35827   1.766   3.797   0.208  0.4422  0.2935 -0.0897
 8122SOL    HW135828   1.840   3.839   0.253  0.8642  0.8130 -1.2736
 8122SOL    HW235829   1.702   3.789   0.278  0.6795 -0.1078  0.0827
 8123SOL     OW35830   0.177   2.232  10.206 -0.3020 -0.1271  0.1260
 8123SOL    HW135831   0.093   2.206  10.245  0.2940  2.2782  3.0487
 8123SOL    HW235832   0.151   2.228  10.114 -0.2996 -0.4238  0.1401
 8124SOL     OW35833   4.567   3.266  13.207  0.2540 -0.5673  0.3143
 8124SOL    HW135834   4.522   3.325  13.269  0.3832  1.8701 -1.9051
 8124SOL    HW235835   4.512   3.282  13.131  1.9265  0.6891 -0.6274
 8125SOL     OW35836   2.927   1.175   1.201 -0.4820  0.2840  0.2567
 8125SOL    HW135837   2.876   1.101   1.168  0.0243 -0.6002  1.4483
 8125SOL    HW235838   3.019   1.160   1.177 -0.8630 -2.6881  0.6049
 8126SOL     OW35839   4.395   3.342   8.555 -0.4438  0.1280 -0.3709
 8126SOL    HW135840   4.414   3.401   8.482 -0.6253  0.8840  0.1974
 8126SOL    HW235841   4.435   3.264   8.516 -0.5816 -1.2741  2.3425
 8127SOL     OW35842   1.961   3.881   2.958  0.4757 -0.1120  0.2140
 8127SOL    HW135843   1.944   3.800   2.910  1.3353  0.1311 -0.5148
 8127SOL    HW235844   2.056   3.866   2.964  0.1932 -1.4152  1.5532
 8128SOL     OW35845   4.176   2.445   4.575 -0.1074 -0.2430 -0.0165
 8128SOL    HW135846   4.147   2.521   4.624  0.6531  0.4809 -0.6858
 8128SOL    HW235847   4.267   2.460   4.548 -0.2442 -1.4915 -1.2007
 8129SOL     OW35848   4.410   4.184  14.596 -0.1348  0.7705 -0.3770
 8129SOL    HW135849   4.469   4.165  14.523  0.5999  2.7170 -0.2908
 8129SOL    HW235850   4.437   4.115  14.656 -0.9583  3.2082  2.7713
 8130SOL     OW35851   2.175   2.845   4.187 -0.0505 -0.6738 -0.0328
 8130SOL    HW135852   2.176   2.792   4.107 -1.5253 -0.7826  0.0101
 8130SOL    HW235853   2.237   2.915   4.167  0.2888 -1.1592 -0.6955
 8131SOL     OW35854   4.205   3.124   8.500  0.0692 -0.2485  0.1521
 8131SOL    HW135855   4.233   3.213   8.523  2.1614 -0.8308 -0.1309
 8131SOL    HW235856   4.144   3.106   8.571  0.1279 -1.4308 -0.1015
 8132SOL     OW35857   0.687   1.324   4.827  0.1674 -0.0249  0.1362
 8132SOL    HW135858   0.608   1.285   4.865  0.9591 -0.9684  0.7951
 8132SOL    HW235859   0.742   1.247   4.815 -0.0762 -0.0666 -0.7751
 8133SOL     OW35860   0.667   1.409  14.305 -0.5184 -0.1884  0.2072
 8133SOL    HW135861   0.613   1.487  14.321  1.1898  0.9544  0.3152
 8133SOL    HW235862   0.600   1.348  14.337 -1.0706  0.2338 -0.1437
 8134SOL     OW35863   1.488   2.836   7.495  0.4071 -0.4249  0.5569
 8134SOL    HW135864   1.554   2.904   7.486 -2.7571  3.0752  3.4548
 8134SOL    HW235865   1.428   2.889   7.548  0.5400  0.2522  0.0353
 8135SOL     OW35866   4.239   3.391   4.844 -0.2085 -0.0599  0.2214
 8135SOL    HW135867   4.156   3.386   4.796 -0.2688 -1.7187  0.5157
 8135SOL    HW235868   4.252   3.302   4.875  0.7136 -0.2581 -0.7154
 8136SOL     OW35869   3.932   1.431   0.270 -0.2572 -0.0259 -0.8741
 8136SOL    HW135870   3.908   1.338   0.276  0.5331 -0.2319 -0.8826
 8136SOL    HW235871   4.027   1.439   0.261  0.0613  1.1202  3.4146
 8137SOL     OW35872   2.954   2.524   4.366 -0.1860  0.2272  0.0092
 8137SOL    HW135873   2.878   2.491   4.317  0.5515 -0.3875 -0.7235
 8137SOL    HW235874   2.908   2.586   4.423  0.2137 -0.7517  1.3848
 8138SOL     OW35875   2.237   1.058   0.543  0.3334  0.1195  0.2203
 8138SOL    HW135876   2.310   1.115   0.566  0.8444 -0.0131 -1.0678
 8138SOL    HW235877   2.267   0.980   0.590  0.4341  0.0285  0.0046
 8139SOL     OW35878   2.754   0.013   3.697 -0.5278 -0.8944 -0.6498
 8139SOL    HW135879   2.817   4.711   3.764 -0.9394 -0.1484  0.0434
 8139SOL    HW235880   2.796   4.707   3.617 -1.5888 -0.3207 -1.4298
 8140SOL     OW35881   0.675   0.463   4.053 -0.1447  0.3145  0.1527
 8140SOL    HW135882   0.666   0.488   4.145  0.3195 -0.1731  0.3297
 8140SOL    HW235883   0.738   0.528   4.019 -1.4069  1.7408  0.5179
 8141SOL     OW35884   1.355   1.913   8.422 -0.0629 -0.1352  0.3815
 8141SOL    HW135885   1.364   1.928   8.516  1.6376 -0.7063  0.3175
 8141SOL    HW235886   1.380   1.821   8.407  0.5855 -0.2606  2.2630
 8142SOL     OW35887   1.395   1.244   7.416 -0.0984 -0.3938  0.6082
 8142SOL    HW135888   1.354   1.238   7.330  2.4180  0.9084 -0.6891
 8142SOL    HW235889   1.464   1.309   7.401 -2.1732  1.8981  1.1872
 8143SOL     OW35890   4.548   4.132   3.031 -0.7042  0.3504  0.1238
 8143SOL    HW135891   4.515   4.176   3.110  1.1453  0.6307  0.7388
 8143SOL    HW235892   4.633   4.176   3.023  0.2820 -1.3855  1.0406
 8144SOL     OW35893   1.879   3.007  10.804  0.1989  0.2004  0.2057
 8144SOL    HW135894   1.875   3.102  10.808 -1.5427  0.1085  0.5443
 8144SOL    HW235895   1.888   2.995  10.709  0.9683  0.9138  0.1917
 8145SOL     OW35896   4.050   1.919   9.119 -0.1483 -0.0456 -0.2036
 8145SOL    HW135897   4.006   2.003   9.105 -0.8677  0.0332  2.4836
 8145SOL    HW235898   4.002   1.884   9.194 -0.9225 -1.7277 -1.4734
 8146SOL     OW35899   0.810   1.265   0.797  0.3955  0.0613  0.7988
 8146SOL    HW135900   0.824   1.170   0.791 -0.6029 -0.1153  1.3347
 8146SOL    HW235901   0.808   1.303   0.709  0.6019 -1.7925 -0.0115
 8147SOL     OW35902   1.058   3.538   5.003  0.0666 -0.2468  0.2542
 8147SOL    HW135903   1.004   3.493   4.938  0.9335 -1.1880  0.1807
 8147SOL    HW235904   1.139   3.533   4.951 -0.6087  3.4778 -1.1561
 8148SOL     OW35905   3.955   4.686   1.122 -0.1925  0.2766 -0.4231
 8148SOL    HW135906   3.920   4.597   1.121 -1.4803  0.7828 -0.8189
 8148SOL    HW235907   4.039   4.660   1.159 -1.5430 -2.0392  1.0548
 8149SOL     OW35908   3.055   2.497   4.773 -0.2269  0.2225  0.1839
 8149SOL    HW135909   3.079   2.447   4.852  1.0305 -1.4120 -1.2293
 8149SOL    HW235910   2.968   2.527   4.800 -1.4130 -1.6745 -1.4766
 8150SOL     OW35911   2.873   1.454  10.711 -0.5057 -0.0671 -0.1833
 8150SOL    HW135912   2.890   1.524  10.775  0.0344  0.8640 -1.3528
 8150SOL    HW235913   2.882   1.387  10.779  1.4193  0.7728  0.3970
 8151SOL     OW35914   3.296   3.789   2.480  0.4894  0.5447 -0.0331
 8151SOL    HW135915   3.205   3.811   2.460 -0.2338 -0.4460  2.1610
 8151SOL    HW235916   3.332   3.813   2.395 -0.9088  2.0334 -0.1880
 8152SOL     OW35917   4.199   1.087   7.549  0.0533 -0.2124  0.1731
 8152SOL    HW135918   4.205   1.118   7.459 -0.3642  2.1013  0.9509
 8152SOL    HW235919   4.270   1.141   7.584  0.3817 -0.1190 -0.6225
 8153SOL     OW35920   1.003   3.616   6.543  1.2294  0.3306 -0.2712
 8153SOL    HW135921   0.959   3.549   6.595  1.8533 -0.5966 -0.9457
 8153SOL    HW235922   0.961   3.701   6.554 -1.0813 -0.9137  0.6308
 8154SOL     OW35923   4.154   0.891   7.814 -0.2144 -0.2355 -0.4779
 8154SOL    HW135924   4.216   0.959   7.839 -0.6547 -0.9358  2.4683
 8154SOL    HW235925   4.120   0.917   7.728  0.2672  2.5320  0.1839
 8155SOL     OW35926   3.366   2.751   2.776  0.1846  0.5929  0.1719
 8155SOL    HW135927   3.336   2.767   2.687 -0.0683 -0.6598  0.0307
 8155SOL    HW235928   3.291   2.787   2.823 -0.5247 -0.7640  0.1066
 8156SOL     OW35929   3.755   2.876   8.809  0.4547  0.1033  0.0494
 8156SOL    HW135930   3.694   2.803   8.800 -0.3292  0.5971  1.2702
 8156SOL    HW235931   3.757   2.887   8.904 -1.5148 -3.6263  0.4998
 8157SOL     OW35932   2.333   0.752   0.251 -0.4836 -0.0682 -0.4836
 8157SOL    HW135933   2.404   0.803   0.290  1.7879 -1.7507 -2.3686
 8157SOL    HW235934   2.266   0.820   0.248 -0.2270  0.1478 -1.5626
 8158SOL     OW35935   1.385   0.491   5.998 -0.3455  0.2024 -0.5742
 8158SOL    HW135936   1.438   0.413   6.017  0.0080  1.1105  2.1460
 8158SOL    HW235937   1.453   0.540   5.951  0.5515  0.8060  1.3815
 8159SOL     OW35938   0.131   2.335   5.127  0.2336  0.1100 -0.2501
 8159SOL    HW135939   0.118   2.399   5.057  1.5203 -1.9270 -2.3392
 8159SOL    HW235940   0.100   2.398   5.193  0.2352 -0.6258  0.4509
 8160SOL     OW35941   3.419   0.535  13.588 -0.7322 -0.6212 -0.0704
 8160SOL    HW135942   3.342   0.570  13.544 -0.5477  0.4587  0.4530
 8160SOL    HW235943   3.391   0.446  13.607 -0.5862 -1.0928 -2.0856
 8161SOL     OW35944   3.324   0.366  13.116 -0.5184  0.2260  0.2826
 8161SOL    HW135945   3.335   0.438  13.178  0.4065 -0.2366  0.6707
 8161SOL    HW235946   3.307   0.298  13.182 -0.5295  1.0966  1.1723
 8162SOL     OW35947   0.683   0.021   8.641  0.3464 -0.0746 -0.1337
 8162SOL    HW135948   0.593   0.034   8.612  0.2239  1.8203  1.0584
 8162SOL    HW235949   0.712   0.089   8.702 -2.0991 -1.5244  2.6161
 8163SOL     OW35950   3.925   1.742   5.202 -0.2021 -0.1062 -0.0972
 8163SOL    HW135951   3.962   1.654   5.211  0.1470  0.1108  0.5906
 8163SOL    HW235952   3.859   1.717   5.136  0.4304  4.6403 -2.5489
 8164SOL     OW35953   3.417   1.486   6.763  0.2636  0.1818 -0.6163
 8164SOL    HW135954   3.461   1.459   6.682  1.8924  0.6866  0.0903
 8164SOL    HW235955   3.442   1.578   6.766  1.4439 -0.1913  0.8961
 8165SOL     OW35956   3.596   2.949   6.160  0.0451  0.1271 -0.3726
 8165SOL    HW135957   3.676   2.900   6.178  0.7716  0.3659 -2.8648
 8165SOL    HW235958   3.604   3.019   6.224 -2.6432  0.3703 -0.2732
 8166SOL     OW35959   3.079   2.023   5.301 -0.5163  0.3211 -0.2369
 8166SOL    HW135960   3.006   1.983   5.348 -0.4083 -0.2350 -0.5333
 8166SOL    HW235961   3.092   1.949   5.241  2.7502  0.0621  0.7959
 8167SOL     OW35962   4.045   4.132   4.078  0.3170 -0.2374 -0.3123
 8167SOL    HW135963   4.008   4.054   4.037  1.1339 -0.5795 -0.3938
 8167SOL    HW235964   4.077   4.099   4.162 -2.1720 -1.8031  0.0444
 8168SOL     OW35965   4.278   1.006   0.590 -0.4335  0.3001  0.0035
 8168SOL    HW135966   4.325   1.086   0.614  1.9877 -1.1570  0.0144
 8168SOL    HW235967   4.215   0.995   0.662 -1.4607 -1.4737 -1.1822
 8169SOL     OW35968   1.486   0.046   9.243  0.5682  0.1267  0.0209
 8169SOL    HW135969   1.487   0.126   9.295  2.6461 -0.8363  1.4796
 8169SOL    HW235970   1.445   4.714   9.308  3.1492 -0.0706  1.4609
 8170SOL     OW35971   4.237   3.054  10.711  0.1817 -0.2694  0.0253
 8170SOL    HW135972   4.329   3.031  10.713 -0.0014 -0.7451  2.5233
 8170SOL    HW235973   4.235   3.150  10.703  1.8035 -0.2996 -0.6208
 8171SOL     OW35974   3.253   2.268   3.383 -0.3520  0.5078  0.3545
 8171SOL    HW135975   3.307   2.231   3.453 -0.0484 -1.1638 -0.7677
 8171SOL    HW235976   3.186   2.202   3.369  0.0753 -0.1149  1.2824
 8172SOL     OW35977   2.535   0.525   3.013  0.0859 -0.2298 -0.0709
 8172SOL    HW135978   2.527   0.605   3.065 -0.9871  0.8356 -1.8478
 8172SOL    HW235979   2.473   0.461   3.048  0.1548  0.7360  1.8290
 8173SOL     OW35980   3.852   3.889   8.909 -0.6922 -0.1166 -0.0214
 8173SOL    HW135981   3.823   3.906   8.819  1.3226  1.7130 -0.3217
 8173SOL    HW235982   3.931   3.838   8.888 -0.2129  0.7487 -0.3152
 8174SOL     OW35983   3.081   0.582   7.640  0.0275 -0.1636  0.2720
 8174SOL    HW135984   3.119   0.657   7.685 -0.9213 -0.0532  0.8797
 8174SOL    HW235985   3.148   0.570   7.572 -1.3924 -0.6404 -1.0630
 8175SOL     OW35986   3.548   2.965   0.848  0.3522  0.0947 -0.3554
 8175SOL    HW135987   3.517   2.984   0.937  1.1400  0.4550 -0.1491
 8175SOL    HW235988   3.468   2.978   0.799 -0.5035 -1.0484  0.7394
 8176SOL     OW35989   1.529   3.921   4.524 -0.1461  0.2150  0.0715
 8176SOL    HW135990   1.461   3.988   4.521 -0.9033 -0.5626 -0.4537
 8176SOL    HW235991   1.505   3.903   4.433 -0.0133  1.8660 -0.2904
 8177SOL     OW35992   1.317   0.889   3.210  0.3229  0.1723  0.0546
 8177SOL    HW135993   1.311   0.941   3.291 -2.4784 -0.8131  0.4472
 8177SOL    HW235994   1.288   0.948   3.140 -1.8248  0.2875  1.0421
 8178SOL     OW35995   2.258   0.300   7.817  0.0641  0.0963  0.4570
 8178SOL    HW135996   2.243   0.246   7.894  0.7151  1.4756  1.5509
 8178SOL    HW235997   2.167   0.331   7.811  0.0528 -0.0354 -0.0184
 8179SOL     OW35998   2.145   0.892  10.505 -0.1614 -0.4380  0.5484
 8179SOL    HW135999   2.191   0.812  10.530 -1.3522 -0.9411  1.0905
 8179SOL    HW236000   2.206   0.960  10.532 -1.0903  1.2219 -1.5077
 8180SOL     OW36001   0.219   4.375   0.344 -0.1256  0.1862  0.0110
 8180SOL    HW136002   0.283   4.395   0.276 -1.0285 -2.2626 -1.5992
 8180SOL    HW236003   0.172   4.458   0.356  0.5375  0.3143  1.6750
 8181SOL     OW36004   1.130   4.645  11.614 -0.5873  0.5707 -0.0779
 8181SOL    HW136005   1.096   0.001  11.575  0.0677 -0.2336 -2.2876
 8181SOL    HW236006   1.168   4.604  11.536 -1.6914  0.9740 -0.8212
 8182SOL     OW36007   3.213   1.575  12.609 -0.4706  0.0296  0.0087
 8182SOL    HW136008   3.266   1.629  12.550  1.3627 -2.6580 -0.7663
 8182SOL    HW236009   3.139   1.550  12.553  2.0570 -2.3648 -2.2046
 8183SOL     OW36010   3.820   2.687   4.034  0.3035  1.0684  0.0118
 8183SOL    HW136011   3.899   2.691   4.088 -0.3403 -2.4871  1.2387
 8183SOL    HW236012   3.851   2.754   3.973 -0.6706 -0.3550 -2.0411
 8184SOL     OW36013   0.590   1.887  16.796 -0.0066 -0.4935  0.5228
 8184SOL    HW136014   0.536   1.826  16.846  0.4985 -0.1127  1.5429
 8184SOL    HW236015   0.523   1.954  16.783 -1.9104 -2.8186 -1.4266
 8185SOL     OW36016   1.333   1.557  15.294 -0.0762 -0.1939  0.3694
 8185SOL    HW136017   1.282   1.546  15.375 -0.9437  0.7638 -0.0488
 8185SOL    HW236018   1.321   1.465  15.269 -0.4227  0.4942 -2.0075
 8186SOL     OW36019   3.041   3.656  11.074  0.1924  0.2034 -0.1807
 8186SOL    HW136020   2.991   3.583  11.037 -0.2940 -0.0850  1.0575
 8186SOL    HW236021   3.130   3.640  11.042 -0.6355 -3.1619 -0.7847
 8187SOL     OW36022   2.992   2.831  16.951 -0.6594 -0.5226  0.2604
 8187SOL    HW136023   2.930   2.878  17.006  1.0501  2.0983 -0.0729
 8187SOL    HW236024   2.963   2.740  16.954 -1.0496 -0.4248 -0.5827
 8188SOL     OW36025   2.757   2.734  15.347 -0.1320  0.4329  0.1152
 8188SOL    HW136026   2.787   2.801  15.409  0.7790  0.8185 -0.7418
 8188SOL    HW236027   2.673   2.766  15.312 -0.5117  0.5492  1.1300
 8189SOL     OW36028   0.857   2.063   4.349  0.6017  0.0815 -0.1554
 8189SOL    HW136029   0.866   2.068   4.444  0.6537  0.6457 -0.1859
 8189SOL    HW236030   0.800   2.139   4.333  0.3538 -0.0955 -0.1077
 8190SOL     OW36031   1.922   0.640  14.232 -0.6148 -0.2616 -0.1543
 8190SOL    HW136032   2.003   0.669  14.191 -0.3474 -1.0537 -0.1826
 8190SOL    HW236033   1.879   0.723  14.251 -2.3943 -0.9565 -1.0983
 8191SOL     OW36034   0.667   0.460  14.895  0.2782 -0.4328 -0.4326
 8191SOL    HW136035   0.654   0.420  14.809  1.1003 -0.0120 -0.7503
 8191SOL    HW236036   0.741   0.517  14.875  1.3892 -2.1642 -1.2548
 8192SOL     OW36037   1.545   4.534  17.670  0.7442  0.5786  0.0936
 8192SOL    HW136038   1.523   4.599  17.603 -0.1519  1.7561  1.5297
 8192SOL    HW236039   1.639   4.542  17.655  0.6671  1.3941  0.0325
 8193SOL     OW36040   4.243   0.865   4.934 -0.1326  0.3677 -0.5289
 8193SOL    HW136041   4.207   0.777   4.928 -0.2484  0.4180 -0.5630
 8193SOL    HW236042   4.232   0.891   4.842 -1.7480  2.8797  0.4074
 8194SOL     OW36043   0.271   2.790   1.158  0.1359 -0.4383 -0.3750
 8194SOL    HW136044   0.239   2.826   1.075  0.8546 -1.5409 -1.1483
 8194SOL    HW236045   0.335   2.725   1.126  0.5670 -0.1562 -0.0824
 8195SOL     OW36046   4.460   0.713  12.570 -0.1354  0.0256  0.4112
 8195SOL    HW136047   4.375   0.732  12.529  0.9453  2.7604 -0.5317
 8195SOL    HW236048   4.507   0.795  12.555  1.2433 -1.4436 -3.1390
 8196SOL     OW36049   1.839   1.473   6.839 -0.8460  0.3668 -0.4679
 8196SOL    HW136050   1.835   1.553   6.787  2.9280  0.1896 -1.0374
 8196SOL    HW236051   1.876   1.407   6.781 -1.6585 -0.4542 -0.0418
 8197SOL     OW36052   0.480   3.834   7.126  0.3733 -0.1862  0.3102
 8197SOL    HW136053   0.512   3.884   7.051  1.2562 -2.6665 -0.9390
 8197SOL    HW236054   0.556   3.826   7.183 -0.9005 -2.1830  1.7023
 8198SOL     OW36055   1.291   1.673   8.724 -0.3537 -0.3184  0.1794
 8198SOL    HW136056   1.310   1.758   8.685 -1.2411 -1.1659 -2.0909
 8198SOL    HW236057   1.220   1.696   8.784 -0.1737 -2.1148  1.0696
 8199SOL     OW36058   3.223   1.267   5.621 -0.4995  0.8392 -0.4135
 8199SOL    HW136059   3.254   1.179   5.601  1.1005  0.9089  1.8119
 8199SOL    HW236060   3.138   1.277   5.579 -0.2448 -2.0136 -1.6069
 8200SOL     OW36061   1.411   2.713  11.027 -0.2195  0.2289 -0.3395
 8200SOL    HW136062   1.425   2.649  11.097 -0.2970  1.0946  0.4622
 8200SOL    HW236063   1.459   2.791  11.055  0.0106  0.3706 -1.1092
 8201SOL     OW36064   3.241   0.432   8.520 -0.0258 -0.1087  0.0887
 8201SOL    HW136065   3.254   0.526   8.531 -0.3153  0.1678 -1.8376
 8201SOL    HW236066   3.150   0.429   8.550 -0.4661 -1.2443 -1.3360
 8202SOL     OW36067   2.474   2.503   6.063 -0.4652 -0.6196  0.2176
 8202SOL    HW136068   2.546   2.520   6.124 -0.8598  1.5727  0.0609
 8202SOL    HW236069   2.496   2.556   5.986 -0.3470 -3.3670 -1.6348
 8203SOL     OW36070   2.170   2.517   3.270  0.0209  0.4848 -0.0788
 8203SOL    HW136071   2.178   2.555   3.358 -0.8210 -1.2396  0.7426
 8203SOL    HW236072   2.185   2.425   3.295 -0.8793 -0.3114 -2.4980
 8204SOL     OW36073   0.042   3.763  13.366  0.1928 -0.0230 -0.0347
 8204SOL    HW136074   0.135   3.776  13.385  0.5281 -2.1155 -0.2623
 8204SOL    HW236075   0.030   3.842  13.313 -1.8617 -0.0006  0.4819
 8205SOL     OW36076   2.754   3.176  11.019 -0.3185 -0.0318  0.0015
 8205SOL    HW136077   2.690   3.245  11.035  0.7117  0.6371  1.1581
 8205SOL    HW236078   2.716   3.128  10.945  1.2335  0.3477 -1.0584
 8206SOL     OW36079   4.273   4.043   7.838  0.2806  0.6764  0.4309
 8206SOL    HW136080   4.320   4.125   7.855 -0.6509  1.2134  0.3959
 8206SOL    HW236081   4.242   4.012   7.923 -1.2887 -1.7120 -1.0206
 8207SOL     OW36082   0.223   4.055   5.128 -0.1485  0.6644 -0.6993
 8207SOL    HW136083   0.299   4.103   5.160 -0.7188  1.1939 -0.1468
 8207SOL    HW236084   0.255   3.967   5.110 -0.2049  0.0536  2.2111
 8208SOL     OW36085   1.505   4.160   8.629  0.1345 -0.3764 -0.3043
 8208SOL    HW136086   1.473   4.238   8.675 -2.2510 -1.6936  0.2583
 8208SOL    HW236087   1.595   4.160   8.663  0.3736 -0.2548 -0.9395
 8209SOL     OW36088   2.842   2.217   9.923  0.1179 -0.2573  0.2986
 8209SOL    HW136089   2.786   2.194   9.997  0.3207  0.7528  0.7553
 8209SOL    HW236090   2.933   2.209   9.951  0.1865  0.4117  0.2624
 8210SOL     OW36091   1.257   1.378  12.650 -0.5944 -0.6916  0.0066
 8210SOL    HW136092   1.237   1.323  12.726  1.3543  0.3181  1.2588
 8210SOL    HW236093   1.173   1.401  12.613  0.5415  2.3255 -0.6382
 8211SOL     OW36094   0.961   1.038   7.216 -0.5877 -0.0377 -0.2590
 8211SOL    HW136095   0.900   1.100   7.176 -1.0020 -0.6023 -0.4985
 8211SOL    HW236096   1.033   1.026   7.153  0.5522  0.3392  0.9625
 8212SOL     OW36097   2.008   3.781   6.316  0.2363 -0.4279  0.1717
 8212SOL    HW136098   1.991   3.712   6.252 -0.3545 -0.5706  0.4846
 8212SOL    HW236099   2.035   3.856   6.264 -1.3754 -1.7598 -2.5638
 8213SOL     OW36100   2.897   0.770   8.880 -0.0298 -0.6661  0.4857
 8213SOL    HW136101   2.976   0.816   8.908 -0.0691  0.1733 -0.7549
 8213SOL    HW236102   2.847   0.782   8.960  2.1824  1.5029  1.5725
 8214SOL     OW36103   4.197   1.781   6.087  0.1930 -0.6266 -0.3590
 8214SOL    HW136104   4.203   1.870   6.123  2.0446  0.4685 -3.3579
 8214SOL    HW236105   4.288   1.763   6.061 -0.5321  0.1199 -3.3197
 8215SOL     OW36106   1.695   1.442   8.247 -1.7307 -0.1254 -0.1380
 8215SOL    HW136107   1.731   1.406   8.328 -0.1202 -0.5682 -1.0401
 8215SOL    HW236108   1.622   1.497   8.274 -0.6190  0.5785  1.4397
 8216SOL     OW36109   2.934   0.857   4.098  0.4348 -0.1579 -0.2838
 8216SOL    HW136110   2.971   0.873   4.185 -0.2455 -0.3744  0.0506
 8216SOL    HW236111   3.011   0.840   4.044 -0.2936  1.1142 -1.7094
 8217SOL     OW36112   1.610   1.138  13.784 -0.3045 -0.5603  0.5284
 8217SOL    HW136113   1.558   1.204  13.831 -2.0599 -1.5216 -0.0797
 8217SOL    HW236114   1.534   1.099  13.740 -0.5891  0.7911 -0.1813
 8218SOL     OW36115   2.294   3.429   4.332  0.1682 -0.1411  0.3347
 8218SOL    HW136116   2.299   3.380   4.413  2.6189 -0.2204  0.1177
 8218SOL    HW236117   2.332   3.369   4.268 -0.3266 -0.0736 -0.0290
 8219SOL     OW36118   4.066   3.791   7.517  0.3333  0.0225  0.2126
 8219SOL    HW136119   4.039   3.883   7.515 -0.8106 -0.3657 -1.8352
 8219SOL    HW236120   4.101   3.786   7.428  0.9719 -0.0877  0.4706
 8220SOL     OW36121   0.313   3.795   4.009  0.5207 -0.1053 -0.1792
 8220SOL    HW136122   0.332   3.888   4.005 -0.7848  0.2343  1.6068
 8220SOL    HW236123   0.359   3.767   3.930  0.4302 -2.2210  0.5095
 8221SOL     OW36124   1.079   0.354   1.046 -0.4065  0.2414 -0.0662
 8221SOL    HW136125   1.156   0.404   1.073 -0.7040 -0.5336  2.2243
 8221SOL    HW236126   1.080   0.377   0.953 -1.1177  1.3487  0.1958
 8222SOL     OW36127   2.054   2.945   3.739 -0.0671 -0.1523  0.1382
 8222SOL    HW136128   2.044   3.030   3.782 -1.8775  0.3669 -1.2902
 8222SOL    HW236129   2.101   2.970   3.660 -1.0602 -2.4676 -1.1770
 8223SOL     OW36130   0.935   2.181   3.228  0.5996  0.1217 -0.3534
 8223SOL    HW136131   0.953   2.102   3.278 -0.3353  0.3358  0.3082
 8223SOL    HW236132   1.003   2.162   3.163 -2.1103  1.2850 -3.5476
 8224SOL     OW36133   3.698   3.980   2.885  0.3357  0.3819 -0.6436
 8224SOL    HW136134   3.776   3.929   2.908 -0.6313 -0.6797  0.2805
 8224SOL    HW236135   3.624   3.924   2.911 -0.1166 -0.5694 -3.9571
 8225SOL     OW36136   4.117   2.002   6.250 -0.3231 -0.1485 -0.2664
 8225SOL    HW136137   4.078   2.022   6.335  1.1490  0.5824  0.2323
 8225SOL    HW236138   4.209   2.026   6.261 -0.9281  1.6118  0.9097
 8226SOL     OW36139   2.822   1.308  11.467  0.0896  0.6130  0.3234
 8226SOL    HW136140   2.894   1.288  11.408 -0.3996 -2.3589  0.7329
 8226SOL    HW236141   2.746   1.295  11.411 -0.2499  2.1045  0.4194
 8227SOL     OW36142   2.603   1.710   0.219  0.4821  0.6064  0.1499
 8227SOL    HW136143   2.586   1.684   0.128  0.3506 -1.3050  0.7042
 8227SOL    HW236144   2.520   1.687   0.260  1.1067  1.1837  1.7430
 8228SOL     OW36145   3.928   4.587   7.534  0.7272  0.0986 -0.3575
 8228SOL    HW136146   3.956   4.671   7.569  0.1612 -0.1753  0.7555
 8228SOL    HW236147   3.833   4.590   7.544  0.7130 -1.1089 -0.0564
 8229SOL     OW36148   1.431   2.633  17.518  0.2123 -0.0395 -0.6408
 8229SOL    HW136149   1.424   2.618  17.424  2.3085 -1.3830 -0.5878
 8229SOL    HW236150   1.511   2.684  17.525 -0.6320  0.9474  1.5824
 8230SOL     OW36151   2.825   3.539  13.428 -0.1113 -0.6954  0.3923
 8230SOL    HW136152   2.843   3.538  13.522  0.5978  1.3765  0.2884
 8230SOL    HW236153   2.813   3.445  13.412  1.1843 -0.7885 -0.0226
 8231SOL     OW36154   0.065   0.137   3.159 -0.8411 -0.6316 -0.5175
 8231SOL    HW136155   0.032   0.217   3.118  2.1223  0.5504 -0.6326
 8231SOL    HW236156   0.071   0.072   3.089 -0.7280  0.5734 -1.6249
 8232SOL     OW36157   2.611   2.460   0.220 -0.1318 -0.2719 -0.8133
 8232SOL    HW136158   2.672   2.442   0.149  0.1135 -2.0192 -0.1511
 8232SOL    HW236159   2.523   2.446   0.187  0.9829 -2.1256 -2.9969
 8233SOL     OW36160   4.296   0.809   6.158 -0.1219  0.3707 -0.1264
 8233SOL    HW136161   4.235   0.779   6.091 -1.3353  3.4322 -0.4133
 8233SOL    HW236162   4.361   0.852   6.102  2.7511 -1.4213  1.8395
 8234SOL     OW36163   2.417   2.357   0.516 -0.0218 -0.7573 -0.1630
 8234SOL    HW136164   2.322   2.370   0.525  0.3153  1.2184  0.5215
 8234SOL    HW236165   2.431   2.267   0.546  1.1430 -1.1691 -1.9570
 8235SOL     OW36166   0.264   1.854   0.617  0.0653 -0.5763  0.3522
 8235SOL    HW136167   0.205   1.829   0.545  0.2850 -1.3885  0.4473
 8235SOL    HW236168   0.334   1.889   0.563  1.9209 -1.7127  2.0234
 8236SOL     OW36169   4.158   0.241   9.616  0.0240 -1.1745  0.0117
 8236SOL    HW136170   4.147   0.179   9.544 -0.8523 -1.1944  0.1607
 8236SOL    HW236171   4.104   0.199   9.683  0.5071 -1.0517  0.4783
 8237SOL     OW36172   0.879   3.648   8.581  0.4237  0.2231 -0.8414
 8237SOL    HW136173   0.927   3.628   8.500  0.2795  2.2221 -1.4238
 8237SOL    HW236174   0.946   3.686   8.638  1.3666 -3.0237  0.2142
 8238SOL     OW36175   4.446   1.584   2.821 -0.2535  0.0631 -0.3763
 8238SOL    HW136176   4.445   1.670   2.863  1.6572  0.4206 -1.0521
 8238SOL    HW236177   4.373   1.606   2.763 -0.5307 -0.5607 -0.2626
 8239SOL     OW36178   2.943   3.815   9.505  0.2352  0.3482  0.5099
 8239SOL    HW136179   2.854   3.851   9.503  0.3835  0.5556 -2.2677
 8239SOL    HW236180   2.931   3.737   9.558  1.0395  0.2124  0.4920
 8240SOL     OW36181   4.722   0.792  10.852  0.2808 -0.2316 -0.3213
 8240SOL    HW136182   4.686   0.734  10.784 -0.8204 -2.0860  1.8676
 8240SOL    HW236183   4.723   0.742  10.933 -2.4789 -0.6496 -0.5581
 8241SOL     OW36184   2.770   1.447   0.735 -0.1803  0.2773 -0.4031
 8241SOL    HW136185   2.839   1.514   0.737 -0.5236  0.5944  0.5215
 8241SOL    HW236186   2.698   1.508   0.746  1.0315  1.5247  0.6166
 8242SOL     OW36187   4.026   4.001   2.965  0.1715 -0.0818 -0.2786
 8242SOL    HW136188   4.063   4.055   2.895  1.0767  0.0661  0.3106
 8242SOL    HW236189   4.001   3.923   2.915  1.2698 -0.8950  0.4537
 8243SOL     OW36190   1.792   2.051   2.647 -0.1193  0.1009  0.4461
 8243SOL    HW136191   1.829   1.963   2.644 -0.5379 -0.1165  1.5331
 8243SOL    HW236192   1.791   2.080   2.738 -1.8060  1.3315  0.0334
 8244SOL     OW36193   3.588   3.501   5.449  0.1741  0.5818 -0.1021
 8244SOL    HW136194   3.562   3.499   5.357 -0.3555 -1.9824  0.1134
 8244SOL    HW236195   3.619   3.592   5.451  1.3517  0.1871 -0.4656
 8245SOL     OW36196   2.486   4.460   8.161 -0.0341 -0.0331 -0.2415
 8245SOL    HW136197   2.490   4.429   8.071  1.0341  1.2503 -0.6465
 8245SOL    HW236198   2.548   4.403   8.207  0.7140  0.6827 -0.3560
 8246SOL     OW36199   0.120   2.986   4.619  0.1398  0.4006 -0.4666
 8246SOL    HW136200   0.030   2.999   4.647 -0.4193 -1.1788 -1.4949
 8246SOL    HW236201   0.160   3.064   4.657 -2.8303  2.4150 -1.4381
 8247SOL     OW36202   1.833   3.075   6.724 -0.3474  0.3925  0.3898
 8247SOL    HW136203   1.915   3.124   6.731  0.8291 -1.4715 -0.4272
 8247SOL    HW236204   1.770   3.132   6.769  1.6064  0.8397  2.5416
 8248SOL     OW36205   0.587   1.049   8.914 -0.4360 -0.2220  0.2153
 8248SOL    HW136206   0.552   0.999   8.840  0.1163 -4.4793  2.7971
 8248SOL    HW236207   0.505   1.078   8.954 -1.6426  1.7604 -3.7301
 8249SOL     OW36208   2.271   3.117  14.979  0.4059 -0.1096 -0.0739
 8249SOL    HW136209   2.194   3.064  14.964  0.0489  0.5247 -0.4924
 8249SOL    HW236210   2.241   3.200  14.943  0.4503 -0.1343 -0.1672
 8250SOL     OW36211   1.944   0.954  14.960  0.1650 -0.0556 -0.5251
 8250SOL    HW136212   2.002   0.938  15.034 -1.1142 -0.4899  0.3844
 8250SOL    HW236213   1.893   1.031  14.986 -1.0571 -0.5206 -1.5337
 8251SOL     OW36214   0.467   3.203  13.453  0.2829 -0.5886  0.7835
 8251SOL    HW136215   0.453   3.277  13.511  0.9639 -1.2230  1.7597
 8251SOL    HW236216   0.561   3.191  13.446  0.1397 -1.7186  0.7389
 8252SOL     OW36217   4.194   4.213   2.149  0.1846  0.0606 -0.1915
 8252SOL    HW136218   4.260   4.191   2.215  1.0801 -0.3049 -1.2131
 8252SOL    HW236219   4.246   4.244   2.075  0.7040 -0.5209 -0.0709
 8253SOL     OW36220   1.252   3.592   6.501 -0.2099  0.0192  0.0359
 8253SOL    HW136221   1.158   3.595   6.517  0.2610 -2.4015  3.2930
 8253SOL    HW236222   1.259   3.623   6.411  3.6928 -4.2143 -1.0707
 8254SOL     OW36223   2.749   1.271  15.812 -0.0763  0.2646  0.4389
 8254SOL    HW136224   2.801   1.328  15.868  0.0872  0.8752 -0.3361
 8254SOL    HW236225   2.662   1.306  15.832  0.8857  2.4533  0.8225
 8255SOL     OW36226   0.968   2.501   4.085 -0.1329  0.6395  0.0911
 8255SOL    HW136227   1.004   2.439   4.148 -1.4893  0.3196  0.5656
 8255SOL    HW236228   0.981   2.582   4.135  2.6973 -0.7355  1.6054
 8256SOL     OW36229   2.789   3.471   7.307  0.2036  0.6045 -0.3277
 8256SOL    HW136230   2.824   3.558   7.324 -0.1900  0.7920 -0.4782
 8256SOL    HW236231   2.841   3.411   7.361 -3.1326 -1.5622  0.4586
 8257SOL     OW36232   4.560   3.992   8.180  0.6941  0.9892  0.3736
 8257SOL    HW136233   4.481   4.031   8.216  0.1047 -0.6575  0.8494
 8257SOL    HW236234   4.609   4.071   8.154 -0.7067  1.6981 -0.0847
 8258SOL     OW36235   3.788   2.677   4.412  0.0840 -0.2485  0.3395
 8258SOL    HW136236   3.829   2.609   4.360 -1.8662 -0.1098 -1.3816
 8258SOL    HW236237   3.708   2.693   4.362  0.1774  1.6904  0.8096
 8259SOL     OW36238   3.581   0.236   6.058 -0.0496  0.0753 -0.3448
 8259SOL    HW136239   3.520   0.164   6.041  0.9638 -1.2614  1.7276
 8259SOL    HW236240   3.668   0.207   6.030 -0.4311 -0.5369 -0.8895
 8260SOL     OW36241   2.596   1.842   4.334 -0.2171 -0.1440  0.9003
 8260SOL    HW136242   2.553   1.793   4.405  1.4938 -2.5185  0.3036
 8260SOL    HW236243   2.538   1.812   4.264  2.4054 -1.5403 -0.6488
 8261SOL     OW36244   2.840   4.550   0.615  0.1209  0.5544  0.0580
 8261SOL    HW136245   2.782   4.543   0.539  1.2183  2.6578 -0.9686
 8261SOL    HW236246   2.919   4.564   0.563 -2.5055  1.6902 -3.6926
 8262SOL     OW36247   2.884   1.227  17.606 -0.0182 -0.0641  0.0487
 8262SOL    HW136248   2.915   1.137  17.608  0.4896  0.0690 -1.7271
 8262SOL    HW236249   2.914   1.252  17.519 -2.1753  0.6761 -0.4959
 8263SOL     OW36250   4.393   2.654   3.042  0.0649 -0.7730  0.3768
 8263SOL    HW136251   4.402   2.566   3.005 -0.5477 -0.4474 -0.5467
 8263SOL    HW236252   4.302   2.669   3.016  0.0153 -3.9475 -1.2892
 8264SOL     OW36253   0.908   4.534   4.255 -0.1680 -0.1011 -0.4302
 8264SOL    HW136254   0.840   4.479   4.293  0.9256 -1.4218 -0.3736
 8264SOL    HW236255   0.911   4.493   4.168  1.5440 -1.2717  0.1842
 8265SOL     OW36256   0.415   1.363   5.176 -0.0080 -0.1117 -0.1808
 8265SOL    HW136257   0.446   1.389   5.089 -1.8068  1.2997 -0.3930
 8265SOL    HW236258   0.496   1.322   5.206 -0.3665  1.0503  2.3094
 8266SOL     OW36259   1.223   1.269  13.843  0.4806 -0.1802  0.0908
 8266SOL    HW136260   1.174   1.268  13.926  1.2365 -0.4118  0.5405
 8266SOL    HW236261   1.169   1.305  13.773  0.5205 -2.6824 -1.2272
 8267SOL     OW36262   0.024   2.373   6.582  0.4864  0.7428  0.5064
 8267SOL    HW136263   4.683   2.343   6.520  1.1588 -1.1259  0.7194
 8267SOL    HW236264   0.084   2.298   6.581  0.7930  0.9898  0.1595
 8268SOL     OW36265   4.560   0.075   1.325 -0.4638 -0.1447 -0.5463
 8268SOL    HW136266   4.584   0.126   1.403 -3.7611  0.6493 -0.0759
 8268SOL    HW236267   4.643   0.038   1.296 -0.5620 -0.7145 -0.0994
 8269SOL     OW36268   0.806   3.993   3.829 -0.4253  0.2083 -0.0242
 8269SOL    HW136269   0.780   3.949   3.910  0.4189  1.7638  1.0965
 8269SOL    HW236270   0.794   4.087   3.843 -1.0984 -0.2071  2.1824
 8270SOL     OW36271   1.900   0.619   6.074  0.2290  0.2062 -0.0567
 8270SOL    HW136272   1.835   0.567   6.027  0.2392  0.7870 -0.7233
 8270SOL    HW236273   1.911   0.694   6.016  0.3048 -0.7024 -1.2369
 8271SOL     OW36274   4.467   0.309   7.596 -0.0097 -0.2652  0.0043
 8271SOL    HW136275   4.428   0.336   7.679 -0.9842 -3.5844  0.6350
 8271SOL    HW236276   4.488   0.391   7.552  1.2434 -0.8052 -0.4059
 8272SOL     OW36277   1.201   2.713   7.014 -0.7397  0.1844 -0.0874
 8272SOL    HW136278   1.109   2.737   7.022 -1.2528 -1.3900 -1.2947
 8272SOL    HW236279   1.245   2.785   7.058 -1.9510  1.1399 -0.4449
 8273SOL     OW36280   1.772   3.319  16.642 -0.3330  0.2169  0.1458
 8273SOL    HW136281   1.853   3.369  16.646 -0.5999  0.8103 -1.7677
 8273SOL    HW236282   1.759   3.310  16.548  0.0615  2.1994 -0.1071
 8274SOL     OW36283   3.725   2.337   2.637  0.0645 -0.5776 -0.3371
 8274SOL    HW136284   3.727   2.395   2.712 -2.9452 -0.0602 -0.6776
 8274SOL    HW236285   3.802   2.376   2.595 -1.9724  2.2340 -1.3847
 8275SOL     OW36286   0.536   1.038  13.557  0.6594 -0.2254 -0.4431
 8275SOL    HW136287   0.545   1.110  13.618  1.1152  1.0008 -1.9572
 8275SOL    HW236288   0.532   1.083  13.473 -1.1082  1.2662  0.4395
 8276SOL     OW36289   1.792   2.867   3.642  0.4493 -0.3825 -0.3082
 8276SOL    HW136290   1.849   2.902   3.710 -1.2318 -0.2151  1.0316
 8276SOL    HW236291   1.708   2.914   3.643  0.2301 -0.8146  2.2513
 8277SOL     OW36292   2.366   1.188  12.286  0.4693 -0.1071 -0.0907
 8277SOL    HW136293   2.400   1.276  12.301  0.9994  0.0169 -2.1050
 8277SOL    HW236294   2.352   1.167  12.379 -0.0544  1.2038  0.1269
 8278SOL     OW36295   0.674   3.841   7.302 -0.2017 -0.1807  0.2847
 8278SOL    HW136296   0.733   3.767   7.291 -1.1103 -0.6060 -1.5767
 8278SOL    HW236297   0.710   3.890   7.376 -1.7534  0.5009  0.6040
 8279SOL     OW36298   0.798   0.345  11.550 -0.0980 -0.0344  0.2212
 8279SOL    HW136299   0.710   0.333  11.514 -0.7468 -0.7742  2.0245
 8279SOL    HW236300   0.783   0.337  11.644 -0.4081  1.4235  0.2933
 8280SOL     OW36301   4.526   4.014  15.442  0.1740  0.2707 -0.0240
 8280SOL    HW136302   4.559   3.939  15.393  0.3942  0.9953 -0.9934
 8280SOL    HW236303   4.519   4.078  15.371 -2.9348 -1.3642 -1.1685
 8281SOL     OW36304   0.493   2.901   7.380 -0.0365  0.3790 -0.0468
 8281SOL    HW136305   0.528   2.821   7.420 -0.1240 -0.0693 -0.8842
 8281SOL    HW236306   0.418   2.916   7.438  0.0987  1.4847 -0.1599
 8282SOL     OW36307   3.783   1.485   6.004 -0.8086 -0.6573 -0.2029
 8282SOL    HW136308   3.797   1.577   6.025 -0.8161 -0.6597 -0.1878
 8282SOL    HW236309   3.727   1.449   6.073 -1.0254  2.3515  1.1836
 8283SOL     OW36310   0.433   0.670  12.564 -0.1256  0.1962  0.9093
 8283SOL    HW136311   0.484   0.589  12.566 -0.7526 -0.1562  2.2887
 8283SOL    HW236312   0.437   0.702  12.654  1.8773 -1.0267  1.2539
 8284SOL     OW36313   4.338   0.226   3.146 -0.4765  0.0226  0.0630
 8284SOL    HW136314   4.337   0.132   3.131 -0.8534 -0.0859  0.7758
 8284SOL    HW236315   4.285   0.242   3.225  2.4969 -1.2630  2.3101
 8285SOL     OW36316   3.953   1.272   5.933 -0.5653  0.5709 -0.3313
 8285SOL    HW136317   3.960   1.275   5.838  1.4290 -2.7006 -0.3176
 8285SOL    HW236318   3.904   1.351   5.953 -1.8952 -0.1394 -0.7483
 8286SOL     OW36319   3.273   0.192   6.318 -0.0381 -0.3586 -0.0311
 8286SOL    HW136320   3.253   0.178   6.411 -0.8022 -0.1739 -0.1652
 8286SOL    HW236321   3.361   0.156   6.328  0.0688 -0.2015 -0.4101
 8287SOL     OW36322   4.533   2.354  16.648 -0.0915  0.0037  0.7222
 8287SOL    HW136323   4.569   2.432  16.605 -0.7478  0.2104  0.5427
 8287SOL    HW236324   4.567   2.355  16.737  2.1654  0.5004 -0.1356
 8288SOL     OW36325   4.587   0.911   3.418 -0.3403 -0.3127  0.1683
 8288SOL    HW136326   4.537   0.942   3.493 -1.4028 -1.6882  0.0334
 8288SOL    HW236327   4.630   0.990   3.386  0.7705 -0.9144  0.2004
 8289SOL     OW36328   1.455   3.065   2.573 -0.0704 -0.3936 -0.4123
 8289SOL    HW136329   1.512   3.116   2.516 -0.2362 -0.3287 -0.5222
 8289SOL    HW236330   1.372   3.053   2.526 -0.0954  1.7588 -0.9162
 8290SOL     OW36331   1.605   0.971  15.010  0.3272  0.3267 -0.0689
 8290SOL    HW136332   1.669   1.019  14.957  1.7754 -2.9816 -1.3427
 8290SOL    HW236333   1.532   0.999  14.954 -1.3807 -1.4112  1.3309
 8291SOL     OW36334   3.139   0.169   0.522 -0.5894  0.6190  0.1722
 8291SOL    HW136335   3.123   0.194   0.431  0.3204 -0.7571 -0.3668
 8291SOL    HW236336   3.229   0.200   0.536 -0.5978  1.2273 -1.1186
 8292SOL     OW36337   0.395   4.164   0.359  0.2185 -0.4049  0.1068
 8292SOL    HW136338   0.322   4.226   0.354  0.6549  0.1588  0.7360
 8292SOL    HW236339   0.367   4.092   0.303 -0.3145  1.0087 -1.4570
 8293SOL     OW36340   1.002   0.396   8.750 -0.3317 -0.7621 -0.2379
 8293SOL    HW136341   0.980   0.385   8.842 -1.6452 -1.7655 -0.6821
 8293SOL    HW236342   1.095   0.371   8.755  0.1002  1.2206  1.6021
 8294SOL     OW36343   3.086   4.604   0.529 -0.2638  0.3477 -0.3847
 8294SOL    HW136344   3.159   4.550   0.498 -1.3189 -0.7074 -1.0168
 8294SOL    HW236345   3.122   4.693   0.523 -0.6751  0.6981  2.5842
 8295SOL     OW36346   3.852   4.527   2.713 -0.1276 -0.2552 -0.2675
 8295SOL    HW136347   3.910   4.456   2.738 -0.6801 -1.3445 -2.1019
 8295SOL    HW236348   3.913   4.578   2.659 -0.8055  0.2632 -0.5489
 8296SOL     OW36349   4.002   2.110   7.042 -0.5267  0.5891  0.5257
 8296SOL    HW136350   4.079   2.069   7.081 -0.4831 -1.5928 -1.8230
 8296SOL    HW236351   3.945   2.125   7.117  0.8830  2.2205  1.2670
 8297SOL     OW36352   4.352   2.413   7.679 -0.2379  0.0069  0.2915
 8297SOL    HW136353   4.345   2.446   7.768 -0.4819 -0.9034  0.6082
 8297SOL    HW236354   4.259   2.392   7.669 -0.9862  2.0520  3.1341
 8298SOL     OW36355   2.381   4.504   9.917 -0.7585 -0.2493  0.1441
 8298SOL    HW136356   2.347   4.419   9.888  0.6800 -0.6637 -0.3047
 8298SOL    HW236357   2.451   4.514   9.853 -0.9725  2.2006  0.2759
 8299SOL     OW36358   0.716   2.742   7.266 -0.0104 -0.5023 -0.4962
 8299SOL    HW136359   0.671   2.827   7.264  0.2990 -0.2539  2.0435
 8299SOL    HW236360   0.808   2.766   7.271 -0.0153 -0.9943  2.2446
 8300SOL     OW36361   0.284   3.719  17.057  0.4234  0.2279 -0.3130
 8300SOL    HW136362   0.232   3.703  17.136 -0.3040 -2.2282 -1.2853
 8300SOL    HW236363   0.362   3.664  17.065  1.8635  2.4690  0.9730
 8301SOL     OW36364   3.829   2.971  14.544  0.6537  0.1105 -0.1419
 8301SOL    HW136365   3.740   2.977  14.509  0.9959 -2.9115 -1.5500
 8301SOL    HW236366   3.839   3.058  14.584 -0.9667  1.1645 -2.0741
 8302SOL     OW36367   3.121   3.708   8.563  0.0595  0.1787 -0.1193
 8302SOL    HW136368   3.192   3.747   8.614  0.4952 -1.5154  0.5601
 8302SOL    HW236369   3.058   3.779   8.568 -2.8893 -2.5756  1.4362
 8303SOL     OW36370   2.391   2.799  12.589  0.2456  0.2317  0.4363
 8303SOL    HW136371   2.355   2.729  12.642  1.2919  0.0387  0.8987
 8303SOL    HW236372   2.463   2.764  12.536 -0.3902  0.9793 -0.9279
 8304SOL     OW36373   0.268   0.494   4.817  0.1608  1.1438 -0.6311
 8304SOL    HW136374   0.183   0.452   4.826  0.2817  1.1962  0.8835
 8304SOL    HW236375   0.293   0.520   4.906 -1.8174  2.2929 -0.3959
 8305SOL     OW36376   0.179   1.713  13.470  0.1834  0.5342 -0.2443
 8305SOL    HW136377   0.116   1.759  13.525 -0.9276 -0.4822 -0.6826
 8305SOL    HW236378   0.208   1.645  13.530 -0.3639  1.4815  1.1031
 8306SOL     OW36379   2.970   0.597   8.647  0.2121 -0.4056 -0.7542
 8306SOL    HW136380   2.931   0.510   8.651  1.8406 -1.0860  0.2151
 8306SOL    HW236381   2.940   0.641   8.727 -1.0217  0.8581 -1.9116
 8307SOL     OW36382   2.252   0.503   2.708 -0.1538  0.3142  0.0903
 8307SOL    HW136383   2.282   0.487   2.619 -0.7869 -0.4664  0.0254
 8307SOL    HW236384   2.243   0.598   2.703  1.0105  0.3067 -2.0781
 8308SOL     OW36385   0.421   0.925   5.955 -0.0889  0.2967  0.2777
 8308SOL    HW136386   0.478   0.963   5.888  1.4203  2.4618  2.7781
 8308SOL    HW236387   0.488   0.866   5.988 -0.8954 -1.9749 -2.1326
 8309SOL     OW36388   0.519   3.696   3.826  0.0118 -0.5046  0.1007
 8309SOL    HW136389   0.509   3.623   3.766  1.1192 -0.3495 -0.2816
 8309SOL    HW236390   0.581   3.755   3.782 -1.6787  1.3834  0.2250
 8310SOL     OW36391   2.396   0.891  10.692 -0.2972  0.2981 -0.0089
 8310SOL    HW136392   2.436   0.975  10.668  3.3705 -0.5036  3.2321
 8310SOL    HW236393   2.449   0.872  10.769  0.3256  0.3307 -0.4356
 8311SOL     OW36394   1.353   2.724   3.284 -0.2950 -0.1349 -0.0004
 8311SOL    HW136395   1.286   2.791   3.296 -0.7279 -0.5981  0.1662
 8311SOL    HW236396   1.305   2.641   3.284 -1.6786  0.6838  2.5296
 8312SOL     OW36397   2.386   4.536  12.579  0.2559 -0.1384  0.2214
 8312SOL    HW136398   2.414   4.515  12.668  0.2128  2.3647  0.8496
 8312SOL    HW236399   2.427   4.623  12.578 -0.9644  0.4369 -0.4337
 8313SOL     OW36400   2.473   0.789  13.795 -0.3715 -0.2124  0.4670
 8313SOL    HW136401   2.413   0.788  13.721  0.2807  2.1338 -0.1159
 8313SOL    HW236402   2.406   0.751  13.852 -0.7224  2.3415  1.8022
 8314SOL     OW36403   4.587   4.274   6.254 -0.4381 -0.0873  0.4690
 8314SOL    HW136404   4.600   4.185   6.220 -0.4039  0.8205 -1.8634
 8314SOL    HW236405   4.575   4.323   6.173 -0.1290  2.1012  1.7757
 8315SOL     OW36406   0.908   1.714   4.070 -0.3831  0.2501  0.3136
 8315SOL    HW136407   0.820   1.708   4.108 -1.6666  1.9204 -2.3615
 8315SOL    HW236408   0.935   1.626   4.093  0.4806 -0.0201 -1.7108
 8316SOL     OW36409   3.118   2.714  12.412  0.0685  0.5804  0.0704
 8316SOL    HW136410   3.044   2.770  12.387 -0.8958 -0.1112  1.3776
 8316SOL    HW236411   3.186   2.738  12.349  0.9928  1.9669  1.6086
 8317SOL     OW36412   3.226   2.699   5.663  0.1348  0.0684 -0.6180
 8317SOL    HW136413   3.217   2.625   5.603 -3.7711  0.3918 -0.3886
 8317SOL    HW236414   3.319   2.718   5.646  0.2088  1.2084  1.1129
 8318SOL     OW36415   0.346   4.566  17.283 -0.4282  0.3274  0.4051
 8318SOL    HW136416   0.338   4.567  17.188  0.9460 -3.7553  0.2528
 8318SOL    HW236417   0.260   4.606  17.298 -0.3774  0.1893  1.0718
 8319SOL     OW36418   1.922   3.372   8.852 -0.0615 -0.6983 -0.3293
 8319SOL    HW136419   1.863   3.366   8.927 -1.3215  1.1327 -1.1595
 8319SOL    HW236420   1.943   3.466   8.861  0.0376 -0.8013  0.5286
 8320SOL     OW36421   3.603   4.215  17.565  0.3354  0.7389 -0.6850
 8320SOL    HW136422   3.677   4.236  17.622 -0.4161 -1.9466  1.2649
 8320SOL    HW236423   3.611   4.120  17.569 -2.0596  0.6431  1.3641
 8321SOL     OW36424   4.637   3.721   8.629 -0.0052  0.4964 -0.1595
 8321SOL    HW136425   4.551   3.700   8.666  0.3493  0.7585  0.8395
 8321SOL    HW236426   4.659   3.636   8.591  1.8068  1.2617 -0.7884
 8322SOL     OW36427   4.016   2.896   7.931  0.1618 -0.2695  0.4507
 8322SOL    HW136428   3.956   2.970   7.940  0.8354  0.3834 -0.4691
 8322SOL    HW236429   4.099   2.939   7.949 -0.1350  0.6273 -0.2944
 8323SOL     OW36430   2.764   4.112   2.080  1.0462  0.0918  0.0015
 8323SOL    HW136431   2.850   4.142   2.109  0.6588  0.7826  0.4470
 8323SOL    HW236432   2.728   4.200   2.068  2.8424  0.5230 -2.1636
 8324SOL     OW36433   2.930   3.784   8.816 -0.1601 -0.1438  0.0717
 8324SOL    HW136434   2.978   3.771   8.898 -1.2365  0.4323  0.7871
 8324SOL    HW236435   2.934   3.696   8.779 -0.6934 -0.2221  0.2035
 8325SOL     OW36436   3.028   2.546   1.013 -0.6361 -0.2806  0.0166
 8325SOL    HW136437   3.091   2.613   0.987  0.0167 -0.1749  1.8881
 8325SOL    HW236438   3.074   2.492   1.078 -0.8796  0.1525  0.5445
 8326SOL     OW36439   0.752   3.720   3.184  0.4124 -0.6530 -0.3254
 8326SOL    HW136440   0.773   3.647   3.125  0.3325 -2.1620  1.5125
 8326SOL    HW236441   0.840   3.751   3.204 -0.9719  2.6920  0.4733
 8327SOL     OW36442   1.353   1.193   8.570  0.1764 -0.2834  0.1835
 8327SOL    HW136443   1.332   1.201   8.477 -2.2229  0.5600  0.7791
 8327SOL    HW236444   1.385   1.277   8.601 -0.7663  0.9194 -2.0557
 8328SOL     OW36445   2.806   0.984   5.355 -0.4544 -0.2338  0.3822
 8328SOL    HW136446   2.807   1.029   5.439  0.4279 -0.7980  0.6847
 8328SOL    HW236447   2.872   1.041   5.316 -0.9400 -1.2274 -1.8599
 8329SOL     OW36448   0.482   3.444  11.920 -0.7115 -0.6064 -0.2264
 8329SOL    HW136449   0.527   3.369  11.881 -0.9905 -0.5903 -0.5736
 8329SOL    HW236450   0.548   3.505  11.886 -0.1191  0.1471  2.2406
 8330SOL     OW36451   1.553   3.785   1.700  0.0421 -0.3730  0.6550
 8330SOL    HW136452   1.582   3.715   1.641  0.2790 -0.2379  0.6128
 8330SOL    HW236453   1.538   3.854   1.636 -0.5116 -0.2317  0.9334
 8331SOL     OW36454   3.788   0.762   6.707  0.4216  0.7002  0.0948
 8331SOL    HW136455   3.860   0.823   6.724  0.6354  0.1578  1.0983
 8331SOL    HW236456   3.804   0.677   6.748 -0.6342  0.0059 -0.9006
 8332SOL     OW36457   2.347   0.580  15.003  0.1586 -0.7418 -0.4858
 8332SOL    HW136458   2.311   0.578  14.914  1.3798  0.0240 -0.9932
 8332SOL    HW236459   2.440   0.568  14.982  0.0095  0.9440 -2.1764
 8333SOL     OW36460   4.133   0.971   5.154 -0.1571  0.4389 -0.1514
 8333SOL    HW136461   4.154   0.904   5.219 -2.6924 -1.1083 -0.9305
 8333SOL    HW236462   4.177   0.939   5.076 -0.0435  0.2914 -0.0269
 8334SOL     OW36463   1.037   3.458   6.924  0.4028 -0.8092 -0.0424
 8334SOL    HW136464   1.095   3.533   6.919 -1.5056  0.6023 -1.0393
 8334SOL    HW236465   1.078   3.409   6.852  3.1968 -2.0874  2.4080
 8335SOL     OW36466   3.422   1.090  10.798  0.5769 -0.0409 -0.4822
 8335SOL    HW136467   3.417   1.003  10.759  0.7984 -0.4810  0.4757
 8335SOL    HW236468   3.330   1.118  10.795  0.4968 -0.2709 -0.0892
 8336SOL     OW36469   2.801   1.465  14.480  0.5711  0.5552  0.7209
 8336SOL    HW136470   2.814   1.414  14.560  0.9519 -3.7048 -2.0129
 8336SOL    HW236471   2.858   1.541  14.486 -0.3191  1.2019  0.9691
 8337SOL     OW36472   3.230   2.360  15.402  0.3458 -0.1108  0.0778
 8337SOL    HW136473   3.229   2.448  15.366  0.1906 -0.1676 -0.0596
 8337SOL    HW236474   3.321   2.355  15.432  0.3008 -1.7752 -0.0311
 8338SOL     OW36475   3.935   3.463   5.031 -0.0183 -0.4876  0.7047
 8338SOL    HW136476   3.991   3.417   4.968 -0.4739  0.5904 -0.5032
 8338SOL    HW236477   3.970   3.436   5.116 -1.8022 -1.4482  1.1419
 8339SOL     OW36478   4.374   2.974  12.941  0.0157 -0.4149 -0.5291
 8339SOL    HW136479   4.394   3.004  13.030 -0.3784 -0.1601 -0.5278
 8339SOL    HW236480   4.431   3.031  12.890  1.5693 -3.9536 -2.7024
 8340SOL     OW36481   0.565   3.125   4.266 -0.2410 -0.1765  0.1822
 8340SOL    HW136482   0.603   3.172   4.340 -1.3827  1.3409 -0.1909
 8340SOL    HW236483   0.508   3.194   4.232  2.4086  1.3093 -1.2581
 8341SOL     OW36484   0.028   0.962   2.603 -0.2974 -0.2869  0.3522
 8341SOL    HW136485   0.022   0.999   2.691 -0.8199  2.8183 -1.0045
 8341SOL    HW236486   0.111   0.993   2.567 -0.0364  1.2751  2.3057
 8342SOL     OW36487   0.758   1.202  14.132  0.5504  0.1708 -0.8225
 8342SOL    HW136488   0.756   1.291  14.168 -2.4545  0.0449 -0.6903
 8342SOL    HW236489   0.775   1.146  14.207  1.0964  0.6031 -0.6178
 8343SOL     OW36490   1.147   2.794  11.867  0.9766  0.0237  0.0598
 8343SOL    HW136491   1.241   2.780  11.852  0.8890  1.2225 -1.6070
 8343SOL    HW236492   1.120   2.847  11.792 -0.6939 -0.5919  0.2330
 8344SOL     OW36493   0.761   2.171   2.275 -0.0717  0.3940  0.0513
 8344SOL    HW136494   0.855   2.173   2.257 -0.4834  0.0509 -2.1235
 8344SOL    HW236495   0.732   2.150   2.186 -0.8253  3.1464 -0.3672
 8345SOL     OW36496   0.358   2.445   6.771  0.1975 -0.4330  0.2998
 8345SOL    HW136497   0.359   2.368   6.828 -0.7403  0.3238  1.3340
 8345SOL    HW236498   0.352   2.408   6.683 -0.6193 -0.0336  0.1905
 8346SOL     OW36499   0.187   2.155   6.400  0.3134  0.0438  0.3265
 8346SOL    HW136500   0.255   2.207   6.442  1.5262  0.8618 -2.6561
 8346SOL    HW236501   0.211   2.068   6.431 -2.1351 -0.2863  1.3162
 8347SOL     OW36502   0.906   4.288  13.253 -0.1266 -0.3714 -0.0848
 8347SOL    HW136503   0.999   4.284  13.234 -0.4737  0.2905 -1.9585
 8347SOL    HW236504   0.872   4.232  13.184  2.1607  0.5542 -1.9422
 8348SOL     OW36505   3.031   4.445   6.098 -0.0685  0.6078  0.4827
 8348SOL    HW136506   2.992   4.368   6.139 -1.1131 -0.4984 -2.5448
 8348SOL    HW236507   3.054   4.504   6.170 -0.2448 -0.7287  1.6390
 8349SOL     OW36508   4.703   0.753   3.998 -0.1543  0.2850 -0.7859
 8349SOL    HW136509   4.720   0.692   3.925  0.5212 -0.0984 -0.3128
 8349SOL    HW236510   0.044   0.819   3.976 -0.1386  0.6007  0.2248
 8350SOL     OW36511   3.077   3.576   8.306  0.2917 -0.3406  0.1315
 8350SOL    HW136512   3.089   3.631   8.384  2.0708 -1.7068  0.8368
 8350SOL    HW236513   3.168   3.548   8.298  0.3627 -0.0999  0.1071
 8351SOL     OW36514   3.484   2.719   9.990 -0.3671  0.0329  0.4876
 8351SOL    HW136515   3.463   2.712   9.897 -0.8419 -1.1162  0.6868
 8351SOL    HW236516   3.568   2.672   9.997 -0.1496  0.3729  0.1608
 8352SOL     OW36517   1.950   2.637  15.458  0.5675  0.3250  0.7435
 8352SOL    HW136518   2.005   2.562  15.481  1.8381  0.8559 -0.5667
 8352SOL    HW236519   1.979   2.640  15.367 -0.2253  1.3038  0.5317
 8353SOL     OW36520   1.117   1.669  12.947  0.6323 -0.4946  0.7034
 8353SOL    HW136521   1.143   1.757  12.972 -1.3314 -0.2504  1.8378
 8353SOL    HW236522   1.185   1.649  12.882  0.3477 -0.5055  0.4085
 8354SOL     OW36523   3.220   1.840   8.661 -0.2365 -0.1891 -0.2528
 8354SOL    HW136524   3.277   1.894   8.716 -1.6007  1.5647 -0.5331
 8354SOL    HW236525   3.282   1.772   8.637 -1.3841 -1.5468  0.6530
 8355SOL     OW36526   4.475   0.021   8.101 -0.3366  0.1357 -0.2009
 8355SOL    HW136527   4.511   0.110   8.098  1.3537 -0.4955  1.2061
 8355SOL    HW236528   4.553   4.689   8.098 -1.2367 -0.9004 -4.9473
 8356SOL     OW36529   0.777   4.233   4.480  0.8342 -0.3611 -0.6249
 8356SOL    HW136530   0.725   4.300   4.435 -0.1714  0.3348  1.6186
 8356SOL    HW236531   0.835   4.299   4.519  1.7834 -0.5562 -1.6924
 8357SOL     OW36532   4.203   0.583   4.870 -0.2065  0.8362  0.4300
 8357SOL    HW136533   4.189   0.488   4.868  2.1876  0.4821  0.2688
 8357SOL    HW236534   4.161   0.608   4.788  1.1521  0.8105 -0.2770
 8358SOL     OW36535   1.615   1.230   6.725 -0.1409 -0.1731 -0.3546
 8358SOL    HW136536   1.606   1.251   6.632 -0.4504 -2.2109 -0.7837
 8358SOL    HW236537   1.707   1.251   6.735 -0.0505  0.0861 -1.7553
 8359SOL     OW36538   0.113   1.823   8.357  0.5248 -0.5383  0.3240
 8359SOL    HW136539   0.109   1.862   8.444 -3.4595 -0.8311  0.2956
 8359SOL    HW236540   0.186   1.876   8.326 -2.2355  2.4548 -0.9576
 8360SOL     OW36541   2.289   4.170   6.106 -0.4663 -0.0652 -0.0279
 8360SOL    HW136542   2.228   4.099   6.126 -0.8669  0.4828  0.6742
 8360SOL    HW236543   2.229   4.223   6.054  1.4559  1.4602 -0.6949
 8361SOL     OW36544   1.818   2.189  16.990  0.1977  0.2169 -0.1671
 8361SOL    HW136545   1.758   2.115  16.984  0.8811 -0.2150 -1.6021
 8361SOL    HW236546   1.898   2.152  16.953 -0.0938 -1.1627  0.5894
 8362SOL     OW36547   0.567   3.232  12.744 -0.7475 -0.1834 -0.6071
 8362SOL    HW136548   0.606   3.148  12.766 -0.4195 -0.4357 -2.1468
 8362SOL    HW236549   0.476   3.209  12.724 -0.2221 -0.4217 -2.7789
 8363SOL     OW36550   4.392   3.955  10.578 -0.2631 -0.1417 -0.5936
 8363SOL    HW136551   4.449   3.879  10.592  0.3256  0.5444  0.7000
 8363SOL    HW236552   4.446   4.010  10.521  1.5388  0.2790  1.5503
 8364SOL     OW36553   0.055   0.303   5.221  0.1885 -0.5642 -0.1168
 8364SOL    HW136554   0.148   0.305   5.197 -0.2024  1.4085 -1.3940
 8364SOL    HW236555   0.030   0.395   5.208 -1.2466 -0.7724  1.1921
 8365SOL     OW36556   0.137   4.056   7.571 -0.2263 -0.6020 -0.5872
 8365SOL    HW136557   0.108   4.129   7.626 -1.7143 -1.0909 -0.7349
 8365SOL    HW236558   0.063   3.997   7.583  0.9096 -1.9415 -0.1507
 8366SOL     OW36559   4.330   1.903  10.206  0.4730 -0.6580  0.0741
 8366SOL    HW136560   4.419   1.920  10.237  0.7889 -1.8092 -0.1960
 8366SOL    HW236561   4.278   1.902  10.286  0.7328 -0.0717  0.2480
 8367SOL     OW36562   1.986   1.121  17.122 -0.3896  0.8124  0.3160
 8367SOL    HW136563   2.059   1.177  17.149  0.3007  0.0823 -0.0342
 8367SOL    HW236564   1.907   1.159  17.160 -1.7854 -0.5908 -1.1953
 8368SOL     OW36565   2.837   1.251   6.255 -0.2806 -0.3085  0.1662
 8368SOL    HW136566   2.808   1.257   6.346 -2.0493  1.0877 -0.4841
 8368SOL    HW236567   2.751   1.234   6.218 -0.5064  1.0924  0.0325
 8369SOL     OW36568   1.483   2.174   6.530 -0.3812 -0.1167 -0.4515
 8369SOL    HW136569   1.483   2.107   6.462 -2.1015  0.9830 -1.5304
 8369SOL    HW236570   1.415   2.148   6.592 -0.1832 -1.9736 -1.0376
 8370SOL     OW36571   2.782   1.263   7.343  0.4277  0.4845 -0.4037
 8370SOL    HW136572   2.738   1.346   7.325 -0.8697 -0.4632 -1.6878
 8370SOL    HW236573   2.861   1.294   7.386 -0.9913  0.9898  1.7972
 8371SOL     OW36574   2.451   0.801  16.084  0.2163 -0.2232 -0.2103
 8371SOL    HW136575   2.413   0.857  16.016  2.7329 -0.0821 -1.5120
 8371SOL    HW236576   2.383   0.737  16.105 -0.3777 -0.1761 -2.0117
 8372SOL     OW36577   0.240   0.967   8.280  0.3423  0.4103  0.2392
 8372SOL    HW136578   0.302   1.037   8.302  2.0500 -0.2789 -2.3877
 8372SOL    HW236579   0.300   0.895   8.262  1.6952  1.6852 -0.3784
 8373SOL     OW36580   2.213   4.523   7.792 -0.3613  0.4289  0.4229
 8373SOL    HW136581   2.142   4.512   7.729 -1.1930 -1.3387  1.6777
 8373SOL    HW236582   2.269   4.457   7.750  0.6018  0.4286  1.6937
 8374SOL     OW36583   3.545   1.832   6.173  0.0070 -0.1237  0.1358
 8374SOL    HW136584   3.474   1.821   6.110  1.2459 -0.3629 -1.2198
 8374SOL    HW236585   3.501   1.872   6.247  2.2680 -1.3147  2.1160
 8375SOL     OW36586   4.088   2.388   5.758 -0.6712  0.0140  0.6678
 8375SOL    HW136587   4.054   2.309   5.715  0.9162  0.2881 -1.0757
 8375SOL    HW236588   4.008   2.441   5.753 -0.8004 -0.3908 -1.5100
 8376SOL     OW36589   3.961   1.482   3.728  0.2198 -0.7566 -0.0843
 8376SOL    HW136590   3.938   1.470   3.821  1.9571  1.2979  0.6216
 8376SOL    HW236591   3.898   1.552   3.708  1.9588  0.7800 -0.1954
 8377SOL     OW36592   2.366   0.770   6.608 -0.0748  0.0098 -0.1146
 8377SOL    HW136593   2.412   0.707   6.663 -1.0488  0.5177  1.2864
 8377SOL    HW236594   2.388   0.736   6.521  2.8899  0.1801  0.5725
 8378SOL     OW36595   3.307   2.093  15.921 -0.6033  0.0566 -0.2042
 8378SOL    HW136596   3.262   2.009  15.913  0.4917 -0.5884  0.4381
 8378SOL    HW236597   3.399   2.069  15.913 -0.1148  1.2872  1.6684
 8379SOL     OW36598   1.026   0.250  15.911 -0.2014  0.2057  0.0220
 8379SOL    HW136599   1.076   0.258  15.992  0.6605 -0.2606 -0.4629
 8379SOL    HW236600   1.096   0.276  15.852 -0.2585  2.2302  0.8463
 8380SOL     OW36601   4.643   2.229  13.668  0.2482 -0.1071  0.0540
 8380SOL    HW136602   4.633   2.314  13.710 -0.3851  0.9486 -2.2306
 8380SOL    HW236603   4.605   2.240  13.581  0.1020  2.2897  0.4139
 8381SOL     OW36604   4.334   0.138  14.992 -0.3975  0.2536  0.2757
 8381SOL    HW136605   4.339   0.062  15.050 -0.0516  0.3952  0.4312
 8381SOL    HW236606   4.375   0.115  14.908  0.0476 -0.2716  0.6333
 8382SOL     OW36607   0.385   1.768   8.078  0.4104 -0.2585  0.3184
 8382SOL    HW136608   0.425   1.710   8.143 -1.7863  0.7656  2.5500
 8382SOL    HW236609   0.438   1.847   8.086 -1.3626  1.2087 -2.4691
 8383SOL     OW36610   1.875   4.480   6.035  0.0167 -0.2444 -0.5213
 8383SOL    HW136611   1.865   4.549   5.969  1.9804 -0.6239 -1.1989
 8383SOL    HW236612   1.788   4.440   6.034 -1.1952  2.3653 -0.3109
 8384SOL     OW36613   4.350   4.529   3.599 -0.1502 -0.0514 -0.0321
 8384SOL    HW136614   4.256   4.543   3.591 -0.1732 -0.5566 -0.6199
 8384SOL    HW236615   4.327   4.437   3.618 -0.5530  0.2588  1.0003
 8385SOL     OW36616   4.665   2.230  17.573 -0.4146 -0.6640 -0.0659
 8385SOL    HW136617   4.644   2.305  17.629  0.3020 -0.9045  0.5290
 8385SOL    HW236618   0.026   2.244  17.532 -0.0534 -0.1608  0.8706
 8386SOL     OW36619   2.605   2.074   5.588  0.1319  0.3215 -0.4568
 8386SOL    HW136620   2.606   1.999   5.647 -1.5721  0.1398 -0.6638
 8386SOL    HW236621   2.642   2.141   5.646 -0.1612  1.3338 -1.4348
 8387SOL     OW36622   2.521   1.294  17.530  0.5128 -0.2662 -0.6497
 8387SOL    HW136623   2.557   1.330  17.448  2.4981 -1.6097 -0.3704
 8387SOL    HW236624   2.469   1.222  17.494  1.8595 -0.3901 -2.3420
 8388SOL     OW36625   2.617   1.948   7.977 -0.4380 -0.0757  0.2409
 8388SOL    HW136626   2.535   1.929   7.931 -0.4882 -1.1174  0.7646
 8388SOL    HW236627   2.608   2.041   7.995 -0.8842 -0.1088  0.1884
 8389SOL     OW36628   0.099   3.425  17.538  0.0904  0.1791  0.0205
 8389SOL    HW136629   0.139   3.400  17.621  1.7825 -1.6213 -1.3298
 8389SOL    HW236630   0.031   3.358  17.535  0.7810 -0.4992 -0.4557
 8390SOL     OW36631   0.194   4.671   5.722  0.0300 -0.0802  0.4969
 8390SOL    HW136632   0.154   4.686   5.637 -1.5955  1.8279  1.5963
 8390SOL    HW236633   0.190   4.575   5.712 -1.7385  0.4164 -3.5845
 8391SOL     OW36634   2.243   3.876   9.137  0.2911  0.3727  0.0278
 8391SOL    HW136635   2.181   3.859   9.208  1.0072  1.8508  1.0073
 8391SOL    HW236636   2.315   3.820   9.164  0.1759 -0.9354 -2.4013
 8392SOL     OW36637   4.182   0.547  14.807 -0.0401  0.0818  0.0757
 8392SOL    HW136638   4.108   0.568  14.864  0.9544  2.0095  0.6669
 8392SOL    HW236639   4.135   0.507  14.734 -2.3750  2.8987  0.0180
 8393SOL     OW36640   2.502   4.584   8.607  0.0270 -0.3460 -0.3247
 8393SOL    HW136641   2.455   4.570   8.689 -0.1786  0.4926 -0.2965
 8393SOL    HW236642   2.579   4.530   8.627 -0.0664 -0.6741 -0.8627
 8394SOL     OW36643   2.674   2.164   4.861 -0.3636  0.7617 -0.2417
 8394SOL    HW136644   2.743   2.116   4.815 -1.0458 -0.0381 -0.4198
 8394SOL    HW236645   2.725   2.223   4.916  0.5000  1.9672 -2.3441
 8395SOL     OW36646   4.614   3.204  17.163 -0.5032  0.3805 -0.3609
 8395SOL    HW136647   4.632   3.115  17.193  2.3102  1.2116  0.4203
 8395SOL    HW236648   4.538   3.192  17.106 -0.2599 -1.5805 -0.2713
 8396SOL     OW36649   1.267   2.848  17.633 -0.6313  0.9259 -0.1536
 8396SOL    HW136650   1.288   2.764  17.591 -0.9231  0.4447  0.6655
 8396SOL    HW236651   1.308   2.834   0.018  2.3523  1.9723 -1.4466
 8397SOL     OW36652   3.280   4.367   4.708 -0.0471 -0.8316  0.4090
 8397SOL    HW136653   3.301   4.274   4.705  0.0526 -0.7312 -1.8012
 8397SOL    HW236654   3.275   4.394   4.616 -1.9790 -1.8429  0.2160
 8398SOL     OW36655   4.243   1.614   8.444 -0.0622  1.0310 -0.0888
 8398SOL    HW136656   4.334   1.628   8.470  0.7144 -1.8943 -1.3542
 8398SOL    HW236657   4.203   1.701   8.453 -0.3222  0.8720  0.3364
 8399SOL     OW36658   0.956   0.542   2.790  0.0287  0.2164 -0.1317
 8399SOL    HW136659   0.988   0.466   2.837 -1.5908 -0.1451  0.3892
 8399SOL    HW236660   0.998   0.610   2.843  0.4219 -2.3229  2.8437
 8400SOL     OW36661   2.737   3.578   3.427 -0.4027  0.2058 -0.2456
 8400SOL    HW136662   2.780   3.492   3.431 -0.2297  0.1875 -2.2738
 8400SOL    HW236663   2.816   3.632   3.423  0.9233 -1.7091  0.1922
 8401SOL     OW36664   3.667   3.340   9.292 -0.0715 -0.1043 -0.6930
 8401SOL    HW136665   3.626   3.346   9.205  1.8238 -1.0142 -1.6601
 8401SOL    HW236666   3.653   3.431   9.316 -1.5023 -0.3907 -0.4329
 8402SOL     OW36667   0.530   0.865  14.153  0.1096 -0.2967 -0.4822
 8402SOL    HW136668   0.466   0.890  14.087 -0.2144  2.0308  0.7192
 8402SOL    HW236669   0.500   0.917  14.228  1.9408 -2.0069  1.4219
 8403SOL     OW36670   3.915   3.150  15.043 -0.0936  0.7242  0.0358
 8403SOL    HW136671   3.961   3.134  14.960  2.2742 -0.9567  1.6933
 8403SOL    HW236672   3.869   3.067  15.058  0.7013  0.6888  2.2343
 8404SOL     OW36673   1.042   0.536   1.977 -0.1002  0.3149  0.0901
 8404SOL    HW136674   1.022   0.472   2.045  1.5775  0.0938  0.3749
 8404SOL    HW236675   1.027   0.624   2.012 -0.5028 -0.4837  1.9059
 8405SOL     OW36676   2.176   2.400   8.925 -0.3650 -0.0355  0.0773
 8405SOL    HW136677   2.137   2.313   8.918  0.5955 -0.4703  0.1714
 8405SOL    HW236678   2.099   2.435   8.971 -1.4178 -1.3478 -0.6908
 8406SOL     OW36679   2.789   0.422  15.560 -0.4083  0.2493 -0.3947
 8406SOL    HW136680   2.767   0.455  15.473 -0.2343  1.6034  0.0782
 8406SOL    HW236681   2.705   0.434  15.605  0.0735  0.4522  0.4552
 8407SOL     OW36682   1.960   2.065   4.618  0.1569  0.1606 -0.3221
 8407SOL    HW136683   1.898   2.068   4.691 -2.6816 -1.4248 -2.6638
 8407SOL    HW236684   2.041   2.069   4.670 -0.6076 -0.7105  0.9375
 8408SOL     OW36685   4.480   2.652   5.183  0.2822 -0.1047 -0.4874
 8408SOL    HW136686   4.418   2.614   5.245  0.2556  0.7175 -0.0081
 8408SOL    HW236687   4.454   2.605   5.104  0.0619 -0.7912 -0.0067
 8409SOL     OW36688   0.245   1.821   7.686  0.2553  1.0026  0.1628
 8409SOL    HW136689   0.247   1.800   7.593  0.0805 -1.1455  0.6494
 8409SOL    HW236690   0.307   1.893   7.696 -0.3706  1.4447  0.9728
 8410SOL     OW36691   1.558   4.088   2.871 -0.7950  0.3144  0.4227
 8410SOL    HW136692   1.543   4.167   2.924  0.2719  0.1432  0.9689
 8410SOL    HW236693   1.514   4.125   2.794  1.0107 -2.0932 -1.7481
 8411SOL     OW36694   3.065   1.936   8.315 -0.6818  0.1987 -0.1370
 8411SOL    HW136695   3.004   1.975   8.378 -1.0187  1.4546 -1.2556
 8411SOL    HW236696   3.059   1.848   8.353 -1.9053  0.5359  0.4535
 8412SOL     OW36697   4.375   2.681   8.076 -0.3350  0.2420 -0.2717
 8412SOL    HW136698   4.402   2.642   8.159  0.5409 -0.9069 -1.0889
 8412SOL    HW236699   4.341   2.596   8.047 -1.0209  0.4255 -0.0000
 8413SOL     OW36700   3.292   0.436   4.607  0.5130 -0.0543  0.5743
 8413SOL    HW136701   3.231   0.492   4.654 -0.6130 -0.4077 -0.4750
 8413SOL    HW236702   3.282   0.350   4.647  0.6379 -1.5117 -2.5139
 8414SOL     OW36703   0.662   1.547   1.624  0.0800  0.0834 -0.0064
 8414SOL    HW136704   0.617   1.617   1.577  0.4686  0.0254 -0.4640
 8414SOL    HW236705   0.656   1.582   1.713 -4.2682  0.1072 -0.3304
 8415SOL     OW36706   0.088   2.254  16.319  0.3518 -0.3293  0.7340
 8415SOL    HW136707   0.172   2.207  16.315  0.6831  0.3760 -0.9012
 8415SOL    HW236708   0.023   2.184  16.308 -0.8369  0.3957  3.3787
 8416SOL     OW36709   3.903   0.137   7.651  0.5099 -0.1074 -0.0223
 8416SOL    HW136710   3.853   0.085   7.714 -1.4791 -0.7262 -2.1169
 8416SOL    HW236711   3.869   0.225   7.668 -0.2793 -1.1397  3.5222
 8417SOL     OW36712   0.357   1.188   8.989  0.5297  0.4309 -0.1154
 8417SOL    HW136713   0.357   1.277   8.954  2.2479 -0.0525 -1.3379
 8417SOL    HW236714   0.365   1.213   9.082  1.2466  0.5083 -0.1991
 8418SOL     OW36715   0.975   2.877   6.976 -0.1722 -0.1309  0.2048
 8418SOL    HW136716   0.881   2.890   6.961 -0.6589 -1.6094  1.9093
 8418SOL    HW236717   1.017   2.894   6.892 -0.4686  1.5928  0.4144
 8419SOL     OW36718   1.879   1.029   9.734 -0.0449 -0.3199  0.3997
 8419SOL    HW136719   1.818   1.084   9.782  1.3034  0.2399  1.4841
 8419SOL    HW236720   1.938   0.993   9.801 -0.1574  1.9754  1.7201
 8420SOL     OW36721   4.596   1.241   1.509 -0.3126  0.3794 -0.6288
 8420SOL    HW136722   4.640   1.205   1.431  0.1765  0.6499 -0.4727
 8420SOL    HW236723   4.627   1.179   1.575 -0.3249 -1.4939 -2.3446
 8421SOL     OW36724   2.512   1.484   7.007 -0.4330 -0.2572  0.4784
 8421SOL    HW136725   2.566   1.470   7.085 -0.8771  1.0779  1.0287
 8421SOL    HW236726   2.559   1.434   6.940 -1.3207 -0.6314  0.1375
 8422SOL     OW36727   2.183   3.199   6.395 -0.8579  0.4176  0.4944
 8422SOL    HW136728   2.159   3.106   6.389  0.6682  0.0957 -0.5383
 8422SOL    HW236729   2.094   3.235   6.391 -1.4473 -1.3523 -2.6836
 8423SOL     OW36730   1.420   2.465  14.181 -0.3554  0.2466  0.1126
 8423SOL    HW136731   1.374   2.443  14.100 -2.2421 -0.2672  1.3077
 8423SOL    HW236732   1.415   2.384  14.232  0.4580  1.6142  2.3728
 8424SOL     OW36733   4.322   1.778   8.189  0.1217  0.1235  0.3158
 8424SOL    HW136734   4.264   1.854   8.190 -1.1938 -0.8555 -1.0901
 8424SOL    HW236735   4.298   1.732   8.109 -0.1670 -1.2882  1.2027
 8425SOL     OW36736   1.444   1.020   3.727 -0.3905 -0.2761 -0.2692
 8425SOL    HW136737   1.375   0.957   3.748  0.0645 -0.8989 -0.6452
 8425SOL    HW236738   1.394   1.079   3.671 -1.5088  0.3954  1.4364
 8426SOL     OW36739   4.603   0.808   9.993 -0.4014  0.5497 -0.0321
 8426SOL    HW136740   4.669   0.872   9.964  0.3217  0.4230  1.3383
 8426SOL    HW236741   4.662   0.741  10.028 -0.7089  0.2088 -0.1797
 8427SOL     OW36742   2.678   2.389   9.264  0.3291 -0.1357 -0.1191
 8427SOL    HW136743   2.616   2.438   9.209  2.0543  1.3218 -0.7505
 8427SOL    HW236744   2.624   2.359   9.337 -0.7398  2.2260  0.0510
 8428SOL     OW36745   4.447   2.648   3.316 -0.0938  0.2839  0.0847
 8428SOL    HW136746   4.383   2.703   3.361  1.9170  2.4393  0.3172
 8428SOL    HW236747   4.436   2.662   3.221 -2.1264  1.7652  0.5432
 8429SOL     OW36748   3.248   1.380  12.799  0.7867  0.1814 -0.2864
 8429SOL    HW136749   3.271   1.439  12.727  1.1109  0.3939 -0.0143
 8429SOL    HW236750   3.328   1.329  12.816  0.3022 -0.0848  1.1994
 8430SOL     OW36751   0.791   1.424   0.567  0.0379 -0.3471 -0.1637
 8430SOL    HW136752   0.809   1.506   0.522 -0.7928  0.0463  0.2159
 8430SOL    HW236753   0.871   1.379   0.542  2.4921  4.2543 -0.5068
 8431SOL     OW36754   0.177   2.187   8.098  0.1747  0.1390 -0.0213
 8431SOL    HW136755   0.165   2.098   8.063 -1.5622 -0.7562  2.8578
 8431SOL    HW236756   0.271   2.196   8.114  0.2673 -0.6197 -0.1444
 8432SOL     OW36757   2.575   1.038  13.452  0.4142 -0.0179 -0.4981
 8432SOL    HW136758   2.588   1.099  13.380 -1.1353  1.1474  0.1830
 8432SOL    HW236759   2.479   1.035  13.446  0.4202 -0.8790 -0.1764
 8433SOL     OW36760   3.336   1.705  15.130  0.4627 -0.2564 -0.1265
 8433SOL    HW136761   3.310   1.763  15.058 -1.8471  1.5761  2.1525
 8433SOL    HW236762   3.412   1.754  15.161 -0.6541  2.3661 -1.5262
 8434SOL     OW36763   2.129   2.851   6.037 -0.0015  0.3388 -0.2161
 8434SOL    HW136764   2.062   2.808   5.984 -0.1977 -0.9619  1.0867
 8434SOL    HW236765   2.085   2.887   6.115  2.6430  2.6284  0.2367
 8435SOL     OW36766   4.153   1.165  10.695  0.4623  0.9741  0.0796
 8435SOL    HW136767   4.227   1.105  10.705  0.3342  0.6477 -0.9161
 8435SOL    HW236768   4.084   1.099  10.690  2.3887 -1.1972  2.1362
 8436SOL     OW36769   3.448   4.703   3.306  0.0950 -0.7317 -0.3217
 8436SOL    HW136770   3.519   4.693   3.242 -0.1777 -1.8505 -0.4642
 8436SOL    HW236771   3.489   4.676   3.388 -1.6941  0.8300  1.0956
 8437SOL     OW36772   0.995   4.487   2.490  0.0067  0.0278 -0.8379
 8437SOL    HW136773   1.073   4.541   2.481  1.0251 -1.3051 -0.0048
 8437SOL    HW236774   0.942   4.556   2.530 -2.8766 -1.1869 -2.5498
 8438SOL     OW36775   0.811   4.541  10.222 -0.0835 -0.2040  1.0018
 8438SOL    HW136776   0.795   4.635  10.231  1.4288  0.1592 -0.2661
 8438SOL    HW236777   0.723   4.501  10.218 -0.6353  1.3644 -2.0700
 8439SOL     OW36778   3.768   2.099   8.698  0.4406  0.3469  0.3118
 8439SOL    HW136779   3.797   2.107   8.789 -0.3498  3.5042  0.3024
 8439SOL    HW236780   3.807   2.179   8.661 -1.7715  1.3966  0.2720
 8440SOL     OW36781   3.381   4.539  15.844  0.1906 -0.1134  0.2545
 8440SOL    HW136782   3.362   4.629  15.818 -0.4002 -0.8273 -1.7980
 8440SOL    HW236783   3.336   4.527  15.927 -0.9924  0.0483 -0.3672
 8441SOL     OW36784   2.374   1.755   8.101  0.4059  0.4611 -0.1508
 8441SOL    HW136785   2.357   1.843   8.135 -1.3995  0.5731 -1.3629
 8441SOL    HW236786   2.293   1.710   8.125 -0.5516  1.1142 -2.2320
 8442SOL     OW36787   4.097   1.570   6.197 -0.1463 -0.7870  0.1087
 8442SOL    HW136788   4.174   1.514   6.200  0.0531 -0.5780 -0.8598
 8442SOL    HW236789   4.141   1.652   6.178  0.2599 -0.9085  0.5396
 8443SOL     OW36790   0.054   2.344  12.994  0.1651  0.2029 -0.5485
 8443SOL    HW136791   0.048   2.284  12.920 -0.9408  0.4563 -0.6775
 8443SOL    HW236792   0.003   2.416  12.956 -2.1600 -0.0495  2.0338
 8444SOL     OW36793   4.687   3.328   5.385  0.3639  0.2382 -0.0382
 8444SOL    HW136794   0.015   3.296   5.312  0.0226 -0.8236  0.1770
 8444SOL    HW236795   4.703   3.256   5.447 -2.1302 -0.2744  0.0222
 8445SOL     OW36796   3.796   2.937   8.526  0.0217 -0.2890  0.0114
 8445SOL    HW136797   3.766   2.919   8.616 -0.2383 -3.0965 -0.6489
 8445SOL    HW236798   3.773   3.030   8.522  0.1427 -0.1666  1.8687
 8446SOL     OW36799   1.297   2.342   5.035 -0.5491 -0.1573  0.2375
 8446SOL    HW136800   1.234   2.278   5.001 -1.3329 -0.3039  2.0075
 8446SOL    HW236801   1.286   2.334   5.130 -3.9885 -2.0821 -0.3285
 8447SOL     OW36802   0.623   1.438  13.445  0.3612  0.1461  0.5562
 8447SOL    HW136803   0.557   1.370  13.430  2.5744 -1.7322 -0.5935
 8447SOL    HW236804   0.599   1.477  13.530  3.9269  1.5279  0.9193
 8448SOL     OW36805   0.320   1.323   3.361 -0.0360 -0.5978 -0.1188
 8448SOL    HW136806   0.414   1.307   3.366 -0.0357 -0.1909  1.3288
 8448SOL    HW236807   0.282   1.236   3.376  0.7371 -0.1541  4.3150
 8449SOL     OW36808   2.194   0.103  11.271  0.2244 -0.1076  0.0608
 8449SOL    HW136809   2.209   0.178  11.329 -0.6392  1.1653 -1.3805
 8449SOL    HW236810   2.147   0.155  11.207 -0.0980 -1.1462 -0.5532
 8450SOL     OW36811   0.003   0.686  16.677  0.1892  0.3307  0.1699
 8450SOL    HW136812   0.078   0.629  16.662 -1.0165 -1.0296 -0.6788
 8450SOL    HW236813   0.038   0.772  16.700  2.0116 -1.0752  2.6855
 8451SOL     OW36814   1.033   0.069  17.406  0.3019 -0.7005  0.2357
 8451SOL    HW136815   1.038   0.042  17.498  2.5526 -1.1110 -0.0274
 8451SOL    HW236816   0.954   0.021  17.381 -0.2342  0.4633 -0.3385
 8452SOL     OW36817   3.034   1.363  15.716 -0.2348  0.1569 -0.3937
 8452SOL    HW136818   3.013   1.406  15.799 -3.1624  2.7620 -2.5253
 8452SOL    HW236819   3.001   1.275  15.736 -0.6920  0.6097  0.8440
 8453SOL     OW36820   4.532   2.605  10.609 -0.0486 -0.0818 -0.0841
 8453SOL    HW136821   4.543   2.542  10.537 -1.6377  0.7760 -1.0936
 8453SOL    HW236822   4.533   2.689  10.564  2.0535  0.3346  0.7403
 8454SOL     OW36823   1.343   2.347   6.977  0.1603 -0.4621 -0.0618
 8454SOL    HW136824   1.381   2.385   7.056  1.7794 -1.3259 -0.4248
 8454SOL    HW236825   1.255   2.325   7.007 -1.1393  1.1429 -2.7315
 8455SOL     OW36826   1.698   0.166   4.327 -0.0520  0.0146 -0.1115
 8455SOL    HW136827   1.750   0.107   4.272 -0.1758  0.6735 -0.9430
 8455SOL    HW236828   1.630   0.104   4.352  0.1451  0.2051  0.9093
 8456SOL     OW36829   0.537   3.267   2.564 -0.1331 -0.0477  0.1134
 8456SOL    HW136830   0.610   3.258   2.502  0.4027 -1.0682  0.9003
 8456SOL    HW236831   0.519   3.361   2.555  0.9660  0.2231  0.6967
 8457SOL     OW36832   2.600   2.320   2.845 -0.2262  0.4742  0.2448
 8457SOL    HW136833   2.657   2.312   2.769  0.6882  0.2488  0.9511
 8457SOL    HW236834   2.514   2.289   2.817 -0.6397 -1.3529  3.5351
 8458SOL     OW36835   0.150   2.991  11.927 -0.4800 -0.1042 -0.4024
 8458SOL    HW136836   0.214   3.061  11.937 -0.7751  0.5356 -3.1802
 8458SOL    HW236837   0.075   3.009  11.984 -0.1638  1.5501 -0.5063
 8459SOL     OW36838   2.372   3.163  11.152 -0.3145 -0.2297 -0.5206
 8459SOL    HW136839   2.285   3.175  11.113 -0.2448  1.3950 -0.1661
 8459SOL    HW236840   2.426   3.222  11.099 -0.8875  1.3743  0.6861
 8460SOL     OW36841   0.515   3.419  11.132 -0.0456 -0.0228 -0.0170
 8460SOL    HW136842   0.454   3.422  11.059 -0.3348  1.2885  0.2912
 8460SOL    HW236843   0.549   3.507  11.146 -0.5284  0.0078  0.9890
 8461SOL     OW36844   3.944   4.331   2.201  0.2815  0.1955 -0.1221
 8461SOL    HW136845   4.016   4.271   2.181 -0.9890 -1.1625 -0.5296
 8461SOL    HW236846   3.873   4.270   2.221  1.3151 -0.9043  0.2012
 8462SOL     OW36847   2.412   0.311  10.670  0.0704 -0.1207 -0.4407
 8462SOL    HW136848   2.419   0.235  10.612  1.8463 -0.5762  0.3604
 8462SOL    HW236849   2.480   0.364  10.628  0.8457 -0.6089  0.2071
 8463SOL     OW36850   2.455   3.942  11.814 -0.2583 -0.1745 -0.7940
 8463SOL    HW136851   2.498   3.913  11.733  1.9663  2.6508 -0.6321
 8463SOL    HW236852   2.407   4.018  11.781  1.5754  1.2174 -0.2487
 8464SOL     OW36853   3.544   4.596  14.365  0.0674  0.1095 -0.0975
 8464SOL    HW136854   3.606   4.593  14.293 -0.1397 -3.6270 -0.1153
 8464SOL    HW236855   3.465   4.630  14.323  0.5345  1.2173 -0.0902
 8465SOL     OW36856   1.706   1.767   6.117 -0.4503  0.1563 -0.4332
 8465SOL    HW136857   1.734   1.801   6.032  3.2554  0.0918  0.7737
 8465SOL    HW236858   1.736   1.676   6.114  1.9251  0.9248  0.5178
 8466SOL     OW36859   0.043   4.141  12.284  0.1854 -0.3321  0.1195
 8466SOL    HW136860   0.121   4.191  12.309 -0.0565 -0.0946  0.3985
 8466SOL    HW236861   4.713   4.178  12.353  0.0891 -0.6455  0.2140
 8467SOL     OW36862   1.027   0.469  12.682 -0.5448  0.3231  0.1656
 8467SOL    HW136863   1.113   0.437  12.657  0.1157  1.7040  0.6401
 8467SOL    HW236864   1.057   0.559  12.669 -1.1756  0.7629  1.6044
 8468SOL     OW36865   4.563   0.580  11.350  0.1235 -0.3200  0.2518
 8468SOL    HW136866   4.469   0.578  11.333  0.0856  3.0817  0.1498
 8468SOL    HW236867   4.568   0.611  11.441 -2.6038 -1.3112  0.7351
 8469SOL     OW36868   1.408   0.269   1.271 -0.4139 -0.4760  0.6388
 8469SOL    HW136869   1.378   0.185   1.238 -1.7239  0.6496 -1.0267
 8469SOL    HW236870   1.480   0.237   1.325  0.5174 -0.5540 -0.6586
 8470SOL     OW36871   3.002   4.431   2.552  0.3216  0.3402 -0.0293
 8470SOL    HW136872   3.027   4.342   2.523  1.0552  0.2285  0.9611
 8470SOL    HW236873   3.055   4.487   2.495 -0.7752  0.1218 -1.2780
 8471SOL     OW36874   4.183   3.138   0.369 -0.1407 -0.7910 -0.1157
 8471SOL    HW136875   4.162   3.223   0.410 -2.1967 -0.7302 -1.2708
 8471SOL    HW236876   4.252   3.163   0.309 -0.4373  0.2903 -0.0191
 8472SOL     OW36877   3.885   0.285   5.006  0.0992 -0.6732  0.0918
 8472SOL    HW136878   3.837   0.349   4.954 -0.2861  0.4533  1.8403
 8472SOL    HW236879   3.814   0.264   5.067  0.5899  1.4943  1.3771
 8473SOL     OW36880   0.020   2.623   4.187 -0.2597  0.2890 -0.3915
 8473SOL    HW136881   0.105   2.644   4.149 -0.1640  0.5890 -0.0076
 8473SOL    HW236882   0.018   2.691   4.254  0.2823 -0.3855  0.3098
 8474SOL     OW36883   1.726   1.880   4.947 -1.1402  0.1310  0.2499
 8474SOL    HW136884   1.782   1.956   4.933 -4.1343  2.3250  0.1849
 8474SOL    HW236885   1.659   1.922   5.001 -0.5849  2.2942 -0.7325
 8475SOL     OW36886   4.690   0.790   9.548 -0.0862 -0.4154 -0.2660
 8475SOL    HW136887   0.012   0.777   9.630  0.1605 -0.3343 -0.3914
 8475SOL    HW236888   4.660   0.881   9.549  1.0026 -0.0530 -0.8485
 8476SOL     OW36889   0.343   2.154  16.346 -0.6564 -0.0328 -0.4895
 8476SOL    HW136890   0.361   2.064  16.372  1.3238  0.2203 -1.0144
 8476SOL    HW236891   0.345   2.204  16.428 -0.4286  1.2193 -1.2629
 8477SOL     OW36892   1.136   0.716  12.652 -0.5128 -0.0740  0.6830
 8477SOL    HW136893   1.160   0.775  12.723  2.3863 -0.7989  0.3265
 8477SOL    HW236894   1.056   0.754  12.616 -0.7163 -0.2561  0.9494
 8478SOL     OW36895   1.528   3.134  10.148 -0.2652  0.6002  0.1259
 8478SOL    HW136896   1.469   3.208  10.167  1.3965  1.6998  1.0003
 8478SOL    HW236897   1.474   3.067  10.189 -0.8817  0.3809 -1.0469
 8479SOL     OW36898   3.826   4.308   2.468 -0.1900  0.5604  0.2702
 8479SOL    HW136899   3.881   4.375   2.428 -1.6523  2.0348  0.6852
 8479SOL    HW236900   3.777   4.349   2.540  0.0880  0.1935  0.6659
 8480SOL     OW36901   0.501   3.733   2.749 -0.1254  0.6241  0.2947
 8480SOL    HW136902   0.421   3.728   2.696  0.1728 -1.7911  0.0369
 8480SOL    HW236903   0.474   3.769   2.833 -0.5220  3.6596 -1.1391
 8481SOL     OW36904   4.400   3.161   7.183 -0.2929  0.2470 -0.5603
 8481SOL    HW136905   4.338   3.088   7.171 -1.8514  1.4238  0.3843
 8481SOL    HW236906   4.412   3.161   7.278 -2.7225  0.8097 -0.2680
 8482SOL     OW36907   3.148   2.663   9.357 -0.4543 -0.0302 -0.3624
 8482SOL    HW136908   3.210   2.682   9.287  0.5090  0.5700  0.6463
 8482SOL    HW236909   3.144   2.568   9.366  1.0754  0.1725  2.4652
 8483SOL     OW36910   3.256   3.018  11.007  0.4318 -0.1786 -0.1307
 8483SOL    HW136911   3.292   2.980  11.088  1.3373  1.1098  0.0694
 8483SOL    HW236912   3.163   3.008  11.024  0.5361  0.2960  0.6932
 8484SOL     OW36913   2.868   0.483   0.564 -0.3454 -0.0868  0.6314
 8484SOL    HW136914   2.912   0.455   0.645  1.0072 -1.5366 -0.6250
 8484SOL    HW236915   2.782   0.445   0.581 -0.7968  0.1527 -1.1662
 8485SOL     OW36916   4.491   0.221   3.490 -0.1027  0.1349  0.5694
 8485SOL    HW136917   4.410   0.176   3.512 -1.5516  1.3957 -2.0648
 8485SOL    HW236918   4.535   0.156   3.436 -0.9860 -0.3033  0.3759
 8486SOL     OW36919   0.362   3.589  15.012  0.6290 -0.1500 -0.2926
 8486SOL    HW136920   0.320   3.653  15.070 -0.3268  0.1694 -1.3196
 8486SOL    HW236921   0.427   3.649  14.976 -0.4879  1.4084  0.2534
 8487SOL     OW36922   0.989   0.635   7.151  0.3347  0.2151 -0.3069
 8487SOL    HW136923   0.933   0.608   7.224  2.1976 -1.7418  0.4015
 8487SOL    HW236924   1.044   0.558   7.138  0.4428 -0.0338  1.6176
 8488SOL     OW36925   0.557   1.985   8.882 -0.1631 -0.1066  0.1957
 8488SOL    HW136926   0.638   1.973   8.833  1.5730  2.9067  2.3026
 8488SOL    HW236927   0.581   1.984   8.974 -0.0846  0.7755  0.1871
 8489SOL     OW36928   3.183   1.972   6.613 -0.3931  0.0271 -0.0208
 8489SOL    HW136929   3.092   1.977   6.583 -0.3128  0.7220 -0.1569
 8489SOL    HW236930   3.189   2.049   6.670 -1.7529 -1.2573  1.8473
 8490SOL     OW36931   4.436   3.191   3.851  0.7040 -0.3272  0.2432
 8490SOL    HW136932   4.406   3.273   3.815 -0.2550 -0.8716 -0.1805
 8490SOL    HW236933   4.386   3.177   3.931 -0.9149 -2.3501 -1.1131
 8491SOL     OW36934   2.776   0.066   2.746  0.1949  0.3965  0.3845
 8491SOL    HW136935   2.706   0.007   2.775 -1.6286  2.9355  1.0574
 8491SOL    HW236936   2.754   0.148   2.789 -0.9586 -0.6440  1.8087
 8492SOL     OW36937   1.681   1.353  14.036 -0.2444  0.1113  0.0538
 8492SOL    HW136938   1.620   1.368  13.964  1.9470 -2.2486 -2.3162
 8492SOL    HW236939   1.759   1.380  13.987 -1.1827  2.2056 -0.2447
 8493SOL     OW36940   2.352   0.851  15.803  0.3493  0.5800 -0.1805
 8493SOL    HW136941   2.287   0.895  15.748  0.8173  1.7942  0.2500
 8493SOL    HW236942   2.338   0.759  15.778  2.0403  0.6064 -1.1921
 8494SOL     OW36943   4.628   4.394   4.635 -0.0025 -0.5537  0.3183
 8494SOL    HW136944   4.704   4.450   4.651 -0.2339  0.7256 -3.2071
 8494SOL    HW236945   4.673   4.312   4.614 -0.6563 -0.6570 -0.6649
 8495SOL     OW36946   0.574   0.298   3.188  0.0053  0.5574 -0.0036
 8495SOL    HW136947   0.670   0.300   3.184 -0.0164 -1.6392 -1.5011
 8495SOL    HW236948   0.559   0.345   3.106 -1.5990 -1.3240 -0.7632
 8496SOL     OW36949   0.021   1.831  13.053 -0.5268  0.8657 -0.1361
 8496SOL    HW136950   0.055   1.742  13.057 -0.9745  0.7217  0.5643
 8496SOL    HW236951   4.655   1.815  13.027 -0.7967  1.7109  0.2717
 8497SOL     OW36952   1.587   4.398   6.010 -0.0524  0.3173  0.2280
 8497SOL    HW136953   1.580   4.443   5.925 -1.4325  0.8961  0.6556
 8497SOL    HW236954   1.494   4.378   6.021  0.6039 -3.3411 -0.8688
 8498SOL     OW36955   2.980   2.850   6.409  0.2225  0.3900 -0.5447
 8498SOL    HW136956   2.936   2.803   6.339  0.9074 -0.8838 -0.1206
 8498SOL    HW236957   2.930   2.930   6.390 -0.0106  0.1268 -1.0433
 8499SOL     OW36958   2.497   3.100   7.768 -0.2398 -0.4316  0.3368
 8499SOL    HW136959   2.541   3.074   7.849  0.1076  0.2038  0.3502
 8499SOL    HW236960   2.570   3.134   7.717 -1.7882  1.4663 -0.5841
 8500SOL     OW36961   2.274   0.659   3.214  0.2171 -0.0684 -0.6021
 8500SOL    HW136962   2.194   0.636   3.167  1.5041 -1.5641 -2.0601
 8500SOL    HW236963   2.239   0.731   3.267  1.1587  0.9515 -1.3589
 8501SOL     OW36964   4.320   1.024   2.136  0.4736 -0.2774  0.2437
 8501SOL    HW136965   4.397   0.986   2.093  0.6404 -1.6933  1.7679
 8501SOL    HW236966   4.295   1.086   2.068 -0.0523  0.6369  1.2665
 8502SOL     OW36967   1.628   2.499   2.579  0.0370 -0.8783  0.0973
 8502SOL    HW136968   1.700   2.444   2.548 -0.0566 -0.9627  0.0323
 8502SOL    HW236969   1.551   2.443   2.589  0.7894 -1.9108  0.1745
 8503SOL     OW36970   1.686   4.605   6.424 -0.0188  0.0510 -0.3005
 8503SOL    HW136971   1.671   4.521   6.381  0.1857  0.0153 -0.2980
 8503SOL    HW236972   1.603   4.645   6.396  1.0253  1.6087 -1.1793
 8504SOL     OW36973   4.252   2.808  13.285  0.2666 -0.2843 -0.3932
 8504SOL    HW136974   4.293   2.745  13.345  1.3191  1.0088  0.2292
 8504SOL    HW236975   4.319   2.874  13.266 -1.6715  1.9619  0.6040
 8505SOL     OW36976   2.893   3.972   3.290  0.2491 -0.8158 -0.0498
 8505SOL    HW136977   2.911   4.063   3.312  1.4839 -1.6952  2.5919
 8505SOL    HW236978   2.798   3.959   3.295  0.4183 -2.0116 -0.0249
 8506SOL     OW36979   3.138   4.180  15.540  0.0308  0.5543 -0.3344
 8506SOL    HW136980   3.127   4.268  15.576  1.6858  0.2659  0.8953
 8506SOL    HW236981   3.181   4.200  15.457 -2.5015  3.4683 -0.9222
 8507SOL     OW36982   0.869   0.830   3.740 -0.4159  0.1700  0.1659
 8507SOL    HW136983   0.901   0.867   3.657 -1.4541 -2.8384 -1.5873
 8507SOL    HW236984   0.810   0.901   3.765 -2.0500 -0.6886 -1.2403
 8508SOL     OW36985   0.326   3.967  11.141 -0.1029 -0.1611 -0.0789
 8508SOL    HW136986   0.398   4.021  11.173 -1.0048  1.1448 -0.2270
 8508SOL    HW236987   0.262   4.033  11.111 -0.9672 -1.1174 -0.3348
 8509SOL     OW36988   3.813   4.219  16.796  0.1778 -0.2269  0.3740
 8509SOL    HW136989   3.864   4.226  16.877 -0.4284  2.3289  0.5262
 8509SOL    HW236990   3.723   4.229  16.827 -1.2092 -0.2764 -3.7358
 8510SOL     OW36991   1.864   2.516   4.267 -0.3102 -0.3814 -0.7706
 8510SOL    HW136992   1.839   2.431   4.231  0.1737 -0.8693  0.0752
 8510SOL    HW236993   1.790   2.566   4.232 -0.9672 -1.1326 -0.4691
 8511SOL     OW36994   0.560   3.628   5.383 -0.2022  1.0096  0.4427
 8511SOL    HW136995   0.596   3.599   5.467 -0.7138 -0.9383 -0.0086
 8511SOL    HW236996   0.484   3.680   5.409 -1.6260 -1.0899  0.4219
 8512SOL     OW36997   4.445   3.011   2.302 -0.3675  0.1550 -0.1997
 8512SOL    HW136998   4.509   3.077   2.274  0.8241 -0.8367  0.1775
 8512SOL    HW236999   4.459   2.957   2.225  0.2792 -2.6968  1.9315
 8513SOL     OW37000   3.913   0.828   1.115 -0.2149  0.7795  0.0205
 8513SOL    HW137001   3.827   0.788   1.126  0.1628  0.3386  1.3357
 8513SOL    HW237002   3.922   0.859   1.205  0.2061  0.8772 -0.0568
 8514SOL     OW37003   2.699   1.135  14.467  0.3888  0.4039 -0.5964
 8514SOL    HW137004   2.629   1.084  14.426 -0.4277  0.3931  0.8484
 8514SOL    HW237005   2.647   1.191  14.524  0.3032 -0.6548  0.3688
 8515SOL     OW37006   1.366   2.443  16.922 -0.2786  1.0257  0.3713
 8515SOL    HW137007   1.375   2.520  16.865 -1.5086  0.1630 -1.0048
 8515SOL    HW237008   1.461   2.428  16.925 -0.0269  2.2717 -1.1732
 8516SOL     OW37009   0.213   1.823  10.022  0.7229 -0.1640 -0.1451
 8516SOL    HW137010   0.177   1.790   9.939  0.5777 -1.7864  0.5624
 8516SOL    HW237011   0.244   1.911  10.002 -1.8144  0.0901 -2.9570
 8517SOL     OW37012   1.559   2.522   7.916  0.1242 -0.0160  0.2152
 8517SOL    HW137013   1.603   2.493   7.996  0.9517 -0.5147 -0.4110
 8517SOL    HW237014   1.613   2.473   7.854 -0.3000 -0.8222  0.4854
 8518SOL     OW37015   0.026   2.630   2.820 -0.0849 -0.0836  0.2523
 8518SOL    HW137016   0.122   2.633   2.812 -0.0982 -0.7913 -0.2027
 8518SOL    HW237017   0.010   2.593   2.733  0.6674  0.2369 -0.0233
 8519SOL     OW37018   2.047   4.223   5.254  0.2423 -0.0982 -0.2502
 8519SOL    HW137019   2.022   4.178   5.173  1.2784 -0.4211 -0.3923
 8519SOL    HW237020   1.957   4.217   5.286  0.0189 -0.7882 -0.9950
 8520SOL     OW37021   2.238   4.274   4.966 -0.1547 -0.0833  0.0146
 8520SOL    HW137022   2.310   4.228   5.009  0.8069  0.8642 -0.5871
 8520SOL    HW237023   2.161   4.232   5.005  0.2192 -0.9112 -0.1383
 8521SOL     OW37024   2.296   3.867   8.004 -0.3081  0.1821 -0.4368
 8521SOL    HW137025   2.267   3.901   7.919 -4.0349 -1.5429  0.1361
 8521SOL    HW237026   2.359   3.805   7.967  0.7066  0.9871 -0.0654
 8522SOL     OW37027   4.493   2.121  15.143  0.0153  0.7993  0.0212
 8522SOL    HW137028   4.486   2.176  15.065 -0.1051  0.8133  0.0410
 8522SOL    HW237029   4.425   2.057  15.123 -1.8545  1.6222  3.8577
 8523SOL     OW37030   0.971   4.420   5.379 -0.8780  0.0256  0.4954
 8523SOL    HW137031   0.891   4.462   5.411 -0.5133  0.4813  0.7906
 8523SOL    HW237032   0.989   4.463   5.295  0.1908 -1.2876  0.0472
 8524SOL     OW37033   0.061   3.166   1.862 -0.0240 -0.0959 -0.3205
 8524SOL    HW137034   0.061   3.186   1.768 -3.1799  1.7323  0.0968
 8524SOL    HW237035   0.147   3.123   1.865 -1.0088 -1.9711  0.4735
 8525SOL     OW37036   2.939   0.496   9.003 -0.3275 -0.7571  0.3272
 8525SOL    HW137037   2.904   0.426   8.949 -0.9194  0.3344 -0.7242
 8525SOL    HW237038   2.938   0.568   8.939 -0.4701  0.1275  1.3277
 8526SOL     OW37039   2.271   2.962   7.651  0.0426  0.1957 -0.4288
 8526SOL    HW137040   2.223   3.040   7.623 -2.0639 -1.6119 -1.8997
 8526SOL    HW237041   2.360   2.998   7.658 -0.0653  0.2592  0.5942
 8527SOL     OW37042   2.056   0.874  15.196 -0.2634  0.1224  0.3774
 8527SOL    HW137043   2.119   0.836  15.256 -0.6680 -2.8878 -1.1132
 8527SOL    HW237044   2.041   0.954  15.248 -1.6111  0.4131 -0.4470
 8528SOL     OW37045   4.427   4.129   0.520 -0.0292 -0.1411 -0.4721
 8528SOL    HW137046   4.468   4.134   0.606 -1.3246 -0.5988  0.1823
 8528SOL    HW237047   4.374   4.209   0.521  0.6368  0.3082 -1.2125
 8529SOL     OW37048   2.296   3.910  12.742  0.0703 -0.8347 -0.2601
 8529SOL    HW137049   2.275   4.003  12.743  1.7633 -0.4294 -1.8686
 8529SOL    HW237050   2.334   3.893  12.828 -1.2543  3.4106  1.1515
 8530SOL     OW37051   3.836   1.275   9.430  0.6058  0.3792  0.5144
 8530SOL    HW137052   3.818   1.361   9.468 -0.1626  0.9252 -1.0700
 8530SOL    HW237053   3.906   1.247   9.489 -0.9526 -2.4542  1.0251
 8531SOL     OW37054   3.467   0.468   7.297  0.4292 -0.0979  0.4826
 8531SOL    HW137055   3.466   0.407   7.224  3.1151  0.1924  0.1966
 8531SOL    HW237056   3.550   0.513   7.282  0.0548  1.0039  1.6192
 8532SOL     OW37057   0.384   0.790   6.475 -0.3870  0.3096 -0.0826
 8532SOL    HW137058   0.440   0.732   6.424 -0.9409  0.5436 -0.9535
 8532SOL    HW237059   0.330   0.824   6.404 -0.5418  1.8821  0.8012
 8533SOL     OW37060   2.506   4.028  16.783  0.1604 -0.0534 -0.6124
 8533SOL    HW137061   2.455   4.087  16.839 -1.0331 -0.8064 -0.8988
 8533SOL    HW237062   2.455   3.946  16.786  1.6136 -0.9489 -0.6518
 8534SOL     OW37063   0.194   0.222   7.483 -0.2577  0.0767 -0.2521
 8534SOL    HW137064   0.154   0.270   7.555  1.4721  0.2890  0.5415
 8534SOL    HW237065   0.158   0.268   7.407  1.0268  1.4275 -0.0316
 8535SOL     OW37066   4.699   1.543  16.422  0.5304  0.1777 -0.1359
 8535SOL    HW137067   4.623   1.560  16.368  1.2209  0.3831 -1.0514
 8535SOL    HW237068   0.041   1.597  16.380  0.9453 -0.6759 -0.5940
 8536SOL     OW37069   1.593   3.199  14.714  0.4257  0.7800  0.2880
 8536SOL    HW137070   1.620   3.244  14.794  1.5088  0.8121 -0.0890
 8536SOL    HW237071   1.679   3.175  14.678  0.5191 -0.0739  1.0942
 8537SOL     OW37072   4.564   2.097   8.850  0.8514 -0.3881 -0.2424
 8537SOL    HW137073   4.583   2.037   8.922  1.9496 -1.9421 -1.8100
 8537SOL    HW237074   4.653   2.132   8.843  0.4437  0.5908 -0.4866
 8538SOL     OW37075   0.736   1.165  15.406  0.0795  0.8559 -0.0647
 8538SOL    HW137076   0.783   1.085  15.383  1.5815  1.3489  1.2526
 8538SOL    HW237077   0.673   1.126  15.467 -2.7389  2.2339 -2.1117
 8539SOL     OW37078   0.907   2.464  15.166  0.1085  0.2809 -0.4454
 8539SOL    HW137079   0.950   2.406  15.103 -1.0058 -1.4959  0.4512
 8539SOL    HW237080   0.939   2.439  15.252 -1.2536 -1.1454 -0.3534
 8540SOL     OW37081   2.570   4.714   7.822 -0.7173  0.4049 -0.3156
 8540SOL    HW137082   2.659   0.020   7.808 -1.5002  1.9385 -2.0374
 8540SOL    HW237083   2.585   4.634   7.872  2.5123  1.8528  0.9571
 8541SOL     OW37084   2.417   2.101   9.709  0.0175  0.2589  0.8386
 8541SOL    HW137085   2.335   2.051   9.705  0.1268  0.2209 -1.2535
 8541SOL    HW237086   2.399   2.159   9.635  1.9133  0.0071  0.1748
 8542SOL     OW37087   4.195   3.776   7.302  0.1641 -0.0103  0.0493
 8542SOL    HW137088   4.232   3.853   7.257 -2.3257  2.1354  1.6992
 8542SOL    HW237089   4.275   3.737   7.337  0.9417  0.7934 -0.8102
 8543SOL     OW37090   2.953   2.380   2.783  0.8369 -0.6924 -0.0560
 8543SOL    HW137091   2.912   2.382   2.697  1.3622  0.5940 -0.2841
 8543SOL    HW237092   2.876   2.412   2.830  1.3330  0.3695  0.0500
 8544SOL     OW37093   1.982   2.284   5.018 -0.9683  0.1141 -0.3398
 8544SOL    HW137094   2.074   2.300   5.040  0.0426 -3.1778 -2.1759
 8544SOL    HW237095   1.937   2.334   5.086  0.4565 -0.5621  1.1157
 8545SOL     OW37096   2.233   0.790   2.885  0.1950  0.2516  0.0426
 8545SOL    HW137097   2.276   0.717   2.841  0.9662  0.6860  0.0786
 8545SOL    HW237098   2.263   0.871   2.844  1.1750  0.7952  1.8480
 8546SOL     OW37099   0.906   3.022  11.937  0.1372  0.3809  0.1871
 8546SOL    HW137100   0.963   2.994  11.865 -1.6921  1.2616 -1.5915
 8546SOL    HW237101   0.916   3.117  11.942  2.0271  0.1587  0.6865
 8547SOL     OW37102   1.667   3.807   8.113 -0.1580 -0.7209 -0.4253
 8547SOL    HW137103   1.665   3.743   8.183 -2.0548 -0.2402 -0.0492
 8547SOL    HW237104   1.690   3.890   8.154  2.2248 -1.3095 -0.5556
 8548SOL     OW37105   4.455   1.753   6.766  0.3126 -0.5993  0.7330
 8548SOL    HW137106   4.439   1.699   6.688  0.8240  0.9464 -0.4263
 8548SOL    HW237107   4.370   1.790   6.790  1.5119  3.5438 -1.5372
 8549SOL     OW37108   2.837   3.448   8.963 -0.1837  0.0019 -0.4704
 8549SOL    HW137109   2.895   3.453   8.887  0.3783  1.0744  0.0255
 8549SOL    HW237110   2.897   3.411   9.029 -0.6556  1.0177  0.5192
 8550SOL     OW37111   2.487   0.477  12.524  0.0300 -0.0084 -0.1866
 8550SOL    HW137112   2.479   0.406  12.587  2.7442  0.5037  0.7635
 8550SOL    HW237113   2.392   0.485  12.517 -0.1108 -1.9884 -0.4608
 8551SOL     OW37114   1.701   0.186   1.415 -0.0594 -0.4697  0.0367
 8551SOL    HW137115   1.741   0.200   1.329  1.7754  1.1408  1.1363
 8551SOL    HW237116   1.687   0.092   1.408 -1.8023 -0.1672 -0.5090
 8552SOL     OW37117   3.665   1.885   7.825 -0.0766 -0.0083  0.4670
 8552SOL    HW137118   3.598   1.860   7.762  0.4636 -0.6187  0.1350
 8552SOL    HW237119   3.615   1.923   7.897 -0.4105 -1.2079  0.8715
 8553SOL     OW37120   3.442   0.376  15.057 -0.2435  0.5744  0.0538
 8553SOL    HW137121   3.367   0.420  15.098  1.3118  1.9232  1.4729
 8553SOL    HW237122   3.508   0.434  15.095 -1.1800  0.9453  1.1100
 8554SOL     OW37123   3.537   1.801  16.524 -0.1669  0.1389  0.2539
 8554SOL    HW137124   3.537   1.787  16.619 -2.0166 -1.8102 -0.0174
 8554SOL    HW237125   3.441   1.794  16.523 -0.0456 -1.7878  0.9452
 8555SOL     OW37126   0.595   4.453   0.888 -0.0234  0.0250 -0.0729
 8555SOL    HW137127   0.554   4.538   0.905  1.1073  1.2496 -3.3671
 8555SOL    HW237128   0.596   4.445   0.792  1.2489  0.5324 -0.1083
 8556SOL     OW37129   0.441   1.015   1.997  0.6733  0.7055 -0.3002
 8556SOL    HW137130   0.470   0.997   1.908  3.6893  0.2990  0.7873
 8556SOL    HW237131   0.522   1.038   2.042  0.1944 -0.5872  1.2373
 8557SOL     OW37132   0.987   3.915   7.563  0.0696  0.0220  0.5133
 8557SOL    HW137133   0.954   3.839   7.610 -0.2458 -0.1012  0.0847
 8557SOL    HW237134   1.078   3.896   7.539 -0.6310 -0.0680 -2.0245
 8558SOL     OW37135   3.211   4.402   1.974 -0.1332 -0.3095  0.7666
 8558SOL    HW137136   3.228   4.473   2.035 -0.5105 -0.3104  0.8731
 8558SOL    HW237137   3.240   4.446   1.894  1.2246 -1.3401  0.6905
 8559SOL     OW37138   1.644   1.837   2.367  0.4863  0.0789  0.0216
 8559SOL    HW137139   1.590   1.759   2.369  1.5437 -0.6967 -1.7325
 8559SOL    HW237140   1.731   1.805   2.392  1.1077  2.2255  0.6493
 8560SOL     OW37141   4.338   2.141   6.296 -0.0498  0.9776  0.1171
 8560SOL    HW137142   4.428   2.115   6.275 -0.6763 -2.8594  2.2956
 8560SOL    HW237143   4.326   2.124   6.389 -0.4199 -1.8259 -0.4636
 8561SOL     OW37144   0.542   2.069   7.099 -0.2052 -0.2485 -0.8356
 8561SOL    HW137145   0.530   2.033   7.011 -2.4692 -0.4059 -0.4549
 8561SOL    HW237146   0.611   2.014   7.136 -2.1989 -2.7744 -0.8104
 8562SOL     OW37147   1.823   4.207   4.470 -0.2406 -0.6038  0.4094
 8562SOL    HW137148   1.874   4.194   4.390 -0.9625  0.1852 -0.1813
 8562SOL    HW237149   1.799   4.297   4.447 -0.7662 -0.2908  2.2128
 8563SOL     OW37150   2.396   4.395   1.021  0.0825  0.6780  0.1826
 8563SOL    HW137151   2.481   4.350   1.014  0.6219  1.5890  0.7676
 8563SOL    HW237152   2.328   4.328   1.016  2.6957 -2.0763  1.2566
 8564SOL     OW37153   3.594   3.788  11.580 -0.3379  0.0925 -0.9630
 8564SOL    HW137154   3.689   3.775  11.584 -0.4889 -0.1470  1.8026
 8564SOL    HW237155   3.577   3.878  11.607  1.3779  0.4373 -1.0509
 8565SOL     OW37156   0.888   2.182   2.873 -0.4720 -0.2965  0.1874
 8565SOL    HW137157   0.816   2.208   2.815  1.3674  0.2972 -1.8466
 8565SOL    HW237158   0.932   2.267   2.878 -0.6426 -0.3117  1.8703
 8566SOL     OW37159   4.601   0.158   4.281 -0.2772 -0.2330  0.1820
 8566SOL    HW137160   4.626   0.080   4.331  1.2264 -0.5637 -1.0807
 8566SOL    HW237161   4.509   0.132   4.280  0.5335 -3.1327  0.8444
 8567SOL     OW37162   4.053   3.465   8.505  0.1299 -0.6330 -0.1686
 8567SOL    HW137163   4.099   3.549   8.497 -1.0911  0.0017 -0.4280
 8567SOL    HW237164   3.970   3.493   8.543 -0.5317  0.0830 -2.1583
 8568SOL     OW37165   2.358   3.600   8.192 -0.6337 -0.6099  0.1703
 8568SOL    HW137166   2.413   3.601   8.270 -1.2746 -0.2021  0.6216
 8568SOL    HW237167   2.412   3.627   8.118 -0.7073  0.1765  0.4085
 8569SOL     OW37168   0.785   2.382   3.302 -0.3182 -0.4188 -0.4869
 8569SOL    HW137169   0.844   2.307   3.288 -0.8534 -0.7422 -0.9947
 8569SOL    HW237170   0.844   2.458   3.311 -1.0194 -0.0355  0.8566
 8570SOL     OW37171   4.390   2.211   1.546 -0.3918 -0.2779 -0.7325
 8570SOL    HW137172   4.450   2.279   1.515  0.1426  0.0384  0.9893
 8570SOL    HW237173   4.414   2.144   1.482 -1.3650 -0.8240 -0.5232
 8571SOL     OW37174   0.492   3.631   3.090  0.2253  0.4836  0.2463
 8571SOL    HW137175   0.494   3.557   3.028  2.0385  0.4487  0.3663
 8571SOL    HW237176   0.586   3.642   3.102  0.6550 -0.3499 -2.3443
 8572SOL     OW37177   3.806   4.422   7.322 -0.2140 -0.3278 -0.0294
 8572SOL    HW137178   3.804   4.434   7.417 -0.3219  0.3924 -0.1181
 8572SOL    HW237179   3.895   4.394   7.303  0.0016 -0.5848  1.4092
 8573SOL     OW37180   3.940   4.027  10.368 -0.1019 -0.3076 -0.0306
 8573SOL    HW137181   3.870   3.968  10.395 -0.9898  0.3648 -0.8438
 8573SOL    HW237182   4.015   3.991  10.415 -0.4778 -1.2557 -0.1609
 8574SOL     OW37183   1.425   1.111   1.476  0.2349  0.1284  0.3832
 8574SOL    HW137184   1.515   1.124   1.446  0.0680  1.7953  0.5553
 8574SOL    HW237185   1.381   1.157   1.404 -0.4258  0.8283  1.2211
 8575SOL     OW37186   1.500   3.904   0.992  0.1014 -0.4952 -0.5706
 8575SOL    HW137187   1.457   3.945   0.917 -1.6664 -3.4495 -1.1806
 8575SOL    HW237188   1.443   3.827   0.990  0.8060 -1.0102 -0.7076
 8576SOL     OW37189   4.417   1.869   7.048 -0.0919 -0.4079 -0.2339
 8576SOL    HW137190   4.448   1.923   6.975  0.6936 -0.2384  0.2245
 8576SOL    HW237191   4.493   1.882   7.105  1.3573 -0.9994 -2.0558
 8577SOL     OW37192   0.476   1.807   8.551 -0.3997  0.5850  0.0835
 8577SOL    HW137193   0.513   1.812   8.639 -0.0269  0.1634 -0.0482
 8577SOL    HW237194   0.438   1.719   8.546 -0.9853  0.9088 -1.0421
 8578SOL     OW37195   1.994   1.049   4.876  0.3051 -0.1138  0.0606
 8578SOL    HW137196   2.009   1.126   4.930  1.2342  0.8976 -1.6600
 8578SOL    HW237197   1.958   1.093   4.799 -0.8631  0.3817  0.8864
 8579SOL     OW37198   4.507   2.028   1.011  0.3254 -0.9114  0.2296
 8579SOL    HW137199   4.546   1.995   0.930  1.9431 -0.8041  0.9675
 8579SOL    HW237200   4.582   2.083   1.033 -1.0472  0.6927  0.8577
 8580SOL     OW37201   0.235   1.049   3.299  0.1406 -0.0913  0.0152
 8580SOL    HW137202   0.240   0.963   3.258 -1.2533 -0.6719  1.0504
 8580SOL    HW237203   0.323   1.079   3.276  0.1370  0.1862  0.3620
 8581SOL     OW37204   3.051   1.287   8.370 -0.3869 -0.0320 -0.7317
 8581SOL    HW137205   3.124   1.295   8.308 -0.3725  3.0824 -0.3218
 8581SOL    HW237206   2.970   1.277   8.320 -0.2890  0.8347 -1.0726
 8582SOL     OW37207   0.612   3.505   3.639 -0.1853 -0.0341 -1.0169
 8582SOL    HW137208   0.690   3.451   3.655  1.0078  1.8505 -0.4720
 8582SOL    HW237209   0.618   3.499   3.544  0.5446 -0.2440 -0.9583
 8583SOL     OW37210   0.607   1.253   7.389  0.1019 -0.3736  0.5370
 8583SOL    HW137211   0.616   1.338   7.347 -3.0083  0.3485  1.3187
 8583SOL    HW237212   0.600   1.186   7.320  1.6966  1.5502 -1.5009
 8584SOL     OW37213   2.287   4.098   2.801 -1.0085 -0.4996 -0.3651
 8584SOL    HW137214   2.283   4.146   2.884 -2.8453 -0.6409 -0.3553
 8584SOL    HW237215   2.345   4.153   2.749  0.6682 -1.8628  0.0838
 8585SOL     OW37216   3.745   3.435   8.388  0.1764  0.8745 -0.2698
 8585SOL    HW137217   3.800   3.387   8.326 -1.8242  0.9331 -2.0815
 8585SOL    HW237218   3.736   3.514   8.335  3.2521  1.0724 -0.5112
 8586SOL     OW37219   0.033   4.401   3.628  0.4316  0.5373  0.1417
 8586SOL    HW137220   0.035   4.494   3.607 -0.4445 -0.3637 -4.0640
 8586SOL    HW237221   4.692   4.365   3.567 -0.3745  2.7065 -0.2552
 8587SOL     OW37222   2.744   1.481  13.979 -0.0260 -0.0475  0.0208
 8587SOL    HW137223   2.752   1.447  14.068 -1.2210 -1.7570 -0.5186
 8587SOL    HW237224   2.686   1.553  14.003 -2.1545 -1.5323 -0.5883
 8588SOL     OW37225   3.606   3.543   2.317  0.1899 -0.2544  0.8977
 8588SOL    HW137226   3.521   3.553   2.275  0.5723 -1.4721 -0.1529
 8588SOL    HW237227   3.566   3.503   2.394  1.6537 -2.0110  0.7386
 8589SOL     OW37228   3.021   2.702   0.299 -0.4198  0.6194  0.2957
 8589SOL    HW137229   3.079   2.658   0.361 -1.6273 -0.2617  0.8058
 8589SOL    HW237230   2.942   2.692   0.352 -1.6009 -1.9204 -2.0068
 8590SOL     OW37231   3.450   0.354   8.372 -0.2336 -0.1857 -0.1398
 8590SOL    HW137232   3.490   0.299   8.440  0.0570  0.1538 -0.0376
 8590SOL    HW237233   3.370   0.389   8.411  0.5396 -0.3718  1.5951
 8591SOL     OW37234   1.068   0.752  17.314 -0.3663  0.1733 -0.4763
 8591SOL    HW137235   1.110   0.698  17.380 -1.8499  0.1140  0.4164
 8591SOL    HW237236   1.111   0.732  17.231 -0.1553  0.5941 -0.4719
 8592SOL     OW37237   3.297   2.916   1.087  0.0760  0.4483 -0.0101
 8592SOL    HW137238   3.337   2.831   1.102 -0.1937 -0.1224 -2.6016
 8592SOL    HW237239   3.210   2.905   1.126 -0.0137 -0.6276 -0.5290
 8593SOL     OW37240   3.462   2.269   2.917  0.6401  0.1088 -0.1783
 8593SOL    HW137241   3.398   2.233   2.978 -0.0116 -0.4965 -1.2291
 8593SOL    HW237242   3.419   2.342   2.872  1.0912  0.5457  0.0940
 8594SOL     OW37243   0.104   2.281   6.020  0.2677 -0.2207  0.0675
 8594SOL    HW137244   0.098   2.347   5.951  1.4747 -2.4904 -2.2279
 8594SOL    HW237245   0.137   2.208   5.968 -0.2687 -2.1256  2.4218
 8595SOL     OW37246   0.356   3.714   8.696  0.4203  0.0839  0.0805
 8595SOL    HW137247   0.354   3.692   8.603  0.8350 -0.8135  0.2805
 8595SOL    HW237248   0.444   3.682   8.718  0.1287  0.5502  1.9144
 8596SOL     OW37249   4.079   1.658   0.640 -0.3162 -0.2519  0.1002
 8596SOL    HW137250   4.126   1.620   0.714  2.0325 -1.3196 -1.9596
 8596SOL    HW237251   3.993   1.658   0.682  0.1082 -2.0578  0.9873
 8597SOL     OW37252   2.131   2.504  16.371 -0.0438 -0.2772 -0.7606
 8597SOL    HW137253   2.104   2.588  16.332  0.7265  1.7327  2.9957
 8597SOL    HW237254   2.046   2.481  16.409 -0.3174  0.7685 -0.7309
 8598SOL     OW37255   4.302   4.391   5.986 -0.0325 -0.4526 -0.1359
 8598SOL    HW137256   4.239   4.441   5.934  0.1969 -0.1124 -0.0865
 8598SOL    HW237257   4.246   4.335   6.040  2.0916 -1.1169  1.3620
 8599SOL     OW37258   3.858   3.807  15.685  0.2683  0.4694  1.0540
 8599SOL    HW137259   3.918   3.862  15.635 -0.8527  1.4006  0.7380
 8599SOL    HW237260   3.914   3.773  15.755  0.5666  1.5511  1.3409
 8600SOL     OW37261   3.337   4.514   1.759  0.0761 -0.0629 -0.2510
 8600SOL    HW137262   3.343   4.607   1.734  0.5094  0.3762  1.4703
 8600SOL    HW237263   3.292   4.485   1.680  1.5095  1.0822 -1.4927
 8601SOL     OW37264   3.392   2.550   4.875 -1.1652  0.1154  0.2837
 8601SOL    HW137265   3.374   2.521   4.965  0.7080 -1.7708  0.0408
 8601SOL    HW237266   3.480   2.521   4.850 -0.1587  1.3218  2.4502
 8602SOL     OW37267   2.315   1.053  15.957 -0.3503  0.7128 -0.4287
 8602SOL    HW137268   2.345   1.124  15.900 -3.5859  3.2472  1.0373
 8602SOL    HW237269   2.318   0.974  15.903 -0.0070  1.8494 -2.0668
 8603SOL     OW37270   3.077   4.598   3.279 -0.5271 -0.7669 -0.7684
 8603SOL    HW137271   3.133   4.673   3.259  0.3270 -0.6216  2.1710
 8603SOL    HW237272   3.051   4.572   3.191 -0.3333 -1.4149 -0.6401
 8604SOL     OW37273   1.987   1.316  14.871 -0.0417  0.3143 -0.0674
 8604SOL    HW137274   2.053   1.360  14.925  1.2585 -1.2039 -0.4352
 8604SOL    HW237275   1.918   1.296  14.935 -0.4713  1.6747 -0.1077
 8605SOL     OW37276   3.322   4.041   3.205  0.1362 -0.5965  1.0162
 8605SOL    HW137277   3.302   4.122   3.158  1.0722 -1.2895 -0.5623
 8605SOL    HW237278   3.355   4.078   3.287 -0.5691 -0.6264  1.3144
 8606SOL     OW37279   2.345   3.671   8.492  0.3298  0.2722 -0.4052
 8606SOL    HW137280   2.379   3.587   8.523  0.4820  0.3580 -0.3423
 8606SOL    HW237281   2.296   3.633   8.419  1.3458 -1.7127 -0.0430
 8607SOL     OW37282   4.393   1.959   7.428  0.3131  0.3854 -0.5885
 8607SOL    HW137283   4.336   1.892   7.466  1.0264  1.2232  1.9822
 8607SOL    HW237284   4.327   2.003   7.375  2.5176  3.8415 -0.4123
 8608SOL     OW37285   0.659   1.236   5.185  0.0458  0.3194 -0.1939
 8608SOL    HW137286   0.655   1.152   5.230  0.6873  0.0308 -0.6721
 8608SOL    HW237287   0.747   1.231   5.147  0.0693  0.8453 -0.2087
 8609SOL     OW37288   1.365   2.788   8.262  0.8330  0.8088 -0.5769
 8609SOL    HW137289   1.279   2.830   8.264 -0.7956 -2.5632  2.1161
 8609SOL    HW237290   1.374   2.736   8.182  2.5108 -2.8070  1.9958
 8610SOL     OW37291   0.756   3.217   3.796  0.1889 -0.0207  0.0540
 8610SOL    HW137292   0.800   3.297   3.768  0.5557  0.0268  0.7681
 8610SOL    HW237293   0.672   3.246   3.833 -0.0353  0.3277 -0.7302
 8611SOL     OW37294   2.997   0.569   5.154 -0.4015 -0.3843  0.1172
 8611SOL    HW137295   2.932   0.523   5.100 -1.3791 -0.6490  1.5253
 8611SOL    HW237296   3.053   0.505   5.197 -1.0788 -0.8676  0.2857
 8612SOL     OW37297   1.596   3.467   6.870  0.3892  0.3292 -0.2773
 8612SOL    HW137298   1.589   3.538   6.934  1.2710  0.8356 -0.7279
 8612SOL    HW237299   1.604   3.524   6.793  0.8949 -1.0437 -1.2522
 8613SOL     OW37300   3.560   0.628   5.160 -0.3030 -0.4855 -1.0936
 8613SOL    HW137301   3.469   0.631   5.189  0.6490  0.5365  1.7329
 8613SOL    HW237302   3.574   0.718   5.131 -0.4081  1.0207  3.5466
 8614SOL     OW37303   2.248   4.693  11.849  0.0234 -0.2153  0.2977
 8614SOL    HW137304   2.335   0.008  11.846 -0.1420  0.0752 -0.7133
 8614SOL    HW237305   2.201   0.050  11.833  0.8171 -0.0421 -1.1258
 8615SOL     OW37306   4.573   4.406   6.012 -0.0716 -0.3040 -0.0212
 8615SOL    HW137307   4.486   4.411   5.973 -0.2433 -1.6066  0.1902
 8615SOL    HW237308   4.590   4.498   6.033  1.6117 -0.9502  1.5031
 8616SOL     OW37309   2.460   1.380   5.435  0.6434 -0.0615 -0.6097
 8616SOL    HW137310   2.448   1.463   5.389  0.8765  0.1130 -0.3526
 8616SOL    HW237311   2.454   1.416   5.523  1.0221 -1.8747  0.1654
 8617SOL     OW37312   0.814   3.602  16.959 -0.2414 -0.1633  0.0268
 8617SOL    HW137313   0.774   3.519  16.933  1.7685 -1.1562  0.0400
 8617SOL    HW237314   0.810   3.657  16.881 -0.1069 -0.5341 -0.2435
 8618SOL     OW37315   2.448   3.428   9.632 -0.9546  0.6516  0.4497
 8618SOL    HW137316   2.383   3.381   9.579  0.2031 -0.6621  0.1944
 8618SOL    HW237317   2.530   3.397   9.593 -2.1104 -2.2730  0.3988
 8619SOL     OW37318   2.731   2.972   4.043 -0.1844  0.7291  0.2419
 8619SOL    HW137319   2.774   2.911   4.103  0.4767  0.7786 -0.1925
 8619SOL    HW237320   2.763   3.058   4.070  2.1407 -0.3126  0.7882
 8620SOL     OW37321   4.671   0.300  14.745  0.0604  0.2821  0.0647
 8620SOL    HW137322   0.005   0.369  14.776  2.1302 -1.3477 -0.2158
 8620SOL    HW237323   4.591   0.346  14.770 -0.1441  1.1500 -2.2300
 8621SOL     OW37324   1.581   3.883   5.384  0.0616  0.2382  0.3110
 8621SOL    HW137325   1.563   3.791   5.403 -2.9243  1.6755  4.4710
 8621SOL    HW237326   1.513   3.928   5.433  0.7717  2.3781 -0.6461
 8622SOL     OW37327   0.476   1.881  11.006 -0.2882  0.3314  0.6998
 8622SOL    HW137328   0.520   1.814  11.058 -0.6157  1.4227  2.3904
 8622SOL    HW237329   0.493   1.964  11.050  0.9662  0.0285  0.7755
 8623SOL     OW37330   0.927   2.901   9.486 -0.3022 -0.1167  0.5767
 8623SOL    HW137331   1.011   2.923   9.447 -1.2894 -2.0077 -2.6221
 8623SOL    HW237332   0.911   2.808   9.472 -0.6028  0.0508 -0.1693
 8624SOL     OW37333   2.394   1.205   6.810  0.3539  0.5222 -0.2153
 8624SOL    HW137334   2.376   1.123   6.763  1.4389 -0.1278  0.5164
 8624SOL    HW237335   2.355   1.177   6.894 -2.2955  2.7413 -0.6921
 8625SOL     OW37336   2.720   3.193   7.660  0.5653  0.1612  0.2820
 8625SOL    HW137337   2.778   3.157   7.593  2.5169  2.3871  0.7783
 8625SOL    HW237338   2.790   3.229   7.715 -2.6983  3.5980  2.1639
 8626SOL     OW37339   2.526   2.192   4.050  0.2029  0.3632 -0.4142
 8626SOL    HW137340   2.615   2.199   4.015 -0.0373  0.3422 -1.0422
 8626SOL    HW237341   2.462   2.209   3.980  1.4859  0.3995 -1.5799
 8627SOL     OW37342   3.109   0.900   1.109  0.0458  0.3402 -0.1299
 8627SOL    HW137343   3.152   0.979   1.077 -1.2018  0.5694 -1.2492
 8627SOL    HW237344   3.143   0.833   1.049 -0.0377  1.0875 -1.0093
 8628SOL     OW37345   3.781   3.819   9.260 -0.2022  0.1727 -0.3013
 8628SOL    HW137346   3.849   3.884   9.277 -0.1857  0.0928 -0.0575
 8628SOL    HW237347   3.786   3.771   9.342  0.6854  0.9587  0.0993
 8629SOL     OW37348   3.055   4.456   7.101  0.4575  0.6853 -0.5344
 8629SOL    HW137349   3.077   4.389   7.165 -0.3740 -0.4624 -1.4344
 8629SOL    HW237350   3.028   4.397   7.030 -0.5877  0.2930  0.1974
 8630SOL     OW37351   0.168   4.207  11.062 -0.1065 -0.1705 -0.1488
 8630SOL    HW137352   0.207   4.234  11.145 -0.1411  1.8020 -0.7881
 8630SOL    HW237353   0.098   4.146  11.084  0.3626  0.1234  2.1729
 8631SOL     OW37354   4.517   4.479   2.435 -0.3506 -0.2740 -0.0004
 8631SOL    HW137355   4.563   4.526   2.366  0.1217 -0.3235  0.2830
 8631SOL    HW237356   4.587   4.461   2.497 -1.0995 -1.2463  0.5718
 8632SOL     OW37357   4.693   4.328   5.485 -0.1141  0.0530 -0.1589
 8632SOL    HW137358   4.723   4.268   5.416 -2.4288 -2.2094  0.8023
 8632SOL    HW237359   4.635   4.271   5.535 -0.8233 -0.4375 -1.5436
 8633SOL     OW37360   3.570   1.600   1.500  0.3325 -0.0585  0.1490
 8633SOL    HW137361   3.585   1.526   1.559  1.6565  1.1951  1.3958
 8633SOL    HW237362   3.658   1.637   1.489  0.0274  0.6392  0.0825
 8634SOL     OW37363   0.225   0.301   8.561  0.4347 -0.5648  0.0956
 8634SOL    HW137364   0.199   0.301   8.654 -0.8375 -1.3945 -0.2616
 8634SOL    HW237365   0.138   0.305   8.523  1.0254 -0.6587 -1.2487
 8635SOL     OW37366   1.236   4.328   7.122 -0.8155  0.3153  0.0241
 8635SOL    HW137367   1.302   4.395   7.138 -2.5637  2.0718 -0.0976
 8635SOL    HW237368   1.286   4.264   7.072 -0.3772 -0.3265  1.2611
 8636SOL     OW37369   0.111   3.502   6.446  0.0872 -0.2265 -0.5274
 8636SOL    HW137370   0.046   3.519   6.378 -1.6404 -2.5403  0.5142
 8636SOL    HW237371   0.162   3.580   6.425 -1.8075  1.3507  0.7361
 8637SOL     OW37372   4.162   3.534   2.332  0.8050  0.0153  0.2666
 8637SOL    HW137373   4.231   3.471   2.309  0.5483 -1.4921  3.6221
 8637SOL    HW237374   4.116   3.525   2.249 -1.1918  1.4655  1.1972
 8638SOL     OW37375   1.825   0.190   6.471 -1.0347  0.0155  0.5759
 8638SOL    HW137376   1.786   0.225   6.551 -3.5388 -0.1882 -0.5578
 8638SOL    HW237377   1.872   0.117   6.511 -0.6039 -1.0627 -1.8572
 8639SOL     OW37378   0.475   4.020  13.167  0.5007  0.2094 -0.5140
 8639SOL    HW137379   0.441   3.932  13.150  4.4923 -1.1490 -1.5686
 8639SOL    HW237380   0.398   4.076  13.155  0.0226 -0.7848 -2.2045
 8640SOL     OW37381   2.631   2.025   9.031 -0.2091  0.0865  0.0339
 8640SOL    HW137382   2.620   2.117   9.007 -2.2844 -0.2221 -0.2058
 8640SOL    HW237383   2.568   2.020   9.103  0.0757 -1.4695  0.1637
 8641SOL     OW37384   4.020   4.044  10.770 -0.0357 -0.0306 -0.4205
 8641SOL    HW137385   4.002   3.994  10.850  1.1993 -0.8811 -0.6692
 8641SOL    HW237386   3.940   4.094  10.758  0.5711  1.4548  1.7120
 8642SOL     OW37387   0.061   0.667   3.188  0.0733 -0.6245 -0.0798
 8642SOL    HW137388   4.714   0.653   3.250  0.0419  0.5628  0.1532
 8642SOL    HW237389   0.127   0.714   3.239  0.3501  0.9061 -1.8274
 8643SOL     OW37390   1.560   2.103  16.697 -0.3853 -0.2666  0.1244
 8643SOL    HW137391   1.495   2.143  16.755  1.2310  1.5112  0.6974
 8643SOL    HW237392   1.612   2.181  16.676 -0.3305 -0.1834  0.5745
 8644SOL     OW37393   2.172   0.583   6.804 -0.2887  0.0146  0.5035
 8644SOL    HW137394   2.160   0.488   6.793  0.2962 -0.1427  1.1787
 8644SOL    HW237395   2.127   0.619   6.729  2.9499  2.5929 -0.1940
 8645SOL     OW37396   3.225   0.131   3.249  0.0112  0.0471  0.1204
 8645SOL    HW137397   3.283   0.056   3.247 -0.8706 -0.6617  0.8392
 8645SOL    HW237398   3.215   0.161   3.340  0.5207 -0.1625  0.2424
 8646SOL     OW37399   0.563   3.029   1.892 -0.3466 -0.1379 -0.0765
 8646SOL    HW137400   0.656   3.010   1.905  0.5176  3.4695 -0.8961
 8646SOL    HW237401   0.558   3.057   1.801  1.6715  0.8827  0.1320
 8647SOL     OW37402   1.067   3.171  11.508 -0.5732  0.3323 -0.4204
 8647SOL    HW137403   1.058   3.266  11.505 -2.5113  0.2741  2.4007
 8647SOL    HW237404   1.119   3.153  11.430  0.0275  0.2664 -0.0089
 8648SOL     OW37405   4.723   2.856   8.252 -0.4858 -0.1338  0.7000
 8648SOL    HW137406   0.070   2.793   8.253  0.7574  1.2761  0.3407
 8648SOL    HW237407   4.715   2.870   8.158 -1.8447 -3.6274  0.2797
 8649SOL     OW37408   1.628   3.603   7.695  0.1538  0.1828  0.1301
 8649SOL    HW137409   1.678   3.662   7.750  0.0521 -1.5588  2.0966
 8649SOL    HW237410   1.636   3.525   7.750  0.3100  1.4274  1.8465
 8650SOL     OW37411   0.764   2.264   5.268 -0.1648  0.2136  0.5321
 8650SOL    HW137412   0.688   2.227   5.222  0.9513 -1.8006  0.2958
 8650SOL    HW237413   0.767   2.359   5.256 -1.9113  0.1592 -0.3407
 8651SOL     OW37414   3.505   3.813  15.674 -0.3409 -0.0096 -0.8775
 8651SOL    HW137415   3.488   3.896  15.719  1.3008  0.9590 -2.0161
 8651SOL    HW237416   3.599   3.834  15.667 -0.9200  2.1709 -2.0172
 8652SOL     OW37417   2.777   3.671   2.576 -0.0816 -0.3117  0.4333
 8652SOL    HW137418   2.722   3.645   2.502 -0.1292 -0.9729  0.7087
 8652SOL    HW237419   2.742   3.758   2.595 -0.3129 -0.3513  0.1827
 8653SOL     OW37420   2.296   3.783  11.639 -0.3653 -0.0035 -0.1333
 8653SOL    HW137421   2.216   3.819  11.601 -1.2480 -0.6158  1.1222
 8653SOL    HW237422   2.356   3.801  11.567  1.7472 -0.2581  1.5762
 8654SOL     OW37423   1.066   0.282   5.170  0.6884  0.0814  0.2882
 8654SOL    HW137424   0.994   0.341   5.193  0.5189 -0.6123  1.5723
 8654SOL    HW237425   1.113   0.256   5.250  2.8211 -1.1806 -1.3635
 8655SOL     OW37426   0.574   0.028   7.981 -0.6645  0.7492  0.0679
 8655SOL    HW137427   0.633   0.046   7.908 -1.6023 -0.6856 -1.0623
 8655SOL    HW237428   0.498   0.079   7.951  0.2167  0.8706 -1.9638
 8656SOL     OW37429   4.047   0.323   8.274 -0.0026 -0.3221  0.2790
 8656SOL    HW137430   4.020   0.369   8.352  0.6821  0.9575 -0.2362
 8656SOL    HW237431   3.982   0.349   8.209  0.2679  0.8991  0.5052
 8657SOL     OW37432   2.207   3.474   2.793 -0.4792  0.3383  0.4999
 8657SOL    HW137433   2.290   3.465   2.745 -1.3621  0.3348 -1.0024
 8657SOL    HW237434   2.144   3.460   2.723 -0.2463  0.8925  0.1793
 8658SOL     OW37435   4.703   2.352   1.301 -0.2669  0.4240  0.3508
 8658SOL    HW137436   0.005   2.436   1.264 -1.4125  0.8678  0.5328
 8658SOL    HW237437   4.654   2.370   1.381 -0.7204 -0.3687  0.2561
 8659SOL     OW37438   4.574   3.890   5.701 -0.5949  0.6168  0.2141
 8659SOL    HW137439   4.520   3.823   5.660 -1.6799 -0.7593  3.8492
 8659SOL    HW237440   4.537   3.884   5.789 -0.3860  3.6961  0.4945
 8660SOL     OW37441   4.705   0.266   6.504  0.0165 -0.1001 -0.4196
 8660SOL    HW137442   0.034   0.261   6.583 -1.3812  2.2975  0.6757
 8660SOL    HW237443   4.720   0.357   6.482  0.7519 -0.7333 -2.4612
 8661SOL     OW37444   2.294   1.392   0.978 -0.0606  0.2795  0.2403
 8661SOL    HW137445   2.255   1.468   0.935 -0.0937  0.1718  0.0798
 8661SOL    HW237446   2.257   1.414   1.063  0.3110 -1.0584  0.7482
 8662SOL     OW37447   1.691   4.211  12.059 -0.3160  0.2865  0.0804
 8662SOL    HW137448   1.675   4.173  12.146  2.4960 -1.0525  0.0174
 8662SOL    HW237449   1.785   4.226  12.062 -0.4550  1.1419 -0.0376
 8663SOL     OW37450   4.508   3.848   6.208  0.4551  0.3483  0.4173
 8663SOL    HW137451   4.588   3.895   6.229  0.3500 -0.0851  1.7639
 8663SOL    HW237452   4.496   3.810   6.295  0.7543  1.1874  0.8247
 8664SOL     OW37453   0.514   3.542   8.501 -0.4882 -0.3275  0.6235
 8664SOL    HW137454   0.439   3.491   8.470 -1.2115  1.0027  0.1745
 8664SOL    HW237455   0.503   3.625   8.455  1.5198 -1.4881 -1.9652
 8665SOL     OW37456   1.497   2.852   3.630  0.8819 -0.1623  0.8114
 8665SOL    HW137457   1.436   2.910   3.585  0.4933  0.2815  1.8980
 8665SOL    HW237458   1.438   2.784   3.662 -0.4831 -0.2382 -1.9372
 8666SOL     OW37459   1.373   0.239  13.357 -0.0115  0.3107  0.2029
 8666SOL    HW137460   1.364   0.155  13.403  1.1123 -0.9185 -1.7821
 8666SOL    HW237461   1.442   0.282  13.407  0.3578 -1.4317  1.1885
 8667SOL     OW37462   1.523   2.050   5.303 -0.2680 -0.2373  0.1300
 8667SOL    HW137463   1.560   2.088   5.223 -2.1629 -0.8911 -1.0339
 8667SOL    HW237464   1.492   2.121   5.360  0.1078 -1.1837  1.5256
 8668SOL     OW37465   2.340   2.715   2.881 -0.3049  0.3487 -0.0935
 8668SOL    HW137466   2.333   2.620   2.873 -0.1796  0.4189 -1.0314
 8668SOL    HW237467   2.307   2.720   2.971 -0.6121  2.5607 -0.3203
 8669SOL     OW37468   1.983   2.563   7.302  0.3900 -0.9868 -0.0393
 8669SOL    HW137469   1.976   2.572   7.207  1.7205  2.3701  0.1587
 8669SOL    HW237470   2.050   2.496   7.314  1.1528  0.6802  5.1372
 8670SOL     OW37471   1.272   1.044   7.834 -0.3897 -0.1066 -0.1215
 8670SOL    HW137472   1.280   1.094   7.753 -0.8914 -1.8971 -1.2737
 8670SOL    HW237473   1.193   1.087   7.865 -0.4818 -0.6231  0.3631
 8671SOL     OW37474   3.412   1.149   5.278  0.1915  0.2401 -0.4613
 8671SOL    HW137475   3.348   1.172   5.210 -0.3967  0.4221  0.1506
 8671SOL    HW237476   3.489   1.142   5.221 -0.9813 -0.8768 -1.9045
 8672SOL     OW37477   1.193   2.698   5.474 -0.5858 -0.1428 -0.1447
 8672SOL    HW137478   1.126   2.756   5.511 -1.0348  0.7259 -2.2868
 8672SOL    HW237479   1.132   2.628   5.451  1.4709 -2.2766  0.9443
 8673SOL     OW37480   1.657   2.242   7.799  0.2149  0.4995  0.0558
 8673SOL    HW137481   1.593   2.205   7.739  0.0374  0.4044  0.3065
 8673SOL    HW237482   1.694   2.311   7.744  0.5510 -0.3784 -0.8037
 8674SOL     OW37483   4.384   0.956  10.071 -0.2280 -0.7920  0.4862
 8674SOL    HW137484   4.418   1.045  10.059  0.3140 -0.9529  0.8306
 8674SOL    HW237485   4.462   0.904  10.053 -0.5090 -1.2003  0.4506
 8675SOL     OW37486   2.681   1.417  13.718  0.8656  0.8840 -0.2956
 8675SOL    HW137487   2.689   1.461  13.803  1.9157 -0.7483  0.4365
 8675SOL    HW237488   2.597   1.375  13.738  0.7329  0.2294 -2.2561
 8676SOL     OW37489   3.539   1.995  14.937  0.3193 -0.1701  0.1922
 8676SOL    HW137490   3.609   2.037  14.986  0.5912 -0.7058  0.2542
 8676SOL    HW237491   3.559   2.031  14.851  1.3694  0.6576  0.7844
 8677SOL     OW37492   1.922   4.427   3.660  0.2473 -0.0119  0.1618
 8677SOL    HW137493   1.872   4.467   3.589 -0.5605  1.1009  1.3496
 8677SOL    HW237494   1.954   4.506   3.703  0.9619 -0.5188  0.5642
 8678SOL     OW37495   0.423   2.422   2.883  0.5129  0.1616 -0.1480
 8678SOL    HW137496   0.378   2.491   2.834 -1.1051 -1.4370 -0.9154
 8678SOL    HW237497   0.508   2.415   2.839  1.2016 -0.9839  1.3633
 8679SOL     OW37498   0.581   1.562   4.392 -0.0255  0.4165 -0.2211
 8679SOL    HW137499   0.534   1.525   4.317 -0.4484 -1.3474  0.9163
 8679SOL    HW237500   0.568   1.496   4.460  0.1052 -1.0573 -1.6459
 8680SOL     OW37501   4.465   3.541   8.752  0.0973  0.2787 -0.2799
 8680SOL    HW137502   4.452   3.492   8.671 -2.2407  1.8667 -0.8728
 8680SOL    HW237503   4.382   3.535   8.799 -1.1841 -0.5955 -2.6714
 8681SOL     OW37504   1.313   4.260   1.313  0.4728  0.5955  0.1765
 8681SOL    HW137505   1.290   4.183   1.262 -1.7372 -0.4389  2.7703
 8681SOL    HW237506   1.339   4.217   1.395 -1.1342 -0.5030  0.0977
 8682SOL     OW37507   1.178   1.042  17.396  0.4434  0.2954 -0.1980
 8682SOL    HW137508   1.203   1.077  17.311  1.6352  0.8607  0.3754
 8682SOL    HW237509   1.150   0.953  17.373 -0.5410  0.3421  0.8302
 8683SOL     OW37510   4.167   3.367   3.453 -0.2828  0.6980 -0.1845
 8683SOL    HW137511   4.129   3.388   3.368 -1.1790  0.0519  0.0572
 8683SOL    HW237512   4.259   3.352   3.429  0.1144  1.3680  0.9161
 8684SOL     OW37513   1.085   1.527   4.407  0.8482  0.0940 -0.3674
 8684SOL    HW137514   1.102   1.435   4.388 -0.8298 -0.8726  2.6736
 8684SOL    HW237515   0.990   1.526   4.423  0.9567  0.5872  0.2993
 8685SOL     OW37516   3.216   2.338  11.477  0.2367 -0.0804 -0.0757
 8685SOL    HW137517   3.250   2.402  11.414  1.3808 -0.5935  0.0131
 8685SOL    HW237518   3.284   2.272  11.468 -0.2313 -0.6166  0.3103
 8686SOL     OW37519   2.978   4.406   4.014 -0.2943  0.2328  0.0696
 8686SOL    HW137520   2.959   4.499   4.023 -1.7369 -0.0613  0.1795
 8686SOL    HW237521   3.070   4.399   4.038 -0.0996  1.7060 -0.2656
 8687SOL     OW37522   3.794   2.641  16.369 -0.2806 -0.2844  0.0019
 8687SOL    HW137523   3.776   2.549  16.385  2.2535 -1.3634 -3.5200
 8687SOL    HW237524   3.883   2.636  16.334  0.5321  2.1208  1.7161
 8688SOL     OW37525   1.705   3.389   1.884 -0.2408  0.7126  0.4311
 8688SOL    HW137526   1.655   3.373   1.804  0.2685  0.4669  0.1592
 8688SOL    HW237527   1.718   3.299   1.914  0.9877  0.4620 -0.8256
 8689SOL     OW37528   0.505   0.120   4.991 -0.2968 -0.4292  0.3000
 8689SOL    HW137529   0.566   0.140   4.920  0.6777 -0.9658  0.9906
 8689SOL    HW237530   0.523   0.027   5.001 -0.8725 -0.5871 -0.0812
 8690SOL     OW37531   4.641   1.048   6.412  0.3062  0.3037  0.3516
 8690SOL    HW137532   4.683   0.986   6.471  1.7276  0.6722 -0.2943
 8690SOL    HW237533   4.549   1.025   6.426  0.2567  0.8660  0.9255
 8691SOL     OW37534   0.820   2.470  13.645  0.5625 -0.2150 -0.4633
 8691SOL    HW137535   0.754   2.511  13.700  1.6350  0.4679  0.3098
 8691SOL    HW237536   0.776   2.451  13.562  2.9861  4.3476 -2.7696
 8692SOL     OW37537   2.175   3.718   2.586  0.1400  0.1427 -0.9054
 8692SOL    HW137538   2.133   3.632   2.579  0.7425 -0.0607 -2.0900
 8692SOL    HW237539   2.100   3.776   2.589  0.5263  0.5053  1.1482
 8693SOL     OW37540   0.690   4.201  16.879 -0.1849  0.3660 -0.3331
 8693SOL    HW137541   0.626   4.272  16.886  1.3255  1.7522 -0.6843
 8693SOL    HW237542   0.768   4.254  16.862 -1.0922  1.5846 -0.7290
 8694SOL     OW37543   2.773   0.299  17.116 -0.3077  0.7592 -0.7070
 8694SOL    HW137544   2.745   0.313  17.207 -1.8646 -0.4073 -0.9933
 8694SOL    HW237545   2.699   0.253  17.074  0.5659  1.0265 -2.5346
 8695SOL     OW37546   1.853   3.486   0.269  0.6468  0.2209  0.5837
 8695SOL    HW137547   1.899   3.566   0.243 -0.8446  0.5293 -1.0727
 8695SOL    HW237548   1.812   3.506   0.354 -0.0262 -2.4097  0.8708
 8696SOL     OW37549   3.257   2.311   9.467  0.4181 -0.5703 -0.5416
 8696SOL    HW137550   3.329   2.326   9.528 -0.1137 -0.4876  0.0612
 8696SOL    HW237551   3.298   2.294   9.382  0.7100 -1.0155 -0.3114
 8697SOL     OW37552   2.051   2.832   5.674 -0.2142  0.4507  0.1186
 8697SOL    HW137553   2.061   2.771   5.601  2.3703  0.8252  0.1528
 8697SOL    HW237554   2.001   2.781   5.738  1.3753 -3.6073 -1.8815
 8698SOL     OW37555   4.400   4.721   5.516 -0.1017  0.1009  0.0186
 8698SOL    HW137556   4.383   4.702   5.424 -0.3502  0.4725 -0.0121
 8698SOL    HW237557   4.361   4.640   5.548  0.4352 -0.3697 -0.5368
 8699SOL     OW37558   3.585   2.035   8.336 -0.4222  0.8329 -0.1941
 8699SOL    HW137559   3.628   1.992   8.411 -3.6272 -0.8015  0.6924
 8699SOL    HW237560   3.500   1.992   8.340 -0.0460 -0.0441 -1.8347
 8700SOL     OW37561   1.261   0.070   7.189 -0.1346  0.2660 -0.3733
 8700SOL    HW137562   1.308   0.151   7.166 -1.1236  0.8426 -0.3723
 8700SOL    HW237563   1.261   0.088   7.283  2.6347  3.0222 -0.9050
 8701SOL     OW37564   4.476   2.094   3.212  1.0187 -0.6157 -0.6515
 8701SOL    HW137565   4.453   2.118   3.122 -0.2132  2.7824  0.5421
 8701SOL    HW237566   4.404   2.129   3.264  0.2005 -2.4269 -0.5789
 8702SOL     OW37567   0.710   4.409  17.239  0.4265  0.0528 -0.1979
 8702SOL    HW137568   0.642   4.343  17.252 -1.3810  1.9519 -0.0171
 8702SOL    HW237569   0.690   4.426  17.147  0.3465  2.4408  0.2475
 8703SOL     OW37570   2.468   0.422   4.048  0.0497  0.2645  1.1264
 8703SOL    HW137571   2.394   0.473   4.082 -0.0124  0.8107  0.1651
 8703SOL    HW237572   2.494   0.489   3.986 -1.3439 -0.1761  0.0612
 8704SOL     OW37573   2.527   1.092   3.699 -0.0337  1.0977  0.5680
 8704SOL    HW137574   2.597   1.106   3.762 -0.7628  0.4325  1.5227
 8704SOL    HW237575   2.478   1.021   3.740  0.7860  0.3704  0.2755
 8705SOL     OW37576   2.965   3.278   7.454 -0.0253  0.0033 -0.3952
 8705SOL    HW137577   2.959   3.224   7.533 -0.0489  1.4304  0.5871
 8705SOL    HW237578   3.054   3.307   7.472 -0.6300  1.7046 -0.1311
 8706SOL     OW37579   2.894   0.966  13.809  0.2895  0.1515  0.3205
 8706SOL    HW137580   2.901   1.054  13.844 -1.9567 -0.1016  1.3552
 8706SOL    HW237581   2.838   0.985  13.734 -0.1347  1.6918  1.0313
 8707SOL     OW37582   1.012   4.676  16.026 -0.2908  0.0023 -0.1506
 8707SOL    HW137583   1.051   4.686  16.113  0.4549  0.7338 -0.5792
 8707SOL    HW237584   1.021   0.037  15.985  0.6478 -0.7803 -1.6014
 8708SOL     OW37585   4.722   0.298   2.152 -0.1000 -0.3280 -0.9234
 8708SOL    HW137586   4.628   0.299   2.132  0.3796  1.4655 -3.0311
 8708SOL    HW237587   0.015   0.368   2.215 -1.6555  1.1878 -2.1759
 8709SOL     OW37588   3.398   2.951   8.360 -0.2913  0.2212  0.6171
 8709SOL    HW137589   3.327   2.890   8.382 -0.5917  0.0044 -0.9510
 8709SOL    HW237590   3.439   2.959   8.446  1.9859 -0.2685 -0.4334
 8710SOL     OW37591   0.801   2.895  16.955 -0.3176 -0.1771 -0.4103
 8710SOL    HW137592   0.761   2.950  17.022 -0.5113 -1.3780  0.4673
 8710SOL    HW237593   0.767   2.812  16.988 -0.0496  0.3320  1.1295
 8711SOL     OW37594   4.116   0.792   6.388 -0.0866  0.7156 -0.0221
 8711SOL    HW137595   4.190   0.733   6.375 -0.3888  0.5197 -0.8234
 8711SOL    HW237596   4.043   0.733   6.409  0.5605  0.3065  1.0869
 8712SOL     OW37597   2.110   2.127  17.396  0.5901 -0.6853  0.5914
 8712SOL    HW137598   2.068   2.043  17.380 -1.0005  0.5745 -1.8293
 8712SOL    HW237599   2.067   2.184  17.332  0.8824  0.2131  1.1891
 8713SOL     OW37600   4.690   0.594  12.704  0.0245  0.3193  0.2917
 8713SOL    HW137601   0.034   0.661  12.707 -0.2609  0.5546  1.4543
 8713SOL    HW237602   4.609   0.638  12.679  1.0440  1.8784 -0.2820
 8714SOL     OW37603   0.559   1.606   4.770  0.2292 -0.3454  0.5649
 8714SOL    HW137604   0.534   1.539   4.834 -0.4444  0.7952  1.4952
 8714SOL    HW237605   0.499   1.675   4.797 -0.8244 -0.3833 -1.6556
 8715SOL     OW37606   2.459   1.595   7.587  0.5584  0.6506  0.1456
 8715SOL    HW137607   2.418   1.667   7.635  1.3611  1.3913 -0.2872
 8715SOL    HW237608   2.383   1.538   7.577  0.2666  1.1356 -0.3846
 8716SOL     OW37609   1.214   3.623   5.414  0.1650 -0.0580  0.3721
 8716SOL    HW137610   1.227   3.670   5.332 -0.3552 -1.0568 -0.2864
 8716SOL    HW237611   1.301   3.633   5.453 -0.0685  1.9863  0.3573
 8717SOL     OW37612   4.694   3.414   3.333 -0.3572  0.7282  0.0970
 8717SOL    HW137613   0.016   3.432   3.251 -1.9483  1.7336 -0.5863
 8717SOL    HW237614   4.709   3.320   3.346  0.3975  0.7743 -0.4128
 8718SOL     OW37615   0.180   1.416   8.339 -0.8677 -0.5264 -0.0110
 8718SOL    HW137616   0.219   1.400   8.253 -0.1153  0.7983  0.0944
 8718SOL    HW237617   0.089   1.390   8.326 -0.3178 -1.4044 -2.1008
 8719SOL     OW37618   1.914   3.357  14.617 -0.8412 -0.4002 -0.2807
 8719SOL    HW137619   1.876   3.355  14.529  0.5323  0.1761 -0.8795
 8719SOL    HW237620   1.893   3.269  14.649  2.2452 -1.3671 -0.9025
 8720SOL     OW37621   1.328   4.172   4.622 -0.2757  0.1458  0.0855
 8720SOL    HW137622   1.269   4.247   4.612  0.1911  0.6677  1.2472
 8720SOL    HW237623   1.277   4.101   4.583  1.3778  0.3416 -2.4613
 8721SOL     OW37624   1.463   1.983   0.536  0.1504  0.1972 -0.4818
 8721SOL    HW137625   1.413   1.927   0.595 -1.2535 -0.4156 -2.2734
 8721SOL    HW237626   1.402   2.056   0.526  0.1349  0.3316  0.5528
 8722SOL     OW37627   1.648   4.566   4.636 -0.2951 -0.1487 -0.7314
 8722SOL    HW137628   1.725   4.529   4.678 -0.0213  0.1410 -0.9848
 8722SOL    HW237629   1.645   4.645   4.690 -0.3057 -1.0870  0.6457
 8723SOL     OW37630   2.763   2.895   4.767  0.4478  0.8047 -0.1324
 8723SOL    HW137631   2.823   2.840   4.818  0.2023  0.0687 -0.6427
 8723SOL    HW237632   2.710   2.832   4.718  1.3545 -0.7399  0.8791
 8724SOL     OW37633   1.186   3.960  13.653  0.1765 -0.2289 -0.0429
 8724SOL    HW137634   1.126   4.023  13.694 -0.5244 -0.8459 -0.1305
 8724SOL    HW237635   1.230   4.015  13.588 -1.2740  0.0650 -0.7600
 8725SOL     OW37636   0.566   2.235   3.402 -0.0809  0.5572  0.1351
 8725SOL    HW137637   0.525   2.294   3.466  1.1842  0.1030  1.3578
 8725SOL    HW237638   0.631   2.293   3.362 -1.0572  0.0919 -2.1666
 8726SOL     OW37639   0.130   3.007   6.384  0.4039 -0.2048  0.2185
 8726SOL    HW137640   0.181   2.983   6.461 -1.1971  2.0059  1.9515
 8726SOL    HW237641   0.067   3.069   6.418  0.8073 -0.9328  2.2805
 8727SOL     OW37642   4.181   2.673  10.176 -0.3134 -0.2181  0.6083
 8727SOL    HW137643   4.246   2.613  10.213  0.1027 -0.1587 -0.0301
 8727SOL    HW237644   4.149   2.616  10.106 -0.0141 -0.8127  0.9452
 8728SOL     OW37645   3.537   0.459   6.734 -0.9343 -0.2421 -0.3677
 8728SOL    HW137646   3.455   0.431   6.775 -0.7144  0.8452  0.8237
 8728SOL    HW237647   3.598   0.386   6.740 -0.0037  0.2957 -3.3074
 8729SOL     OW37648   4.189   0.080   7.797  0.1540 -0.2692 -0.5409
 8729SOL    HW137649   4.172   0.015   7.865  1.3168 -0.9284 -0.8870
 8729SOL    HW237650   4.100   0.115   7.785 -0.0758 -0.0220  1.9226
 8730SOL     OW37651   1.476   3.579  15.954 -0.3011  0.5881  0.2295
 8730SOL    HW137652   1.538   3.614  15.891  0.0174 -0.8965 -0.2669
 8730SOL    HW237653   1.489   3.631  16.034  0.1271  0.5841  0.1633
 8731SOL     OW37654   2.554   1.595   7.926 -0.0241 -0.2209  0.6199
 8731SOL    HW137655   2.522   1.682   7.949 -0.6350  0.0029 -1.0614
 8731SOL    HW237656   2.619   1.632   7.866  1.8274 -2.3128  1.3280
 8732SOL     OW37657   3.656   2.220  10.400 -0.1255 -0.0844  0.1586
 8732SOL    HW137658   3.680   2.308  10.429 -1.1278 -0.2120  1.3836
 8732SOL    HW237659   3.729   2.202  10.341 -0.6612 -2.2877  0.1741
 8733SOL     OW37660   2.230   4.000   4.180  1.0152 -0.7647  0.0901
 8733SOL    HW137661   2.294   4.018   4.111 -0.0051  1.6871 -0.1995
 8733SOL    HW237662   2.193   3.917   4.151  1.4386 -1.5294  1.7074
 8734SOL     OW37663   0.706   3.858  10.430 -0.4518 -0.0435  0.6917
 8734SOL    HW137664   0.740   3.824  10.347  0.7268  1.4526  0.5716
 8734SOL    HW237665   0.627   3.906  10.407  1.0948  1.4915 -1.3767
 8735SOL     OW37666   3.050   2.365  12.255  0.4826 -0.1495  0.3934
 8735SOL    HW137667   3.125   2.373  12.196  0.2699  0.4471  0.2057
 8735SOL    HW237668   3.014   2.453  12.254 -0.1992 -0.4619 -1.4282
 8736SOL     OW37669   3.440   1.287   5.900 -0.2795 -0.0803  0.6637
 8736SOL    HW137670   3.497   1.266   5.825 -1.3614 -1.8328  0.3289
 8736SOL    HW237671   3.499   1.303   5.974  1.8985 -0.6983 -0.9351
 8737SOL     OW37672   4.096   0.060   9.411  0.5087  0.0218  0.5630
 8737SOL    HW137673   4.018   0.039   9.359  1.6891 -0.7719 -0.9236
 8737SOL    HW237674   4.114   4.703   9.458 -1.1754 -1.8488 -1.9853
 8738SOL     OW37675   0.530   4.509   3.853  0.1349  0.6313 -0.9025
 8738SOL    HW137676   0.546   4.569   3.925 -0.5341  1.1771 -1.2043
 8738SOL    HW237677   0.557   4.550   3.771 -0.5748 -0.5151 -1.7148
 8739SOL     OW37678   3.942   0.960  10.719  0.1384  0.0801 -0.0770
 8739SOL    HW137679   3.866   0.907  10.744  1.8436 -1.9166  0.8271
 8739SOL    HW237680   3.903   0.981  10.634 -1.0852  0.1750  0.5066
 8740SOL     OW37681   1.982   2.749   0.352 -0.4155 -0.7449 -0.0089
 8740SOL    HW137682   1.989   2.690   0.276 -0.0613  0.8871 -1.2632
 8740SOL    HW237683   1.959   2.829   0.303 -2.0163 -0.9793  0.3928
 8741SOL     OW37684   2.842   1.068   4.436  0.1773 -0.1594 -0.1034
 8741SOL    HW137685   2.888   1.087   4.354  0.0749  0.1215 -0.0959
 8741SOL    HW237686   2.806   0.980   4.422 -0.9929  0.2402  0.3997
 8742SOL     OW37687   4.240   0.178   7.485 -0.1302  0.0544  0.1058
 8742SOL    HW137688   4.240   0.110   7.552 -0.6663  1.0775  1.1430
 8742SOL    HW237689   4.326   0.209   7.514  0.0367 -0.5887  0.2939
 8743SOL     OW37690   2.512   0.389   8.372 -0.6527 -0.3950  0.3294
 8743SOL    HW137691   2.526   0.350   8.286 -2.2997  0.3001 -0.2435
 8743SOL    HW237692   2.447   0.457   8.359 -0.5653  0.0473  2.1653
 8744SOL     OW37693   4.063   3.513   2.071 -0.1211  0.2420 -0.1947
 8744SOL    HW137694   4.000   3.474   2.010 -2.3577  0.3801  1.9899
 8744SOL    HW237695   4.139   3.519   2.014  0.4248  0.1256  0.5215
 8745SOL     OW37696   3.914   3.234   9.460  0.8578 -0.4694  0.4409
 8745SOL    HW137697   3.940   3.289   9.534  0.5307 -0.5805  0.6344
 8745SOL    HW237698   3.836   3.271   9.419 -0.2109 -2.6847  0.4799
 8746SOL     OW37699   4.202   2.687   5.064 -0.0805  0.3018 -0.4480
 8746SOL    HW137700   4.166   2.644   5.142  2.3879 -2.8273 -1.0244
 8746SOL    HW237701   4.211   2.777   5.095  2.1318  0.5699 -1.8093
 8747SOL     OW37702   0.642   0.932   4.969 -0.2536 -0.0525 -0.1935
 8747SOL    HW137703   0.691   1.007   4.936 -0.1561  1.2609  2.8832
 8747SOL    HW237704   0.705   0.869   4.935  1.6081  1.1365  1.0706
 8748SOL     OW37705   3.608   4.064   9.033  0.4669  0.2851 -0.6290
 8748SOL    HW137706   3.660   4.144   9.027  0.8025 -0.0439 -2.0434
 8748SOL    HW237707   3.534   4.083   8.976 -0.0005  1.1509  0.2738
 8749SOL     OW37708   2.120   2.679  14.573  0.4015  0.5654 -0.4026
 8749SOL    HW137709   2.206   2.719  14.562  1.4777 -1.3016  1.2365
 8749SOL    HW237710   2.061   2.752  14.589  1.1775  1.0154  0.3985
 8750SOL     OW37711   1.477   4.043  16.980  0.2882  0.2152  0.5088
 8750SOL    HW137712   1.528   4.026  16.901 -1.0140  1.4919 -0.6016
 8750SOL    HW237713   1.430   4.124  16.960  1.2595  0.7879  0.5070
 8751SOL     OW37714   0.926   1.960   7.503  0.1691  0.3891  0.0717
 8751SOL    HW137715   0.967   2.041   7.534  1.9746  0.4190 -2.4840
 8751SOL    HW237716   0.944   1.905   7.580  2.3527  1.3497  0.2606
 8752SOL     OW37717   0.237   1.195  11.289  0.1056  0.3535 -0.1714
 8752SOL    HW137718   0.275   1.230  11.208 -0.0268  0.7796 -0.0454
 8752SOL    HW237719   0.204   1.111  11.256 -0.4920 -0.3769  2.3385
 8753SOL     OW37720   2.044   1.986   8.324 -0.5526 -0.0344 -0.5458
 8753SOL    HW137721   2.052   1.962   8.232 -0.6861  0.5611 -0.7087
 8753SOL    HW237722   2.107   2.058   8.322 -0.5604 -0.0637 -1.4688
 8754SOL     OW37723   1.619   1.622   4.408 -0.3623 -0.1534 -0.2598
 8754SOL    HW137724   1.679   1.563   4.362 -0.2099  0.9287 -1.4541
 8754SOL    HW237725   1.593   1.683   4.338 -2.1603 -1.3405 -0.6335
 8755SOL     OW37726   0.715   3.748  17.431 -0.4362  0.3389  0.1001
 8755SOL    HW137727   0.642   3.776  17.376 -0.3778  0.8005  0.2630
 8755SOL    HW237728   0.670   3.708  17.505 -0.3628 -1.0137 -0.5867
 8756SOL     OW37729   4.692   1.220   2.338  0.2605 -0.0554  0.1491
 8756SOL    HW137730   0.017   1.289   2.295  3.1728 -2.5489 -0.5286
 8756SOL    HW237731   0.036   1.177   2.390  0.4182 -0.1270 -0.1171
 8757SOL     OW37732   2.440   3.623   1.157 -0.3779  0.3387  0.0506
 8757SOL    HW137733   2.379   3.685   1.195 -0.2593  1.1725 -1.1471
 8757SOL    HW237734   2.395   3.539   1.165 -0.6396  0.5101  0.3657
 8758SOL     OW37735   1.456   4.004  16.218  0.4124  0.1597  0.2350
 8758SOL    HW137736   1.409   4.082  16.249 -1.5491 -0.8165 -0.2975
 8758SOL    HW237737   1.400   3.986  16.142  0.0441 -0.0351  0.5507
 8759SOL     OW37738   2.939   2.237   7.508 -0.0196  0.7818 -0.3535
 8759SOL    HW137739   2.980   2.223   7.423 -1.1754 -0.0877 -0.7578
 8759SOL    HW237740   2.853   2.242   7.467  0.6979  1.6531 -1.7582
 8760SOL     OW37741   1.629   2.528   5.813 -0.0044  0.4821 -0.1272
 8760SOL    HW137742   1.646   2.468   5.741  1.2984  1.8859 -0.9856
 8760SOL    HW237743   1.660   2.612   5.779 -0.8290  0.7111 -0.3203
 8761SOL     OW37744   4.602   3.473   7.972  0.0530  0.3949  0.4926
 8761SOL    HW137745   4.567   3.546   8.022  1.8690  1.4712  0.2038
 8761SOL    HW237746   4.679   3.440   8.020 -0.3835 -3.6077 -1.5034
 8762SOL     OW37747   3.402   1.333   2.904 -0.1051 -0.6456 -0.6607
 8762SOL    HW137748   3.424   1.241   2.920  2.6364 -0.0920 -1.2515
 8762SOL    HW237749   3.467   1.393   2.940 -0.3422 -0.8013  0.0244
 8763SOL     OW37750   1.176   3.650   5.727  0.4960 -0.2725  0.1419
 8763SOL    HW137751   1.129   3.734   5.733 -1.3356 -1.2921  0.1009
 8763SOL    HW237752   1.113   3.605   5.672 -0.9817  1.8868  0.0560
 8764SOL     OW37753   4.566   2.236  14.909  0.0166 -0.6169 -0.0601
 8764SOL    HW137754   4.503   2.198  14.848  0.4631  0.4755 -1.1883
 8764SOL    HW237755   4.645   2.211  14.862  0.6354  0.1559  0.5619
 8765SOL     OW37756   0.907   2.140   4.628 -0.2076 -0.4356  0.0435
 8765SOL    HW137757   0.933   2.049   4.643 -0.0995 -0.2923  0.7098
 8765SOL    HW237758   0.990   2.187   4.629 -0.0564 -0.7562  1.8084
 8766SOL     OW37759   0.827   1.160  17.047  0.0180  0.0419 -0.0299
 8766SOL    HW137760   0.814   1.212  17.126  1.8473  2.1671 -1.1203
 8766SOL    HW237761   0.873   1.080  17.074  1.0020  0.2758 -0.9812
 8767SOL     OW37762   1.521   0.770   8.506  0.0928  0.3162 -0.7192
 8767SOL    HW137763   1.470   0.842   8.543 -0.2243 -0.3516  0.1263
 8767SOL    HW237764   1.565   0.732   8.582  1.9157  0.0969 -1.8828
 8768SOL     OW37765   1.911   2.043   5.896 -0.3109  0.1517 -0.1088
 8768SOL    HW137766   1.862   2.100   5.955 -1.5656 -1.2096  0.1515
 8768SOL    HW237767   1.950   1.981   5.957  1.2578 -0.6041 -1.8523
 8769SOL     OW37768   1.971   0.628   2.129 -0.0391 -0.0257 -0.2568
 8769SOL    HW137769   1.972   0.532   2.134 -1.4461 -0.1324 -1.9623
 8769SOL    HW237770   1.884   0.631   2.090  0.1645  0.8723 -0.6479
 8770SOL     OW37771   3.555   2.491   8.973  0.1944  0.1387 -0.0718
 8770SOL    HW137772   3.600   2.407   8.961 -1.2913 -0.9106  1.5752
 8770SOL    HW237773   3.563   2.495   9.068 -0.1628  0.5212 -0.0596
 8771SOL     OW37774   2.012   1.482   7.790 -0.6867 -0.2589  0.8127
 8771SOL    HW137775   2.010   1.417   7.720  0.3251  0.4006  0.1804
 8771SOL    HW237776   1.924   1.520   7.796 -2.4963 -4.1536 -0.9531
 8772SOL     OW37777   4.362   4.072   2.584  0.1150 -0.2840 -0.3929
 8772SOL    HW137778   4.456   4.062   2.568  0.6936 -0.9231  3.5455
 8772SOL    HW237779   4.329   3.998   2.531  0.2508  0.7799 -1.9681
 8773SOL     OW37780   1.675   4.127   5.073 -0.0176 -0.4204 -0.0397
 8773SOL    HW137781   1.706   4.217   5.057  0.1966  0.0097  2.7625
 8773SOL    HW237782   1.721   4.080   5.004  1.2761  0.7126  0.0266
 8774SOL     OW37783   3.242   1.623   1.378 -0.0602 -0.2307 -0.5201
 8774SOL    HW137784   3.253   1.652   1.468 -1.2769 -0.0323 -0.4380
 8774SOL    HW237785   3.148   1.638   1.363  0.1016 -1.1267 -2.3861
 8775SOL     OW37786   2.821   3.051  16.816  0.0298 -0.0173 -0.1374
 8775SOL    HW137787   2.764   3.105  16.761  0.0101  0.2870  0.1798
 8775SOL    HW237788   2.786   3.051  16.905 -2.9778  0.7124 -1.3104
 8776SOL     OW37789   0.473   1.165   4.909  0.2438 -0.2218 -0.5033
 8776SOL    HW137790   0.491   1.118   4.827  3.8163  0.4450 -0.0736
 8776SOL    HW237791   0.468   1.084   4.960 -2.9480 -1.0181 -2.0426
 8777SOL     OW37792   3.760   1.346  13.484  0.1097 -0.4220 -0.6991
 8777SOL    HW137793   3.803   1.303  13.558 -1.0391 -0.3385  0.0168
 8777SOL    HW237794   3.835   1.365  13.427  1.0713 -0.2794  0.6066
 8778SOL     OW37795   4.450   1.496   1.322  0.0095 -0.4136  0.3064
 8778SOL    HW137796   4.520   1.453   1.371 -0.0272 -1.8521 -0.8985
 8778SOL    HW237797   4.451   1.452   1.236 -0.5765  2.0675 -0.9636
 8779SOL     OW37798   1.749   2.810   1.859  0.0717 -0.0670  0.6953
 8779SOL    HW137799   1.791   2.735   1.902  0.9035  1.3993  2.4349
 8779SOL    HW237800   1.768   2.879   1.922 -1.0630 -1.5604  2.6739
 8780SOL     OW37801   1.242   0.784   2.008 -0.1997 -0.1308  0.1757
 8780SOL    HW137802   1.287   0.847   1.952  0.3324  1.7361  2.6878
 8780SOL    HW237803   1.286   0.703   1.983 -2.2385 -1.0433 -0.4027
 8781SOL     OW37804   1.131   0.952   0.721  0.1038  0.4315  0.2608
 8781SOL    HW137805   1.143   1.041   0.754 -1.3777  0.5015  0.6287
 8781SOL    HW237806   1.100   0.964   0.631 -1.0612  1.8601  0.8381
 8782SOL     OW37807   2.782   0.418   2.811 -0.5711  0.5587  0.6558
 8782SOL    HW137808   2.836   0.405   2.889  0.7211 -2.1086 -0.6909
 8782SOL    HW237809   2.711   0.474   2.843 -0.5377  0.6973  0.4931
 8783SOL     OW37810   1.115   3.054   2.863  0.4785  0.4985  0.6857
 8783SOL    HW137811   1.142   3.146   2.871 -1.4012  1.1356 -0.2557
 8783SOL    HW237812   1.126   3.033   2.771 -1.6990  0.1934  0.5040
 8784SOL     OW37813   2.629   3.552   8.344  1.0847  0.1040 -0.4774
 8784SOL    HW137814   2.672   3.488   8.401  2.5563  0.2474 -1.4166
 8784SOL    HW237815   2.691   3.625   8.339 -0.4986  1.5011  0.3172
 8785SOL     OW37816   3.997   2.268   3.828 -0.7257  0.4102 -0.0308
 8785SOL    HW137817   3.911   2.276   3.870 -1.8377  3.4778 -2.8405
 8785SOL    HW237818   4.000   2.352   3.781 -1.0448  1.1346  1.2415
 8786SOL     OW37819   1.262   2.785   7.722 -0.8534  0.0878  0.3924
 8786SOL    HW137820   1.183   2.834   7.700 -0.4066  0.5790 -0.1334
 8786SOL    HW237821   1.297   2.840   7.792 -0.5569 -1.7343  1.6674
 8787SOL     OW37822   2.029   3.201   4.772  0.1306 -0.2987 -0.1123
 8787SOL    HW137823   1.943   3.212   4.731  0.5084  2.3339 -0.2280
 8787SOL    HW237824   2.006   3.183   4.863  1.4037  0.5144  0.3619
 8788SOL     OW37825   3.129   2.638   7.521  0.2167 -0.5865 -0.1534
 8788SOL    HW137826   3.039   2.660   7.546  0.2765 -1.3456  0.7250
 8788SOL    HW237827   3.174   2.699   7.578 -2.1043 -0.9246  2.0195
 8789SOL     OW37828   4.259   0.363   2.916 -0.2449 -0.4263 -0.1565
 8789SOL    HW137829   4.326   0.328   2.857 -0.6841 -0.8937 -0.3769
 8789SOL    HW237830   4.278   0.303   2.988 -1.8257 -1.5649 -0.6762
 8790SOL     OW37831   4.448   0.848   0.443  0.1597 -0.2953  0.1289
 8790SOL    HW137832   4.373   0.881   0.493 -0.6331 -2.5565  0.4152
 8790SOL    HW237833   4.438   0.885   0.355  0.7826 -1.0797 -0.2722
 8791SOL     OW37834   1.435   0.182   3.563 -0.0231  0.3794 -0.8938
 8791SOL    HW137835   1.420   0.194   3.657  0.2420  1.9150 -1.0491
 8791SOL    HW237836   1.381   0.104   3.552 -1.1428  0.9130  0.8290
 8792SOL     OW37837   1.596   3.920  12.532  0.1580 -0.5050  0.2622
 8792SOL    HW137838   1.625   3.846  12.584 -1.4324 -0.2651  1.4914
 8792SOL    HW237839   1.531   3.950  12.596 -0.5947 -1.8027  0.1172
 8793SOL     OW37840   4.589   2.737  13.291  0.7384 -0.5853  0.2251
 8793SOL    HW137841   4.651   2.810  13.292 -0.2410  0.2720 -0.4338
 8793SOL    HW237842   4.542   2.734  13.207  0.5528  1.5166  0.2453
 8794SOL     OW37843   1.778   3.532   0.528 -0.5701  0.4549  0.2497
 8794SOL    HW137844   1.730   3.465   0.577  0.7228  0.0398  0.9515
 8794SOL    HW237845   1.772   3.601   0.594 -1.0016 -0.5224  1.2509
 8795SOL     OW37846   4.318   3.883   0.229 -0.0911 -0.2383  0.4618
 8795SOL    HW137847   4.324   3.862   0.323  1.0672  0.3520  0.5268
 8795SOL    HW237848   4.324   3.802   0.178 -0.5154 -0.5756  0.9487
 8796SOL     OW37849   2.669   3.578   6.464  0.0533  0.0105 -0.2491
 8796SOL    HW137850   2.731   3.578   6.537 -1.1088  1.5238  0.7495
 8796SOL    HW237851   2.654   3.672   6.456 -1.4716 -0.4826 -3.0001
 8797SOL     OW37852   3.131   1.321   3.313 -0.3157  0.0175 -0.2464
 8797SOL    HW137853   3.110   1.257   3.382  2.0571 -1.3722 -0.8124
 8797SOL    HW237854   3.225   1.313   3.298 -0.2157 -3.2692  2.0565
 8798SOL     OW37855   3.382   1.867  17.472  0.4135  0.6511  0.0171
 8798SOL    HW137856   3.403   1.775  17.457 -2.1929  0.1152 -0.3130
 8798SOL    HW237857   3.371   1.870  17.567  0.2493  0.6650 -0.0018
 8799SOL     OW37858   4.290   2.644   3.681  0.4098  0.3144 -0.4145
 8799SOL    HW137859   4.219   2.632   3.745 -1.3516  1.3758 -2.1870
 8799SOL    HW237860   4.368   2.640   3.737 -0.3424 -0.2346  0.6072
 8800SOL     OW37861   2.341   2.060  11.447  0.0297 -0.1131 -0.2449
 8800SOL    HW137862   2.340   1.966  11.465 -2.0543  0.0026  0.2796
 8800SOL    HW237863   2.316   2.055  11.355  2.2738 -1.3444 -0.8003
 8801SOL     OW37864   1.279   2.521  14.992 -0.1595 -0.1949  0.2190
 8801SOL    HW137865   1.273   2.616  14.982 -0.3147 -0.0610  1.5281
 8801SOL    HW237866   1.365   2.501  15.027 -0.0842  2.4269  1.5465
 8802SOL     OW37867   3.982   4.336   0.346 -0.4824  0.0533 -0.1560
 8802SOL    HW137868   4.025   4.280   0.411 -1.0609 -0.9177 -0.6132
 8802SOL    HW237869   3.959   4.406   0.407  0.6253  0.9420 -0.7709
 8803SOL     OW37870   2.132   3.107   2.686 -0.3199  0.2368 -0.4873
 8803SOL    HW137871   2.185   3.029   2.701 -0.3269  0.6209  1.5717
 8803SOL    HW237872   2.185   3.153   2.621 -0.7319  1.2758 -0.0941
 8804SOL     OW37873   0.753   0.805   1.568 -0.2433  0.2947  0.1039
 8804SOL    HW137874   0.837   0.779   1.606  0.1402 -0.6702 -1.4215
 8804SOL    HW237875   0.723   0.878   1.623 -0.2144 -0.6847  1.4045
 8805SOL     OW37876   1.085   1.774   8.950  0.5285 -0.2002 -0.0086
 8805SOL    HW137877   1.006   1.719   8.945  0.9598 -1.0430  2.2163
 8805SOL    HW237878   1.071   1.807   9.039 -1.8342  0.6159 -0.6892
 8806SOL     OW37879   3.749   3.631   7.294  0.2510  0.4516  0.1986
 8806SOL    HW137880   3.715   3.543   7.277  0.3625  0.6409 -1.0412
 8806SOL    HW237881   3.802   3.608   7.369  0.2140  1.0934  0.4173
 8807SOL     OW37882   0.344   2.569   6.393  0.0366 -0.5203  0.1227
 8807SOL    HW137883   0.264   2.598   6.438  1.1953 -0.1196  1.9110
 8807SOL    HW237884   0.303   2.514   6.326 -2.1322  2.5977 -1.0860
 8808SOL     OW37885   4.175   4.661   6.051 -0.2715  0.2543 -0.0791
 8808SOL    HW137886   4.222   4.647   6.133  0.1165  2.8224  0.1107
 8808SOL    HW237887   4.092   4.619   6.076  1.2569 -1.9076  1.3377
 8809SOL     OW37888   0.873   3.590   3.404 -0.5152  0.0782 -0.0453
 8809SOL    HW137889   0.792   3.558   3.365 -0.4939  0.2120 -0.2026
 8809SOL    HW237890   0.913   3.504   3.411  2.8069  1.5778 -0.2791
 8810SOL     OW37891   3.595   2.109   9.330 -0.1193  0.4158 -0.1950
 8810SOL    HW137892   3.592   2.157   9.413 -1.2162 -0.6934  0.4090
 8810SOL    HW237893   3.502   2.105   9.308 -0.1275  1.1476 -0.2794
 8811SOL     OW37894   0.128   2.441  16.531 -0.4566 -0.4401  0.0273
 8811SOL    HW137895   0.085   2.382  16.469 -0.5678 -1.8131  1.4091
 8811SOL    HW237896   0.132   2.519  16.476 -0.4196  0.8336  1.8361
 8812SOL     OW37897   3.977   0.178  14.974 -0.8821 -0.1479 -0.0983
 8812SOL    HW137898   3.952   0.229  14.896 -0.8136  0.5951  0.3722
 8812SOL    HW237899   4.006   0.094  14.937 -1.4833 -0.2711 -0.2922
 8813SOL     OW37900   2.984   2.551   8.776 -0.3506  0.6300 -0.4732
 8813SOL    HW137901   2.992   2.620   8.842  1.3190 -0.3491  0.3355
 8813SOL    HW237902   3.075   2.552   8.747  0.1337  1.8163  1.1188
 8814SOL     OW37903   3.278   2.574   0.096 -0.0309  0.1480 -0.0408
 8814SOL    HW137904   3.351   2.614   0.049  0.5557 -0.0215  0.7317
 8814SOL    HW237905   3.319   2.549   0.179 -0.0026  2.6751  0.7360
 8815SOL     OW37906   1.773   2.641   8.295  0.3773  0.1542 -0.1827
 8815SOL    HW137907   1.731   2.722   8.325 -1.6947 -0.4591 -1.3884
 8815SOL    HW237908   1.796   2.595   8.375  1.0892  0.2494 -0.3336
 8816SOL     OW37909   4.538   3.966  10.251 -0.2025 -0.0342 -0.1015
 8816SOL    HW137910   4.559   4.023  10.176  1.0999  1.2115  1.2160
 8816SOL    HW237911   4.480   3.901  10.212  2.5930 -2.8371  0.4541
 8817SOL     OW37912   1.036   3.767   1.092 -0.1394 -0.2723 -0.0445
 8817SOL    HW137913   1.130   3.753   1.097 -0.1304 -0.2399 -0.1330
 8817SOL    HW237914   1.026   3.863   1.089  0.6216 -0.1776  0.5055
 8818SOL     OW37915   1.465   4.275  12.531 -0.1559  0.6441  0.5433
 8818SOL    HW137916   1.434   4.317  12.611 -1.8018  0.6662 -0.1239
 8818SOL    HW237917   1.449   4.185  12.558 -0.9194  1.0664  1.4775
 8819SOL     OW37918   3.236   4.709   8.217 -0.2913 -0.1410 -0.1681
 8819SOL    HW137919   3.180   0.023   8.284  0.2864  1.8890 -0.8417
 8819SOL    HW237920   3.302   4.669   8.273 -1.4503 -0.9577  0.5878
 8820SOL     OW37921   4.542   1.183   2.692 -0.1263 -0.0759  0.1760
 8820SOL    HW137922   4.488   1.262   2.682 -0.5216 -0.5642 -1.4567
 8820SOL    HW237923   4.499   1.114   2.643  0.3646  0.0475 -0.4201
 8821SOL     OW37924   3.575   0.713  11.139  0.4749  0.0441 -0.2419
 8821SOL    HW137925   3.658   0.685  11.100 -0.6911 -2.8700 -0.6334
 8821SOL    HW237926   3.596   0.796  11.183  0.9773 -0.0385 -0.3277
 8822SOL     OW37927   4.056   3.111   8.732  0.2890  0.0050  0.4588
 8822SOL    HW137928   4.076   3.024   8.769  2.2008  0.8792  1.5051
 8822SOL    HW237929   4.132   3.158   8.767  0.4597  0.5850 -0.7014
 8823SOL     OW37930   3.610   1.568   8.750 -0.1189  0.5787 -0.3815
 8823SOL    HW137931   3.599   1.658   8.778 -0.8805  0.7052 -1.0860
 8823SOL    HW237932   3.666   1.537   8.821 -1.9677  1.5495  1.4844
 8824SOL     OW37933   3.186   1.048   6.778  0.8201 -0.0908  0.2162
 8824SOL    HW137934   3.219   0.983   6.715  2.5281 -1.3838  2.4509
 8824SOL    HW237935   3.272   1.087   6.796  0.4414  1.5555 -1.5408
 8825SOL     OW37936   3.720   3.316   5.911  0.3051 -0.6351  0.2238
 8825SOL    HW137937   3.750   3.406   5.900  0.8568 -0.5923  2.0922
 8825SOL    HW237938   3.651   3.337   5.974 -0.7478 -0.1643 -1.0887
 8826SOL     OW37939   1.787   0.125   1.773  0.0139 -0.1731 -0.5836
 8826SOL    HW137940   1.846   0.128   1.698  0.0668  0.5272 -0.5194
 8826SOL    HW237941   1.754   0.036   1.770  1.5268 -0.6947 -1.4274
 8827SOL     OW37942   2.119   1.561   2.738  0.4471 -0.0004  0.2262
 8827SOL    HW137943   2.045   1.540   2.680  0.2755 -0.6252  0.6750
 8827SOL    HW237944   2.082   1.591   2.821 -0.1417 -1.7864  0.6108
 8828SOL     OW37945   1.505   0.854  10.908  0.2033 -0.3556 -0.4893
 8828SOL    HW137946   1.578   0.862  10.846 -0.2959  2.4691 -0.7238
 8828SOL    HW237947   1.434   0.850  10.844 -0.9481  2.2049  0.6110
 8829SOL     OW37948   1.602   2.554  16.075  0.4367 -0.2765  0.2254
 8829SOL    HW137949   1.604   2.610  15.997  1.6598 -0.4912  0.0926
 8829SOL    HW237950   1.652   2.607  16.137 -2.0942 -0.4663  2.4395
 8830SOL     OW37951   1.433   0.378   3.375  0.2691  0.4762  0.8288
 8830SOL    HW137952   1.432   0.438   3.449  1.2456  1.2075  0.2542
 8830SOL    HW237953   1.427   0.300   3.429 -2.1402 -1.4977 -2.2810
 8831SOL     OW37954   2.624   0.111   5.957  0.5635  0.0075  0.0057
 8831SOL    HW137955   2.613   0.173   5.884  0.7477  1.5954  1.3251
 8831SOL    HW237956   2.556   0.152   6.010 -1.4413 -1.6880 -1.2159
 8832SOL     OW37957   4.295   3.579   5.018 -0.7066 -0.5850 -0.4854
 8832SOL    HW137958   4.255   3.521   4.953  0.7751 -2.9177  0.6920
 8832SOL    HW237959   4.352   3.514   5.058 -0.7041 -0.4658 -0.2980
 8833SOL     OW37960   0.090   0.461   9.929  0.1839 -0.3481 -0.8541
 8833SOL    HW137961   0.054   0.375   9.910 -1.7670 -0.0463  1.3453
 8833SOL    HW237962   0.020   0.492   9.988  1.3905 -1.3872  1.1253
 8834SOL     OW37963   1.957   3.637   8.851  0.0772 -0.4353  0.0472
 8834SOL    HW137964   1.922   3.659   8.938  1.7872 -1.2314  0.9412
 8834SOL    HW237965   2.048   3.624   8.876 -0.8190 -1.6260  2.7902
 8835SOL     OW37966   1.471   2.664   7.104  0.0587  0.8296 -0.0538
 8835SOL    HW137967   1.380   2.676   7.078 -0.1635  2.2629  1.3945
 8835SOL    HW237968   1.483   2.579   7.145  1.7352  0.6284 -0.9514
 8836SOL     OW37969   0.973   0.108   4.970  0.0424  0.4948  0.2354
 8836SOL    HW137970   0.935   0.161   4.900  2.1725 -1.4077 -2.3151
 8836SOL    HW237971   1.003   0.171   5.036 -0.3929  0.8991  0.0529
 8837SOL     OW37972   0.699   0.954   0.072 -0.3770  0.2132 -0.2603
 8837SOL    HW137973   0.693   0.881   0.134 -1.4876 -0.4756 -1.1846
 8837SOL    HW237974   0.606   0.961   0.053 -0.1677  1.2069 -0.9283
 8838SOL     OW37975   1.212   3.439   3.305  0.7835  0.0933  0.1920
 8838SOL    HW137976   1.177   3.523   3.277  3.1239 -0.0760 -3.3575
 8838SOL    HW237977   1.277   3.421   3.236 -1.9069 -0.3410 -2.2278
 8839SOL     OW37978   3.527   2.342  10.723 -0.0815 -0.2704  0.2340
 8839SOL    HW137979   3.496   2.389  10.645  1.6527  2.2356  1.0625
 8839SOL    HW237980   3.445   2.362  10.769  1.2416  1.9216  1.6437
 8840SOL     OW37981   4.301   4.281   3.699 -0.3378  0.6264 -0.2831
 8840SOL    HW137982   4.309   4.188   3.719  0.6872  0.9032  0.6186
 8840SOL    HW237983   4.264   4.308   3.783 -0.2861 -0.5655  0.1216
 8841SOL     OW37984   1.099   2.201   6.957 -0.4061  0.2088  0.4348
 8841SOL    HW137985   1.012   2.205   6.918 -0.6577  0.9348  1.0821
 8841SOL    HW237986   1.078   2.257   7.031  0.2467  1.6994 -0.5186
 8842SOL     OW37987   1.066   3.835   8.678 -0.3663  0.0337  0.0637
 8842SOL    HW137988   1.155   3.804   8.662 -0.8243 -0.1682 -2.0543
 8842SOL    HW237989   1.087   3.928   8.664 -2.2127  0.7350  1.8313
 8843SOL     OW37990   1.444   0.185   5.507 -0.1048 -0.4470 -0.1365
 8843SOL    HW137991   1.394   0.207   5.586  1.2783 -1.0618  0.9208
 8843SOL    HW237992   1.528   0.229   5.520 -0.7417  0.4806  0.9548
 8844SOL     OW37993   2.036   1.901   8.769 -0.3790 -0.4551  0.2674
 8844SOL    HW137994   2.006   1.982   8.727  0.2917  0.1257  0.9242
 8844SOL    HW237995   2.118   1.882   8.725  0.0360  1.4060  0.2246
 8845SOL     OW37996   0.620   4.612   1.921  0.4834 -0.6083 -0.5224
 8845SOL    HW137997   0.528   4.638   1.930  1.3591  1.9535  0.9750
 8845SOL    HW237998   0.616   4.526   1.963 -4.2923  0.9038  2.1027
 8846SOL     OW37999   3.262   3.159   1.759  0.2986 -0.5388  0.0448
 8846SOL    HW138000   3.177   3.198   1.782  0.7823 -0.7936  2.2914
 8846SOL    HW238001   3.248   3.100   1.685 -1.4152  0.9544 -0.8189
 8847SOL     OW38002   1.916   2.491  10.692  0.3897  0.7556  0.3399
 8847SOL    HW138003   1.836   2.475  10.642  0.5441  2.2811 -0.3912
 8847SOL    HW238004   1.889   2.538  10.771  0.7232  1.1464  0.2192
 8848SOL     OW38005   2.703   3.730   6.063  0.5615 -0.1701  0.8720
 8848SOL    HW138006   2.648   3.673   6.116 -2.9939  0.8717 -1.6520
 8848SOL    HW238007   2.726   3.677   5.987 -0.2846  0.4690  0.1542
 8849SOL     OW38008   4.207   0.244   6.820  0.1670  0.1727  0.3263
 8849SOL    HW138009   4.156   0.240   6.901  0.8233 -1.8729  0.6373
 8849SOL    HW238010   4.267   0.172   6.837  1.8966  1.3690 -0.6437
 8850SOL     OW38011   2.773   3.921   2.653 -0.0337 -0.2195 -0.2647
 8850SOL    HW138012   2.680   3.939   2.661 -0.1063 -1.0338  0.5911
 8850SOL    HW238013   2.806   3.978   2.583 -0.7370  1.1805  0.5582
 8851SOL     OW38014   0.553   1.652  11.502  0.2677  0.2917  0.5007
 8851SOL    HW138015   0.525   1.565  11.530  3.2830 -0.8218  0.1353
 8851SOL    HW238016   0.648   1.655  11.520  0.2614  1.7143  0.3329
 8852SOL     OW38017   3.284   3.644   4.647 -0.5596 -1.0519  0.1983
 8852SOL    HW138018   3.357   3.700   4.674  0.7527 -2.2808 -0.8540
 8852SOL    HW238019   3.306   3.591   4.570 -0.1397 -2.4633  1.2865
 8853SOL     OW38020   3.102   1.444   6.812 -0.2855  0.4132  0.5701
 8853SOL    HW138021   3.196   1.463   6.822 -0.2401  0.7753 -0.5433
 8853SOL    HW238022   3.098   1.404   6.725 -0.7961  2.5617 -0.4019
 8854SOL     OW38023   0.455   2.089  10.733  0.2529 -0.5151 -0.1546
 8854SOL    HW138024   0.398   2.062  10.805 -1.6805 -1.8556 -2.1780
 8854SOL    HW238025   0.536   2.046  10.759  0.2579 -0.6777 -0.4436
 8855SOL     OW38026   4.139   3.915   0.623 -0.2377 -0.0372 -0.8427
 8855SOL    HW138027   4.146   3.876   0.710 -0.6871 -1.1419 -1.2883
 8855SOL    HW238028   4.217   3.879   0.580  0.4484 -0.2361  0.5640
 8856SOL     OW38029   4.634   1.944  10.167 -0.1557  0.5876 -0.2061
 8856SOL    HW138030   4.675   1.877  10.221 -2.8476  0.0716  1.2020
 8856SOL    HW238031   4.692   1.947  10.091 -1.5765 -0.1431 -1.3432
 8857SOL     OW38032   2.187   0.106   6.958 -0.7997 -0.3064  0.4301
 8857SOL    HW138033   2.230   0.022   6.938  0.7703  0.7552 -0.6101
 8857SOL    HW238034   2.245   0.128   7.031  1.2109  0.6103 -1.4574
 8858SOL     OW38035   4.385   3.434   9.010  0.2372 -0.1318 -0.2146
 8858SOL    HW138036   4.323   3.388   8.953  2.0670 -3.1715  0.3091
 8858SOL    HW238037   4.432   3.362   9.052  0.8699 -0.0446 -0.7730
 8859SOL     OW38038   2.185   1.760   5.035 -0.3380 -0.1031  1.1771
 8859SOL    HW138039   2.271   1.770   5.077  0.6145  1.1089 -1.0374
 8859SOL    HW238040   2.157   1.850   5.052 -2.3172 -0.6129  0.6127
 8860SOL     OW38041   1.639   2.179  14.461 -0.0026  0.1385 -0.6011
 8860SOL    HW138042   1.566   2.207  14.406  0.5289  1.4360 -0.6565
 8860SOL    HW238043   1.710   2.163  14.399 -1.0272 -1.0904 -1.4565
 8861SOL     OW38044   2.697   3.859   9.139 -0.7314 -0.1307 -0.4277
 8861SOL    HW138045   2.721   3.920   9.070  0.1598  1.1411  1.0133
 8861SOL    HW238046   2.655   3.786   9.094 -2.3687 -0.6195  1.9107
 8862SOL     OW38047   1.854   0.850   5.933  0.2605  0.3667 -0.4710
 8862SOL    HW138048   1.832   0.943   5.939  0.7398  0.3198  2.2087
 8862SOL    HW238049   1.764   0.817   5.929  0.3585 -0.2453  2.2456
 8863SOL     OW38050   0.970   1.688  12.334  0.2489  0.0652 -0.1386
 8863SOL    HW138051   0.893   1.719  12.380 -0.2369  0.6603 -1.3558
 8863SOL    HW238052   0.980   1.752  12.262  0.2511 -3.0594 -2.9077
 8864SOL     OW38053   1.634   4.250   9.145 -0.3609  0.7932 -0.0982
 8864SOL    HW138054   1.636   4.240   9.240 -1.6663 -0.5189 -0.2084
 8864SOL    HW238055   1.727   4.260   9.123 -0.2121  0.3671  0.3257
 8865SOL     OW38056   2.826   0.163  10.560 -0.3453 -0.6395 -0.2316
 8865SOL    HW138057   2.911   0.205  10.573 -0.8806  0.1140  0.7820
 8865SOL    HW238058   2.848   0.069  10.566 -1.1534 -0.5655  3.6945
 8866SOL     OW38059   0.790   1.454   3.448  0.0187 -0.0294 -0.1936
 8866SOL    HW138060   0.819   1.539   3.482  1.4234  0.7143 -3.2194
 8866SOL    HW238061   0.824   1.455   3.358 -0.2932 -2.0416 -0.3126
 8867SOL     OW38062   3.371   0.170   6.640 -0.3768  0.0672 -0.3678
 8867SOL    HW138063   3.374   0.129   6.726 -0.2066  1.6630  0.3983
 8867SOL    HW238064   3.278   0.192   6.637 -0.7112 -1.1074  1.4348
 8868SOL     OW38065   3.456   3.851   1.611 -0.4515  0.3577  0.2078
 8868SOL    HW138066   3.509   3.862   1.690  0.6613 -0.6032 -0.3951
 8868SOL    HW238067   3.411   3.769   1.632 -0.8449  0.5073 -0.0530
 8869SOL     OW38068   3.663   0.958  14.052  0.2024  0.3106 -0.3537
 8869SOL    HW138069   3.610   0.896  14.003  1.1992  0.2846 -1.4066
 8869SOL    HW238070   3.752   0.951  14.017 -0.2859  2.3426 -1.9658
 8870SOL     OW38071   1.736   2.630   8.989  0.5325  0.0863 -0.0299
 8870SOL    HW138072   1.672   2.566   9.021  0.6166 -1.8735 -3.7446
 8870SOL    HW238073   1.685   2.705   8.961 -1.4880 -1.0947  0.5074
 8871SOL     OW38074   4.286   3.256   5.685 -0.1250  0.1077  0.1006
 8871SOL    HW138075   4.331   3.237   5.604 -0.1323 -0.7725  0.3101
 8871SOL    HW238076   4.238   3.178   5.712 -0.8921  0.8019  0.7574
 8872SOL     OW38077   4.657   0.541  10.126  0.0465  0.2944  0.2420
 8872SOL    HW138078   4.724   0.572  10.186  0.8611  0.7644 -0.8995
 8872SOL    HW238079   4.672   0.448  10.140 -0.1488  0.2804  0.3490
 8873SOL     OW38080   4.211   2.589   5.596 -0.2814 -0.4117 -0.4812
 8873SOL    HW138081   4.176   2.517   5.648 -1.3815  1.6499  1.6808
 8873SOL    HW238082   4.207   2.660   5.660 -0.0753 -1.7545  1.0218
 8874SOL     OW38083   3.298   3.239   3.176 -0.1025 -0.2452  0.4037
 8874SOL    HW138084   3.314   3.253   3.083 -0.1218  2.9561  0.8937
 8874SOL    HW238085   3.282   3.329   3.203  0.8568 -0.0397  0.2643
 8875SOL     OW38086   4.504   1.539   8.780  0.2184  0.4451 -0.2352
 8875SOL    HW138087   4.582   1.492   8.808  0.5634  0.1160 -1.7208
 8875SOL    HW238088   4.429   1.496   8.821  0.2974  0.2807 -0.2644
 8876SOL     OW38089   1.110   3.734   6.892  0.8422 -0.4914  0.0644
 8876SOL    HW138090   1.110   3.813   6.946  1.0693  1.1276 -2.3023
 8876SOL    HW238091   1.047   3.753   6.822 -0.7559 -0.7553  1.4283
 8877SOL     OW38092   1.612   4.080  11.305 -0.0591  0.5430  0.2531
 8877SOL    HW138093   1.650   4.075  11.393  0.2832  1.1377  0.1456
 8877SOL    HW238094   1.607   4.175  11.293 -0.3134  0.2643 -1.8701
 8878SOL     OW38095   3.025   3.180   5.056 -0.0230  0.0891  0.4901
 8878SOL    HW138096   3.074   3.107   5.093  0.1629 -0.7979 -1.5401
 8878SOL    HW238097   2.958   3.177   5.125 -1.4695  2.1497 -0.8469
 8879SOL     OW38098   0.436   1.021  11.712 -0.3249 -0.0405 -0.4064
 8879SOL    HW138099   0.406   1.096  11.660  1.4869  0.0602 -1.2991
 8879SOL    HW238100   0.495   1.073  11.767 -0.8406 -0.9365  0.9976
 8880SOL     OW38101   3.360   3.105   2.016 -0.6736 -0.1519  0.0640
 8880SOL    HW138102   3.325   3.158   1.944 -0.9367  0.6924  0.8154
 8880SOL    HW238103   3.317   3.131   2.097 -2.1461  1.2146 -1.1434
 8881SOL     OW38104   2.318   0.525   7.410  0.2796  0.3739  0.3407
 8881SOL    HW138105   2.287   0.538   7.500  2.0477  1.8544  0.7241
 8881SOL    HW238106   2.255   0.577   7.360 -1.8333 -1.1168  1.4429
 8882SOL     OW38107   0.635   2.224   6.487 -0.2001  0.2104 -0.1029
 8882SOL    HW138108   0.659   2.314   6.512  0.6713 -0.2549  0.7006
 8882SOL    HW238109   0.709   2.206   6.429 -1.0782  1.6566 -1.6890
 8883SOL     OW38110   3.473   3.096   4.304  0.3166  0.0476  0.0364
 8883SOL    HW138111   3.455   3.093   4.210 -1.1462 -1.9977  0.3850
 8883SOL    HW238112   3.396   3.136   4.343 -0.8200 -0.8245 -1.3044
 8884SOL     OW38113   3.215   0.902  13.773 -0.6725  0.0085  0.0897
 8884SOL    HW138114   3.150   0.969  13.752  0.1635  1.5074  2.2667
 8884SOL    HW238115   3.182   0.878  13.860 -0.0844 -1.2908 -0.0412
 8885SOL     OW38116   0.963   1.682  15.864  0.0141 -0.2422  0.2355
 8885SOL    HW138117   0.943   1.601  15.817  0.5912  0.4821 -1.2819
 8885SOL    HW238118   1.052   1.705  15.836 -1.2771  1.2716 -2.6965
 8886SOL     OW38119   1.501   4.271   4.873  0.5337 -0.7894  0.7738
 8886SOL    HW138120   1.594   4.285   4.857 -0.1198  1.5498 -0.9389
 8886SOL    HW238121   1.463   4.245   4.789  3.6695 -0.3763 -0.7593
 8887SOL     OW38122   1.232   4.636   6.074 -0.1101 -0.6676 -0.5006
 8887SOL    HW138123   1.232   4.628   5.978  0.4462  2.1953 -0.7565
 8887SOL    HW238124   1.140   4.611   6.074  0.4231 -2.5630  2.7557
 8888SOL     OW38125   2.047   4.395  15.352 -0.5687 -0.3467  0.2309
 8888SOL    HW138126   2.113   4.331  15.380  0.3007  0.5438  0.2222
 8888SOL    HW238127   1.967   4.349  15.329 -1.3480  0.1856  1.8721
 8889SOL     OW38128   0.671   0.529   4.323  0.8744 -0.5891  0.3807
 8889SOL    HW138129   0.655   0.440   4.353 -1.0257 -0.1862  0.5753
 8889SOL    HW238130   0.766   0.532   4.319  1.0261 -1.8922  2.9526
 8890SOL     OW38131   1.302   2.134   4.502  0.9105  0.1208 -0.2950
 8890SOL    HW138132   1.342   2.047   4.495  0.2433 -0.2887  1.0025
 8890SOL    HW238133   1.294   2.171   4.415  0.2259 -0.2390 -0.3857
 8891SOL     OW38134   0.818   3.949  10.666  0.4413 -0.2988 -0.2715
 8891SOL    HW138135   0.753   3.939  10.597 -0.2188  0.2077  0.2798
 8891SOL    HW238136   0.761   3.976  10.737 -0.8125 -0.1967 -1.3091
 8892SOL     OW38137   0.985   0.905  13.583  0.0471 -0.4517  0.3121
 8892SOL    HW138138   1.078   0.902  13.559  0.0495 -1.1718  0.4261
 8892SOL    HW238139   0.961   0.849  13.510  2.1325 -0.6849 -0.2025
 8893SOL     OW38140   3.030   2.349  12.721  0.3254 -0.1206  0.2339
 8893SOL    HW138141   3.075   2.430  12.697 -0.3142  0.1968  0.1200
 8893SOL    HW238142   2.988   2.332  12.637  1.0143 -3.0263  0.4763
 8894SOL     OW38143   0.226   0.569  11.959  0.2731  0.1177  0.4944
 8894SOL    HW138144   0.279   0.540  11.885 -0.9133 -1.5810  0.3093
 8894SOL    HW238145   0.198   0.484  11.993 -0.0305 -0.1098 -0.3457
 8895SOL     OW38146   2.039   3.232  15.940 -0.2670 -0.1860 -0.8795
 8895SOL    HW138147   2.004   3.176  15.871  1.7548 -0.7826 -1.4349
 8895SOL    HW238148   1.983   3.307  15.919 -0.1731  0.7234  2.1447
 8896SOL     OW38149   3.429   2.754  15.383  0.2641 -0.6336 -0.1320
 8896SOL    HW138150   3.512   2.790  15.353 -0.0596  0.9731  0.9185
 8896SOL    HW238151   3.419   2.668  15.341  1.7814 -1.6809  1.6254
 8897SOL     OW38152   1.387   1.128  12.766  0.1556 -0.1096  0.3966
 8897SOL    HW138153   1.351   1.185  12.835 -0.6618 -0.2193  0.0647
 8897SOL    HW238154   1.479   1.114  12.785  0.0843  1.4569  1.9466
 8898SOL     OW38155   1.375   2.155   6.791  0.0037  0.0205 -0.1365
 8898SOL    HW138156   1.374   2.206   6.872 -1.0051 -0.6845  0.3028
 8898SOL    HW238157   1.301   2.099   6.815 -2.2584  3.1155  0.1565
 8899SOL     OW38158   3.138   2.154   2.690 -0.0980  0.2344  0.5557
 8899SOL    HW138159   3.080   2.218   2.732 -0.8262  0.3469 -0.6450
 8899SOL    HW238160   3.191   2.215   2.638  1.0424 -0.4280  0.9477
 8900SOL     OW38161   1.780   2.477   0.492 -0.4056 -0.3863  0.1888
 8900SOL    HW138162   1.705   2.483   0.551  0.8661  2.2203  1.5535
 8900SOL    HW238163   1.841   2.529   0.544 -1.4811  0.9386  0.1206
 8901SOL     OW38164   3.410   2.779   7.933  0.1036 -0.1973  0.1365
 8901SOL    HW138165   3.375   2.697   7.899 -0.2480 -0.2574  0.6454
 8901SOL    HW238166   3.353   2.793   8.008 -0.4421 -0.4781 -0.2240
 8902SOL     OW38167   4.176   4.002  15.285  0.6385 -0.0924  0.0671
 8902SOL    HW138168   4.264   4.022  15.254  0.8850 -1.5363 -0.1664
 8902SOL    HW238169   4.123   4.047  15.219 -0.2267 -1.3971 -0.1247
 8903SOL     OW38170   1.519   2.737  12.913  0.3861 -0.0802  0.1143
 8903SOL    HW138171   1.561   2.774  12.991 -0.2481  2.2529 -0.6574
 8903SOL    HW238172   1.444   2.797  12.907  1.1907  0.8544 -0.6559
 8904SOL     OW38173   4.510   3.899   7.920  0.0904  0.2435  0.8537
 8904SOL    HW138174   4.454   3.975   7.909  1.5070  1.5194  2.3536
 8904SOL    HW238175   4.539   3.908   8.011 -0.5484  1.7335  0.9110
 8905SOL     OW38176   4.158   2.793  13.677  0.8000  0.8775  0.4192
 8905SOL    HW138177   4.103   2.716  13.688 -1.4092  2.2839 -0.8531
 8905SOL    HW238178   4.105   2.856  13.725 -1.3697  0.3918 -1.3460
 8906SOL     OW38179   3.981   0.505   7.108 -0.1831 -0.2222  0.3293
 8906SOL    HW138180   4.058   0.475   7.156 -0.1055  0.8954  0.8841
 8906SOL    HW238181   3.966   0.588   7.152 -0.4403 -0.5676  0.8856
 8907SOL     OW38182   2.468   0.830   7.330  0.2980 -0.5961  0.1931
 8907SOL    HW138183   2.532   0.792   7.391 -0.1844  1.2961  1.8768
 8907SOL    HW238184   2.463   0.919   7.364 -0.8621 -0.6521  0.1805
 8908SOL     OW38185   4.615   1.615   9.077  0.1085 -0.1137  0.1766
 8908SOL    HW138186   4.701   1.574   9.063  0.7895  1.3104  0.1678
 8908SOL    HW238187   4.610   1.594   9.170  2.9303 -3.0689 -0.3142
 8909SOL     OW38188   2.218   0.699   7.192 -0.5214  0.3341  0.2865
 8909SOL    HW138189   2.135   0.734   7.223 -1.2761 -1.9335  0.8483
 8909SOL    HW238190   2.279   0.764   7.227  0.4353 -0.4188  0.0269
 8910SOL     OW38191   4.718   0.694  11.096  0.0477 -0.2513  0.0545
 8910SOL    HW138192   4.693   0.747  11.172 -1.0005 -0.1631 -0.3416
 8910SOL    HW238193   4.679   0.608  11.111  1.2754 -0.7629  0.2731
 8911SOL     OW38194   2.504   3.903   8.458 -0.5864 -0.1327 -0.0024
 8911SOL    HW138195   2.543   3.904   8.370  1.0441  1.1264  0.7294
 8911SOL    HW238196   2.441   3.831   8.458 -1.3241  0.5245  0.7355
 8912SOL     OW38197   0.950   3.096   7.206 -0.1345  0.1310  0.6533
 8912SOL    HW138198   0.893   3.169   7.179  0.7256  0.0774 -1.3692
 8912SOL    HW238199   0.907   3.022   7.163  3.6262 -1.6048 -0.1033
 8913SOL     OW38200   4.634   0.084   5.135  0.0326  0.6424  0.9026
 8913SOL    HW138201   4.662   0.164   5.179 -0.2292  1.0398  0.3563
 8913SOL    HW238202   4.638   0.015   5.200 -0.0444 -0.8891 -0.7181
 8914SOL     OW38203   0.755   0.389   0.955  0.9856  0.1210 -0.1014
 8914SOL    HW138204   0.825   0.344   1.002 -0.2601 -1.1820  0.5119
 8914SOL    HW238205   0.710   0.434   1.026 -2.8815  1.8272 -3.6151
 8915SOL     OW38206   3.820   0.497   2.583  0.0808 -0.2003  0.9274
 8915SOL    HW138207   3.883   0.525   2.517 -0.8439 -1.1694 -0.3739
 8915SOL    HW238208   3.878   0.433   2.624  2.5129  1.2339 -0.2493
 8916SOL     OW38209   1.511   4.245   5.377  0.4164 -0.7060  0.5204
 8916SOL    HW138210   1.479   4.335   5.365 -1.0136 -1.2856 -0.0756
 8916SOL    HW238211   1.474   4.208   5.297 -0.5760  1.4597 -0.0141
 8917SOL     OW38212   2.560   2.504   5.246 -0.3789  0.0331 -0.0752
 8917SOL    HW138213   2.539   2.447   5.319  2.0407 -1.7288 -0.7547
 8917SOL    HW238214   2.525   2.589   5.271  0.1480  0.4343 -0.6893
 8918SOL     OW38215   0.345   1.264   6.619 -0.0083 -0.5512 -0.6495
 8918SOL    HW138216   0.303   1.189   6.660  2.2872 -0.0547  2.6273
 8918SOL    HW238217   0.397   1.213   6.557  1.1931 -2.5934  2.0367
 8919SOL     OW38218   4.646   1.338   6.425  0.5117  0.0275  0.1321
 8919SOL    HW138219   4.705   1.362   6.353  0.0895 -0.4174 -0.3629
 8919SOL    HW238220   4.646   1.243   6.419 -0.4549  0.0630 -0.3597
 8920SOL     OW38221   1.686   4.610   5.571 -0.2755 -0.2551 -0.5005
 8920SOL    HW138222   1.725   4.694   5.598 -0.7698 -0.4143  0.7056
 8920SOL    HW238223   1.707   4.609   5.478 -4.1903 -0.9236 -1.3614
 8921SOL     OW38224   1.782   3.058   7.964 -0.1213 -0.0657  0.2537
 8921SOL    HW138225   1.841   3.115   8.013 -1.6206  1.2210  0.5524
 8921SOL    HW238226   1.844   2.985   7.957 -0.9194 -0.8739  1.5348
 8922SOL     OW38227   2.169   0.981  12.886 -0.2640 -0.3419 -0.2207
 8922SOL    HW138228   2.123   1.003  12.967 -0.1665  0.6518 -0.4396
 8922SOL    HW238229   2.199   0.893  12.907  0.0677 -0.3419 -0.6955
 8923SOL     OW38230   2.925   4.261   5.761  0.0928 -0.4193 -0.1320
 8923SOL    HW138231   2.924   4.349   5.724  1.5367  0.2295  1.3674
 8923SOL    HW238232   2.853   4.283   5.820  1.4894  1.3710  0.8949
 8924SOL     OW38233   1.665   4.292   7.714  0.7939 -0.2194 -0.0016
 8924SOL    HW138234   1.632   4.241   7.788 -1.6278 -1.0432 -1.6626
 8924SOL    HW238235   1.674   4.376   7.760 -0.2967  0.7077 -1.4800
 8925SOL     OW38236   2.161   1.613   8.195 -0.8145  0.0023  0.1601
 8925SOL    HW138237   2.138   1.520   8.193 -2.1041  0.3075  0.8212
 8925SOL    HW238238   2.110   1.638   8.272 -1.0259  0.5264 -0.1541
 8926SOL     OW38239   3.167   2.571  12.664  0.6546  0.0081 -0.1633
 8926SOL    HW138240   3.163   2.605  12.575  2.8409  0.0700 -0.2509
 8926SOL    HW238241   3.115   2.624  12.724 -0.1378 -3.9415  2.6799
 8927SOL     OW38242   3.732   3.667   2.519 -0.0395  0.1992 -0.4232
 8927SOL    HW138243   3.816   3.621   2.521 -0.0340  0.1846 -0.8836
 8927SOL    HW238244   3.677   3.611   2.464 -0.3591  1.2578 -1.2024
 8928SOL     OW38245   0.549   1.495  15.051 -0.1151 -0.2768 -0.2575
 8928SOL    HW138246   0.554   1.416  15.106 -1.7394 -0.0699  0.1760
 8928SOL    HW238247   0.564   1.470  14.960  1.0410  0.0708 -0.1665
 8929SOL     OW38248   3.218   1.848   4.927  0.2551 -0.1121 -0.0677
 8929SOL    HW138249   3.222   1.925   4.870  1.1760  0.2947  0.5446
 8929SOL    HW238250   3.311   1.828   4.939  0.3073  0.0183 -0.2564
 8930SOL     OW38251   2.127   3.490   8.019  0.1756 -0.0819 -0.7661
 8930SOL    HW138252   2.214   3.512   8.052  0.7937 -1.0529 -1.7517
 8930SOL    HW238253   2.067   3.546   8.068 -0.5086  1.4459 -3.3389
 8931SOL     OW38254   2.474   0.840   7.058 -0.1401  0.1973 -0.4019
 8931SOL    HW138255   2.483   0.816   7.150 -0.4342 -2.3372 -1.0391
 8931SOL    HW238256   2.446   0.761   7.012 -0.5831 -0.0023  0.2169
 8932SOL     OW38257   3.977   1.363   4.328 -0.2430  0.0061  0.2342
 8932SOL    HW138258   3.937   1.437   4.374  1.8681  1.8488 -0.9095
 8932SOL    HW238259   4.071   1.382   4.328 -0.4853  1.1367 -1.7703
 8933SOL     OW38260   0.198   0.763   5.604  0.0042  0.0719  0.8960
 8933SOL    HW138261   0.210   0.761   5.510  0.2897  0.0913  0.9336
 8933SOL    HW238262   0.242   0.682   5.631 -0.2542 -0.4564 -0.2911
 8934SOL     OW38263   0.227   1.085   4.730  0.4287  0.7096 -0.2777
 8934SOL    HW138264   0.136   1.111   4.740  0.6768  1.8518 -1.0045
 8934SOL    HW238265   0.226   1.026   4.806  0.3095  1.1945  0.0965
 8935SOL     OW38266   1.774   0.928   2.218  0.1327 -0.8925 -0.0676
 8935SOL    HW138267   1.864   0.953   2.201 -0.2968  0.3105 -0.5408
 8935SOL    HW238268   1.752   0.980   2.296  1.0666 -1.4816  0.5896
 8936SOL     OW38269   0.912   1.051   8.759  0.1377  0.0287 -0.1019
 8936SOL    HW138270   0.912   0.962   8.725 -0.1522  0.4418 -1.1596
 8936SOL    HW238271   0.872   1.032   8.844  0.2138  1.2623  0.2197
 8937SOL     OW38272   1.870   4.673  16.865 -0.7661 -0.2243  0.2835
 8937SOL    HW138273   1.789   4.712  16.896 -1.5421 -0.6051 -1.2569
 8937SOL    HW238274   1.863   4.581  16.889  0.6978 -0.4459 -0.1543
 8938SOL     OW38275   3.268   4.413   8.940 -0.0923 -0.4597 -1.1237
 8938SOL    HW138276   3.214   4.491   8.927 -1.6127 -1.9069 -3.6192
 8938SOL    HW238277   3.356   4.448   8.949  0.0172 -1.0709  0.1887
 8939SOL     OW38278   0.740   2.293  14.843 -0.1119  0.2848  0.3260
 8939SOL    HW138279   0.828   2.331  14.841 -0.7360  1.5900 -2.5544
 8939SOL    HW238280   0.694   2.351  14.904  1.2518  1.8949 -0.1772
 8940SOL     OW38281   1.916   0.956   8.147  0.0089  0.3729  0.2305
 8940SOL    HW138282   1.873   1.041   8.141  1.6559  1.3229  1.6604
 8940SOL    HW238283   1.858   0.917   8.212  0.5960  0.7370  0.9748
 8941SOL     OW38284   1.868   3.841   0.879 -0.1611 -0.2071 -0.2194
 8941SOL    HW138285   1.879   3.801   0.965 -0.6266 -0.4337 -0.2621
 8941SOL    HW238286   1.858   3.935   0.895  0.4908 -0.3918  1.2256
 8942SOL     OW38287   3.519   0.699   2.098 -0.3754 -1.0254  0.6093
 8942SOL    HW138288   3.577   0.760   2.143 -1.6104  0.6947 -0.1764
 8942SOL    HW238289   3.444   0.752   2.073  0.8878  0.0534 -0.8371
 8943SOL     OW38290   4.180   2.110   7.975  0.2773  0.1224  0.0173
 8943SOL    HW138291   4.206   2.177   8.038 -2.9335  0.6428  0.7956
 8943SOL    HW238292   4.128   2.156   7.909 -0.3020  1.3350  1.3194
 8944SOL     OW38293   4.037   0.396   2.710 -0.1813  0.1469 -0.1053
 8944SOL    HW138294   4.080   0.380   2.626  1.0984  0.4453  0.4885
 8944SOL    HW238295   4.104   0.368   2.773 -0.0076  2.2178  0.6288
 8945SOL     OW38296   4.295   3.026   2.518 -0.2293 -0.2224  0.1628
 8945SOL    HW138297   4.355   3.059   2.451  0.0858 -0.1084  0.4965
 8945SOL    HW238298   4.217   3.077   2.496  1.4233  1.2218 -2.4023
 8946SOL     OW38299   1.751   2.342   2.315 -0.2372  0.1080 -0.4450
 8946SOL    HW138300   1.802   2.278   2.265  0.0339  0.3606 -0.4923
 8946SOL    HW238301   1.691   2.375   2.249 -1.1087  1.8435  1.2106
 8947SOL     OW38302   3.860   0.936   2.193  0.4866  0.2815  0.3134
 8947SOL    HW138303   3.884   1.000   2.126 -3.9525  0.4956 -1.0772
 8947SOL    HW238304   3.941   0.885   2.184 -1.3662 -2.6171  0.1418
 8948SOL     OW38305   2.879   0.071   7.288 -0.1740 -0.0980  0.0052
 8948SOL    HW138306   2.932   0.141   7.250 -0.2980 -0.4713 -0.8577
 8948SOL    HW238307   2.829   0.043   7.211  0.0112 -0.9362  0.1904
 8949SOL     OW38308   3.908   2.683   9.572  0.0303  0.3418  0.3054
 8949SOL    HW138309   3.888   2.754   9.633  0.0831  1.3109 -0.7808
 8949SOL    HW238310   3.996   2.708   9.544  0.5487 -0.3379  1.3304
 8950SOL     OW38311   0.490   2.257  10.510 -0.1127  0.2086 -0.3092
 8950SOL    HW138312   0.472   2.208  10.591 -3.8681  0.5095 -0.9670
 8950SOL    HW238313   0.461   2.197  10.441  1.6906 -1.8296  0.7069
 8951SOL     OW38314   4.642   4.427   2.113 -0.1644 -0.3097  0.3068
 8951SOL    HW138315   4.600   4.468   2.037 -1.3209  0.1707  1.2105
 8951SOL    HW238316   4.631   4.332   2.107  2.0418 -0.5004 -0.9274
 8952SOL     OW38317   1.629   3.499   3.028 -0.3466  0.4175  0.0167
 8952SOL    HW138318   1.703   3.443   3.051  0.5989  1.6727  0.0261
 8952SOL    HW238319   1.621   3.480   2.934 -1.4977 -1.3792  0.4615
 8953SOL     OW38320   4.645   3.817   6.731 -0.1513  0.0784 -0.0790
 8953SOL    HW138321   4.558   3.856   6.729 -0.6277 -0.9516  0.6108
 8953SOL    HW238322   4.635   3.733   6.776  0.7364 -0.1467 -0.2941
 8954SOL     OW38323   3.834   0.733  13.159  0.0860 -0.0890  0.4486
 8954SOL    HW138324   3.868   0.723  13.071 -1.2458 -0.7796  0.0193
 8954SOL    HW238325   3.751   0.780  13.146  1.1729  0.9638 -2.6442
 8955SOL     OW38326   0.876   1.690  12.772  0.2007 -0.1250  0.1562
 8955SOL    HW138327   0.955   1.671  12.822  0.6850  2.3728  0.3459
 8955SOL    HW238328   0.818   1.723  12.842  1.7438 -0.2690  1.5079
 8956SOL     OW38329   3.926   1.148   0.216 -0.1435  0.6422 -0.3728
 8956SOL    HW138330   3.937   1.152   0.121  0.0900 -0.2415 -0.3890
 8956SOL    HW238331   3.832   1.127   0.223  0.7423 -2.6086  1.6556
 8957SOL     OW38332   3.525   0.587   5.653 -0.6191  0.1461  0.8373
 8957SOL    HW138333   3.474   0.586   5.572 -0.6480 -0.1015  0.8591
 8957SOL    HW238334   3.465   0.533   5.705 -1.5905 -0.9273 -1.3837
 8958SOL     OW38335   3.292   2.262  17.144 -0.6343 -0.2618  0.2876
 8958SOL    HW138336   3.306   2.357  17.142  3.2712 -0.7912  2.5185
 8958SOL    HW238337   3.312   2.252  17.237  4.2835 -0.3540 -0.7930
 8959SOL     OW38338   0.129   0.617   7.915  0.1583  0.2698 -0.2994
 8959SOL    HW138339   0.203   0.654   7.866  0.4940  1.0380  0.8002
 8959SOL    HW238340   0.064   0.594   7.849 -0.0279  1.5889 -0.5854
 8960SOL     OW38341   0.425   4.110  12.223  0.1175 -0.4374  0.1206
 8960SOL    HW138342   0.368   4.183  12.249 -1.3072 -0.9467 -1.5053
 8960SOL    HW238343   0.488   4.153  12.164 -2.1575  1.7797 -0.7370
 8961SOL     OW38344   0.312   0.586   5.072  0.4888 -0.4398 -0.2253
 8961SOL    HW138345   0.329   0.496   5.099  0.7926 -0.7348 -1.3983
 8961SOL    HW238346   0.402   0.619   5.069  0.3944 -0.0078  1.8990
 8962SOL     OW38347   1.141   0.659  10.798 -0.1956  0.2498  0.1797
 8962SOL    HW138348   1.049   0.643  10.818 -0.1329  1.0245  1.0687
 8962SOL    HW238349   1.130   0.724  10.729 -1.4649 -0.1153  0.0434
 8963SOL     OW38350   3.791   4.046   6.490 -0.3145 -0.0384 -0.1407
 8963SOL    HW138351   3.778   3.961   6.447  0.5622 -0.4281  0.3766
 8963SOL    HW238352   3.846   4.011   6.559  0.5480 -0.3736 -1.0001
 8964SOL     OW38353   0.466   0.370   2.674  0.0993  0.3904 -0.2217
 8964SOL    HW138354   0.399   0.433   2.703  0.2855  0.4093  0.1720
 8964SOL    HW238355   0.415   0.291   2.692 -2.0127  1.7056 -0.2978
 8965SOL     OW38356   2.936   4.607  13.008  0.3614 -0.2068  0.4747
 8965SOL    HW138357   2.939   4.578  12.917 -0.9352  0.1425  0.3338
 8965SOL    HW238358   3.027   4.603  13.039  1.3920 -1.6468 -2.7438
 8966SOL     OW38359   1.055   2.346  14.980 -0.4965 -0.3109 -0.4410
 8966SOL    HW138360   1.125   2.411  14.982  0.7929 -1.7192  0.3475
 8966SOL    HW238361   1.051   2.310  14.892 -2.5546 -1.2120  0.0108
 8967SOL     OW38362   3.947   4.616   9.096  0.5441  0.3583 -0.8003
 8967SOL    HW138363   3.890   4.692   9.080 -0.0663  0.6508  2.6279
 8967SOL    HW238364   3.924   4.586   9.184 -0.3505  0.7786 -0.8909
 8968SOL     OW38365   0.164   2.492   4.679 -0.1788  0.3795  0.7325
 8968SOL    HW138366   0.194   2.401   4.677 -1.0469  0.1440 -1.0650
 8968SOL    HW238367   0.237   2.529   4.629 -1.3669  0.2357 -1.1202
 8969SOL     OW38368   3.213   2.721   0.870 -0.3490 -0.0261 -0.1775
 8969SOL    HW138369   3.297   2.695   0.832 -0.3905  1.7895 -1.4717
 8969SOL    HW238370   3.195   2.812   0.847 -1.0467 -0.2442 -0.4831
 8970SOL     OW38371   2.808   4.601  11.404  0.3122 -0.4088 -0.1035
 8970SOL    HW138372   2.833   4.693  11.390  1.1601 -0.5770  0.3086
 8970SOL    HW238373   2.719   4.606  11.437 -0.1814  1.0497 -1.6414
 8971SOL     OW38374   2.472   4.437   4.688 -0.4577 -0.5617 -0.3215
 8971SOL    HW138375   2.503   4.417   4.777  0.1725  1.9026  0.0065
 8971SOL    HW238376   2.563   4.457   4.666  0.0968 -1.2869  1.3035
 8972SOL     OW38377   0.435   3.991   2.329 -0.3468  0.1496 -0.0951
 8972SOL    HW138378   0.481   3.971   2.411 -0.5754  3.1688  0.7646
 8972SOL    HW238379   0.347   3.977   2.365  0.5654  1.4812  2.6882
 8973SOL     OW38380   3.227   1.558   5.666  0.1688  0.2752  0.2229
 8973SOL    HW138381   3.251   1.469   5.640 -3.3317 -0.9712  1.1927
 8973SOL    HW238382   3.195   1.601   5.587 -0.6153 -1.1372 -0.2251
 8974SOL     OW38383   1.090   4.543   3.545 -0.4317 -0.3822  0.2001
 8974SOL    HW138384   1.164   4.528   3.604 -0.6352 -2.0179  0.0489
 8974SOL    HW238385   1.119   4.621   3.498 -0.1715 -0.2846  0.5210
 8975SOL     OW38386   4.425   2.307   5.883  0.0124  0.2795  0.0999
 8975SOL    HW138387   4.503   2.288   5.830  0.2269 -1.7578  1.1261
 8975SOL    HW238388   4.442   2.398   5.908 -0.2936 -0.1991  2.0374
 8976SOL     OW38389   3.337   4.638   6.229 -0.0141  0.1796 -0.4704
 8976SOL    HW138390   3.341   4.544   6.211  1.1830  0.3712 -1.2119
 8976SOL    HW238391   3.362   4.640   6.321 -1.7216 -1.9691  0.0232
 8977SOL     OW38392   2.783   2.455   6.865  0.0016 -0.2342  0.0940
 8977SOL    HW138393   2.707   2.463   6.808 -0.1144 -1.0297  0.1403
 8977SOL    HW238394   2.819   2.542   6.850  0.3758 -0.5057 -0.5574
 8978SOL     OW38395   0.544   0.406   0.261  0.0404 -0.0369 -0.1219
 8978SOL    HW138396   0.463   0.456   0.261  0.5711  0.8258 -0.2858
 8978SOL    HW238397   0.540   0.377   0.353  0.6725 -2.1762 -0.7582
 8979SOL     OW38398   0.603   0.576   6.732 -0.3390  0.1526  0.0914
 8979SOL    HW138399   0.526   0.546   6.780 -1.4952  0.5280 -1.5333
 8979SOL    HW238400   0.615   0.503   6.672 -0.1296  0.5635 -0.3604
 8980SOL     OW38401   3.515   4.574   4.417  0.0707  0.1387 -0.1718
 8980SOL    HW138402   3.552   4.547   4.501 -0.4363  0.6819  0.2220
 8980SOL    HW238403   3.461   4.648   4.444 -0.3135 -0.9869  2.1299
 8981SOL     OW38404   4.250   1.256   7.327 -0.3782  0.3865  0.3147
 8981SOL    HW138405   4.185   1.320   7.299  2.0564  2.0781 -1.4676
 8981SOL    HW238406   4.330   1.309   7.330  1.0506 -1.8646  2.0471
 8982SOL     OW38407   2.282   4.575   6.344 -0.3379  0.7150  0.0060
 8982SOL    HW138408   2.223   4.537   6.280  0.1332  0.0549 -0.0357
 8982SOL    HW238409   2.231   4.642   6.390  1.2720  4.2827 -3.3528
 8983SOL     OW38410   4.174   2.357   6.035 -0.5598  0.6118  0.2775
 8983SOL    HW138411   4.120   2.279   6.045 -0.8041  0.7361 -0.0539
 8983SOL    HW238412   4.163   2.362   5.940 -1.0887  1.2235  0.3673
 8984SOL     OW38413   0.784   2.449   1.911 -0.7845  0.0603 -0.0525
 8984SOL    HW138414   0.848   2.459   1.840 -1.3997  0.3142 -0.5715
 8984SOL    HW238415   0.810   2.364   1.945  0.3750 -0.2122 -1.5961
 8985SOL     OW38416   0.564   0.649  17.402 -0.0445  0.1789  0.2725
 8985SOL    HW138417   0.604   0.734  17.384  0.3656 -0.4349 -1.7509
 8985SOL    HW238418   0.596   0.632  17.490 -0.5880 -2.6680 -0.0555
 8986SOL     OW38419   3.156   2.289  15.742 -0.1325  0.1984  0.3892
 8986SOL    HW138420   3.239   2.290  15.694 -0.2481  0.1675  0.1927
 8986SOL    HW238421   3.178   2.219  15.804  1.5047  1.5694  1.3475
 8987SOL     OW38422   1.060   3.889   5.785 -0.4204 -0.2527 -0.1811
 8987SOL    HW138423   1.130   3.932   5.834  0.0869 -0.2753 -0.8785
 8987SOL    HW238424   1.027   3.970   5.748 -1.7929 -0.5781  0.3267
 8988SOL     OW38425   4.122   2.674   3.909  0.1109  0.6399  0.2470
 8988SOL    HW138426   4.112   2.669   4.004  0.0973 -0.0664  0.2111
 8988SOL    HW238427   4.152   2.763   3.891  3.5937 -0.2513  1.5383
 8989SOL     OW38428   0.532   1.013   4.689 -0.2310 -0.3952  0.0550
 8989SOL    HW138429   0.526   1.024   4.595  0.2406 -1.2957 -0.0899
 8989SOL    HW238430   0.488   0.930   4.706 -2.1757  0.6640  0.1791
 8990SOL     OW38431   0.150   3.309   7.796  0.4239  0.3632 -0.4777
 8990SOL    HW138432   0.062   3.271   7.807  0.7917 -1.4576 -3.5887
 8990SOL    HW238433   0.137   3.397   7.761 -1.1205  1.0140  1.6997
 8991SOL     OW38434   4.432   3.798  11.273 -0.0147 -0.1732 -0.4115
 8991SOL    HW138435   4.522   3.783  11.302 -0.1845 -0.7155 -0.1749
 8991SOL    HW238436   4.447   3.843  11.190  0.9735 -1.0041 -0.6798
 8992SOL     OW38437   2.902   1.434   4.401  0.4404 -0.1673 -0.8076
 8992SOL    HW138438   2.884   1.528   4.392 -0.6954 -0.2416  0.5807
 8992SOL    HW238439   2.936   1.409   4.316  1.4453 -0.8974 -0.1777
 8993SOL     OW38440   4.652   4.094   2.603 -0.1615 -0.3890 -0.5657
 8993SOL    HW138441   0.007   4.146   2.614  0.5868 -1.5455 -0.5565
 8993SOL    HW238442   4.689   4.008   2.583 -1.9383 -1.2696  0.0068
 8994SOL     OW38443   2.329   3.292   4.576 -0.6012  0.1092  0.3280
 8994SOL    HW138444   2.366   3.204   4.566 -1.7526 -0.5738  2.0638
 8994SOL    HW238445   2.382   3.317   4.651  0.0833  0.5314 -0.2941
 8995SOL     OW38446   2.775   2.979   8.316 -0.2930  0.2837  0.5576
 8995SOL    HW138447   2.851   3.029   8.348  0.0580 -0.4558  0.8968
 8995SOL    HW238448   2.714   3.051   8.301 -0.7351 -0.4329 -1.0995
 8996SOL     OW38449   4.665   2.838   3.743 -0.2060 -0.4770  0.1139
 8996SOL    HW138450   4.714   2.811   3.665  1.2774 -2.1395  1.6056
 8996SOL    HW238451   4.609   2.906   3.707 -0.5907 -0.6041  0.4731
 8997SOL     OW38452   2.820   0.007   1.000  0.3469 -0.1153  0.3659
 8997SOL    HW138453   2.780   0.093   1.007  0.1755 -0.1865  0.2578
 8997SOL    HW238454   2.765   4.679   1.058  2.1231 -0.3809  1.8060
 8998SOL     OW38455   4.712   0.970   5.478  0.2840  0.5645  0.2569
 8998SOL    HW138456   0.062   0.936   5.430  0.3127 -1.4329  1.7047
 8998SOL    HW238457   4.697   0.899   5.542  1.9456 -0.6513 -0.7074
 8999SOL     OW38458   1.250   1.547   6.714  0.0480  0.1398  0.5644
 8999SOL    HW138459   1.274   1.635   6.684  0.4429  0.0977  0.7469
 8999SOL    HW238460   1.250   1.495   6.633  2.5289  0.4855  0.3416
 9000SOL     OW38461   1.187   1.452   5.114  0.1592  0.1914  0.3710
 9000SOL    HW138462   1.262   1.431   5.170  0.1400  0.0224  0.3337
 9000SOL    HW238463   1.222   1.445   5.025  0.4985  1.0570  0.4321
 9001SOL     OW38464   0.748   1.269   1.966  0.1629  0.7386 -0.1348
 9001SOL    HW138465   0.655   1.258   1.946 -0.0155  2.3563 -0.1958
 9001SOL    HW238466   0.783   1.332   1.903 -1.2073  2.8190  1.1847
 9002SOL     OW38467   1.547   3.120   2.060  0.1300 -0.0334 -0.2379
 9002SOL    HW138468   1.493   3.177   2.006 -1.0556  0.8369  1.9052
 9002SOL    HW238469   1.633   3.119   2.017  0.8362  0.7789  1.1451
 9003SOL     OW38470   1.326   0.445   2.450  0.0060  0.7105  0.0803
 9003SOL    HW138471   1.357   0.443   2.359 -2.2537 -2.5133 -0.6094
 9003SOL    HW238472   1.232   0.434   2.436 -0.7286  4.8613  1.9254
 9004SOL     OW38473   2.470   1.746   9.294 -0.6380 -0.0432  0.1671
 9004SOL    HW138474   2.461   1.713   9.383 -2.6709  0.4488  0.1393
 9004SOL    HW238475   2.466   1.841   9.302  1.2601  0.1363 -0.9987
 9005SOL     OW38476   2.758   3.138   4.630 -0.3494 -0.0944  0.2146
 9005SOL    HW138477   2.786   3.194   4.702  3.2451 -1.2278 -0.3388
 9005SOL    HW238478   2.731   3.063   4.683 -1.5264  0.8022  0.8676
 9006SOL     OW38479   2.788   3.026   8.698 -0.0248 -0.0628 -0.3162
 9006SOL    HW138480   2.800   3.020   8.793  0.6432 -1.1615 -0.4684
 9006SOL    HW238481   2.783   2.933   8.676 -1.3867  0.6181 -2.8150
 9007SOL     OW38482   4.654   1.981   8.201 -0.0291 -0.2195 -0.1662
 9007SOL    HW138483   4.670   1.957   8.110  0.7487  1.1090 -0.3840
 9007SOL    HW238484   4.682   1.896   8.234  1.7365  0.6395  0.5197
 9008SOL     OW38485   2.589   1.390   5.710  0.0439 -0.1632  0.1437
 9008SOL    HW138486   2.659   1.441   5.670  0.1309 -0.3481  0.0571
 9008SOL    HW238487   2.614   1.409   5.801 -0.2966  3.0264 -0.4335
 9009SOL     OW38488   1.354   1.655   1.461 -0.0727 -0.5655  0.0879
 9009SOL    HW138489   1.388   1.731   1.508  1.8243 -0.6948 -1.0652
 9009SOL    HW238490   1.264   1.649   1.492 -0.4473 -0.1168 -0.8968
 9010SOL     OW38491   4.470   0.305   9.167  0.3032 -0.2610 -0.0307
 9010SOL    HW138492   4.382   0.268   9.175 -0.1787  0.9346  0.0731
 9010SOL    HW238493   4.488   0.318   9.260 -0.6756  0.9000 -0.0122
 9011SOL     OW38494   2.429   1.587  13.196 -0.0116  0.3379  0.0415
 9011SOL    HW138495   2.463   1.563  13.283  1.1948 -1.9696 -1.0648
 9011SOL    HW238496   2.437   1.682  13.194  1.7238  0.1853 -0.5137
 9012SOL     OW38497   3.744   3.111   2.922  0.1535 -0.0579  0.4892
 9012SOL    HW138498   3.705   3.107   2.835  1.3596  0.3964 -0.0822
 9012SOL    HW238499   3.835   3.083   2.911  0.4308  0.5761  1.1564
 9013SOL     OW38500   1.772   0.658   7.677 -1.0708  0.1060  0.0240
 9013SOL    HW138501   1.702   0.714   7.710 -0.7615  1.1472 -1.0991
 9013SOL    HW238502   1.837   0.724   7.654  1.1735 -2.5800 -1.4263
 9014SOL     OW38503   3.283   1.298   8.186  0.1590  0.4056  0.2637
 9014SOL    HW138504   3.268   1.335   8.099 -0.5193  1.8546  1.0136
 9014SOL    HW238505   3.374   1.326   8.179  0.4909 -1.0111 -1.0673
 9015SOL     OW38506   1.295   0.866   7.545  0.3559 -0.5111 -0.0211
 9015SOL    HW138507   1.322   0.782   7.584  1.1304  0.5964  1.8104
 9015SOL    HW238508   1.243   0.847   7.466 -0.2976  2.1402 -0.2161
 9016SOL     OW38509   2.995   0.055   2.592 -0.3529 -0.1087 -0.2107
 9016SOL    HW138510   3.073   0.028   2.641 -1.9302 -2.9312  0.7734
 9016SOL    HW238511   2.931   0.054   2.663 -0.0727  0.0447  0.0431
 9017SOL     OW38512   0.832   1.133  15.835  0.1645  0.7452 -0.2144
 9017SOL    HW138513   0.743   1.115  15.805  0.2324 -0.4416  0.3144
 9017SOL    HW238514   0.880   1.091  15.764 -2.7632 -1.7400 -0.7360
 9018SOL     OW38515   2.042   4.660   6.489  0.0519  0.8008 -0.1928
 9018SOL    HW138516   1.981   4.636   6.558 -0.6679 -1.1941 -1.5085
 9018SOL    HW238517   2.023   4.582   6.436 -0.3335  0.2724  0.7359
 9019SOL     OW38518   3.027   4.075   0.711  0.5614 -0.1716  0.9813
 9019SOL    HW138519   2.961   4.006   0.706 -1.2491  1.6581 -0.2725
 9019SOL    HW238520   2.977   4.156   0.720  1.1145  0.2841 -0.0241
 9020SOL     OW38521   0.337   4.416  14.690 -0.2347 -0.0162  0.0422
 9020SOL    HW138522   0.422   4.392  14.652 -0.3226  1.0761 -0.8352
 9020SOL    HW238523   0.307   4.468  14.615 -0.2602  0.2646  0.2488
 9021SOL     OW38524   1.967   1.492   8.586 -0.5144  0.0055 -0.6586
 9021SOL    HW138525   2.017   1.546   8.525  0.1319  0.4728  0.2917
 9021SOL    HW238526   1.880   1.490   8.546 -0.3769  2.9362 -1.0582
 9022SOL     OW38527   2.975   0.198   2.049 -0.0611  0.2910 -0.0495
 9022SOL    HW138528   2.986   0.230   1.960 -1.4865 -0.7330 -0.6126
 9022SOL    HW238529   3.008   0.276   2.092  0.6775 -0.1488  0.1791
 9023SOL     OW38530   3.462   4.679   8.760  0.5447 -0.0592  0.6332
 9023SOL    HW138531   3.499   4.613   8.820  1.4368  0.1452  0.3035
 9023SOL    HW238532   3.519   0.027   8.783 -1.1771  0.5728  2.9647
 9024SOL     OW38533   3.054   1.076   2.387 -0.0729 -0.5559  0.0714
 9024SOL    HW138534   3.066   1.170   2.373  0.8034 -0.4754  1.3595
 9024SOL    HW238535   2.998   1.088   2.465  0.0484 -1.8459  0.3667
 9025SOL     OW38536   2.823   1.137  15.321 -0.0284 -0.0174  0.2852
 9025SOL    HW138537   2.781   1.181  15.395 -1.7641  0.6579 -1.1003
 9025SOL    HW238538   2.898   1.194  15.300 -0.4091 -0.0217 -1.1070
 9026SOL     OW38539   2.450   3.816   6.155 -0.4452 -0.3470 -0.3242
 9026SOL    HW138540   2.490   3.729   6.160  0.5219  0.1327  0.2387
 9026SOL    HW238541   2.391   3.805   6.080 -0.5023  2.1230 -0.6300
 9027SOL     OW38542   3.476   3.118  15.125 -0.4400  0.3061  0.0375
 9027SOL    HW138543   3.460   3.106  15.032 -0.0039 -0.1498  0.0254
 9027SOL    HW238544   3.437   3.206  15.133 -0.1973  0.4874 -0.8347
 9028SOL     OW38545   0.712   3.658  15.022  0.4792 -0.0618 -0.1864
 9028SOL    HW138546   0.638   3.699  14.977 -1.7923 -2.4731  1.3894
 9028SOL    HW238547   0.770   3.734  15.023  0.7215 -0.2529  0.7242
 9029SOL     OW38548   2.249   2.930   9.017  0.0110 -0.3748  0.3320
 9029SOL    HW138549   2.232   2.924   9.111  0.0110 -0.9042  0.2995
 9029SOL    HW238550   2.243   2.838   8.993 -0.6779  0.1977 -1.6848
 9030SOL     OW38551   0.151   3.931   6.603  0.4486 -0.0913 -0.3127
 9030SOL    HW138552   0.067   3.934   6.649  0.5983  0.3361 -0.0721
 9030SOL    HW238553   0.172   3.839   6.616 -1.9967 -0.4877  0.8155
 9031SOL     OW38554   3.778   2.383   8.653  0.3643 -0.2183  0.7588
 9031SOL    HW138555   3.766   2.440   8.577 -2.3506  0.4406  1.6886
 9031SOL    HW238556   3.689   2.349   8.661  1.0661 -2.4335 -0.9785
 9032SOL     OW38557   0.172   0.904  16.707 -0.0106  0.1809  0.0058
 9032SOL    HW138558   0.249   0.905  16.764 -1.3825 -1.1359  1.8823
 9032SOL    HW238559   0.186   0.977  16.646 -0.0533 -0.0407 -0.2662
 9033SOL     OW38560   0.864   3.715  17.199  0.5449 -0.1673  0.3080
 9033SOL    HW138561   0.794   3.686  17.258  0.7718 -0.8441  0.2482
 9033SOL    HW238562   0.865   3.652  17.127  0.2515  1.4938 -1.1515
 9034SOL     OW38563   4.410   3.899  16.013 -0.5838 -0.1514  0.3329
 9034SOL    HW138564   4.405   3.977  15.958 -0.9140  0.6413  1.4835
 9034SOL    HW238565   4.333   3.921  16.066 -0.7443  0.4648 -0.1481
 9035SOL     OW38566   0.197   2.979   6.911 -0.0629  0.1127 -0.5462
 9035SOL    HW138567   0.170   2.953   6.999 -0.9505  0.8796 -0.6002
 9035SOL    HW238568   0.174   2.903   6.859 -1.7719 -0.1716  0.6625
 9036SOL     OW38569   3.521   2.079   5.379 -0.6037  0.0376  0.0104
 9036SOL    HW138570   3.514   1.984   5.368  2.0465  0.0005 -1.5046
 9036SOL    HW238571   3.606   2.094   5.337 -0.6545  0.4090  0.0449
 9037SOL     OW38572   4.088   4.670  14.841  0.8841  0.1992  0.1569
 9037SOL    HW138573   4.076   4.575  14.843 -0.6933  0.3653 -1.4942
 9037SOL    HW238574   4.180   4.685  14.817  0.8631 -0.0676 -0.0993
 9038SOL     OW38575   3.184   4.696   3.547 -0.3862 -1.1224  0.0629
 9038SOL    HW138576   3.101   4.669   3.584 -0.1558 -0.2235  1.2278
 9038SOL    HW238577   3.219   4.613   3.513  0.0965 -0.8457 -0.1290
 9039SOL     OW38578   1.551   1.094   8.793  0.0177 -0.3176  0.2054
 9039SOL    HW138579   1.461   1.123   8.804 -0.4841 -1.5164 -0.6897
 9039SOL    HW238580   1.554   1.028   8.862 -0.6547  0.9662  1.4549
 9040SOL     OW38581   1.590   3.059   4.771 -0.4463  0.8124 -0.3547
 9040SOL    HW138582   1.654   3.110   4.720  0.5606  0.1104  0.2006
 9040SOL    HW238583   1.570   2.986   4.712 -1.7799  2.1141 -1.5157
 9041SOL     OW38584   1.523   0.168   2.992 -0.0772 -0.2219  0.0794
 9041SOL    HW138585   1.602   0.209   3.026 -0.7900 -0.4517  2.0580
 9041SOL    HW238586   1.453   0.225   3.023  0.8651 -0.3539  2.4585
 9042SOL     OW38587   1.553   2.056   2.499 -0.4368  0.4547  0.1976
 9042SOL    HW138588   1.596   1.988   2.447 -3.0892  0.0215 -1.4251
 9042SOL    HW238589   1.611   2.057   2.575 -1.0734 -0.0615  0.6867
 9043SOL     OW38590   3.584   2.296   7.764  0.2887 -0.3268 -0.4714
 9043SOL    HW138591   3.592   2.218   7.710  0.8743 -0.2556 -0.4935
 9043SOL    HW238592   3.612   2.259   7.847 -0.3915 -2.0508 -1.0165
 9044SOL     OW38593   4.348   3.179   1.438 -0.4729 -0.0673  0.3580
 9044SOL    HW138594   4.315   3.106   1.386  0.8759  0.2242 -0.8869
 9044SOL    HW238595   4.264   3.214   1.470  0.5763  0.9230  2.0281
 9045SOL     OW38596   0.973   3.944   5.371 -0.0743  0.2116  0.4083
 9045SOL    HW138597   1.026   4.024   5.361 -1.9718  1.5331  1.0342
 9045SOL    HW238598   1.010   3.896   5.297 -1.5587  0.7491 -0.6665
 9046SOL     OW38599   2.548   1.608  17.676  0.1866 -0.4430 -0.0883
 9046SOL    HW138600   2.474   1.550  17.657 -0.2954  0.7158 -1.7353
 9046SOL    HW238601   2.620   1.549  17.658 -0.3229 -2.2565  3.7548
 9047SOL     OW38602   1.868   3.265   0.145  0.0926  0.2492 -0.2082
 9047SOL    HW138603   1.852   3.349   0.187 -1.2570  0.0975 -0.4307
 9047SOL    HW238604   1.852   3.201   0.216 -0.0744 -0.1669 -0.6205
 9048SOL     OW38605   0.745   2.200   3.628  0.1033 -0.1244  0.2605
 9048SOL    HW138606   0.661   2.182   3.668 -0.1745  1.8310  0.5570
 9048SOL    HW238607   0.734   2.171   3.537 -1.8373  1.1811  0.0873
 9049SOL     OW38608   3.555   2.066   3.468  0.2984 -0.4867  0.2807
 9049SOL    HW138609   3.503   2.121   3.527 -0.0024  1.0980 -1.4692
 9049SOL    HW238610   3.633   2.051   3.522 -0.7380 -1.8356  1.4219
 9050SOL     OW38611   0.219   1.452   6.780  0.0620  0.0677  0.2280
 9050SOL    HW138612   0.274   1.379   6.752 -1.8955 -0.3005 -2.7052
 9050SOL    HW238613   0.130   1.419   6.769 -1.1538  3.1803  0.7451
 9051SOL     OW38614   3.219   4.452  15.663  0.8999 -0.3927 -0.4526
 9051SOL    HW138615   3.263   4.522  15.614  0.0468  0.6104  0.2129
 9051SOL    HW238616   3.267   4.458  15.746 -0.6197  0.3503  0.3763
 9052SOL     OW38617   3.217   3.105   2.629 -0.5229  0.2789  0.2415
 9052SOL    HW138618   3.206   3.010   2.631 -2.9168  0.5392 -0.7768
 9052SOL    HW238619   3.278   3.110   2.556 -1.1996 -2.5572 -0.5092
 9053SOL     OW38620   1.323   3.984   8.456 -0.0345  0.1256 -0.3034
 9053SOL    HW138621   1.379   4.062   8.456  0.1501 -0.0210  1.5539
 9053SOL    HW238622   1.256   4.004   8.521 -0.0068  2.4381 -1.0008
 9054SOL     OW38623   1.187   4.510  15.735 -0.3424  0.1791 -0.2706
 9054SOL    HW138624   1.144   4.457  15.801 -2.0864  1.3438 -0.4848
 9054SOL    HW238625   1.277   4.477  15.747 -0.7020 -1.0952 -1.0793
 9055SOL     OW38626   2.816   2.083   1.952 -0.7341  0.1296  0.3902
 9055SOL    HW138627   2.872   2.137   1.896 -1.1480  0.7323  0.5593
 9055SOL    HW238628   2.730   2.093   1.912 -2.2587 -0.1262  3.5799
 9056SOL     OW38629   3.567   3.398   7.281 -0.2214  0.1686  0.0161
 9056SOL    HW138630   3.557   3.316   7.233  1.9999  0.3813 -0.7914
 9056SOL    HW238631   3.590   3.360   7.366 -2.1107 -1.0961 -0.0445
 9057SOL     OW38632   3.944   1.178   7.677 -0.3165  0.4418  0.8531
 9057SOL    HW138633   4.019   1.174   7.618 -1.0392 -1.9335  0.1204
 9057SOL    HW238634   3.875   1.149   7.616 -0.9176  2.5444  0.5233
 9058SOL     OW38635   1.597   2.396   9.084  0.4924 -0.4359 -0.4246
 9058SOL    HW138636   1.501   2.395   9.079  0.4719  0.6131 -0.1958
 9058SOL    HW238637   1.627   2.361   9.168  2.8164  1.3588 -0.4805
 9059SOL     OW38638   2.411   0.128   0.644 -0.3328  0.5482 -0.8641
 9059SOL    HW138639   2.416   0.201   0.706 -0.5725  0.2992 -0.5477
 9059SOL    HW238640   2.398   0.180   0.565  0.3690  2.9432  0.6046
 9060SOL     OW38641   4.404   4.465   5.321 -0.1881  0.0490 -0.0895
 9060SOL    HW138642   4.384   4.386   5.371  0.4135 -1.3821 -2.0929
 9060SOL    HW238643   4.374   4.440   5.233 -0.6651  0.0996  0.0610
 9061SOL     OW38644   2.391   2.227   7.490 -0.2686 -0.0564 -0.6317
 9061SOL    HW138645   2.423   2.303   7.442  2.5442 -2.4079 -2.4910
 9061SOL    HW238646   2.405   2.246   7.583  3.0877 -2.3377 -0.6473
 9062SOL     OW38647   2.614   2.263   8.912  0.6499 -0.0266  0.1089
 9062SOL    HW138648   2.586   2.318   8.838 -0.6051 -1.2663 -0.3315
 9062SOL    HW238649   2.556   2.289   8.983 -1.7249 -6.2922  0.4990
 9063SOL     OW38650   0.260   3.455   8.701 -0.2322 -0.2286 -0.8308
 9063SOL    HW138651   0.309   3.535   8.722  0.4904 -0.8114 -0.2674
 9063SOL    HW238652   0.210   3.489   8.627  1.2603  0.3967 -1.5555
 9064SOL     OW38653   3.749   1.822   5.869  0.6501  0.0148 -0.0055
 9064SOL    HW138654   3.827   1.839   5.921  1.0737 -0.9723 -0.3368
 9064SOL    HW238655   3.707   1.774   5.940 -1.0944  1.6103  0.0553
 9065SOL     OW38656   1.592   3.646   6.657  0.3090  0.3151  0.2020
 9065SOL    HW138657   1.511   3.694   6.676 -0.0791 -0.4240  0.4278
 9065SOL    HW238658   1.583   3.640   6.561  2.4839  0.4025 -0.0018
 9066SOL     OW38659   0.084   3.322  13.128 -0.1129  0.8240 -0.1994
 9066SOL    HW138660   0.141   3.303  13.203 -0.3448  1.3251  0.1035
 9066SOL    HW238661   0.004   3.282  13.160  0.3224  0.4338  0.4132
 9067SOL     OW38662   4.707   3.446   8.511 -0.1049  0.1421 -1.1424
 9067SOL    HW138663   0.006   3.356   8.491 -2.4963 -0.8909  0.7528
 9067SOL    HW238664   4.620   3.453   8.473 -1.1646 -3.2980  0.6435
 9068SOL     OW38665   0.585   2.120   6.749 -0.0661  0.5588  0.0727
 9068SOL    HW138666   0.613   2.137   6.659 -1.5549 -1.1368 -0.7368
 9068SOL    HW238667   0.667   2.089   6.786  0.1740  0.3377 -0.6403
 9069SOL     OW38668   0.202   4.713   6.461  0.0661 -0.0355 -0.0416
 9069SOL    HW138669   0.269   0.047   6.495 -0.5298 -1.5233  3.6537
 9069SOL    HW238670   0.230   4.635   6.509  0.8343  1.1323  1.4018
 9070SOL     OW38671   1.472   4.068  11.709  0.2440 -0.1841 -0.2066
 9070SOL    HW138672   1.544   4.053  11.769 -1.5156  0.8049  2.1512
 9070SOL    HW238673   1.491   3.995  11.651  0.8094 -2.4916  2.9047
 9071SOL     OW38674   1.405   3.611  11.159  0.3775  0.2151 -0.3598
 9071SOL    HW138675   1.457   3.691  11.165  1.2048 -0.5784  3.1956
 9071SOL    HW238676   1.341   3.633  11.226 -0.3380  1.5503 -1.4980
 9072SOL     OW38677   3.763   1.148   6.720 -0.2591  0.3596 -0.5363
 9072SOL    HW138678   3.838   1.105   6.760 -0.7981  0.6527  0.7711
 9072SOL    HW238679   3.744   1.089   6.647 -0.3624 -0.2390 -0.0242
 9073SOL     OW38680   2.713   2.195   4.549  0.4110  0.0437 -0.1960
 9073SOL    HW138681   2.627   2.156   4.563  0.3611  0.8608  1.8866
 9073SOL    HW238682   2.759   2.157   4.624 -1.2294  0.7641  1.1707
 9074SOL     OW38683   3.974   2.995   5.053 -0.0865 -0.1055  0.1429
 9074SOL    HW138684   4.007   3.022   5.138  3.0011 -2.0232 -0.4734
 9074SOL    HW238685   3.886   2.974   5.085  0.6237 -1.9343  0.8980
 9075SOL     OW38686   2.953   0.931  12.496  0.9671  0.1392 -0.1836
 9075SOL    HW138687   2.885   0.866  12.515  0.4273  0.9091  0.5051
 9075SOL    HW238688   2.955   0.967  12.585  0.7449  0.8089 -0.4534
 9076SOL     OW38689   1.008   0.310   3.533  0.0897 -0.4313 -0.4925
 9076SOL    HW138690   0.964   0.385   3.572  0.7904  0.1038 -0.7397
 9076SOL    HW238691   1.096   0.338   3.558 -0.4016 -0.6678  1.4718
 9077SOL     OW38692   4.381   3.253   7.860 -0.4677  0.3770  0.8112
 9077SOL    HW138693   4.348   3.324   7.915 -2.1614  2.6457 -3.1584
 9077SOL    HW238694   4.417   3.309   7.792 -0.3624 -1.2723 -0.4959
 9078SOL     OW38695   3.160   1.084   4.558 -0.0837 -0.0171  0.1359
 9078SOL    HW138696   3.069   1.055   4.562 -0.0988  0.1054  0.8053
 9078SOL    HW238697   3.207   1.009   4.595  0.9124  0.7112  0.3676
 9079SOL     OW38698   0.808   1.252  17.295 -0.8007 -0.5691 -0.2031
 9079SOL    HW138699   0.720   1.291  17.304 -0.4995  0.1542 -0.4165
 9079SOL    HW238700   0.826   1.244  17.389  4.0245 -1.6806 -1.2471
 9080SOL     OW38701   2.445   1.672   4.154 -0.0542  0.2642  0.5315
 9080SOL    HW138702   2.425   1.596   4.209  1.6093  0.1338  0.9541
 9080SOL    HW238703   2.360   1.682   4.111  0.9041  2.5430 -0.8129
 9081SOL     OW38704   3.102   0.677   4.819  0.0941 -0.1951  0.3316
 9081SOL    HW138705   3.146   0.618   4.880  0.4291  0.6373  0.8867
 9081SOL    HW238706   3.099   0.754   4.875  3.4453  0.2212 -0.0313
 9082SOL     OW38707   2.617   0.691   7.503 -0.5583  0.1532 -0.0664
 9082SOL    HW138708   2.682   0.754   7.536 -0.5418 -0.5014  1.1514
 9082SOL    HW238709   2.579   0.656   7.584 -0.9217  1.3233  0.2661
 9083SOL     OW38710   0.530   3.324  17.649  0.2832 -0.4985 -0.0962
 9083SOL    HW138711   0.588   3.253  17.679  1.2142  0.7787  1.0960
 9083SOL    HW238712   0.454   3.296  17.700 -0.0536  1.6646  0.5629
 9084SOL     OW38713   2.381   4.158   3.224 -0.0635 -0.3676 -0.0271
 9084SOL    HW138714   2.457   4.109   3.256  0.4828  0.3500 -0.2268
 9084SOL    HW238715   2.331   4.178   3.303 -1.0478 -0.6636 -0.5764
 9085SOL     OW38716   0.054   1.150   5.860 -0.9014  0.0648  0.4815
 9085SOL    HW138717   0.082   1.066   5.824  0.0719  0.9437 -0.8090
 9085SOL    HW238718   0.074   1.143   5.953 -2.1428 -1.2756  0.6552
 9086SOL     OW38719   3.652   2.619  14.735  0.1275 -0.3703 -0.5414
 9086SOL    HW138720   3.727   2.574  14.696  0.9878  0.3328  0.2771
 9086SOL    HW238721   3.692   2.706  14.749 -0.2573 -0.3990  0.7453
 9087SOL     OW38722   4.479   0.962   1.614  0.1372 -0.4639  0.3654
 9087SOL    HW138723   4.492   0.882   1.563  0.7093 -0.1520  0.0305
 9087SOL    HW238724   4.429   1.018   1.554  1.3055 -0.2577 -0.4068
 9088SOL     OW38725   3.092   4.284   7.308 -0.5327  0.7961  0.5027
 9088SOL    HW138726   3.039   4.209   7.283  0.8872 -0.3066  0.7655
 9088SOL    HW238727   3.144   4.245   7.378 -0.0710  1.4735  0.5455
 9089SOL     OW38728   2.770   0.986  15.882  0.3012  0.2845  0.4144
 9089SOL    HW138729   2.792   1.075  15.911 -0.7401  1.1687 -1.5122
 9089SOL    HW238730   2.727   0.947  15.957 -0.1794 -0.0737 -0.0492
 9090SOL     OW38731   3.246   0.095   7.708 -0.2893 -0.1854 -0.4206
 9090SOL    HW138732   3.201   0.013   7.731  0.7629 -0.6592 -0.0398
 9090SOL    HW238733   3.230   0.095   7.614 -0.7176  0.1664 -0.3470
 9091SOL     OW38734   2.847   1.416  16.771 -0.3638 -0.1079 -0.0667
 9091SOL    HW138735   2.847   1.506  16.801  2.6004 -0.4875  1.0542
 9091SOL    HW238736   2.762   1.386  16.802 -0.1596 -1.2228 -0.5678
 9092SOL     OW38737   1.987   3.205  13.139  0.0453 -0.3951  0.0570
 9092SOL    HW138738   1.912   3.184  13.082 -0.3221  2.8690 -0.6752
 9092SOL    HW238739   1.958   3.146  13.209 -1.7141 -0.0851 -0.4099
 9093SOL     OW38740   3.090   0.935   0.085 -0.5475  0.4483  0.2551
 9093SOL    HW138741   3.123   0.890   0.163  2.8503  2.2914 -0.1483
 9093SOL    HW238742   3.119   0.876   0.016 -0.5933 -0.0125  0.6241
 9094SOL     OW38743   3.141   1.508  16.413 -0.1775  0.0308  0.2459
 9094SOL    HW138744   3.104   1.446  16.476 -1.9213  0.0239 -0.8015
 9094SOL    HW238745   3.065   1.518  16.356 -0.1420 -0.7460  0.0565
 9095SOL     OW38746   3.880   3.194  16.385  0.1024  0.2718  0.5917
 9095SOL    HW138747   3.933   3.250  16.441 -0.9029 -0.2886  2.0954
 9095SOL    HW238748   3.921   3.197  16.298  1.4851  1.3240  1.2819
 9096SOL     OW38749   0.957   1.388   8.963  0.2963 -0.1507 -0.7287
 9096SOL    HW138750   0.939   1.463   8.906 -0.8231 -0.7526 -1.1599
 9096SOL    HW238751   0.869   1.354   8.957  0.1216  0.0670  0.5660
 9097SOL     OW38752   0.343   3.752   5.552  0.1030  0.2093  0.1382
 9097SOL    HW138753   0.390   3.806   5.616  1.6431 -2.3618  1.1804
 9097SOL    HW238754   0.325   3.672   5.602  0.0698 -0.0764 -0.3344
 9098SOL     OW38755   3.182   2.208   1.321 -0.8162 -0.6172 -0.2247
 9098SOL    HW138756   3.227   2.206   1.405  1.4964  1.8104 -1.3804
 9098SOL    HW238757   3.253   2.178   1.264  0.4898  0.4001  0.8590
 9099SOL     OW38758   0.186   1.998   1.908  0.7475  0.3945  0.5776
 9099SOL    HW138759   0.123   1.973   1.840  0.0136 -2.1618  2.2312
 9099SOL    HW238760   0.221   2.080   1.873 -2.0139  1.4197  0.1612
 9100SOL     OW38761   3.605   2.349   4.817  0.0894  0.1065 -0.4018
 9100SOL    HW138762   3.682   2.350   4.873 -1.7597  1.3358  2.1222
 9100SOL    HW238763   3.639   2.354   4.728  0.4996  0.8959 -0.1972
 9101SOL     OW38764   3.136   1.621  15.302 -0.0940 -0.0621 -0.2774
 9101SOL    HW138765   3.169   1.662  15.222  0.3231 -0.7106 -0.4374
 9101SOL    HW238766   3.214   1.622  15.358 -0.0708 -1.3242 -0.2867
 9102SOL     OW38767   1.375   0.164  15.477  0.2412  0.3063 -0.2115
 9102SOL    HW138768   1.418   0.086  15.442 -2.3503 -0.7740 -0.9991
 9102SOL    HW238769   1.342   0.209  15.400  0.1762 -1.7511 -1.3996
 9103SOL     OW38770   0.734   3.510   0.174 -0.2692  0.0861  0.1870
 9103SOL    HW138771   0.708   3.588   0.224 -1.5597 -0.1253 -0.1562
 9103SOL    HW238772   0.654   3.458   0.174  1.9655 -3.3010  2.3798
 9104SOL     OW38773   3.302   3.470   1.058 -0.7315 -0.0449 -0.3550
 9104SOL    HW138774   3.389   3.433   1.043 -0.4510  0.8787 -0.9965
 9104SOL    HW238775   3.254   3.461   0.976  1.6206  1.7716 -1.9197
 9105SOL     OW38776   4.533   3.140   8.866  0.3356 -0.0632 -0.5420
 9105SOL    HW138777   4.514   3.152   8.959  1.6397  1.0291 -0.4177
 9105SOL    HW238778   4.624   3.170   8.862  0.4645 -0.6512 -1.7464
 9106SOL     OW38779   2.479   2.445   7.366 -0.0626  0.3184  0.7379
 9106SOL    HW138780   2.394   2.474   7.335  0.4167  0.3391 -0.5561
 9106SOL    HW238781   2.520   2.418   7.284 -0.8865  2.0442 -0.2469
 9107SOL     OW38782   0.437   3.944   0.793  0.0234 -0.0706 -0.1915
 9107SOL    HW138783   0.458   4.015   0.732  1.4532 -0.1037  0.2426
 9107SOL    HW238784   0.384   3.994   0.854  0.7236 -1.1452  1.2887
 9108SOL     OW38785   1.450   2.157   8.332 -0.2583  0.0606  0.0078
 9108SOL    HW138786   1.525   2.151   8.392  0.0288 -1.1757 -0.4807
 9108SOL    HW238787   1.407   2.077   8.362 -0.7414  0.7208  1.0613
 9109SOL     OW38788   3.964   2.152   8.902 -0.4726 -0.2590 -0.4061
 9109SOL    HW138789   3.928   2.191   8.982 -0.7634 -0.7407 -0.3035
 9109SOL    HW238790   4.036   2.214   8.891 -0.5276 -0.1579 -0.2016
 9110SOL     OW38791   3.112   0.909   3.778 -0.2015  0.7876  0.7914
 9110SOL    HW138792   3.171   0.909   3.703 -0.7630 -0.4108  0.3290
 9110SOL    HW238793   3.026   0.888   3.739 -0.6923  2.2574  1.0871
 9111SOL     OW38794   0.428   3.876  12.809 -0.5085 -0.3486  0.9359
 9111SOL    HW138795   0.417   3.894  12.715  1.3342 -2.0195  0.4227
 9111SOL    HW238796   0.416   3.782  12.805 -0.1538 -0.5322  4.2171
 9112SOL     OW38797   3.433   0.967   0.372  0.5252 -0.1941 -0.2294
 9112SOL    HW138798   3.490   1.042   0.388 -0.3500  0.7320 -1.4096
 9112SOL    HW238799   3.489   0.924   0.308 -0.0342 -0.3566 -0.6112
 9113SOL     OW38800   2.870   3.944  10.930  0.1441  0.0556  0.0687
 9113SOL    HW138801   2.958   3.982  10.925 -0.7358  2.1538  0.9588
 9113SOL    HW238802   2.815   4.019  10.909 -0.4967 -0.1446  1.0589
 9114SOL     OW38803   0.132   4.372   7.937 -0.3119  0.0737 -0.3610
 9114SOL    HW138804   0.196   4.417   7.882 -0.2869  0.8933  0.3557
 9114SOL    HW238805   0.161   4.281   7.930  1.8958  0.8777 -1.8504
 9115SOL     OW38806   2.990   1.874   2.752  0.4889  0.6093 -0.3953
 9115SOL    HW138807   2.907   1.920   2.765 -1.1337 -2.3941 -0.2375
 9115SOL    HW238808   3.007   1.830   2.835 -1.8497 -0.9923 -0.7823
 9116SOL     OW38809   2.579   2.258   8.032 -0.2431 -0.2944  0.4903
 9116SOL    HW138810   2.644   2.326   8.050 -1.9008  1.3112  0.4890
 9116SOL    HW238811   2.539   2.273   8.118  0.3509  0.3715  0.6568
 9117SOL     OW38812   3.675   0.546  10.101  0.3267  0.0065  0.2051
 9117SOL    HW138813   3.766   0.568  10.122 -0.3506  3.4218 -0.4079
 9117SOL    HW238814   3.670   0.557  10.006  2.2039  0.9405  0.2105
 9118SOL     OW38815   2.801   2.477   2.372 -0.0641  0.4633  0.0198
 9118SOL    HW138816   2.750   2.426   2.309  0.1438  0.2906 -0.0100
 9118SOL    HW238817   2.859   2.526   2.313  3.1129 -1.8239  1.2833
 9119SOL     OW38818   2.487   4.047   5.869  0.4717  0.5161  0.0483
 9119SOL    HW138819   2.457   3.977   5.811  1.2144 -0.3182  0.6629
 9119SOL    HW238820   2.467   4.018   5.959 -1.5427 -2.2928 -1.3144
 9120SOL     OW38821   3.628   0.520   6.488 -0.0189  1.4023  0.4999
 9120SOL    HW138822   3.579   0.595   6.454  0.2998  1.3275 -0.1264
 9120SOL    HW238823   3.596   0.520   6.578 -0.3404 -1.8622  0.4034
 9121SOL     OW38824   1.051   4.470   0.256 -1.0021 -0.3239  0.1568
 9121SOL    HW138825   1.122   4.534   0.251  0.5678 -2.0468  0.3719
 9121SOL    HW238826   1.088   4.392   0.215 -0.1385  1.2131 -1.9716
 9122SOL     OW38827   4.093   0.018   2.165  0.9391  0.0417 -0.6059
 9122SOL    HW138828   4.008   0.036   2.205  0.9398  0.9930 -1.0207
 9122SOL    HW238829   4.133   4.684   2.229  0.7787 -1.5957 -2.0022
 9123SOL     OW38830   1.648   0.036  10.100  0.4589 -0.6186 -0.2110
 9123SOL    HW138831   1.629   4.668  10.087  0.7744 -0.8316  0.8258
 9123SOL    HW238832   1.679   0.058  10.012 -0.5533  0.9070 -0.1857
 9124SOL     OW38833   1.149   2.025  15.694  0.6435  0.1058 -0.6010
 9124SOL    HW138834   1.222   2.043  15.634 -0.7777  0.4828 -2.2375
 9124SOL    HW238835   1.104   2.107  15.674  1.0745  0.6901  0.7950
 9125SOL     OW38836   1.894   2.251   5.381 -0.3064  0.9642  0.2963
 9125SOL    HW138837   1.984   2.219   5.373 -0.4689  1.1519 -2.2110
 9125SOL    HW238838   1.846   2.170   5.395  0.0207  0.4953 -1.2680
 9126SOL     OW38839   3.382   2.744   8.761  0.9728  0.7941  0.0836
 9126SOL    HW138840   3.441   2.710   8.695 -0.4415  2.0061 -1.7976
 9126SOL    HW238841   3.439   2.740   8.838  0.7531 -0.8746  0.1528
 9127SOL     OW38842   3.068   2.232   7.279 -0.7266 -0.1611 -0.1842
 9127SOL    HW138843   3.113   2.288   7.216 -1.0479  0.3182  0.0131
 9127SOL    HW238844   3.021   2.177   7.217 -2.1206 -1.6250  2.1780
 9128SOL     OW38845   1.792   4.505  17.525  0.4420  0.1658  0.0085
 9128SOL    HW138846   1.793   4.537  17.435  1.8973  2.9798  1.0084
 9128SOL    HW238847   1.798   4.410  17.525 -1.4773  0.0290 -1.8447
 9129SOL     OW38848   4.593   1.951  15.501  0.7263 -0.6635 -0.1389
 9129SOL    HW138849   4.524   1.920  15.443  0.7418 -1.7342  0.4177
 9129SOL    HW238850   4.666   1.987  15.452  0.6892  0.5929  0.7310
 9130SOL     OW38851   3.035   3.728   5.176 -0.2678 -0.7015  0.2224
 9130SOL    HW138852   2.966   3.715   5.111 -1.6633 -0.3323  1.6538
 9130SOL    HW238853   3.092   3.652   5.170  3.5198  2.3389 -2.6009
 9131SOL     OW38854   1.794   0.723  11.135  0.1380 -0.0599  0.0866
 9131SOL    HW138855   1.763   0.694  11.220 -0.8356 -0.1221 -0.2894
 9131SOL    HW238856   1.887   0.737  11.153 -0.9798  2.7452  3.7911
 9132SOL     OW38857   3.879   1.582   2.205  0.3147  0.4108  0.0668
 9132SOL    HW138858   3.972   1.606   2.199  0.7019 -1.4956 -1.5209
 9132SOL    HW238859   3.856   1.624   2.123 -1.5765 -0.2741  0.2549
 9133SOL     OW38860   0.445   1.125   8.287  1.1354  0.0260  0.4880
 9133SOL    HW138861   0.532   1.085   8.293  1.3483  0.6804  1.9175
 9133SOL    HW238862   0.455   1.197   8.349  0.6538  0.8524 -0.3915
 9134SOL     OW38863   1.121   2.991   4.097  0.7367  0.1212  0.1190
 9134SOL    HW138864   1.036   3.035   4.099  0.1363 -1.0068 -1.1395
 9134SOL    HW238865   1.172   3.068   4.122 -2.8660  2.5198  0.1926
 9135SOL     OW38866   1.243   1.863  12.704 -0.1529  0.3163 -0.0504
 9135SOL    HW138867   1.332   1.894  12.693 -0.1768  0.3401 -0.1828
 9135SOL    HW238868   1.260   1.773  12.730  2.2497  1.3919  1.9871
 9136SOL     OW38869   0.171   0.516   7.551  0.1596  0.5938  0.1276
 9136SOL    HW138870   0.212   0.559   7.475 -1.5268  0.9047 -0.6019
 9136SOL    HW238871   0.222   0.435   7.553 -0.3167  0.2358 -1.8542
 9137SOL     OW38872   2.535   1.353  11.918 -0.7380 -0.1946 -0.2219
 9137SOL    HW138873   2.622   1.387  11.895  0.7430 -3.1152  0.9767
 9137SOL    HW238874   2.554   1.289  11.987 -0.7456 -1.5833 -1.4918
 9138SOL     OW38875   4.181   0.179   6.210 -0.0106 -0.5815  0.2235
 9138SOL    HW138876   4.147   0.102   6.164  0.5680  0.3873 -1.8448
 9138SOL    HW238877   4.097   0.201   6.249  0.0491 -0.1366  0.0955
 9139SOL     OW38878   0.533   4.292   5.975  0.1269 -0.5186 -0.4054
 9139SOL    HW138879   0.592   4.283   6.050 -1.5409  0.3103  0.9954
 9139SOL    HW238880   0.459   4.336   6.017  1.1157  0.6520  0.0889
 9140SOL     OW38881   1.661   2.757  15.623  0.1773  0.3783  0.0653
 9140SOL    HW138882   1.750   2.782  15.599  0.7765 -0.4024  1.4673
 9140SOL    HW238883   1.620   2.749  15.537 -0.5580 -1.9623  0.6368
 9141SOL     OW38884   3.451   3.580  11.433 -0.1661  0.5839 -0.1205
 9141SOL    HW138885   3.497   3.634  11.498 -2.5320 -0.1548  2.1621
 9141SOL    HW238886   3.468   3.490  11.460 -2.2983 -0.3193 -1.8398
 9142SOL     OW38887   0.124   0.816   0.635  0.3779 -0.3883  0.6011
 9142SOL    HW138888   0.163   0.730   0.624 -0.7705 -0.6975 -1.1347
 9142SOL    HW238889   0.201   0.871   0.621  0.1581 -0.2847 -0.2091
 9143SOL     OW38890   2.183   2.965   6.608  0.1364  0.1792  0.6605
 9143SOL    HW138891   2.269   2.923   6.611 -1.0012 -2.0960  0.7763
 9143SOL    HW238892   2.131   2.885   6.612  0.4502 -0.1680 -2.2584
 9144SOL     OW38893   3.736   0.687   4.092  0.1270  0.1005  0.6071
 9144SOL    HW138894   3.642   0.696   4.078  0.1910 -3.1721 -1.7615
 9144SOL    HW238895   3.742   0.592   4.095  0.8754  0.0613 -1.7325
 9145SOL     OW38896   1.924   4.593   0.181 -0.2473  0.0939 -0.1918
 9145SOL    HW138897   1.940   4.593   0.086 -0.0267  2.2883 -0.1554
 9145SOL    HW238898   1.840   4.633   0.200  0.0245  0.5521  0.0451
 9146SOL     OW38899   2.300   3.453  12.027 -0.5414 -0.2957 -0.6817
 9146SOL    HW138900   2.352   3.422  11.953  1.8928 -2.5739  1.9851
 9146SOL    HW238901   2.291   3.542  11.993 -2.8776 -0.4042 -0.3511
 9147SOL     OW38902   1.570   0.383  16.947 -0.8762 -0.0347 -0.2891
 9147SOL    HW138903   1.589   0.457  16.889 -0.2059  0.1275  0.1477
 9147SOL    HW238904   1.528   0.325  16.884 -0.8112  0.1165 -0.4726
 9148SOL     OW38905   3.703   2.738   3.062  0.0204  0.8335 -0.3553
 9148SOL    HW138906   3.722   2.661   3.115 -1.0185  0.3391 -0.7011
 9148SOL    HW238907   3.790   2.765   3.034  0.2593  0.9580  0.4836
 9149SOL     OW38908   3.014   1.216   8.939 -0.1926  0.0666 -0.1092
 9149SOL    HW138909   3.017   1.211   8.844 -2.0542  2.6076 -0.2895
 9149SOL    HW238910   3.054   1.300   8.960  0.2027 -0.2739  0.5250
 9150SOL     OW38911   3.912   1.544  11.256 -0.3319 -0.0868 -0.0651
 9150SOL    HW138912   3.934   1.624  11.305 -0.2181 -0.5388  0.6110
 9150SOL    HW238913   3.832   1.512  11.296  0.7789 -2.6002  0.1087
 9151SOL     OW38914   1.425   3.515   9.163 -0.5176 -0.1726  0.1580
 9151SOL    HW138915   1.356   3.482   9.220 -0.2622 -0.2614  0.4157
 9151SOL    HW238916   1.393   3.603   9.141 -1.6061 -0.1920  1.6771
 9152SOL     OW38917   0.348   1.250  11.556  0.4951  0.0362 -0.4412
 9152SOL    HW138918   0.272   1.307  11.569  0.1629 -0.2137 -1.2302
 9152SOL    HW238919   0.328   1.213  11.469  1.5636  0.1710 -0.7370
 9153SOL     OW38920   1.588   3.255   3.907  0.0704 -0.2809  0.1180
 9153SOL    HW138921   1.517   3.318   3.895 -0.2688 -0.2018  2.6224
 9153SOL    HW238922   1.524   3.184   3.900  0.6538 -0.5854 -2.4565
 9154SOL     OW38923   2.175   3.664   4.848  0.2486  0.3306 -0.3896
 9154SOL    HW138924   2.099   3.701   4.803 -2.4759 -1.3551  2.8089
 9154SOL    HW238925   2.128   3.603   4.905  1.7391 -2.2100 -1.9242
 9155SOL     OW38926   3.311   3.164   6.002  0.3553 -0.6061  0.4744
 9155SOL    HW138927   3.223   3.150   6.036 -0.0341  1.2798  0.1987
 9155SOL    HW238928   3.305   3.139   5.910  2.0122  2.6323 -0.5186
 9156SOL     OW38929   2.166   2.231   8.429  0.2016  0.0059  0.4648
 9156SOL    HW138930   2.169   2.293   8.356  0.4310 -0.8044 -0.2098
 9156SOL    HW238931   2.250   2.238   8.475  0.3802  0.0751  0.1283
 9157SOL     OW38932   2.207   1.469  12.757  0.4587  0.3746 -0.1735
 9157SOL    HW138933   2.244   1.523  12.827 -1.7694  0.3209  1.0325
 9157SOL    HW238934   2.121   1.448  12.793 -0.2027  1.7749 -0.9584
 9158SOL     OW38935   4.571   1.862   5.136 -0.5690  0.0265  0.4369
 9158SOL    HW138936   4.569   1.958   5.140 -0.5660  0.0437  0.0491
 9158SOL    HW238937   4.506   1.838   5.202 -1.9079  0.1644 -0.8506
 9159SOL     OW38938   1.514   0.028   6.048 -0.2077  0.2700  0.0145
 9159SOL    HW138939   1.421   0.008   6.056 -0.9340  3.3638 -0.5080
 9159SOL    HW238940   1.554   0.006   6.132 -2.8970  1.2159  1.5389
 9160SOL     OW38941   4.164   2.554   7.431  0.4247 -0.2030 -0.0443
 9160SOL    HW138942   4.080   2.568   7.475  0.5316 -0.8170  0.3526
 9160SOL    HW238943   4.212   2.631   7.463  0.7213 -0.1587 -0.5962
 9161SOL     OW38944   4.301   3.059  17.306 -0.1313 -0.2937 -0.3739
 9161SOL    HW138945   4.266   3.126  17.248 -0.0561  0.0050 -0.0776
 9161SOL    HW238946   4.344   3.110  17.375 -1.0930 -0.8481  0.6329
 9162SOL     OW38947   3.642   3.291   2.655  0.6971 -0.2861  0.3369
 9162SOL    HW138948   3.738   3.294   2.650  0.5799  5.5344  2.2700
 9162SOL    HW238949   3.630   3.196   2.662 -0.7699  0.0952  2.8842
 9163SOL     OW38950   1.047   3.390   5.320 -0.5606 -0.3055  0.4330
 9163SOL    HW138951   1.087   3.454   5.379 -3.0497  0.9803  0.7581
 9163SOL    HW238952   1.064   3.423   5.231  1.7682 -0.4575  0.8286
 9164SOL     OW38953   1.574   3.514  16.528  0.2541 -0.1521  0.1025
 9164SOL    HW138954   1.561   3.451  16.600 -1.8627  0.3274  0.1324
 9164SOL    HW238955   1.493   3.496  16.482  1.2099 -0.1293 -1.5793
 9165SOL     OW38956   3.262   1.710   1.637 -1.0985  0.7814  0.0249
 9165SOL    HW138957   3.180   1.722   1.684 -1.2570 -1.2070  0.2257
 9165SOL    HW238958   3.327   1.757   1.688 -1.8695  1.2818  0.5411
 9166SOL     OW38959   1.288   2.699   4.631 -0.2439 -0.3429  0.3065
 9166SOL    HW138960   1.233   2.651   4.692 -0.4419 -2.4664 -1.5351
 9166SOL    HW238961   1.276   2.645   4.553 -0.0141 -1.1914  0.8639
 9167SOL     OW38962   3.700   1.973   3.097  0.6301  0.3788  0.5596
 9167SOL    HW138963   3.623   2.019   3.133 -0.1237  0.2475 -0.8994
 9167SOL    HW238964   3.714   1.909   3.167  0.7228  0.4991  0.6496
 9168SOL     OW38965   2.589   4.292   0.781  0.3729  0.0502  0.0347
 9168SOL    HW138966   2.523   4.223   0.789  1.9903 -1.2436  2.0561
 9168SOL    HW238967   2.540   4.362   0.738 -0.9316  0.2417  1.7970
 9169SOL     OW38968   4.144   3.770   8.917  0.0123 -0.1155 -0.2616
 9169SOL    HW138969   4.107   3.682   8.928  1.0413 -0.4702  0.3375
 9169SOL    HW238970   4.204   3.773   8.991  1.1646 -0.1821 -1.2026
 9170SOL     OW38971   3.230   1.514   4.972 -0.2534 -0.0106  0.0691
 9170SOL    HW138972   3.189   1.595   4.941  4.3320  2.5983  0.7896
 9170SOL    HW238973   3.294   1.516   4.901 -0.4673  2.4501 -0.0486
 9171SOL     OW38974   4.633   4.589   8.776  0.2694 -0.5191  0.0026
 9171SOL    HW138975   4.662   4.675   8.744 -0.0860 -0.2515  0.3932
 9171SOL    HW238976   4.713   4.538   8.766  0.7694  0.4544 -0.9370
 9172SOL     OW38977   1.804   2.809   2.768  0.5171  0.0234 -0.1858
 9172SOL    HW138978   1.817   2.751   2.842 -0.3885 -0.4784 -0.4167
 9172SOL    HW238979   1.888   2.802   2.723  0.4100  2.0992 -0.7432
 9173SOL     OW38980   1.529   2.715   5.052 -0.3839 -0.5803  0.2109
 9173SOL    HW138981   1.524   2.740   4.959 -1.1366  0.9778  0.6723
 9173SOL    HW238982   1.447   2.755   5.078 -0.9183  0.3654 -2.9072
 9174SOL     OW38983   0.798   2.482   6.855 -0.4896  0.2954 -0.4270
 9174SOL    HW138984   0.720   2.532   6.828 -1.2027 -1.4627 -1.6313
 9174SOL    HW238985   0.800   2.475   6.950  1.8318 -2.7349 -0.7014
 9175SOL     OW38986   2.643   0.248   7.460  0.1624 -0.2746  0.0801
 9175SOL    HW138987   2.636   0.153   7.460 -0.3005 -0.2587  3.3889
 9175SOL    HW238988   2.634   0.265   7.554  1.2386  2.7542 -0.3313
 9176SOL     OW38989   0.759   1.667   4.590 -0.0608  0.7367  0.0969
 9176SOL    HW138990   0.685   1.690   4.533  1.5364  1.9988 -1.4258
 9176SOL    HW238991   0.714   1.633   4.668 -1.6290 -0.5413 -1.3495
 9177SOL     OW38992   4.288   3.443   2.917  0.6256  0.6014 -0.0231
 9177SOL    HW138993   4.338   3.512   2.873  0.3307 -0.1584 -1.5438
 9177SOL    HW238994   4.329   3.454   3.004 -3.7264  0.3791  2.0374
 9178SOL     OW38995   2.467   1.370  13.035 -0.2682 -0.0239  0.1157
 9178SOL    HW138996   2.404   1.424  12.987 -0.3275 -1.9086 -1.9308
 9178SOL    HW238997   2.481   1.428  13.110  0.2666  0.0059 -0.0088
 9179SOL     OW38998   2.732   2.021   2.780 -0.1084  0.8983 -0.0621
 9179SOL    HW138999   2.656   1.966   2.798 -0.0658  0.6662 -0.5896
 9179SOL    HW239000   2.729   2.081   2.854  3.5589  0.5301  0.4142
 9180SOL     OW39001   0.353   2.073  14.333 -0.4205  0.0062  0.5169
 9180SOL    HW139002   0.421   2.009  14.310 -1.0020  0.0301 -1.2834
 9180SOL    HW239003   0.302   2.085  14.253 -1.2458 -0.3995  0.9890
 9181SOL     OW39004   0.712   2.630   5.578 -0.0064 -0.8407  0.1522
 9181SOL    HW139005   0.753   2.544   5.569  0.3778 -0.9897  3.3760
 9181SOL    HW239006   0.774   2.684   5.626 -0.7174  1.3256 -1.3745
 9182SOL     OW39007   1.580   1.732   8.874 -0.7549  0.3420  0.1881
 9182SOL    HW139008   1.638   1.783   8.931  0.4622  1.1014 -1.7154
 9182SOL    HW239009   1.496   1.777   8.879 -0.4645  1.1040 -1.8398
 9183SOL     OW39010   2.576   2.805   9.713  0.1246  0.5742 -0.1559
 9183SOL    HW139011   2.551   2.717   9.684  1.1042 -0.1244  1.1530
 9183SOL    HW239012   2.618   2.792   9.798 -0.0762  0.0942 -0.1321
 9184SOL     OW39013   4.564   3.580   1.955 -0.2318 -0.3493  0.1977
 9184SOL    HW139014   4.617   3.655   1.981 -0.2730  0.5341 -2.3183
 9184SOL    HW239015   4.608   3.535   1.882 -2.1683  0.3751 -1.4279
 9185SOL     OW39016   0.324   3.218   8.002 -0.1930 -0.0019 -0.2247
 9185SOL    HW139017   0.302   3.126   8.017 -1.1954  0.1264 -0.9524
 9185SOL    HW239018   0.263   3.241   7.933  0.5342  1.0140 -0.5202
 9186SOL     OW39019   0.615   2.457   4.991  0.2634  0.2738  1.1111
 9186SOL    HW139020   0.686   2.432   4.933 -0.3826  1.5617 -0.2528
 9186SOL    HW239021   0.545   2.410   4.947  0.0224 -0.0279  1.8125
 9187SOL     OW39022   0.929   2.154   1.811 -0.4320  0.4998  0.6474
 9187SOL    HW139023   0.998   2.216   1.838  1.1579  0.3956 -3.1589
 9187SOL    HW239024   0.933   2.166   1.716  0.7089  0.4917  0.6857
 9188SOL     OW39025   1.432   1.539  13.609 -0.1712 -0.3675  0.2976
 9188SOL    HW139026   1.387   1.621  13.588  0.6453 -0.0625 -0.2539
 9188SOL    HW239027   1.443   1.504  13.520 -0.3588  0.6258 -0.1263
 9189SOL     OW39028   4.531   2.208  13.406  0.1507 -0.6335  0.1711
 9189SOL    HW139029   4.435   2.199  13.399  0.1250 -0.0199 -0.2240
 9189SOL    HW239030   4.562   2.128  13.363 -2.1745 -2.9397  2.7771
 9190SOL     OW39031   2.063   1.235   4.011  0.2165 -0.1107 -0.6074
 9190SOL    HW139032   2.121   1.311   4.019  2.4029 -2.0329  1.6240
 9190SOL    HW239033   2.008   1.268   3.940 -3.1176 -0.8013  1.6297
 9191SOL     OW39034   1.634   4.154  15.389  0.0013 -0.1822  0.2726
 9191SOL    HW139035   1.719   4.164  15.347  0.1687 -0.9229  0.4343
 9191SOL    HW239036   1.620   4.065  15.357 -3.3960  0.2272  0.6744
 9192SOL     OW39037   4.144   0.342   5.007 -0.4390  0.2465 -0.3657
 9192SOL    HW139038   4.053   0.319   5.022 -0.4548  0.6962  0.2633
 9192SOL    HW239039   4.171   0.372   5.094  0.2811 -2.7899  0.4530
 9193SOL     OW39040   3.401   3.135  10.454  0.3404 -0.1817  0.8032
 9193SOL    HW139041   3.364   3.048  10.440 -0.4792  0.4678 -1.0197
 9193SOL    HW239042   3.394   3.152  10.548 -2.5190 -1.4748  0.8218
 9194SOL     OW39043   2.690   1.258   8.753 -0.1298 -0.6353  0.1466
 9194SOL    HW139044   2.615   1.293   8.705 -0.5796 -1.0033  0.5785
 9194SOL    HW239045   2.643   1.255   8.836  1.1784  2.9920  0.9994
 9195SOL     OW39046   1.223   3.270   5.103  0.0291  0.5270 -0.2825
 9195SOL    HW139047   1.228   3.346   5.045 -0.9153  2.0768  1.6805
 9195SOL    HW239048   1.282   3.202   5.071 -2.4863 -1.0145 -1.6544
 9196SOL     OW39049   3.522   2.147   7.083  0.2343  0.0027  0.0906
 9196SOL    HW139050   3.556   2.069   7.126  1.6183  0.2797 -0.4957
 9196SOL    HW239051   3.456   2.178   7.145  1.0681 -1.4245  1.6969
 9197SOL     OW39052   4.045   0.204   7.042  0.5516 -0.0217  0.4575
 9197SOL    HW139053   4.022   0.269   7.108  0.2434  2.1680 -1.8249
 9197SOL    HW239054   4.030   0.118   7.083  0.1131 -0.1216  0.0854
 9198SOL     OW39055   3.927   4.276   9.474  0.4826  0.0079  0.6343
 9198SOL    HW139056   3.835   4.252   9.470  0.6955 -0.5701 -0.8275
 9198SOL    HW239057   3.951   4.206   9.414 -4.1000  0.8881 -2.1683
 9199SOL     OW39058   1.264   0.964   2.910 -0.3265  0.0698 -0.0858
 9199SOL    HW139059   1.314   0.943   2.830 -2.5798  0.0219 -1.4697
 9199SOL    HW239060   1.293   1.055   2.919  1.1710 -0.1885 -2.0603
 9200SOL     OW39061   2.754   2.311   2.611  0.8762 -0.0949  0.1326
 9200SOL    HW139062   2.743   2.216   2.606 -0.0606  0.0715 -1.0915
 9200SOL    HW239063   2.741   2.325   2.517 -0.9758  0.8413  0.5395
 9201SOL     OW39064   3.305   2.445   6.715  0.8887  0.0308 -0.3279
 9201SOL    HW139065   3.333   2.525   6.671  1.7197 -0.2008 -0.2230
 9201SOL    HW239066   3.262   2.490   6.788  0.5283 -0.2276 -0.3784
 9202SOL     OW39067   2.133   3.636  10.716 -0.3055  0.1472  1.1174
 9202SOL    HW139068   2.115   3.563  10.776 -0.7372  0.1399  0.9739
 9202SOL    HW239069   2.108   3.597  10.633  0.6880  1.2260  0.3047
 9203SOL     OW39070   3.149   3.436   6.595 -0.0303  0.0491  0.1634
 9203SOL    HW139071   3.095   3.358   6.595  1.0078 -0.6751  0.2732
 9203SOL    HW239072   3.207   3.425   6.670  1.1760 -3.7276 -1.3231
 9204SOL     OW39073   4.483   0.927   5.320  0.3085 -0.3844 -0.3048
 9204SOL    HW139074   4.515   0.883   5.242  1.0377  1.9625 -1.3180
 9204SOL    HW239075   4.562   0.961   5.363 -0.5513  0.3219  0.7259
 9205SOL     OW39076   0.042   0.082  14.632  0.2747 -0.5456  0.2539
 9205SOL    HW139077   0.081   0.062  14.717  0.4193  0.7338  0.4927
 9205SOL    HW239078   0.023   0.174  14.648  2.0371 -0.1033 -0.2142
 9206SOL     OW39079   0.046   0.686   4.952  0.1683  0.4885  0.5120
 9206SOL    HW139080   4.723   0.605   4.934  2.0462 -0.3409 -0.7887
 9206SOL    HW239081   0.117   0.643   5.000  0.4820  0.6455  0.1974
 9207SOL     OW39082   1.609   4.652   1.684  0.1913 -0.2172 -0.0958
 9207SOL    HW139083   1.543   4.589   1.711 -0.3324  0.2087 -0.3747
 9207SOL    HW239084   1.580   4.680   1.597 -0.3782 -0.2608  0.0849
 9208SOL     OW39085   3.281   0.658   5.205 -0.2964  0.3926 -0.4297
 9208SOL    HW139086   3.227   0.736   5.218  2.8781  2.2184  1.7251
 9208SOL    HW239087   3.322   0.653   5.291 -1.4249  1.1412  0.1481
 9209SOL     OW39088   0.582   1.247   1.312  0.0177 -0.2275  0.3869
 9209SOL    HW139089   0.636   1.282   1.384  0.5001 -0.0617 -0.0561
 9209SOL    HW239090   0.535   1.181   1.362 -0.5069 -0.4172 -0.3644
 9210SOL     OW39091   4.163   0.707   8.819 -0.1123  0.4794 -0.0242
 9210SOL    HW139092   4.247   0.739   8.852  0.5389 -0.2804 -0.9427
 9210SOL    HW239093   4.151   0.624   8.866  2.0847 -0.0773 -0.4138
 9211SOL     OW39094   2.993   1.374   5.508  0.2496  0.2212  0.2179
 9211SOL    HW139095   2.908   1.347   5.472  0.4726  0.4985 -0.4997
 9211SOL    HW239096   3.018   1.434   5.439 -0.3343  0.4153  0.1783
 9212SOL     OW39097   2.101   2.815   1.004 -0.0895  0.1146 -0.8011
 9212SOL    HW139098   2.135   2.853   0.923  0.1535  0.5747 -0.4811
 9212SOL    HW239099   2.173   2.832   1.065 -0.9428 -2.8599  1.0415
 9213SOL     OW39100   3.873   4.666   4.134  0.3676 -0.0467 -0.0878
 9213SOL    HW139101   3.864   4.571   4.135 -0.2497  0.0335  2.1542
 9213SOL    HW239102   3.780   4.677   4.113  0.3938  2.0344  0.8209
 9214SOL     OW39103   1.197   3.968   6.122  0.1585  0.4141  0.3488
 9214SOL    HW139104   1.107   3.943   6.143 -0.1609  0.2728 -1.1847
 9214SOL    HW239105   1.239   3.956   6.207 -1.5917  0.8177  1.2648
 9215SOL     OW39106   2.101   1.872   2.858 -0.5793 -0.1511 -0.1221
 9215SOL    HW139107   2.171   1.925   2.821 -1.0613 -1.2078 -2.6168
 9215SOL    HW239108   2.030   1.936   2.866  0.1107  0.8291 -1.8568
 9216SOL     OW39109   3.780   2.716   0.892 -0.6719 -0.5398 -0.5644
 9216SOL    HW139110   3.731   2.656   0.949 -0.3035 -0.0526  0.2600
 9216SOL    HW239111   3.754   2.805   0.917 -0.7999 -1.6157  3.1189
 9217SOL     OW39112   2.674   2.427   3.257 -0.3709 -0.5864 -0.3275
 9217SOL    HW139113   2.612   2.435   3.185 -1.2437 -0.7942  0.3922
 9217SOL    HW239114   2.615   2.450   3.329 -0.9075 -1.1960 -0.5749
 9218SOL     OW39115   1.980   1.798  12.693  0.4007 -0.3024 -0.0540
 9218SOL    HW139116   1.943   1.731  12.636  2.3309 -1.4485  0.0711
 9218SOL    HW239117   1.991   1.742  12.770  0.2563 -0.5753 -0.2319
 9219SOL     OW39118   3.858   1.474   5.746  0.4352 -0.0775  0.5478
 9219SOL    HW139119   3.797   1.485   5.819  0.3851  5.6159 -0.3241
 9219SOL    HW239120   3.923   1.542   5.765  1.0607 -0.1913 -1.1619
 9220SOL     OW39121   1.930   0.242   6.909 -0.2632 -0.1868  0.3196
 9220SOL    HW139122   1.959   0.188   6.983 -1.3786 -3.5155 -1.6791
 9220SOL    HW239123   2.016   0.274   6.880 -0.7687 -0.6528 -1.6922
 9221SOL     OW39124   2.599   4.613   2.933  0.5219 -0.2998 -0.3880
 9221SOL    HW139125   2.572   4.693   2.980 -0.5003 -0.7172 -0.2612
 9221SOL    HW239126   2.683   4.596   2.974  0.8853  1.3206 -0.4556
 9222SOL     OW39127   2.768   1.208   0.144 -0.2807 -0.4242  0.6297
 9222SOL    HW139128   2.826   1.203   0.219 -2.1899 -2.6144  1.9562
 9222SOL    HW239129   2.826   1.249   0.080  1.3009 -1.9158  1.1094
 9223SOL     OW39130   1.838   2.495   6.799 -0.9518  0.0128 -0.1521
 9223SOL    HW139131   1.865   2.556   6.731 -1.3779  1.0355  0.5813
 9223SOL    HW239132   1.812   2.559   6.866  0.3493 -1.7649  2.0538
 9224SOL     OW39133   2.131   1.044   9.859  0.3926  0.0231  0.2151
 9224SOL    HW139134   2.132   1.026   9.953 -2.7202  0.3265  0.3043
 9224SOL    HW239135   2.147   1.138   9.852 -2.0967  0.5028  0.9716
 9225SOL     OW39136   4.704   1.972   5.414 -0.6028  0.4719 -0.4431
 9225SOL    HW139137   4.686   1.884   5.448 -1.9831  0.3337 -1.5581
 9225SOL    HW239138   4.698   2.022   5.496  0.3874 -1.3095  0.7299
 9226SOL     OW39139   2.161   4.037   2.571 -0.0171  0.5316  0.0983
 9226SOL    HW139140   2.067   4.026   2.554  0.1781 -0.8529 -0.0759
 9226SOL    HW239141   2.171   4.045   2.666  1.3403  2.7800 -0.2201
 9227SOL     OW39142   4.392   1.229   5.238  0.6934 -0.1111  0.0878
 9227SOL    HW139143   4.311   1.232   5.188  0.1027 -0.8851  1.0068
 9227SOL    HW239144   4.368   1.214   5.329  1.9224 -2.6456 -0.0135
 9228SOL     OW39145   3.402   2.490   7.876 -0.1968  0.0106  0.1534
 9228SOL    HW139146   3.442   2.416   7.830 -0.3514 -0.0411  0.1017
 9228SOL    HW239147   3.319   2.455   7.909 -0.5114  0.0337 -0.6032
 9229SOL     OW39148   1.303   3.065   6.633  0.4921  0.1317 -0.2671
 9229SOL    HW139149   1.355   2.986   6.647 -0.0965 -0.4803 -1.4533
 9229SOL    HW239150   1.214   3.032   6.618  0.5763  0.7144 -2.0970
 9230SOL     OW39151   0.153   4.095  13.700  0.1750  0.2011  0.2238
 9230SOL    HW139152   0.073   4.061  13.661 -0.3736 -1.6774  2.9386
 9230SOL    HW239153   0.154   4.063  13.791 -3.6364 -0.0501  0.1710
 9231SOL     OW39154   1.845   3.325  14.350  0.2150  0.1523 -0.7068
 9231SOL    HW139155   1.773   3.277  14.310 -0.0019 -2.3934  2.7795
 9231SOL    HW239156   1.900   3.341  14.273  1.3338  0.0117  0.0536
 9232SOL     OW39157   1.615   2.531   7.428 -0.1773 -0.2710 -0.3357
 9232SOL    HW139158   1.538   2.570   7.469 -1.4790 -1.5882 -1.4912
 9232SOL    HW239159   1.592   2.509   7.338 -1.8091  0.7967 -0.1705
 9233SOL     OW39160   2.357   1.793  11.384  0.0459 -0.1454  0.2645
 9233SOL    HW139161   2.321   1.725  11.327 -0.1324  2.0387 -2.2372
 9233SOL    HW239162   2.415   1.749  11.445 -2.2672 -0.6857  2.0463
 9234SOL     OW39163   4.026   0.263   0.604  0.1636  0.7537 -0.4370
 9234SOL    HW139164   3.962   0.287   0.536  0.3919 -0.0439 -0.9296
 9234SOL    HW239165   4.072   0.190   0.564 -1.5254 -0.1608 -0.7468
 9235SOL     OW39166   3.645   4.577   7.581 -0.7350  0.0713  0.0714
 9235SOL    HW139167   3.587   4.515   7.625 -0.5850 -0.3955 -0.3935
 9235SOL    HW239168   3.631   4.652   7.639 -0.1515 -0.0351  0.3474
 9236SOL     OW39169   3.889   0.081   2.864  0.4759  0.0724 -0.1220
 9236SOL    HW139170   3.969   0.071   2.812  0.2010  0.9822 -0.7150
 9236SOL    HW239171   3.927   0.134   2.934 -0.5012  0.4933  0.0892
 9237SOL     OW39172   4.036   2.405   4.236  0.3384  0.7970 -0.6086
 9237SOL    HW139173   4.060   2.342   4.303 -1.8162  0.3710 -0.2471
 9237SOL    HW239174   3.945   2.382   4.215  0.4430 -1.0408  1.0977
 9238SOL     OW39175   2.648   3.878   3.183  0.5031 -0.5504 -0.4292
 9238SOL    HW139176   2.611   3.790   3.185 -0.2871 -0.2224 -0.7603
 9238SOL    HW239177   2.689   3.878   3.097  2.9192  0.4402  0.7129
 9239SOL     OW39178   3.969   0.500  11.021  0.5971  0.4044  0.3142
 9239SOL    HW139179   3.916   0.577  11.043  0.3115 -0.1322  1.5363
 9239SOL    HW239180   3.900   0.444  10.986  0.3085  0.7536  0.3260
 9240SOL     OW39181   0.897   4.494   4.545 -0.0064 -0.2577  0.5001
 9240SOL    HW139182   0.813   4.537   4.528  1.3849  1.1186 -2.8912
 9240SOL    HW239183   0.916   4.527   4.633 -0.5820  1.3808  0.0151
 9241SOL     OW39184   1.693   1.362  13.064 -0.3847  0.6108 -0.3571
 9241SOL    HW139185   1.688   1.383  13.157  0.1634 -0.1530 -0.1491
 9241SOL    HW239186   1.768   1.301  13.060 -1.8542 -1.2468  0.5596
 9242SOL     OW39187   1.084   1.192   0.007  0.1122  0.2696  0.0095
 9242SOL    HW139188   1.003   1.218   0.051  0.0723  0.3700 -0.1209
 9242SOL    HW239189   1.124   1.137   0.074  0.1089 -1.0154 -1.0384
 9243SOL     OW39190   1.591   2.242   2.838  0.2241  0.2322 -0.2658
 9243SOL    HW139191   1.585   2.170   2.901  3.8098 -0.3065 -0.5493
 9243SOL    HW239192   1.556   2.201   2.759  0.9311  1.2889 -1.1314
 9244SOL     OW39193   2.893   1.099  16.557 -0.3989  0.4729  0.1567
 9244SOL    HW139194   2.801   1.126  16.561 -0.6866 -0.2128 -1.7849
 9244SOL    HW239195   2.875   1.013  16.518 -0.8883  1.0499 -0.8977
 9245SOL     OW39196   3.668   0.937  11.248  0.4971  0.5293  0.6059
 9245SOL    HW139197   3.604   0.996  11.207 -0.0528  1.3421  2.6389
 9245SOL    HW239198   3.742   0.991  11.273  2.2628 -1.1906 -0.9335
 9246SOL     OW39199   0.384   0.215  10.883 -0.4359  0.1590  0.4960
 9246SOL    HW139200   0.452   0.281  10.865 -1.5183  1.2609  0.4203
 9246SOL    HW239201   0.315   0.277  10.906 -0.0159  0.6795  0.3665
 9247SOL     OW39202   1.558   3.993   6.115 -0.1751  0.0680 -0.4310
 9247SOL    HW139203   1.508   3.920   6.079 -2.0361  1.3977 -0.4710
 9247SOL    HW239204   1.603   4.012   6.033 -0.7522  1.4733 -0.4171
 9248SOL     OW39205   0.444   1.802  10.504  0.3150 -0.2668 -0.1300
 9248SOL    HW139206   0.365   1.841  10.541  0.7897  2.1316 -1.6462
 9248SOL    HW239207   0.423   1.709  10.514  0.0396 -0.2989 -1.0747
 9249SOL     OW39208   0.123   0.865  13.731  0.1399  0.2708 -0.1745
 9249SOL    HW139209   0.218   0.867  13.739  0.1843 -0.0549 -0.5857
 9249SOL    HW239210   0.092   0.848  13.820  2.3085 -3.8439 -0.1761
 9250SOL     OW39211   1.311   1.879   3.783 -0.4296  0.3957 -0.3161
 9250SOL    HW139212   1.257   1.804   3.807 -0.2134  0.4118  0.2275
 9250SOL    HW239213   1.291   1.947   3.847 -0.9645 -1.5765  1.6183
 9251SOL     OW39214   1.966   2.624   0.587  0.1364  0.2541 -0.1642
 9251SOL    HW139215   1.916   2.679   0.647  2.0206  0.6272  1.0629
 9251SOL    HW239216   1.986   2.679   0.511 -1.4736  0.3706 -0.5130
 9252SOL     OW39217   0.464   0.368  11.150 -0.2515  0.3895 -0.2611
 9252SOL    HW139218   0.372   0.389  11.134  0.3397  2.2322 -1.2559
 9252SOL    HW239219   0.512   0.439  11.106  0.0407 -0.2624 -1.0071
 9253SOL     OW39220   4.149   4.116   8.082 -0.3868 -0.2004  0.1170
 9253SOL    HW139221   4.068   4.147   8.122 -0.5242 -1.8259  1.0989
 9253SOL    HW239222   4.218   4.136   8.146 -1.1506 -1.9832  1.5049
 9254SOL     OW39223   0.629   4.401   5.246  0.4518 -0.4710 -0.0006
 9254SOL    HW139224   0.710   4.371   5.206  0.6991 -0.2746  0.3537
 9254SOL    HW239225   0.656   4.407   5.338 -1.4713  0.2137  0.5175
 9255SOL     OW39226   4.723   0.247  11.149  0.0554  0.1242  0.3657
 9255SOL    HW139227   0.014   0.334  11.187  0.4630  0.5227 -0.6950
 9255SOL    HW239228   0.089   0.220  11.166  0.1236  0.2765  0.2437
 9256SOL     OW39229   3.085   0.113   6.929  0.1746 -0.5364  0.1310
 9256SOL    HW139230   3.008   0.076   6.887 -0.8287 -0.4800  1.9334
 9256SOL    HW239231   3.121   0.162   6.855  0.4046  0.3947  0.8678
 9257SOL     OW39232   2.383   0.231  11.518  0.1577 -0.4634 -0.3955
 9257SOL    HW139233   2.369   0.141  11.549 -2.1092 -0.2973 -0.9232
 9257SOL    HW239234   2.346   0.280  11.591  0.7325  1.7409 -1.5902
 9258SOL     OW39235   0.440   4.668   4.083 -0.3335 -0.0953 -0.5075
 9258SOL    HW139236   0.363   4.712   4.118 -0.3360 -1.1008  0.7300
 9258SOL    HW239237   0.503   0.015   4.081 -0.3610 -0.0347  0.9710
 9259SOL     OW39238   4.116   1.528   7.388  0.1115 -0.1978  0.2327
 9259SOL    HW139239   4.139   1.556   7.477 -1.2836  3.3884 -0.5285
 9259SOL    HW239240   4.060   1.454   7.409 -0.6390 -0.1782 -1.7551
 9260SOL     OW39241   0.229   2.721   1.595 -0.2949  0.0178  0.3009
 9260SOL    HW139242   0.275   2.723   1.679 -0.2456  0.8270  0.2551
 9260SOL    HW239243   0.235   2.816   1.583 -1.6359 -0.2344 -2.2073
 9261SOL     OW39244   2.148   3.469  14.716 -0.7801  0.0552 -0.6027
 9261SOL    HW139245   2.157   3.409  14.790  1.5707  0.1622 -0.8137
 9261SOL    HW239246   2.067   3.438  14.675 -0.9092 -0.8433  0.3146
 9262SOL     OW39247   3.655   1.834   2.567 -0.1878  0.6552  0.2039
 9262SOL    HW139248   3.702   1.917   2.576 -0.7213  1.0924 -1.0898
 9262SOL    HW239249   3.598   1.841   2.491  1.3280  0.1144 -0.9748
 9263SOL     OW39250   0.007   4.149   8.666 -0.0512 -0.7349  0.6008
 9263SOL    HW139251   0.036   4.099   8.742 -0.4047 -0.3272  0.9962
 9263SOL    HW239252   4.691   4.080   8.613  0.1040 -1.4252  1.3789
 9264SOL     OW39253   3.311   1.782   2.956  0.1424  0.1049  0.0631
 9264SOL    HW139254   3.387   1.775   3.014 -0.8071  1.8518  1.5269
 9264SOL    HW239255   3.276   1.693   2.958  1.5148 -0.3757  2.7498
 9265SOL     OW39256   2.289   0.446  15.222 -0.5027  0.4817  0.1178
 9265SOL    HW139257   2.340   0.503  15.279  1.3830 -1.4639  0.3643
 9265SOL    HW239258   2.303   0.500  15.144  1.0009  0.9091  0.6913
 9266SOL     OW39259   2.257   1.091   6.161  0.9528  0.3036 -0.4850
 9266SOL    HW139260   2.176   1.043   6.179  1.2727  0.2204  0.7663
 9266SOL    HW239261   2.230   1.178   6.131  3.0872  0.8632 -0.8063
 9267SOL     OW39262   0.230   2.879   7.180 -0.0546 -0.2928  0.1828
 9267SOL    HW139263   0.155   2.894   7.237 -1.3770 -0.2804 -1.5297
 9267SOL    HW239264   0.239   2.784   7.181 -0.8090 -0.3680  0.3598
 9268SOL     OW39265   1.934   1.146   8.410  0.6924 -0.2443  0.2497
 9268SOL    HW139266   1.841   1.147   8.431  0.3837  1.5884 -1.2066
 9268SOL    HW239267   1.967   1.063   8.444  0.6158  0.5242  2.2449
 9269SOL     OW39268   2.081   2.404   3.748 -0.1439 -0.0372 -0.1731
 9269SOL    HW139269   2.109   2.481   3.698  0.0831  1.2543  1.9152
 9269SOL    HW239270   1.989   2.394   3.726 -0.2089 -0.4670  0.2736
 9270SOL     OW39271   1.398   4.199   5.135 -0.9671 -0.3250 -0.0724
 9270SOL    HW139272   1.464   4.217   5.068 -0.0557  0.5649  1.0456
 9270SOL    HW239273   1.350   4.281   5.125  0.5211  0.1986 -2.9860
 9271SOL     OW39274   1.101   4.425   3.989  0.3134  0.2860 -0.1453
 9271SOL    HW139275   1.039   4.406   3.919  1.0359 -3.8361  0.3358
 9271SOL    HW239276   1.133   4.511   3.963  1.0241  0.3584  0.9554
 9272SOL     OW39277   2.335   0.103   8.986 -0.4979  0.2427 -0.0851
 9272SOL    HW139278   2.374   0.024   8.948  1.9707  1.2131  0.4731
 9272SOL    HW239279   2.246   0.092   8.952 -0.6101  1.0900 -0.0578
 9273SOL     OW39280   3.323   1.092   8.798 -0.2277  0.2474 -0.3757
 9273SOL    HW139281   3.288   1.132   8.718 -0.2466  3.0177  1.0102
 9273SOL    HW239282   3.368   1.166   8.840  1.0603 -1.4088  1.1498
 9274SOL     OW39283   1.286   1.895   8.040 -0.6379 -0.0048 -0.5587
 9274SOL    HW139284   1.252   1.829   8.101 -0.1837  1.0575  0.8525
 9274SOL    HW239285   1.286   1.846   7.958 -0.6013 -1.5730  0.3805
 9275SOL     OW39286   0.895   1.156   4.335 -0.1881 -0.2487  0.5098
 9275SOL    HW139287   0.800   1.154   4.342 -0.1934  3.2991  1.4836
 9275SOL    HW239288   0.901   1.117   4.247 -0.4649  1.8457 -0.4290
 9276SOL     OW39289   0.051   4.541   3.320 -0.3957  0.6369 -0.2984
 9276SOL    HW139290   0.077   4.450   3.336  2.4651  1.6334  0.6523
 9276SOL    HW239291   0.061   4.583   3.405  1.7338  0.7053 -0.5944
 9277SOL     OW39292   0.115   4.574   6.182  0.2069 -0.2104  0.4741
 9277SOL    HW139293   0.096   4.624   6.102  0.5699 -0.6302  0.1268
 9277SOL    HW239294   0.031   4.596   6.222 -0.4557 -1.9588  0.0315
 9278SOL     OW39295   4.431   0.804   8.858 -0.3392  0.4443  0.3117
 9278SOL    HW139296   4.439   0.896   8.884 -0.0021  0.5586 -0.1817
 9278SOL    HW239297   4.500   0.792   8.792 -1.5841  0.8753 -1.0582
 9279SOL     OW39298   2.378   2.622   0.380  0.1588 -0.0546 -0.0849
 9279SOL    HW139299   2.360   2.602   0.289  0.8596 -0.9028 -0.0388
 9279SOL    HW239300   2.405   2.534   0.406 -1.2073 -0.9075 -1.5813
 9280SOL     OW39301   0.195   3.302   3.158 -0.4251  0.1888  0.3894
 9280SOL    HW139302   0.278   3.343   3.182  0.5487 -1.9626  0.6916
 9280SOL    HW239303   0.203   3.214   3.195 -1.3543 -0.6229 -1.3304
 9281SOL     OW39304   0.830   2.974   4.505 -0.0532 -0.6326  0.0367
 9281SOL    HW139305   0.913   3.020   4.518 -1.3052  1.4416  0.5760
 9281SOL    HW239306   0.843   2.897   4.450 -0.4490 -1.2467  0.7985
 9282SOL     OW39307   3.701   3.662   8.221  0.2464  0.1410  0.1617
 9282SOL    HW139308   3.786   3.664   8.176  0.2927 -0.3118  0.2289
 9282SOL    HW239309   3.658   3.719   8.157  0.1093 -0.5202 -0.3275
 9283SOL     OW39310   3.922   0.919   4.589 -0.5819  0.3251 -0.1681
 9283SOL    HW139311   3.930   0.920   4.493  0.5249 -2.0316 -0.0801
 9283SOL    HW239312   3.827   0.929   4.593 -0.8361 -2.2362 -0.0759
 9284SOL     OW39313   2.530   1.443  15.868  0.0767  0.6619 -0.0939
 9284SOL    HW139314   2.516   1.454  15.962  1.8094  1.7669  0.0245
 9284SOL    HW239315   2.533   1.533  15.837  3.1529  0.6770  0.2606
 9285SOL     OW39316   1.474   1.391  13.834  1.1100  0.1047 -0.1513
 9285SOL    HW139317   1.391   1.343  13.836  0.4901  1.2706  2.0647
 9285SOL    HW239318   1.465   1.444  13.754  0.1054 -0.9788 -0.7434
 9286SOL     OW39319   2.010   2.582   0.105  0.1291  0.4529  0.4871
 9286SOL    HW139320   2.103   2.583   0.083  0.2747 -1.4997  1.0504
 9286SOL    HW239321   1.962   2.624   0.034 -1.1158 -0.2666  0.8927
 9287SOL     OW39322   0.925   1.318   6.237 -0.4740 -0.2734  0.4268
 9287SOL    HW139323   0.849   1.305   6.294 -0.5235  0.7342  0.5877
 9287SOL    HW239324   0.903   1.277   6.154  0.1343 -0.2499  0.2540
 9288SOL     OW39325   2.229   4.340   5.472  0.2601 -0.6286  0.3179
 9288SOL    HW139326   2.179   4.298   5.402 -0.2071 -0.7985  0.7508
 9288SOL    HW239327   2.254   4.267   5.528  0.0943 -0.1600  1.0081
 9289SOL     OW39328   3.674   0.913   5.383  0.3103  0.4999 -0.1100
 9289SOL    HW139329   3.756   0.865   5.383  0.7565  1.2648  0.8296
 9289SOL    HW239330   3.641   0.895   5.295  0.3999 -2.3311  0.4228
 9290SOL     OW39331   1.130   1.526   5.541  0.2358 -0.6842  0.0176
 9290SOL    HW139332   1.195   1.586   5.506 -0.2001 -0.3119 -0.1512
 9290SOL    HW239333   1.079   1.593   5.586 -0.9465 -1.9310  0.5654
 9291SOL     OW39334   4.118   4.049  13.238  0.5024 -0.1346 -0.2388
 9291SOL    HW139335   4.142   4.008  13.154 -0.0898  0.8723 -0.9026
 9291SOL    HW239336   4.200   4.091  13.265 -0.7710  1.3983  1.2325
 9292SOL     OW39337   2.730   3.049  10.009 -0.2109 -0.2111 -0.1036
 9292SOL    HW139338   2.822   3.039   9.984 -0.1924 -2.5985  0.8690
 9292SOL    HW239339   2.747   3.085  10.096 -0.1939 -2.8793  0.9947
 9293SOL     OW39340   1.457   4.189   3.975  0.2085 -0.0717 -0.4897
 9293SOL    HW139341   1.457   4.277   3.937  1.0776 -0.3409 -1.1000
 9293SOL    HW239342   1.502   4.214   4.056  0.4044  0.5134 -0.7748
 9294SOL     OW39343   3.128   1.460   4.556 -0.7635  0.2145  0.1034
 9294SOL    HW139344   3.037   1.467   4.526 -1.4890 -0.6199  2.0904
 9294SOL    HW239345   3.123   1.398   4.628  0.8702 -1.0193 -0.8621
 9295SOL     OW39346   2.256   1.586  11.243 -0.7143 -0.4721 -0.0450
 9295SOL    HW139347   2.302   1.517  11.290  2.2425  0.8345 -0.9376
 9295SOL    HW239348   2.185   1.551  11.190 -0.7683  0.2728 -0.4698
 9296SOL     OW39349   1.255   2.318  14.537 -0.2079 -0.0385  0.2385
 9296SOL    HW139350   1.169   2.277  14.550  0.7084 -1.1874  2.6810
 9296SOL    HW239351   1.252   2.407  14.574  2.5634 -0.2560  0.9902
 9297SOL     OW39352   2.378   1.600   6.491 -0.5809  0.0006 -0.4017
 9297SOL    HW139353   2.333   1.519   6.515 -0.3321  0.2253  0.8043
 9297SOL    HW239354   2.393   1.592   6.397 -1.4754  0.8224 -0.6102
 9298SOL     OW39355   2.671   4.618   5.695 -0.1317  0.1864  0.1974
 9298SOL    HW139356   2.602   4.570   5.740 -0.2728 -1.1519 -1.4432
 9298SOL    HW239357   2.694   4.543   5.640 -2.2179 -0.0645 -0.3241
 9299SOL     OW39358   2.710   1.183   3.906 -0.3531 -0.1435  0.0976
 9299SOL    HW139359   2.803   1.161   3.906 -0.3227 -0.0053  0.5896
 9299SOL    HW239360   2.704   1.268   3.949  0.5276 -1.4783  2.8263
 9300SOL     OW39361   4.152   4.215   6.176 -0.4416 -0.3691  0.4416
 9300SOL    HW139362   4.167   4.276   6.248 -0.8401 -1.3824  1.3975
 9300SOL    HW239363   4.057   4.203   6.180 -0.0882 -3.2433  0.0981
 9301SOL     OW39364   1.778   0.255   3.070  0.0025 -0.2142 -0.0144
 9301SOL    HW139365   1.786   0.310   3.148 -1.3697 -1.5419  1.0481
 9301SOL    HW239366   1.780   0.326   3.005  0.0906  0.3516  0.6038
 9302SOL     OW39367   2.589   3.523   5.492  0.4585 -0.0047 -0.3390
 9302SOL    HW139368   2.514   3.464   5.502  0.2014  0.4129  0.2403
 9302SOL    HW239369   2.628   3.483   5.415  1.1913 -0.4254  0.2515
 9303SOL     OW39370   0.024   4.687  16.073  0.0741 -0.1553 -0.1072
 9303SOL    HW139371   0.095   4.678  16.010  0.2328  3.8899 -0.5099
 9303SOL    HW239372   4.701   4.604  16.062 -1.5197  0.7992 -0.5126
 9304SOL     OW39373   2.479   1.263   2.493 -0.5256 -0.0784  0.7407
 9304SOL    HW139374   2.560   1.268   2.442 -1.1813 -0.1774 -0.3088
 9304SOL    HW239375   2.449   1.353   2.508 -1.6784 -0.1240 -1.2924
 9305SOL     OW39376   4.080   4.113   3.543 -0.9267  0.0060 -0.1088
 9305SOL    HW139377   4.007   4.060   3.573  0.1585 -0.3404  1.9136
 9305SOL    HW239378   4.153   4.092   3.602 -0.3009  0.7703 -0.6009
 9306SOL     OW39379   3.342   0.756  10.976  0.3551 -0.7386  0.3344
 9306SOL    HW139380   3.407   0.736  10.908  0.6116 -2.0160  0.9442
 9306SOL    HW239381   3.401   0.794  11.040 -0.9203  2.3596 -0.3452
 9307SOL     OW39382   2.990   2.869   9.308 -0.1220 -0.0428  0.0442
 9307SOL    HW139383   3.028   2.940   9.359  0.1227 -0.9569  1.1546
 9307SOL    HW239384   3.050   2.799   9.335  1.1698  0.1626 -2.3017
 9308SOL     OW39385   2.595   2.924   2.634  0.3138  0.2397  0.3198
 9308SOL    HW139386   2.614   3.004   2.684 -1.6861 -0.4477  2.1774
 9308SOL    HW239387   2.679   2.879   2.638  1.2332  2.0769  1.5956
 9309SOL     OW39388   4.065   4.496   5.086 -0.0865 -0.7891  0.4684
 9309SOL    HW139389   4.159   4.479   5.078 -0.3476 -2.0668  0.1208
 9309SOL    HW239390   4.064   4.565   5.152 -2.2762 -1.1128  0.7701
 9310SOL     OW39391   4.406   3.837   4.060  0.3385  0.0855  0.1385
 9310SOL    HW139392   4.448   3.751   4.054 -0.8072 -0.6640  2.5941
 9310SOL    HW239393   4.473   3.900   4.033  0.4238 -0.4239 -0.8488
 9311SOL     OW39394   3.628   3.092   5.514  0.3294  0.3165  0.7989
 9311SOL    HW139395   3.610   3.182   5.541 -0.0988  0.5205 -0.1854
 9311SOL    HW239396   3.595   3.093   5.424  1.2251 -1.2331  0.4509
 9312SOL     OW39397   4.405   0.145  15.591  0.6165 -0.1329 -0.2156
 9312SOL    HW139398   4.410   0.110  15.502  0.5921 -0.9029  0.0819
 9312SOL    HW239399   4.447   0.230  15.580  0.6982 -0.2214 -0.6033
 9313SOL     OW39400   4.481   0.173   8.671  0.0157  0.2160 -0.2753
 9313SOL    HW139401   4.394   0.207   8.649  0.8097  3.4820  1.7425
 9313SOL    HW239402   4.462   0.159   8.764 -0.1692 -0.5788 -0.4282
 9314SOL     OW39403   0.328   3.647   0.976  0.0109 -0.1327  0.8143
 9314SOL    HW139404   0.388   3.671   0.905 -1.4234  2.0327  0.3387
 9314SOL    HW239405   0.323   3.721   1.036 -0.6645  0.1870  0.3562
 9315SOL     OW39406   0.435   1.248  13.316 -0.0784  0.1736 -0.3192
 9315SOL    HW139407   0.474   1.223  13.232 -0.6730 -1.0876 -0.2177
 9315SOL    HW239408   0.342   1.267  13.300  0.8211  3.6025 -1.5494
 9316SOL     OW39409   4.357   2.613   9.312  0.3419 -0.2210  0.3783
 9316SOL    HW139410   4.447   2.580   9.310  0.5809  0.4260  0.4219
 9316SOL    HW239411   4.382   2.704   9.327  0.1441 -0.1157  0.0505
 9317SOL     OW39412   0.953   1.863   4.613 -0.0927 -0.0887  0.6518
 9317SOL    HW139413   0.890   1.791   4.610 -0.6660  0.3603  2.0948
 9317SOL    HW239414   1.012   1.835   4.543 -0.7298  0.3683 -0.0521
 9318SOL     OW39415   0.523   2.639  12.198 -0.4883  0.3372 -0.7035
 9318SOL    HW139416   0.546   2.549  12.221 -0.8878  0.5937  0.7211
 9318SOL    HW239417   0.502   2.634  12.105  1.9755 -0.9309 -1.1741
 9319SOL     OW39418   4.024   2.037   9.561  0.1295 -0.3875  0.1819
 9319SOL    HW139419   3.947   2.037   9.505 -0.3713  0.6831  0.8596
 9319SOL    HW239420   3.997   1.984   9.636 -2.1405  0.3784 -0.0818
 9320SOL     OW39421   2.575   1.617   0.840  0.0451 -0.0173 -0.3895
 9320SOL    HW139422   2.614   1.705   0.844  1.0913 -0.4553 -1.1321
 9320SOL    HW239423   2.497   1.637   0.788 -0.0943 -1.5758 -0.7584
 9321SOL     OW39424   2.932   2.506  15.336  0.2549  0.9529 -0.2300
 9321SOL    HW139425   2.873   2.574  15.305 -1.8947 -0.7790  0.0508
 9321SOL    HW239426   2.882   2.450  15.395  2.3080 -0.3416  0.2949
 9322SOL     OW39427   4.443   1.983   0.246  0.2774 -0.0046  0.5322
 9322SOL    HW139428   4.459   2.071   0.278  0.7035 -0.3896  1.3993
 9322SOL    HW239429   4.402   1.945   0.324 -2.1893 -0.6571 -1.0784
 9323SOL     OW39430   2.233   0.563   3.904 -0.5621 -0.0974  0.0264
 9323SOL    HW139431   2.159   0.530   3.956 -0.2323 -0.6841  0.1211
 9323SOL    HW239432   2.249   0.651   3.939 -3.3142  0.1238  0.6994
 9324SOL     OW39433   1.637   2.836   8.413 -0.1733 -0.3361 -0.7767
 9324SOL    HW139434   1.562   2.822   8.356 -1.3371  0.4407  0.5471
 9324SOL    HW239435   1.613   2.786   8.491 -0.0926  0.6701 -0.1054
 9325SOL     OW39436   2.495   1.192  17.010  0.7693 -0.0470 -0.3736
 9325SOL    HW139437   2.567   1.157  17.063  1.0169  0.6309 -0.2695
 9325SOL    HW239438   2.465   1.121  16.954  3.3724 -1.6152  0.1896
 9326SOL     OW39439   0.025   1.442   6.149  0.0845 -0.5355  0.4943
 9326SOL    HW139440   0.095   1.506   6.138  1.1277 -2.3834 -3.2338
 9326SOL    HW239441   4.707   1.440   6.064 -1.9584 -0.6911  1.5041
 9327SOL     OW39442   3.554   1.513   4.571  0.2113  0.1396  0.2912
 9327SOL    HW139443   3.649   1.520   4.569  0.2736 -1.2231 -1.7698
 9327SOL    HW239444   3.541   1.426   4.609 -3.5738  0.1655 -0.9152
 9328SOL     OW39445   1.480   2.111  14.073 -0.8488 -0.4387  0.7608
 9328SOL    HW139446   1.395   2.078  14.042 -0.0707 -1.1762 -0.5716
 9328SOL    HW239447   1.450   2.148  14.156 -1.6665 -0.6305  0.5549
 9329SOL     OW39448   2.387   1.490   2.693  0.3018  1.1554 -0.2020
 9329SOL    HW139449   2.301   1.509   2.730  0.4020  0.4880  0.3768
 9329SOL    HW239450   2.379   1.541   2.612 -0.2734 -0.6229 -1.2750
 9330SOL     OW39451   3.776   3.358   3.973 -0.6809 -0.1315 -0.2526
 9330SOL    HW139452   3.753   3.265   3.964 -1.5788  0.0366  0.3197
 9330SOL    HW239453   3.705   3.389   3.916  0.3423  1.0780 -0.8765
 9331SOL     OW39454   1.847   1.313   6.622  0.4731 -0.8141 -0.2658
 9331SOL    HW139455   1.859   1.346   6.533  1.9209  0.3363  0.3506
 9331SOL    HW239456   1.921   1.252   6.627  0.1322 -1.1594  0.5242
 9332SOL     OW39457   3.721   2.911   5.152 -0.1655  0.7451 -0.3993
 9332SOL    HW139458   3.650   2.964   5.114 -0.2649  1.4230  0.7322
 9332SOL    HW239459   3.695   2.822   5.131  0.8084  0.7718 -1.7308
 9333SOL     OW39460   0.888   0.926  17.182 -0.0089  0.2012  0.0430
 9333SOL    HW139461   0.815   0.909  17.242  1.3443 -1.1459  1.3135
 9333SOL    HW239462   0.959   0.898  17.241  1.5528 -0.8675 -2.3608
 9334SOL     OW39463   1.468   0.644   9.054 -0.5310 -0.3176 -0.1455
 9334SOL    HW139464   1.379   0.634   9.088  0.6959  0.4507  3.2826
 9334SOL    HW239465   1.469   0.553   9.025  0.0835 -0.5576  0.6333
 9335SOL     OW39466   2.107   4.295  16.187  0.2645  0.2613 -0.9381
 9335SOL    HW139467   2.056   4.219  16.157  0.6043 -0.8694  1.3814
 9335SOL    HW239468   2.195   4.260  16.200  0.7308  2.4581  1.8289
 9336SOL     OW39469   0.251   4.617   3.812 -0.0889 -0.7787  0.4136
 9336SOL    HW139470   0.307   4.542   3.829 -0.3532 -1.0981 -0.1224
 9336SOL    HW239471   0.184   4.599   3.745 -1.5650 -0.3921  1.7761
 9337SOL     OW39472   3.625   0.786   7.819 -0.6797 -0.6796  1.0168
 9337SOL    HW139473   3.648   0.770   7.727 -0.3665 -3.6710  1.6223
 9337SOL    HW239474   3.601   0.879   7.812 -0.7912 -0.4887  3.8305
 9338SOL     OW39475   3.294   2.653   9.102  0.1155 -0.3913 -0.1408
 9338SOL    HW139476   3.271   2.566   9.071  0.0689 -0.6578  0.6351
 9338SOL    HW239477   3.390   2.655   9.095  0.0856  0.8990 -0.2278
 9339SOL     OW39478   4.209   3.569   6.848 -0.5949 -0.3553 -0.5346
 9339SOL    HW139479   4.234   3.521   6.927 -0.1111  1.4897  0.4320
 9339SOL    HW239480   4.119   3.592   6.868 -1.1142 -1.1916 -1.9615
 9340SOL     OW39481   2.064   0.496   2.476 -0.4065  0.2252  0.0420
 9340SOL    HW139482   2.010   0.437   2.425 -1.0031 -0.9741  2.0646
 9340SOL    HW239483   2.061   0.465   2.566 -0.8518 -0.8238 -0.3459
 9341SOL     OW39484   0.344   2.652   3.719 -0.1932 -0.1226  1.1296
 9341SOL    HW139485   0.260   2.678   3.683  1.7782  0.8540 -2.8199
 9341SOL    HW239486   0.374   2.742   3.731 -0.3033  0.1371 -0.5153
 9342SOL     OW39487   0.566   0.273   4.358 -0.2470 -0.2837  0.1582
 9342SOL    HW139488   0.591   0.182   4.369 -1.5656 -0.4567  1.8125
 9342SOL    HW239489   0.501   0.276   4.428 -1.8809  0.1673 -1.3934
 9343SOL     OW39490   3.598   4.596   6.531  0.2219 -0.3306  0.8834
 9343SOL    HW139491   3.650   4.516   6.522 -0.5487 -0.7182 -0.1292
 9343SOL    HW239492   3.509   4.561   6.535  1.0498 -2.3831  1.8195
 9344SOL     OW39493   4.143   2.767   5.775 -0.1122  0.3322  0.2311
 9344SOL    HW139494   4.065   2.711   5.775  0.8410 -0.9927 -1.4894
 9344SOL    HW239495   4.112   2.857   5.782  2.5551  1.0844  2.5619
 9345SOL     OW39496   0.660   2.837   3.053  0.5009  0.1430 -0.6549
 9345SOL    HW139497   0.652   2.931   3.040 -1.3625 -0.1415 -1.5652
 9345SOL    HW239498   0.568   2.815   3.067  0.1880  1.4186 -0.7552
 9346SOL     OW39499   2.431   4.353   6.374  0.7398 -0.7760  0.1379
 9346SOL    HW139500   2.517   4.376   6.340  0.1613  0.1387 -0.7064
 9346SOL    HW239501   2.379   4.433   6.362 -0.5886 -1.6263  0.2532
 9347SOL     OW39502   4.610   3.561   6.287  0.7325  0.2993  0.5392
 9347SOL    HW139503   4.524   3.601   6.298 -0.2840 -1.3662 -1.4943
 9347SOL    HW239504   4.595   3.485   6.232  0.7124 -0.5073  1.6666
 9348SOL     OW39505   0.539   3.969  10.179 -0.0508 -0.6043  0.5535
 9348SOL    HW139506   0.471   3.980  10.112  0.5115 -1.8992 -0.2378
 9348SOL    HW239507   0.572   3.890  10.138 -0.9374 -0.4176 -0.5370
 9349SOL     OW39508   0.944   1.083   2.657 -0.3513  0.0858 -0.1369
 9349SOL    HW139509   0.972   1.170   2.630 -3.3184  0.9925 -0.2177
 9349SOL    HW239510   0.944   1.044   2.569 -1.7449 -0.3186  0.0435
 9350SOL     OW39511   0.973   4.347  14.575 -0.3125  0.4164 -0.3115
 9350SOL    HW139512   1.040   4.385  14.518 -0.7079 -0.6161 -1.4728
 9350SOL    HW239513   1.025   4.316  14.649 -0.4189  0.0900 -0.3726
 9351SOL     OW39514   0.585   2.052   4.877 -0.3828  0.1591  0.1795
 9351SOL    HW139515   0.553   2.121   4.819  0.2395  1.4228  1.3592
 9351SOL    HW239516   0.525   1.985   4.845 -0.9999 -1.5813  5.0655
 9352SOL     OW39517   3.867   0.669   2.788 -0.3549 -0.4007  0.2267
 9352SOL    HW139518   3.847   0.602   2.723  1.7211 -0.5336 -0.2764
 9352SOL    HW239519   3.930   0.628   2.847  0.9695  0.8676 -0.2921
 9353SOL     OW39520   3.860   1.870   2.370  0.1984  0.3025 -0.1379
 9353SOL    HW139521   3.853   1.962   2.398  1.4227  0.3624 -0.0149
 9353SOL    HW239522   3.897   1.880   2.283 -0.2340  1.0866 -0.2361
 9354SOL     OW39523   0.511   2.412  16.906  0.4116 -0.0035  0.0556
 9354SOL    HW139524   0.553   2.479  16.853 -1.0607 -1.2616 -2.6631
 9354SOL    HW239525   0.587   2.356  16.920 -0.2022 -0.8836 -0.1249
 9355SOL     OW39526   4.206   2.117   1.734 -0.2387 -0.5126 -0.4973
 9355SOL    HW139527   4.252   2.172   1.671 -0.2520  0.9258  0.7480
 9355SOL    HW239528   4.216   2.030   1.696 -0.3382 -0.8422  0.2502
 9356SOL     OW39529   1.945   0.100   4.665 -0.1817  0.2345 -0.3901
 9356SOL    HW139530   1.950   0.073   4.757  0.5334 -0.3477 -0.6062
 9356SOL    HW239531   2.002   0.034   4.625  0.4888  0.8818 -0.4867
 9357SOL     OW39532   0.762   0.243   6.308 -0.3560  0.0035  0.0983
 9357SOL    HW139533   0.712   0.168   6.274  0.1124 -0.9617  1.5099
 9357SOL    HW239534   0.848   0.202   6.320 -1.2679 -1.4358  1.8599
 9358SOL     OW39535   2.261   3.890   3.470 -0.0484 -0.1915 -0.4992
 9358SOL    HW139536   2.348   3.917   3.441 -1.1746  2.4718 -1.4169
 9358SOL    HW239537   2.210   3.902   3.390 -3.9437  1.2584  2.2181
 9359SOL     OW39538   3.980   4.053   7.528  0.2248 -0.8990  0.3290
 9359SOL    HW139539   4.051   4.117   7.516  0.0974 -1.0109 -1.0459
 9359SOL    HW239540   3.922   4.094   7.592  0.2788  1.5708 -1.2205
 9360SOL     OW39541   4.594   2.137   6.135 -0.2144 -0.7107  0.1380
 9360SOL    HW139542   4.652   2.197   6.088  1.1821 -1.2525  1.1798
 9360SOL    HW239543   4.524   2.134   6.070  0.5338  2.8673 -0.8567
 9361SOL     OW39544   0.710   3.013  12.819  0.2192 -0.1078 -0.4896
 9361SOL    HW139545   0.680   2.931  12.859 -1.1963  0.0358 -1.2769
 9361SOL    HW239546   0.744   2.977  12.737 -1.9050  2.7553 -2.5694
 9362SOL     OW39547   3.903   4.491   4.388  0.0728 -0.1538  0.6496
 9362SOL    HW139548   3.855   4.524   4.463 -2.1134  1.1683 -1.3065
 9362SOL    HW239549   3.855   4.413   4.358  0.7694 -0.3931  0.1494
 9363SOL     OW39550   1.736   4.462   4.368 -0.0086 -0.5587 -0.1022
 9363SOL    HW139551   1.736   4.505   4.453 -0.7844  3.1560 -1.9804
 9363SOL    HW239552   1.641   4.454   4.355 -0.2968  2.2362  0.2904
 9364SOL     OW39553   2.638   0.241   4.826 -0.1932 -0.0309 -0.4350
 9364SOL    HW139554   2.717   0.192   4.804  0.0742 -0.2883  1.0773
 9364SOL    HW239555   2.662   0.326   4.791  0.4868 -0.0285  0.0554
 9365SOL     OW39556   2.488   3.630   3.536 -1.0780 -0.1180  0.0030
 9365SOL    HW139557   2.432   3.660   3.465 -1.6955 -0.8713  0.1781
 9365SOL    HW239558   2.562   3.598   3.484  0.2134 -1.1598  2.4640
 9366SOL     OW39559   3.213   2.435   2.883  0.6488  0.0797  0.3053
 9366SOL    HW139560   3.121   2.412   2.873  0.2356  2.1349 -0.7044
 9366SOL    HW239561   3.214   2.454   2.977  0.1533 -1.0870  0.5354
 9367SOL     OW39562   4.533   4.412   1.389 -0.4548  0.9191  0.3677
 9367SOL    HW139563   4.591   4.417   1.465 -1.0578  3.1434  0.6810
 9367SOL    HW239564   4.587   4.460   1.327  0.0371 -1.0496 -0.7390
 9368SOL     OW39565   3.838   3.939  15.309  0.1605  0.3759 -0.3727
 9368SOL    HW139566   3.894   3.986  15.248  1.1540 -2.2976 -1.5052
 9368SOL    HW239567   3.750   3.973  15.295 -0.8662 -1.9498  0.2996
 9369SOL     OW39568   4.601   3.761  13.610  0.1413  0.0749 -0.2653
 9369SOL    HW139569   4.644   3.779  13.526  2.8157 -2.7537  0.5114
 9369SOL    HW239570   4.528   3.822  13.602  0.1559  0.2499  1.0355
 9370SOL     OW39571   2.087   1.989   7.418  0.2388  0.0307  0.8480
 9370SOL    HW139572   2.123   2.042   7.347  2.1050 -2.5879 -0.1885
 9370SOL    HW239573   2.057   2.064   7.469 -0.3924 -0.1555  0.7502
 9371SOL     OW39574   2.127   2.970   8.287 -0.2448  0.0335 -0.1642
 9371SOL    HW139575   2.046   2.990   8.335 -1.6293 -1.6886 -1.7490
 9371SOL    HW239576   2.089   2.952   8.201 -0.2748 -0.8205  0.0310
 9372SOL     OW39577   3.772   3.615   9.013 -0.9536  0.3406 -0.1977
 9372SOL    HW139578   3.712   3.545   9.037 -0.9635 -0.1778 -1.7433
 9372SOL    HW239579   3.857   3.572   9.002 -0.5156  0.6530  1.9588
 9373SOL     OW39580   2.045   3.833  14.418  0.0724 -0.0960 -0.0433
 9373SOL    HW139581   2.004   3.840  14.332  3.0584 -0.2054 -1.4794
 9373SOL    HW239582   2.034   3.739  14.427 -0.6617  0.0605  0.6818
 9374SOL     OW39583   3.155   0.750   7.307  0.0597  0.1060 -0.1586
 9374SOL    HW139584   3.123   0.828   7.351  0.5982 -0.9164  2.0219
 9374SOL    HW239585   3.190   0.779   7.222  0.9117  0.9201  0.4710
 9375SOL     OW39586   1.480   3.911   3.053  0.1217 -0.4315  0.4474
 9375SOL    HW139587   1.518   3.960   2.980  0.4248 -0.9348  0.2671
 9375SOL    HW239588   1.553   3.905   3.114 -0.4936  0.3701  1.2556
 9376SOL     OW39589   4.377   3.487   3.159 -0.0730  0.0891  0.2555
 9376SOL    HW139590   4.392   3.447   3.244 -1.9538 -1.7730 -0.2934
 9376SOL    HW239591   4.282   3.500   3.162 -0.2134 -0.7044 -0.6191
 9377SOL     OW39592   4.462   0.790   2.973 -0.2123 -0.0582  0.4168
 9377SOL    HW139593   4.403   0.757   3.041 -0.2012  1.4344  1.1279
 9377SOL    HW239594   4.444   0.729   2.901 -1.8796 -1.2308  1.8098
 9378SOL     OW39595   4.030   3.701   4.547 -0.1060  0.1185 -0.3652
 9378SOL    HW139596   4.078   3.782   4.527  1.6075 -1.1473 -1.3554
 9378SOL    HW239597   4.099   3.634   4.549 -1.5389 -1.3065  1.3596
 9379SOL     OW39598   1.952   4.214   7.702 -0.2309  0.5724  0.1771
 9379SOL    HW139599   1.863   4.243   7.721 -0.7523 -1.8951  1.5188
 9379SOL    HW239600   1.964   4.123   7.728  0.5389  0.2997 -1.1167
 9380SOL     OW39601   4.682   0.750   5.987 -0.2108 -0.1299  0.0592
 9380SOL    HW139602   4.711   0.818   5.926  0.6626  0.4997  1.1777
 9380SOL    HW239603   4.671   0.796   6.070 -1.4193  1.9174 -1.2163
 9381SOL     OW39604   0.402   0.836  13.687  0.2598  0.2664  0.7906
 9381SOL    HW139605   0.459   0.762  13.664  0.1938  1.0076 -1.7625
 9381SOL    HW239606   0.449   0.907  13.643  2.2275 -1.8709 -0.5474
 9382SOL     OW39607   0.418   4.624  12.948  0.5837 -0.2944  0.1082
 9382SOL    HW139608   0.430   4.666  13.033  4.2879 -1.2112  0.0205
 9382SOL    HW239609   0.497   4.572  12.963  0.6385 -0.0866  0.5266
 9383SOL     OW39610   1.666   0.205  16.173 -0.2242  0.2732  0.0890
 9383SOL    HW139611   1.627   0.285  16.137  0.7297  0.5521 -0.3153
 9383SOL    HW239612   1.664   0.136  16.107 -5.0367 -0.1720  0.7385
 9384SOL     OW39613   4.720   2.242  15.497 -0.3173  0.3561 -0.2055
 9384SOL    HW139614   0.063   2.175  15.510  0.7990  1.1980 -1.7303
 9384SOL    HW239615   4.643   2.199  15.534  0.3823 -0.5568  0.1823
 9385SOL     OW39616   1.601   1.289   4.642 -0.0010  0.3575  0.0109
 9385SOL    HW139617   1.631   1.279   4.551  0.1106  3.0204 -0.2272
 9385SOL    HW239618   1.537   1.359   4.630  0.8555  1.1220 -0.0948
 9386SOL     OW39619   1.452   3.284   8.633 -0.3801 -0.1814 -0.2527
 9386SOL    HW139620   1.543   3.273   8.663  0.2246  2.6559 -0.9841
 9386SOL    HW239621   1.426   3.357   8.689  1.3385  0.9573 -0.9370
 9387SOL     OW39622   3.246   4.636   7.063 -0.2603  0.2185  0.1658
 9387SOL    HW139623   3.201   4.558   7.096  1.0599  0.3737  2.3060
 9387SOL    HW239624   3.179   4.682   7.011 -0.5728  0.1011  0.4635
 9388SOL     OW39625   2.768   2.237   6.667 -0.0577  0.0947 -0.7027
 9388SOL    HW139626   2.800   2.311   6.718 -0.8858  0.6210 -0.9400
 9388SOL    HW239627   2.724   2.290   6.601 -0.7685 -1.1173 -1.2037
 9389SOL     OW39628   3.308   1.093   3.196  0.1251 -0.0466 -0.4160
 9389SOL    HW139629   3.324   0.999   3.207 -1.9099 -0.3848 -0.2388
 9389SOL    HW239630   3.215   1.091   3.171 -0.2259  1.7123  0.8106
 9390SOL     OW39631   3.188   1.304   5.158 -0.3870 -0.0241  0.0350
 9390SOL    HW139632   3.183   1.380   5.216  0.5205 -0.2510  0.4191
 9390SOL    HW239633   3.191   1.357   5.079 -1.3192  1.5705  1.0748
 9391SOL     OW39634   2.641   3.751   3.750  0.2244 -0.0099 -0.0890
 9391SOL    HW139635   2.637   3.686   3.820 -0.9517  0.8779  0.6664
 9391SOL    HW239636   2.579   3.715   3.686  0.6873  0.7599 -0.9689
 9392SOL     OW39637   4.046   0.449   1.866 -0.0512 -0.4757  0.0829
 9392SOL    HW139638   3.976   0.397   1.826 -0.3647  0.1278 -0.1398
 9392SOL    HW239639   4.009   0.480   1.948 -0.0271 -2.0047  0.6804
 9393SOL     OW39640   3.749   2.985   1.089  0.0724  0.0720 -0.5329
 9393SOL    HW139641   3.806   2.919   1.127 -2.0930 -1.2640  0.3580
 9393SOL    HW239642   3.812   3.036   1.037 -1.3058  0.7833 -1.5250
 9394SOL     OW39643   0.052   2.742   5.890 -0.2550 -0.0704 -0.4206
 9394SOL    HW139644   0.074   2.796   5.966 -0.1999 -0.7889  0.0743
 9394SOL    HW239645   4.708   2.685   5.924 -0.8668  0.0104 -1.5386
 9395SOL     OW39646   1.081   3.604   9.043  0.2439 -0.0550 -0.1983
 9395SOL    HW139647   1.047   3.532   9.096 -0.7700  1.5080  1.2876
 9395SOL    HW239648   1.002   3.630   8.995  0.8560  1.2449 -0.5041
 9396SOL     OW39649   0.039   2.532   6.861 -0.0370  0.2575  0.4818
 9396SOL    HW139650   4.695   2.473   6.830  0.1259  0.8976 -1.1359
 9396SOL    HW239651   0.098   2.472   6.906 -0.4614 -0.5168  0.0041
 9397SOL     OW39652   2.212   0.069   3.779 -0.3152  0.1544  0.7204
 9397SOL    HW139653   2.280   0.088   3.714 -1.3721 -2.2963 -1.0946
 9397SOL    HW239654   2.267   0.077   3.857 -0.2332 -3.0022  0.9628
 9398SOL     OW39655   1.180   2.572  14.303  0.1722 -0.0286 -0.1917
 9398SOL    HW139656   1.156   2.663  14.288  0.0511  0.2429  1.5981
 9398SOL    HW239657   1.272   2.573  14.277  0.5084  1.0389  1.0311
 9399SOL     OW39658   3.307   3.041   5.471  0.3405 -0.8471  0.0068
 9399SOL    HW139659   3.336   3.071   5.385  2.2203  1.1106  1.3168
 9399SOL    HW239660   3.334   2.949   5.464  1.0283 -0.7278  0.9955
 9400SOL     OW39661   0.961   2.413   6.607  0.4332  0.1803  0.8330
 9400SOL    HW139662   0.897   2.443   6.671 -0.8194  0.7717 -0.7171
 9400SOL    HW239663   1.047   2.425   6.648  0.7081  0.4733  0.1697
 9401SOL     OW39664   0.395   3.190   2.829  0.2616  0.4561 -0.1518
 9401SOL    HW139665   0.320   3.237   2.791 -1.2769 -0.4832  1.7126
 9401SOL    HW239666   0.406   3.127   2.757  1.0542  2.0260 -1.3953
 9402SOL     OW39667   2.897   2.900   5.526 -0.2570 -0.7977  0.7220
 9402SOL    HW139668   2.953   2.970   5.493 -0.8024 -0.8521 -0.3030
 9402SOL    HW239669   2.951   2.821   5.523 -1.0560 -1.2680 -1.3215
 9403SOL     OW39670   4.227   2.209   3.966  0.0918 -0.2867 -0.0198
 9403SOL    HW139671   4.136   2.228   3.946  0.3061  2.4364  1.5428
 9403SOL    HW239672   4.257   2.283   3.914 -0.9885  0.6597  0.7027
 9404SOL     OW39673   0.949   4.612   9.179 -0.4092  0.2395  0.1696
 9404SOL    HW139674   1.040   4.629   9.153 -0.3831 -1.5689 -0.9191
 9404SOL    HW239675   0.938   4.547   9.110 -4.2571  0.5938  0.4572
 9405SOL     OW39676   0.908   4.106  14.904 -0.1716  0.1800  0.0777
 9405SOL    HW139677   0.973   4.168  14.872 -0.9130  1.2654  0.6748
 9405SOL    HW239678   0.897   4.051  14.827  0.3716 -0.2515  0.3042
 9406SOL     OW39679   2.928   0.881   6.885  0.2424 -0.5701  1.0809
 9406SOL    HW139680   2.999   0.934   6.921  0.2360  0.8017 -0.9188
 9406SOL    HW239681   2.862   0.950   6.878  0.8583 -0.2276 -1.2803
 9407SOL     OW39682   4.207   1.078  17.182  0.7090 -0.1484 -0.1808
 9407SOL    HW139683   4.214   1.023  17.261  0.6011  2.1827  1.4703
 9407SOL    HW239684   4.185   1.012  17.117  0.2465 -1.4848  1.3311
 9408SOL     OW39685   2.409   2.753   6.489  0.1030 -0.0828 -0.0343
 9408SOL    HW139686   2.447   2.819   6.431 -0.9860  0.6530  0.1006
 9408SOL    HW239687   2.317   2.752   6.463  0.4629 -0.4398 -1.2566
 9409SOL     OW39688   1.551   0.249   5.905  0.3223  0.1534  0.2085
 9409SOL    HW139689   1.472   0.216   5.862 -0.8609  1.8128  1.1056
 9409SOL    HW239690   1.561   0.173   5.962  2.0584  1.1774  1.2654
 9410SOL     OW39691   2.068   0.645  15.018  0.2049  0.1445  0.0046
 9410SOL    HW139692   2.066   0.733  15.055  1.6225 -0.6275  1.9059
 9410SOL    HW239693   2.162   0.627  15.008  0.0881  0.1352 -1.0907
 9411SOL     OW39694   4.410   1.303   7.631 -0.0877  0.3271  0.1443
 9411SOL    HW139695   4.354   1.328   7.705  3.2844  1.9538  2.1638
 9411SOL    HW239696   4.404   1.386   7.583  2.1684 -0.0592 -0.7781
 9412SOL     OW39697   1.090   3.482   7.210 -0.2735 -0.1638  0.1247
 9412SOL    HW139698   1.050   3.435   7.136 -1.7851 -0.9003  1.4206
 9412SOL    HW239699   1.185   3.474   7.204 -0.4232 -1.8110 -0.2659
 9413SOL     OW39700   0.404   4.180   7.403  0.2847  0.0601 -0.0404
 9413SOL    HW139701   0.390   4.274   7.404  3.1365  0.4757 -1.6084
 9413SOL    HW239702   0.318   4.136   7.402  0.6834 -0.7780  2.0336
 9414SOL     OW39703   4.434   4.599   2.740 -0.1697 -0.8126  0.7581
 9414SOL    HW139704   4.405   4.610   2.650  0.1916  0.4181  0.7991
 9414SOL    HW239705   4.472   4.511   2.741 -0.4252 -0.9437 -2.2964
 9415SOL     OW39706   1.610   4.479   7.890  0.3713  0.1762 -0.8301
 9415SOL    HW139707   1.682   4.528   7.930 -1.7724  0.8425  2.2136
 9415SOL    HW239708   1.556   4.452   7.964  0.2991  2.7491  0.0424
 9416SOL     OW39709   1.308   0.782   5.285 -0.0652  0.2288 -0.1835
 9416SOL    HW139710   1.374   0.832   5.237  0.5460  0.7752  1.2368
 9416SOL    HW239711   1.278   0.850   5.346 -2.3522 -1.0287  0.1121
 9417SOL     OW39712   2.644   1.726   5.972 -0.3967  0.3128  0.0057
 9417SOL    HW139713   2.566   1.671   5.966  0.5763 -0.9915 -0.6070
 9417SOL    HW239714   2.660   1.707   6.064 -2.2289  1.1017  0.4909
 9418SOL     OW39715   1.527   2.284   0.416 -0.2486 -0.2971 -0.1646
 9418SOL    HW139716   1.493   2.288   0.506 -1.3214  0.7802 -0.6364
 9418SOL    HW239717   1.609   2.331   0.427 -1.1350  1.2747 -0.3244
 9419SOL     OW39718   2.866   2.644   6.257  0.5082  0.0158 -0.3036
 9419SOL    HW139719   2.918   2.590   6.316 -1.6207 -0.7415  0.8620
 9419SOL    HW239720   2.799   2.582   6.227  0.0068  1.7679 -2.8841
 9420SOL     OW39721   2.633   3.129   5.938 -0.6103 -0.4345  0.7386
 9420SOL    HW139722   2.685   3.107   5.860 -1.5900  0.8953 -0.2889
 9420SOL    HW239723   2.687   3.077   5.998 -0.6937  1.8580  2.7717
 9421SOL     OW39724   3.654   3.045   7.778  0.4206 -0.2022  0.2260
 9421SOL    HW139725   3.622   3.021   7.865  0.4326  0.3105  0.3703
 9421SOL    HW239726   3.617   2.972   7.728  2.3327 -1.2972  0.4364
 9422SOL     OW39727   2.230   0.450  12.480 -0.0692 -0.5597 -0.3354
 9422SOL    HW139728   2.184   0.477  12.559  0.7711  0.3063 -0.1492
 9422SOL    HW239729   2.159   0.434  12.418  0.0414 -1.1979 -0.3042
 9423SOL     OW39730   1.872   3.554  14.900  0.1262  0.1470  0.2005
 9423SOL    HW139731   1.872   3.622  14.833 -2.7247 -1.5228 -1.4813
 9423SOL    HW239732   1.872   3.611  14.977 -0.2302  0.1164  0.2205
 9424SOL     OW39733   4.411   0.192   2.767 -0.1520 -0.2841  0.0458
 9424SOL    HW139734   4.474   0.230   2.707  1.7272 -2.7768  0.4121
 9424SOL    HW239735   4.440   0.101   2.777 -0.9146 -0.4657  0.6134
 9425SOL     OW39736   3.527   4.449  10.574 -0.2322  0.3062 -0.0997
 9425SOL    HW139737   3.604   4.394  10.559  0.0450  0.8675 -0.7413
 9425SOL    HW239738   3.546   4.479  10.663 -1.7366 -0.5763  0.5162
 9426SOL     OW39739   0.999   2.016   8.863  0.5089  0.4023  0.5613
 9426SOL    HW139740   0.957   1.996   8.779 -0.8412  1.4345  1.0051
 9426SOL    HW239741   1.017   1.927   8.892  0.3570  0.0048 -0.5347
 9427SOL     OW39742   1.349   0.641   3.093  0.4269 -0.3660 -0.1422
 9427SOL    HW139743   1.344   0.734   3.112 -0.2181 -0.8275  1.9501
 9427SOL    HW239744   1.422   0.639   3.031 -0.0999  2.1030 -0.8260
 9428SOL     OW39745   0.362   0.091   1.658 -0.1123 -0.5089  0.6173
 9428SOL    HW139746   0.411   0.171   1.676  0.3695 -1.0117  1.5920
 9428SOL    HW239747   0.278   0.117   1.696  0.0954  0.0965  0.6567
 9429SOL     OW39748   0.640   0.773   6.015  0.4132  0.5034 -0.3111
 9429SOL    HW139749   0.718   0.753   6.067  0.3766  1.2051  0.0189
 9429SOL    HW239750   0.652   0.705   5.949 -0.0484  1.0528 -0.9460
 9430SOL     OW39751   2.478   3.662   6.865  0.5146  0.5226  0.3174
 9430SOL    HW139752   2.536   3.632   6.936 -0.0540 -0.5259  0.3489
 9430SOL    HW239753   2.483   3.588   6.805 -0.5415 -0.6123  1.6323
 9431SOL     OW39754   4.679   2.364   5.737 -0.1362 -0.3882 -0.1898
 9431SOL    HW139755   0.032   2.353   5.682 -0.3571  0.5028 -0.6895
 9431SOL    HW239756   4.648   2.451   5.712 -1.3030  0.2659  3.6305
 9432SOL     OW39757   2.843   2.103   2.222  0.3058 -0.1392 -0.0570
 9432SOL    HW139758   2.845   2.080   2.130 -0.9434  0.8556 -0.3309
 9432SOL    HW239759   2.819   2.194   2.206 -0.6387 -0.0001  2.0801
 9433SOL     OW39760   3.512   1.844  15.567  0.0183 -0.2356 -0.5673
 9433SOL    HW139761   3.433   1.831  15.514 -1.2291  1.9560  0.7890
 9433SOL    HW239762   3.483   1.912  15.627  0.8578  0.0957 -0.5422
 9434SOL     OW39763   0.665   1.031   1.721 -0.0036 -0.6588 -0.4383
 9434SOL    HW139764   0.571   1.025   1.708 -0.1150 -0.0778  0.0671
 9434SOL    HW239765   0.673   1.121   1.690  3.6268 -1.5927 -2.1315
 9435SOL     OW39766   1.751   0.743   4.125 -0.1054  0.7943 -0.3820
 9435SOL    HW139767   1.665   0.762   4.163  0.3517 -1.2223  1.6571
 9435SOL    HW239768   1.728   0.710   4.039  0.8298 -0.7236 -0.0473
 9436SOL     OW39769   2.383   0.884  16.664  0.4003  0.0759  0.1103
 9436SOL    HW139770   2.328   0.932  16.602 -0.1891  1.3712  1.6335
 9436SOL    HW239771   2.318   0.843  16.722 -0.5065  0.3894 -0.6896
 9437SOL     OW39772   0.735   4.051   4.095 -0.5721  0.2358  0.6780
 9437SOL    HW139773   0.693   4.023   4.177 -1.8580  0.4900  0.1026
 9437SOL    HW239774   0.718   4.145   4.103  1.9014  0.6526  0.9790
 9438SOL     OW39775   2.512   2.902   4.348 -0.0307  0.0678 -0.1174
 9438SOL    HW139776   2.537   2.820   4.305  0.5491  0.9235 -1.4077
 9438SOL    HW239777   2.467   2.944   4.275 -0.5412 -0.5481 -0.1545
 9439SOL     OW39778   3.305   0.585   7.474  0.6041  0.8281  0.5976
 9439SOL    HW139779   3.265   0.615   7.392  1.9127  2.0318  0.3911
 9439SOL    HW239780   3.378   0.547   7.427 -0.9269 -2.3263  0.7566
 9440SOL     OW39781   1.476   2.777   1.883  0.4015  0.6068 -0.0000
 9440SOL    HW139782   1.520   2.736   1.958 -1.5143 -2.5039 -0.5891
 9440SOL    HW239783   1.561   2.786   1.839  0.5069  0.9978  0.2825
 9441SOL     OW39784   3.493   0.971   4.065 -0.7036 -0.0213 -0.4646
 9441SOL    HW139785   3.511   1.027   3.989  2.9178 -0.3669  0.1174
 9441SOL    HW239786   3.406   0.935   4.050 -1.7300  2.4334 -0.3978
 9442SOL     OW39787   3.492   0.576   4.052 -0.0353  0.1454 -0.2310
 9442SOL    HW139788   3.455   0.646   3.999  3.3122  1.5615 -0.7236
 9442SOL    HW239789   3.431   0.508   4.025 -0.6037  1.0257 -1.1485
 9443SOL     OW39790   0.164   0.047   1.402 -0.0320 -0.2590 -0.9794
 9443SOL    HW139791   0.147   0.085   1.488  2.3345  0.5422 -0.8746
 9443SOL    HW239792   0.164   0.127   1.350 -0.6758  1.3694  1.5133
 9444SOL     OW39793   1.369   2.298   2.612  0.2724  0.6608 -0.0449
 9444SOL    HW139794   1.284   2.340   2.608  0.5548  1.0977 -1.2671
 9444SOL    HW239795   1.370   2.258   2.525  0.2419  0.1947  0.1669
 9445SOL     OW39796   4.218   0.649   3.566  0.0502  0.6970 -0.2417
 9445SOL    HW139797   4.208   0.692   3.481 -1.8832  3.1515  1.2110
 9445SOL    HW239798   4.184   0.708   3.634 -0.6987  0.9377 -0.8245
 9446SOL     OW39799   1.053   4.605   1.658 -0.0006 -0.1111  0.0600
 9446SOL    HW139800   1.092   4.688   1.631 -0.7830 -0.3621 -1.8092
 9446SOL    HW239801   0.999   4.644   1.727 -2.3623 -2.5764 -0.3722
 9447SOL     OW39802   4.420   2.920   5.713 -0.3663 -0.1185  0.2676
 9447SOL    HW139803   4.382   2.901   5.627  1.7823  0.0938 -0.7330
 9447SOL    HW239804   4.357   2.879   5.772 -0.6014  0.9123  0.7362
 9448SOL     OW39805   3.806   1.662  11.006  0.0437  0.2116  0.0690
 9448SOL    HW139806   3.827   1.610  11.084  0.9771 -1.1082 -1.0537
 9448SOL    HW239807   3.890   1.709  11.000 -0.1849  0.8507  1.8153
 9449SOL     OW39808   1.408   3.458   8.862 -0.3423 -0.3072  0.7346
 9449SOL    HW139809   1.488   3.491   8.903 -0.7510 -0.4697  1.6445
 9449SOL    HW239810   1.350   3.450   8.937 -0.2532 -0.1752  0.8163
 9450SOL     OW39811   3.869   4.158  13.156  1.1513  0.0502  0.0265
 9450SOL    HW139812   3.949   4.123  13.195  1.5239  0.4715 -0.3534
 9450SOL    HW239813   3.830   4.085  13.107  0.7001  0.7804 -0.6881
 9451SOL     OW39814   4.523   3.910   5.375  0.4675  0.1235  0.4240
 9451SOL    HW139815   4.442   3.925   5.327  0.0311 -0.8821  0.8556
 9451SOL    HW239816   4.587   3.977   5.350  1.5605 -0.3963  1.8350
 9452SOL     OW39817   1.634   0.213  10.547  0.1458 -0.5616  0.3413
 9452SOL    HW139818   1.681   0.286  10.588 -1.4512  1.0046 -0.6117
 9452SOL    HW239819   1.707   0.169  10.504 -0.3595  0.7086 -1.7761
 9453SOL     OW39820   4.471   0.067  15.344  0.2129 -0.2123 -0.0112
 9453SOL    HW139821   4.484   0.161  15.329 -1.7162  0.0979  0.2186
 9453SOL    HW239822   4.438   0.038  15.259  0.7501  1.3525 -0.7487
 9454SOL     OW39823   2.867   1.260  13.600  0.3834  0.2691 -0.2721
 9454SOL    HW139824   2.788   1.298  13.639  0.9504 -0.0458  1.2074
 9454SOL    HW239825   2.911   1.339  13.569 -0.1757  1.6377  2.4070
 9455SOL     OW39826   4.546   2.471  13.516  0.3427 -0.1746 -0.7466
 9455SOL    HW139827   4.498   2.542  13.471 -1.4282  0.0852  1.5514
 9455SOL    HW239828   4.565   2.401  13.454  0.0821 -0.0957 -0.9193
 9456SOL     OW39829   1.253   2.370  13.992 -0.3215 -0.1102 -0.0009
 9456SOL    HW139830   1.193   2.409  13.928 -2.8549 -0.4138  2.2026
 9456SOL    HW239831   1.207   2.291  14.020 -2.3889  0.7082 -1.0356
 9457SOL     OW39832   0.294   3.728   7.333  0.2644 -0.3152  0.3403
 9457SOL    HW139833   0.368   3.669   7.344  0.2074 -0.1339  1.7316
 9457SOL    HW239834   0.341   3.805   7.300 -1.2059  0.0764 -0.8584
 9458SOL     OW39835   0.110   3.640   4.955  0.4624 -0.0325 -0.3663
 9458SOL    HW139836   0.049   3.695   5.003  1.7063  0.0089  1.1743
 9458SOL    HW239837   0.192   3.689   4.963  0.5543 -0.6383  2.2694
 9459SOL     OW39838   1.247   1.210   7.627  0.0778 -0.2078  0.1934
 9459SOL    HW139839   1.186   1.174   7.563  1.7261  0.0382 -1.5162
 9459SOL    HW239840   1.325   1.208   7.572  0.8332 -0.4860  1.2792
 9460SOL     OW39841   1.467   4.095   1.782  0.6826 -0.1553  0.3342
 9460SOL    HW139842   1.520   4.016   1.778 -2.7601 -2.3458 -1.6447
 9460SOL    HW239843   1.516   4.157   1.836 -0.1940 -2.2840  3.5594
 9461SOL     OW39844   1.516   0.534   5.011  0.1006  0.7320 -0.0322
 9461SOL    HW139845   1.435   0.524   5.061 -0.7257 -3.6203 -2.2533
 9461SOL    HW239846   1.517   0.455   4.957  0.0172  0.4677  0.3456
 9462SOL     OW39847   2.666   4.426   3.823  0.3398  0.2962  0.2188
 9462SOL    HW139848   2.648   4.472   3.904  1.3676 -0.3181  0.7957
 9462SOL    HW239849   2.613   4.348   3.838 -1.0288  1.4450  1.2746
 9463SOL     OW39850   0.384   0.156   3.769  0.3094 -0.3308  0.7097
 9463SOL    HW139851   0.417   0.172   3.680 -1.1499 -1.1565  0.0082
 9463SOL    HW239852   0.344   0.070   3.781  0.3616 -0.2498  1.4366
 9464SOL     OW39853   3.432   3.881  16.597  0.3446  0.0251 -0.1856
 9464SOL    HW139854   3.528   3.886  16.589  0.3520 -0.3189 -0.3435
 9464SOL    HW239855   3.418   3.791  16.567 -0.2310  0.7990 -2.2353
 9465SOL     OW39856   4.156   4.100   6.535  0.0657  0.4275 -0.1102
 9465SOL    HW139857   4.159   4.176   6.476 -1.4397  0.2842 -0.3741
 9465SOL    HW239858   4.148   4.031   6.469 -3.0071  0.9881 -0.3140
 9466SOL     OW39859   4.714   2.951   1.580  0.2687  0.2032 -0.0459
 9466SOL    HW139860   4.645   2.999   1.626  0.7360  0.3632  0.4964
 9466SOL    HW239861   4.664   2.914   1.508 -1.0060  0.7087  0.5952
 9467SOL     OW39862   0.047   1.647   4.593 -0.3352 -0.1427  0.2372
 9467SOL    HW139863   4.698   1.615   4.645  0.1387 -3.6248 -1.2107
 9467SOL    HW239864   0.102   1.570   4.577 -0.5951 -0.2632 -0.0842
 9468SOL     OW39865   2.052   3.147  17.671  0.2127  0.8769  0.0968
 9468SOL    HW139866   1.992   3.190   0.032 -2.0661  0.0444 -1.5656
 9468SOL    HW239867   2.112   3.115   0.038 -0.5080  1.3629  0.9761
 9469SOL     OW39868   0.498   1.577   8.283 -0.0570 -0.0095  0.1115
 9469SOL    HW139869   0.459   1.497   8.248  0.5799  0.2516 -1.2067
 9469SOL    HW239870   0.466   1.571   8.373 -0.7700 -0.8876 -0.2012
 9470SOL     OW39871   0.015   3.529  13.511 -0.1999 -0.3918  0.2784
 9470SOL    HW139872   0.036   3.594  13.445  2.1118  0.6853  2.0505
 9470SOL    HW239873   4.692   3.577  13.578 -1.7287 -1.3750 -0.1142
 9471SOL     OW39874   2.055   1.969   7.028  0.6234  0.3510 -0.2803
 9471SOL    HW139875   2.063   2.018   6.946 -0.7554  0.2241 -0.4787
 9471SOL    HW239876   1.966   1.988   7.055  0.4944 -0.2180 -0.3033
 9472SOL     OW39877   2.531   1.301   7.808 -0.6050 -0.2849 -0.4511
 9472SOL    HW139878   2.472   1.301   7.733 -2.8396  0.7206  1.3189
 9472SOL    HW239879   2.517   1.387   7.849  1.2629 -0.0485 -0.2875
 9473SOL     OW39880   4.541   2.595  11.168 -0.4553  0.0508 -0.0616
 9473SOL    HW139881   4.534   2.674  11.115 -1.2806  0.9252  1.3642
 9473SOL    HW239882   4.589   2.614  11.249 -0.3902  3.7935 -0.9870
 9474SOL     OW39883   0.145   2.018  17.045 -0.0000 -0.3740 -0.9278
 9474SOL    HW139884   0.193   2.100  17.031  1.0978 -0.7784  0.4602
 9474SOL    HW239885   0.057   2.051  17.028  0.4873  1.2220 -0.3796
 9475SOL     OW39886   2.990   2.139   3.471 -0.3620  0.0654 -0.6952
 9475SOL    HW139887   2.961   2.167   3.385 -0.5524  0.6224 -0.4504
 9475SOL    HW239888   2.995   2.227   3.509  1.4150  0.1683 -1.1712
 9476SOL     OW39889   2.043   4.446   8.246  0.2860  0.0250 -0.3664
 9476SOL    HW139890   2.099   4.476   8.317  1.0960  1.7418 -1.7433
 9476SOL    HW239891   2.110   4.423   8.183 -0.5271 -0.2802 -1.1233
 9477SOL     OW39892   1.820   2.225   3.098  0.0452 -0.0292  0.0293
 9477SOL    HW139893   1.735   2.262   3.123  0.7389  2.1726 -0.8928
 9477SOL    HW239894   1.875   2.236   3.175 -0.2259 -0.4173  0.2802
 9478SOL     OW39895   0.742   2.337   4.779  0.2432 -0.0532  0.2828
 9478SOL    HW139896   0.802   2.271   4.745  1.3336  1.2954 -0.4497
 9478SOL    HW239897   0.664   2.291   4.747  0.1634 -0.6800  1.3957
 9479SOL     OW39898   4.081   1.940   8.734  0.0850 -0.1334  0.3613
 9479SOL    HW139899   4.064   2.021   8.781  1.1723  1.2836 -1.6985
 9479SOL    HW239900   4.038   1.884   8.799 -1.0057 -0.2014 -0.4244
 9480SOL     OW39901   0.314   0.589   2.319 -0.4110 -0.1135 -0.3310
 9480SOL    HW139902   0.396   0.634   2.340 -0.9124 -0.0271  1.4367
 9480SOL    HW239903   0.340   0.498   2.333 -1.5662 -0.1377  1.6584
 9481SOL     OW39904   4.258   3.163   2.982  0.0758 -1.1349  0.0812
 9481SOL    HW139905   4.256   3.254   2.953 -0.8468 -1.9287 -2.4186
 9481SOL    HW239906   4.330   3.122   2.934  0.5866  0.2133 -0.3131
 9482SOL     OW39907   4.268   2.034   9.679  0.1256  0.2258  0.2100
 9482SOL    HW139908   4.219   1.954   9.696 -1.6386  1.2088 -0.1607
 9482SOL    HW239909   4.196   2.093   9.654  0.2869 -0.0422 -0.8849
 9483SOL     OW39910   1.392   0.459  17.146  0.1426  0.1202  0.0587
 9483SOL    HW139911   1.348   0.377  17.169  1.5621 -0.3623  1.0189
 9483SOL    HW239912   1.471   0.429  17.101  0.1108 -0.7998  0.6109
 9484SOL     OW39913   0.408   4.350   2.848 -0.1372  0.5744 -0.3549
 9484SOL    HW139914   0.414   4.266   2.894  0.3482  0.0245 -1.4329
 9484SOL    HW239915   0.435   4.317   2.762 -0.6650 -1.4329  0.2705
 9485SOL     OW39916   0.512   1.977   7.721 -0.0659  0.1822  0.1464
 9485SOL    HW139917   0.567   1.934   7.788  0.0513 -0.3324 -0.2757
 9485SOL    HW239918   0.488   2.058   7.765  2.3518  0.6566  0.5774
 9486SOL     OW39919   3.636   4.059   8.234 -0.1623  0.0118  0.1949
 9486SOL    HW139920   3.702   4.107   8.185 -1.1524 -2.4836 -3.5569
 9486SOL    HW239921   3.619   4.120   8.306  2.4604 -0.4573  1.2253
 9487SOL     OW39922   2.395   4.652   4.247 -0.5984 -0.1933 -0.8472
 9487SOL    HW139923   2.382   4.700   4.329  0.3421  0.2867 -0.9888
 9487SOL    HW239924   2.306   4.616   4.241 -1.1736  1.2471 -0.9157
 9488SOL     OW39925   2.867   1.270  12.147 -0.3053  0.4336  0.3046
 9488SOL    HW139926   2.900   1.222  12.223  0.1676 -0.9793 -0.8017
 9488SOL    HW239927   2.786   1.227  12.121 -1.5470  0.9352  3.2776
 9489SOL     OW39928   0.508   4.208  17.206 -0.4166  0.7033  0.2472
 9489SOL    HW139929   0.423   4.188  17.245 -1.0530 -3.7082 -3.2387
 9489SOL    HW239930   0.512   4.142  17.136  0.0009 -0.5036  1.4055
 9490SOL     OW39931   1.758   4.382   7.311  0.4506  0.0311  0.2176
 9490SOL    HW139932   1.851   4.365   7.301  0.2001 -0.2176 -1.7359
 9490SOL    HW239933   1.737   4.334   7.231  1.5303  1.6554 -1.0347
 9491SOL     OW39934   4.323   0.386   9.761  0.0276 -0.1515 -0.2541
 9491SOL    HW139935   4.373   0.311   9.794  1.6432  0.8872 -0.3353
 9491SOL    HW239936   4.271   0.334   9.700 -1.5636  1.2098 -0.0236
 9492SOL     OW39937   1.145   4.337  12.935  0.0218  0.1218  0.0591
 9492SOL    HW139938   1.172   4.328  13.027 -1.5346 -0.4673  0.4600
 9492SOL    HW239939   1.089   4.260  12.923  0.5411 -0.1892 -0.3482
 9493SOL     OW39940   0.335   3.095   2.535 -0.1757 -0.2867  0.7613
 9493SOL    HW139941   0.273   3.141   2.478 -2.1776 -4.6331 -0.5255
 9493SOL    HW239942   0.402   3.164   2.544 -0.0671 -0.0381 -1.8977
 9494SOL     OW39943   1.262   3.956   2.720 -0.3436 -0.5055 -0.5145
 9494SOL    HW139944   1.294   3.991   2.803  2.3072  0.5763 -1.9911
 9494SOL    HW239945   1.194   4.020   2.698 -0.7871  0.2075  2.8975
 9495SOL     OW39946   3.714   0.461   4.891  0.4261  0.4471 -0.4651
 9495SOL    HW139947   3.719   0.536   4.950  0.5005 -0.0708  0.1963
 9495SOL    HW239948   3.708   0.512   4.811 -2.1267 -2.4598 -2.1542
 9496SOL     OW39949   0.508   0.914   4.422 -0.7302 -0.2568  0.3730
 9496SOL    HW139950   0.501   0.821   4.441  0.6482 -0.8715 -2.1917
 9496SOL    HW239951   0.415   0.939   4.422  0.3788  3.9234 -1.3454
 9497SOL     OW39952   1.983   0.453  15.650  0.2551  0.0682  0.0048
 9497SOL    HW139953   1.901   0.483  15.609 -0.2671 -2.9801 -1.1707
 9497SOL    HW239954   1.943   0.432  15.734 -0.4734 -0.0623 -0.3662
 9498SOL     OW39955   4.264   1.607   0.858 -0.0045  0.5345  0.0975
 9498SOL    HW139956   4.357   1.585   0.857 -0.2451 -0.4810 -0.6602
 9498SOL    HW239957   4.262   1.686   0.912 -0.6201  0.0902  0.7322
 9499SOL     OW39958   3.583   1.892   4.360 -0.2301  0.2392  0.3345
 9499SOL    HW139959   3.549   1.981   4.354  0.0848  0.4005  0.9564
 9499SOL    HW239960   3.677   1.908   4.370 -0.2133 -0.6770  1.7433
 9500SOL     OW39961   2.167   2.140   4.805  0.3211  0.6540  0.0956
 9500SOL    HW139962   2.142   2.107   4.891 -0.9713  0.6127 -0.2943
 9500SOL    HW239963   2.260   2.118   4.810  0.3941  1.4189  1.9366
 9501SOL     OW39964   3.207   0.472   3.502 -0.2516  0.6893 -0.0073
 9501SOL    HW139965   3.183   0.481   3.594  1.0845  0.4528  0.3692
 9501SOL    HW239966   3.271   0.402   3.514  0.1490  1.3510  1.7318
 9502SOL     OW39967   2.318   4.255   9.830  0.1232 -0.1386 -0.0642
 9502SOL    HW139968   2.379   4.250   9.756 -0.4539 -0.2631 -0.5315
 9502SOL    HW239969   2.309   4.166   9.865 -0.4631 -0.5921 -1.3499
 9503SOL     OW39970   3.048   1.922   3.319 -0.7827  0.2861 -0.0766
 9503SOL    HW139971   2.982   1.940   3.251  3.0622 -0.4308 -3.9975
 9503SOL    HW239972   3.016   1.972   3.394  1.0069 -0.3337  1.0830
 9504SOL     OW39973   3.667   2.690  10.419 -0.2460  0.1230 -0.3100
 9504SOL    HW139974   3.757   2.720  10.430 -0.3223 -0.1538  1.0363
 9504SOL    HW239975   3.631   2.766  10.372  0.2150 -0.0276 -0.9070
 9505SOL     OW39976   1.403   1.636  10.822 -0.0037 -0.0303 -0.4542
 9505SOL    HW139977   1.414   1.728  10.796 -0.6371 -0.7569 -3.2317
 9505SOL    HW239978   1.374   1.656  10.911  1.2144  0.6726 -0.2086
 9506SOL     OW39979   2.009   2.009   3.668  0.6516 -0.1513 -0.4308
 9506SOL    HW139980   2.053   2.090   3.641 -1.2004  0.7507 -0.7518
 9506SOL    HW239981   2.037   2.001   3.759  0.3681 -0.8096 -0.4053
 9507SOL     OW39982   1.760   2.871   4.015 -0.0151  0.5516 -0.3669
 9507SOL    HW139983   1.837   2.841   3.966 -1.6134 -1.7001 -1.5440
 9507SOL    HW239984   1.775   2.964   3.999  2.9182  0.1909  0.4336
 9508SOL     OW39985   2.159   3.930   4.469 -0.6677  0.1335  0.1081
 9508SOL    HW139986   2.207   3.986   4.530  0.3217 -0.0760 -0.4744
 9508SOL    HW239987   2.209   3.936   4.388 -1.4900  1.1146 -0.3183
 9509SOL     OW39988   2.024   2.318   1.315  0.6594 -0.1502 -0.3809
 9509SOL    HW139989   2.094   2.381   1.332  0.7814 -0.6540  0.9564
 9509SOL    HW239990   2.010   2.340   1.223 -0.0955 -2.5482 -0.8492
 9510SOL     OW39991   1.702   3.513  17.597  0.6719  0.3876 -0.0672
 9510SOL    HW139992   1.743   3.594  17.627  1.2396 -0.4441  1.4012
 9510SOL    HW239993   1.611   3.539  17.608  0.7833  0.3526  0.8787
 9511SOL     OW39994   2.888   1.671   7.127  0.4898 -0.4264  0.3851
 9511SOL    HW139995   2.956   1.617   7.167  0.2585 -0.3107  0.9377
 9511SOL    HW239996   2.896   1.648   7.034 -0.8518  1.9751 -0.3444
 9512SOL     OW39997   2.351   1.430   9.101 -0.7554  0.5642 -0.4795
 9512SOL    HW139998   2.289   1.502   9.113 -0.5860  0.8876 -1.5561
 9512SOL    HW239999   2.326   1.407   9.012  0.2588  0.5962 -0.7678
 9513SOL     OW40000   1.621   2.394   3.228  0.1855 -0.2781 -0.4436
 9513SOL    HW140001   1.702   2.443   3.218 -0.9628  1.4618 -1.1009
 9513SOL    HW240002   1.562   2.462   3.262 -1.2258 -1.1786 -1.0828
 9514SOL     OW40003   2.401   2.194   3.525 -0.6186  0.2021 -0.3244
 9514SOL    HW140004   2.394   2.216   3.617 -1.6897 -2.6930  0.2923
 9514SOL    HW240005   2.474   2.132   3.530  0.0035  0.8558 -1.2107
 9515SOL     OW40006   4.686   0.432  16.299 -0.3472 -0.4403 -0.4307
 9515SOL    HW140007   4.607   0.436  16.352 -0.4633 -0.1861 -0.6199
 9515SOL    HW240008   4.664   0.361  16.239  0.8558 -2.1231  1.1139
 9516SOL     OW40009   3.848   4.194  11.159 -0.2159 -0.5890 -0.0699
 9516SOL    HW140010   3.840   4.181  11.065  0.9457  1.5476 -0.4667
 9516SOL    HW240011   3.919   4.132  11.176 -0.4866 -0.6422  0.8923
 9517SOL     OW40012   3.898   1.472  15.219 -0.0883 -0.4046  0.7424
 9517SOL    HW140013   3.844   1.408  15.266 -0.7929 -0.4845 -0.1867
 9517SOL    HW240014   3.932   1.536  15.282  0.6331 -2.2601  2.2670
 9518SOL     OW40015   2.024   0.109  16.340  0.3441  0.3566  0.2147
 9518SOL    HW140016   1.943   0.149  16.371  0.7149 -0.6536  2.4695
 9518SOL    HW240017   2.020   0.031  16.394 -0.7851 -0.6875 -1.3814
 9519SOL     OW40018   2.763   3.143   5.224 -0.2174  0.2097 -0.2108
 9519SOL    HW140019   2.727   3.124   5.138 -3.3303  3.4707  0.3848
 9519SOL    HW240020   2.754   3.059   5.270 -0.4698 -0.4679 -1.5154
 9520SOL     OW40021   1.993   4.163  12.789  0.0870  0.3442  0.0991
 9520SOL    HW140022   2.060   4.221  12.755 -0.3087  0.5510 -0.3266
 9520SOL    HW240023   2.033   4.126  12.868 -0.3505  1.1989  0.7301
 9521SOL     OW40024   1.746   0.539   9.071 -0.0079 -0.2640  0.1681
 9521SOL    HW140025   1.664   0.585   9.087  0.9322  1.4794 -0.0005
 9521SOL    HW240026   1.789   0.550   9.155 -1.6644 -0.3175  1.0260
 9522SOL     OW40027   2.889   2.239   3.222  0.0242 -0.1761  0.1580
 9522SOL    HW140028   2.860   2.202   3.139 -2.0360  0.7643  0.4726
 9522SOL    HW240029   2.829   2.314   3.228  1.5911  1.0981  0.1397
 9523SOL     OW40030   4.366   4.177   8.266 -0.0847  0.2832 -0.0919
 9523SOL    HW140031   4.395   4.180   8.357 -2.9384 -2.0007  0.9052
 9523SOL    HW240032   4.377   4.267   8.235 -1.7613  0.8614  0.9694
 9524SOL     OW40033   4.458   0.422   3.919  0.1573  0.1366  0.0252
 9524SOL    HW140034   4.537   0.391   3.875  1.3937  0.5271  1.9892
 9524SOL    HW240035   4.391   0.396   3.856  0.4019 -0.3503 -0.0320
 9525SOL     OW40036   2.502   1.521  12.341  0.1358 -0.3851  0.5157
 9525SOL    HW140037   2.589   1.536  12.305 -0.5991  0.5028 -0.8667
 9525SOL    HW240038   2.494   1.579  12.417 -1.4824  3.4972 -2.6381
 9526SOL     OW40039   2.448   1.905   8.446 -0.0422 -0.3559  0.3831
 9526SOL    HW140040   2.433   1.958   8.367 -1.7411  2.0451  2.3271
 9526SOL    HW240041   2.543   1.899   8.436  0.2448  3.4556  0.7406
 9527SOL     OW40042   0.456   4.144   0.622 -0.2115 -0.2589  0.3953
 9527SOL    HW140043   0.440   4.145   0.527 -1.6662 -0.0491  0.6405
 9527SOL    HW240044   0.505   4.226   0.635  0.9319 -0.9034  0.1611
 9528SOL     OW40045   2.274   3.410   1.173  0.1287  0.1037 -0.2428
 9528SOL    HW140046   2.196   3.438   1.126 -0.3367  1.3898  1.2823
 9528SOL    HW240047   2.234   3.399   1.260 -0.0696  0.8257 -0.2469
 9529SOL     OW40048   0.358   1.242   4.549  0.5171 -0.6451  0.3969
 9529SOL    HW140049   0.308   1.321   4.571 -0.2033 -1.3420  1.2626
 9529SOL    HW240050   0.331   1.188   4.623  0.0153 -0.5967  0.2540
 9530SOL     OW40051   4.682   4.603   6.451 -0.0391  0.2426  0.2006
 9530SOL    HW140052   4.635   4.674   6.406 -0.2775  0.6325  1.0657
 9530SOL    HW240053   0.046   4.639   6.449 -0.4175  1.1241 -0.7520
 9531SOL     OW40054   4.307   4.082  15.764 -0.1275 -0.0019 -0.1899
 9531SOL    HW140055   4.257   4.163  15.771  1.7936  1.3341 -2.0379
 9531SOL    HW240056   4.390   4.125  15.745 -1.1059  1.7331 -0.4932
 9532SOL     OW40057   2.880   2.291   9.105 -0.1364  0.2231  0.4892
 9532SOL    HW140058   2.849   2.349   9.175 -2.9114  0.8147 -1.2201
 9532SOL    HW240059   2.830   2.322   9.029 -0.4766  3.6437  2.1407
 9533SOL     OW40060   4.024   1.079  13.934 -0.3223 -0.3102  0.1273
 9533SOL    HW140061   3.961   1.150  13.942  2.0053  1.7931 -0.1994
 9533SOL    HW240062   3.968   1.004  13.912  0.2939 -0.5080 -0.7690
 9534SOL     OW40063   3.397   3.128   2.433  0.6809 -0.7950  0.6441
 9534SOL    HW140064   3.350   3.137   2.350  2.5216  2.1346 -0.0881
 9534SOL    HW240065   3.468   3.192   2.426 -1.4310  1.4263 -0.4101
 9535SOL     OW40066   4.582   2.520   9.251  0.6865  0.7130  0.8700
 9535SOL    HW140067   4.631   2.459   9.197  1.8798  1.4533  1.1267
 9535SOL    HW240068   4.650   2.565   9.301  2.0055 -1.4773  1.0470
 9536SOL     OW40069   3.885   2.405  12.430 -0.5290  0.2686  0.1185
 9536SOL    HW140070   3.862   2.379  12.519 -0.1867 -0.0531  0.1094
 9536SOL    HW240071   3.882   2.500  12.440  0.3290  0.3261 -0.1856
 9537SOL     OW40072   3.880   0.280   5.854 -0.0466 -0.2010  0.2693
 9537SOL    HW140073   3.902   0.358   5.906  0.8148 -0.2159 -0.0896
 9537SOL    HW240074   3.960   0.262   5.806 -0.2604 -0.6703  0.0933
 9538SOL     OW40075   0.854   4.502   3.429 -0.2590  0.5896  0.3650
 9538SOL    HW140076   0.890   4.477   3.344  0.1525 -0.3518  0.8114
 9538SOL    HW240077   0.938   4.509   3.475 -0.1758  3.1689 -0.1960
 9539SOL     OW40078   1.364   3.898   5.187  0.3466  0.6388 -0.0363
 9539SOL    HW140079   1.277   3.877   5.155  0.4077 -0.9753  0.8881
 9539SOL    HW240080   1.368   3.994   5.189  0.9984  0.6550 -1.5658
 9540SOL     OW40081   4.110   2.325   9.633 -0.4673  0.3257 -0.1887
 9540SOL    HW140082   4.041   2.271   9.595 -1.4456 -0.3275  2.5208
 9540SOL    HW240083   4.158   2.351   9.554  0.6062  2.6443  1.2324
 9541SOL     OW40084   4.387   0.675   6.810  0.0941  0.4076 -0.3479
 9541SOL    HW140085   4.318   0.609   6.819  0.3940  0.2739  1.0132
 9541SOL    HW240086   4.337   0.755   6.793  1.1510  0.9890 -0.6995
 9542SOL     OW40087   1.232   3.421   9.313 -0.6398  0.2869  0.1098
 9542SOL    HW140088   1.264   3.390   9.398  0.5849 -1.4578 -0.9938
 9542SOL    HW240089   1.171   3.356   9.280 -1.0022  0.3374  0.6841
 9543SOL     OW40090   0.258   4.516   7.768  0.0849  0.4343  0.3111
 9543SOL    HW140091   0.286   4.581   7.704 -2.9508  1.9054  0.5032
 9543SOL    HW240092   0.326   4.452   7.747 -1.1946 -0.4227 -1.1909
 9544SOL     OW40093   1.853   0.750   3.024  0.2520  0.2642 -0.1344
 9544SOL    HW140094   1.924   0.689   3.042 -0.2882  0.1298  1.4818
 9544SOL    HW240095   1.893   0.836   3.038  0.1940  0.3469 -0.4616
 9545SOL     OW40096   3.080   2.044   5.687  0.8739 -0.5391 -0.7378
 9545SOL    HW140097   3.009   1.980   5.691 -0.0036  0.3812 -1.4690
 9545SOL    HW240098   3.165   2.003   5.671  1.6224  2.0205 -3.2388
 9546SOL     OW40099   3.596   2.291   9.809 -0.0023 -0.2758  0.4512
 9546SOL    HW140100   3.613   2.375   9.851 -0.2001 -0.7952  1.5744
 9546SOL    HW240101   3.683   2.259   9.784 -0.2251  0.7974 -1.6746
 9547SOL     OW40102   3.072   1.206   7.892  0.0325 -0.1970  0.1015
 9547SOL    HW140103   3.031   1.134   7.940 -0.4290 -1.6490 -2.4415
 9547SOL    HW240104   2.990   1.255   7.882 -0.0039 -0.7843 -2.6122
 9548SOL     OW40105   3.875   1.118  15.036  0.3504 -0.2044 -0.0354
 9548SOL    HW140106   3.856   1.195  14.983  1.2284 -0.0141 -0.0866
 9548SOL    HW240107   3.792   1.087  15.071  0.7261 -0.6625  0.4753
 9549SOL     OW40108   4.721   2.126   6.933 -0.3877  0.2642 -0.1426
 9549SOL    HW140109   4.634   2.087   6.943  0.0028 -0.4163  0.6338
 9549SOL    HW240110   4.700   2.187   6.863  1.0221  1.0881  0.1590
 9550SOL     OW40111   3.749   3.084   4.018 -0.2187  0.6341  0.5470
 9550SOL    HW140112   3.793   3.096   4.103 -0.4038 -0.3588  0.7800
 9550SOL    HW240113   3.782   2.997   3.994 -0.8826  0.7812 -0.8975
 9551SOL     OW40114   3.993   1.451   5.207 -0.3520 -0.2813 -0.4929
 9551SOL    HW140115   3.987   1.437   5.302  0.7571 -1.9550 -0.6662
 9551SOL    HW240116   4.048   1.381   5.172  1.9319  0.4399  1.6589
 9552SOL     OW40117   3.391   0.718   3.503  0.3216  0.0214  0.2300
 9552SOL    HW140118   3.318   0.659   3.485 -1.0891  1.5714  0.8007
 9552SOL    HW240119   3.388   0.769   3.421 -1.6327 -2.4656 -1.2510
 9553SOL     OW40120   4.222   1.940  10.464  0.1005 -0.1496 -0.3547
 9553SOL    HW140121   4.285   2.012  10.467  0.4269 -0.4630  0.4145
 9553SOL    HW240122   4.207   1.923  10.557 -2.0209  0.7448 -0.5373
 9554SOL     OW40123   1.110   0.107   4.603 -0.3036  0.2790 -0.4028
 9554SOL    HW140124   1.043   0.171   4.627 -2.8312 -1.6919 -2.1728
 9554SOL    HW240125   1.077   0.091   4.515  0.0973  1.3028 -0.7420
 9555SOL     OW40126   4.718   1.327   6.695  0.6466  0.7759 -0.2043
 9555SOL    HW140127   4.701   1.358   6.606  2.0033 -2.1736 -1.5083
 9555SOL    HW240128   4.706   1.232   6.689  3.0468  0.4350  0.4043
 9556SOL     OW40129   4.008   3.849   9.507  0.5198  0.0606 -0.4309
 9556SOL    HW140130   3.949   3.773   9.505  0.0112  0.4538 -0.3946
 9556SOL    HW240131   4.003   3.869   9.601  1.4678  0.4287 -0.4624
 9557SOL     OW40132   4.062   1.861   0.225  0.4913  0.1635  0.8266
 9557SOL    HW140133   3.966   1.864   0.232  0.4175  0.8438 -0.4728
 9557SOL    HW240134   4.080   1.955   0.230  0.3346  0.1940  0.8250
 9558SOL     OW40135   3.657   1.037   8.994 -0.0304  0.0337  0.1810
 9558SOL    HW140136   3.698   1.005   8.914  1.7521 -0.3010  1.2485
 9558SOL    HW240137   3.631   1.128   8.978  0.3587  0.3469  1.3048
 9559SOL     OW40138   3.994   0.596   2.391  0.4843  0.0801 -0.1409
 9559SOL    HW140139   4.038   0.630   2.313  1.0215 -2.2558 -0.8635
 9559SOL    HW240140   3.963   0.514   2.353  1.2805 -0.2415 -0.0910
 9560SOL     OW40141   2.361   1.048   2.867  0.2845  0.1374 -0.1601
 9560SOL    HW140142   2.457   1.041   2.870  0.3267  0.0653 -1.4837
 9560SOL    HW240143   2.341   1.088   2.951 -2.1317  2.8567 -2.0355
 9561SOL     OW40144   2.422   3.177   9.148  0.1878  0.2416 -0.0888
 9561SOL    HW140145   2.421   3.097   9.097  0.2607 -0.1538  0.5305
 9561SOL    HW240146   2.461   3.239   9.086 -0.3563 -0.0093 -0.6839
 9562SOL     OW40147   0.906   2.490   7.340  0.7166 -0.0487  0.0436
 9562SOL    HW140148   0.932   2.582   7.340  0.2274  0.0898 -0.8247
 9562SOL    HW240149   0.946   2.472   7.425 -1.1319 -1.3814  0.6368
 9563SOL     OW40150   0.957   1.903   7.081  0.3878 -0.3257 -0.4793
 9563SOL    HW140151   0.973   1.819   7.125 -0.8520 -0.6193 -0.5961
 9563SOL    HW240152   0.862   1.905   7.095  0.2086 -2.5033 -1.4368
 9564SOL     OW40153   1.047   1.672   8.420  0.3022 -0.4838  0.6061
 9564SOL    HW140154   1.106   1.685   8.346 -1.6218 -1.6461 -1.1290
 9564SOL    HW240155   0.986   1.611   8.379  1.7299 -1.5548  0.0982
 9565SOL     OW40156   2.201   3.769   2.874 -0.0611 -0.2416  0.1326
 9565SOL    HW140157   2.288   3.801   2.899  0.3135  0.1052 -1.5949
 9565SOL    HW240158   2.219   3.723   2.792 -1.7871 -1.1571  0.2734
 9566SOL     OW40159   2.622   4.168   3.048  0.3317  0.1670  0.0709
 9566SOL    HW140160   2.575   4.184   2.966  2.0741  1.2998 -0.6919
 9566SOL    HW240161   2.681   4.102   3.012 -0.7213 -0.4307 -0.5574
 9567SOL     OW40162   3.293   3.268   3.763 -0.2980  0.0642  0.1786
 9567SOL    HW140163   3.266   3.186   3.720 -1.0277  0.9248 -0.9939
 9567SOL    HW240164   3.386   3.267   3.741 -0.2899 -1.8466  0.2330
 9568SOL     OW40165   4.141   4.573   1.282 -0.0882  0.0744  0.4450
 9568SOL    HW140166   4.081   4.534   1.345  1.0155  1.3120  2.2941
 9568SOL    HW240167   4.194   4.632   1.337 -2.4970  1.4627  1.2656
   4.72464   4.72464  17.70005
